<event>
 5    1  0.1334136E-008  0.3753004E+03  0.7957747E-01  0.3471880E+00
         13   -1    0    0    0    0  0.00000000000E+00  0.00000000000E+00  0.14999999963E+04  0.15000000000E+04  0.10566000000E+00 0. -1.
        994   -1    0    0    0    0 -0.00000000000E+00 -0.00000000000E+00  0.11368683772E-12  0.17120000000E+03  0.17120000000E+03 0.  0.
         13    1    1    2    0    0 -0.24611286974E+01  0.10535697493E+02  0.58812666406E+01  0.12314972085E+02  0.10566000000E+00 0. -1.
        994    1    1    2    0    0 -0.61847899565E+00 -0.14802297964E+02  0.72702052705E+01  0.17199356507E+03  0.17120000000E+03 0.  0.
        998    1    1    2    0    0  0.30796076930E+01  0.42666004712E+01  0.14868485244E+04  0.14868914628E+04  0.10000000000E+02 0. -1.
</event>
<event>
 5    1  0.1334136E-008  0.3845970E+03  0.7957747E-01  0.3431383E+00
         13   -1    0    0    0    0  0.00000000000E+00  0.00000000000E+00  0.14999999963E+04  0.15000000000E+04  0.10566000000E+00 0. -1.
        994   -1    0    0    0    0 -0.00000000000E+00 -0.00000000000E+00  0.11368683772E-12  0.17120000000E+03  0.17120000000E+03 0.  0.
         13    1    1    2    0    0 -0.80379597117E+01 -0.15577173431E+02  0.83969931105E+02  0.85780053755E+02  0.10566000000E+00 0. -1.
        994    1    1    2    0    0 -0.37480909240E+01  0.14382986991E+02  0.25581677203E+01  0.17186303478E+03  0.17120000000E+03 0.  0.
        998    1    1    2    0    0  0.11786050636E+02  0.11941864399E+01  0.14134718975E+04  0.14135569115E+04  0.10000000000E+02 0. -1.
</event>
<event>
 5    1  0.1334136E-008  0.3852214E+03  0.7957747E-01  0.3428734E+00
         13   -1    0    0    0    0  0.00000000000E+00  0.00000000000E+00  0.14999999963E+04  0.15000000000E+04  0.10566000000E+00 0.  1.
        994   -1    0    0    0    0 -0.00000000000E+00 -0.00000000000E+00  0.11368683772E-12  0.17120000000E+03  0.17120000000E+03 0.  0.
         13    1    1    2    0    0  0.11038183880E+02 -0.20252915859E+01  0.44675252126E+02  0.46063354480E+02  0.10566000000E+00 0.  1.
        994    1    1    2    0    0  0.54419217172E+01 -0.43173250797E+01  0.16788382253E+01  0.17134909485E+03  0.17120000000E+03 0.  0.
        998    1    1    2    0    0 -0.16480105597E+02  0.63426166657E+01  0.14536459059E+04  0.14537875507E+04  0.10000000000E+02 0.  1.
</event>
<event>
 5    1  0.1334136E-008  0.3850527E+03  0.7957747E-01  0.3429449E+00
         13   -1    0    0    0    0  0.00000000000E+00  0.00000000000E+00  0.14999999963E+04  0.15000000000E+04  0.10566000000E+00 0.  1.
        994   -1    0    0    0    0 -0.00000000000E+00 -0.00000000000E+00  0.11368683772E-12  0.17120000000E+03  0.17120000000E+03 0.  0.
         13    1    1    2    0    0  0.11975845526E+02  0.69652699329E+01  0.58785473810E+02  0.60396017719E+02  0.10566000000E+00 0.  1.
        994    1    1    2    0    0 -0.84588972802E+01 -0.96790679430E+01  0.21474783415E+01  0.17169533763E+03  0.17120000000E+03 0.  0.
        998    1    1    2    0    0 -0.35169482456E+01  0.27137980101E+01  0.14390670441E+04  0.14391086447E+04  0.10000000000E+02 0.  1.
</event>
<event>
 5    1  0.1334136E-008  0.3772932E+03  0.7957747E-01  0.3463030E+00
         13   -1    0    0    0    0  0.00000000000E+00  0.00000000000E+00  0.14999999963E+04  0.15000000000E+04  0.10566000000E+00 0.  1.
        994   -1    0    0    0    0 -0.00000000000E+00 -0.00000000000E+00  0.11368683772E-12  0.17120000000E+03  0.17120000000E+03 0.  0.
         13    1    1    2    0    0  0.79786435953E+01  0.57754948564E+02  0.10249571576E+03  0.11791808916E+03  0.10566000000E+00 0.  1.
        994    1    1    2    0    0 -0.20857775576E+02 -0.55782520786E+02  0.27685699462E+02  0.18336486681E+03  0.17120000000E+03 0.  0.
        998    1    1    2    0    0  0.12879131981E+02 -0.19724277786E+01  0.13698185811E+04  0.13699170440E+04  0.10000000000E+02 0.  1.
</event>
<event>
 5    1  0.1334136E-008  0.3751867E+03  0.7957747E-01  0.3472388E+00
         13   -1    0    0    0    0  0.00000000000E+00  0.00000000000E+00  0.14999999963E+04  0.15000000000E+04  0.10566000000E+00 0.  1.
        994   -1    0    0    0    0 -0.00000000000E+00 -0.00000000000E+00  0.11368683772E-12  0.17120000000E+03  0.17120000000E+03 0.  0.
         13    1    1    2    0    0  0.98160448664E+01  0.15019239681E+02  0.22304955200E+02  0.28626115488E+02  0.10566000000E+00 0.  1.
        994    1    1    2    0    0 -0.36815564056E+01  0.16176863069E+01  0.66378269617E+01  0.17137581951E+03  0.17120000000E+03 0.  0.
        998    1    1    2    0    0 -0.61344884607E+01 -0.16636925988E+02  0.14710572141E+04  0.14711980650E+04  0.10000000000E+02 0.  1.
</event>
<event>
 5    1  0.1334136E-008  0.3830497E+03  0.7957747E-01  0.3437986E+00
         13   -1    0    0    0    0  0.00000000000E+00  0.00000000000E+00  0.14999999963E+04  0.15000000000E+04  0.10566000000E+00 0.  1.
        994   -1    0    0    0    0 -0.00000000000E+00 -0.00000000000E+00  0.11368683772E-12  0.17120000000E+03  0.17120000000E+03 0.  0.
         13    1    1    2    0    0  0.21979043027E+02  0.95324079635E+01  0.10931623939E+03  0.11191066300E+03  0.10566000000E+00 0.  1.
        994    1    1    2    0    0 -0.11675333347E+02 -0.11069873168E+02  0.34587008481E+01  0.17198912208E+03  0.17120000000E+03 0.  0.
        998    1    1    2    0    0 -0.10303709680E+02  0.15374652050E+01  0.13872250560E+04  0.13873002149E+04  0.10000000000E+02 0.  1.
</event>
<event>
 5    1  0.1334136E-008  0.3841349E+03  0.7957747E-01  0.3433349E+00
         13   -1    0    0    0    0  0.00000000000E+00  0.00000000000E+00  0.14999999963E+04  0.15000000000E+04  0.10566000000E+00 0. -1.
        994   -1    0    0    0    0 -0.00000000000E+00 -0.00000000000E+00  0.11368683772E-12  0.17120000000E+03  0.17120000000E+03 0.  0.
         13    1    1    2    0    0 -0.84295576083E+01  0.66237215098E+01  0.26624616559E+02  0.28702134051E+02  0.10566000000E+00 0. -1.
        994    1    1    2    0    0  0.91135540938E+01 -0.11309112353E+02  0.27562376861E+01  0.17183710233E+03  0.17120000000E+03 0.  0.
        998    1    1    2    0    0 -0.68399648553E+00  0.46853908433E+01  0.14706191420E+04  0.14706607636E+04  0.10000000000E+02 0. -1.
</event>
<event>
 5    1  0.1334136E-008  0.3824586E+03  0.7957747E-01  0.3440523E+00
         13   -1    0    0    0    0  0.00000000000E+00  0.00000000000E+00  0.14999999963E+04  0.15000000000E+04  0.10566000000E+00 0.  1.
        994   -1    0    0    0    0 -0.00000000000E+00 -0.00000000000E+00  0.11368683772E-12  0.17120000000E+03  0.17120000000E+03 0.  0.
         13    1    1    2    0    0 -0.43633527829E+02 -0.58596572055E+02  0.13613951985E+03  0.15450379619E+03  0.10566000000E+00 0.  1.
        994    1    1    2    0    0  0.44852288340E+02  0.48814542329E+02  0.33934970910E+02  0.18669657084E+03  0.17120000000E+03 0.  0.
        998    1    1    2    0    0 -0.12187605112E+01  0.97820297256E+01  0.13299255055E+04  0.13299996330E+04  0.10000000000E+02 0.  1.
</event>
<event>
 5    1  0.1334136E-008  0.3770141E+03  0.7957747E-01  0.3464264E+00
         13   -1    0    0    0    0  0.00000000000E+00  0.00000000000E+00  0.14999999963E+04  0.15000000000E+04  0.10566000000E+00 0. -1.
        994   -1    0    0    0    0 -0.00000000000E+00 -0.00000000000E+00  0.11368683772E-12  0.17120000000E+03  0.17120000000E+03 0.  0.
         13    1    1    2    0    0  0.16759575518E+02 -0.49822941978E+02  0.21291605416E+03  0.21930906548E+03  0.10566000000E+00 0. -1.
        994    1    1    2    0    0 -0.33689832375E+02  0.42141037196E+02  0.15539811471E+02  0.18017157812E+03  0.17120000000E+03 0.  0.
        998    1    1    2    0    0  0.16930256857E+02  0.76819047817E+01  0.12715441306E+04  0.12717193564E+04  0.10000000000E+02 0. -1.
</event>
<event>
 5    1  0.1334136E-008  0.3735270E+03  0.7957747E-01  0.3479837E+00
         13   -1    0    0    0    0  0.00000000000E+00  0.00000000000E+00  0.14999999963E+04  0.15000000000E+04  0.10566000000E+00 0.  1.
        994   -1    0    0    0    0 -0.00000000000E+00 -0.00000000000E+00  0.11368683772E-12  0.17120000000E+03  0.17120000000E+03 0.  0.
         13    1    1    2    0    0  0.26164793961E+02  0.40693543959E+02  0.13899161762E+03  0.14717079158E+03  0.10566000000E+00 0.  1.
        994    1    1    2    0    0 -0.34103804278E+02 -0.39698634837E+02  0.16852584406E+02  0.17981240412E+03  0.17120000000E+03 0.  0.
        998    1    1    2    0    0  0.79390103174E+01 -0.99490912180E+00  0.13441557943E+04  0.13442168043E+04  0.10000000000E+02 0.  1.
</event>
<event>
 5    1  0.1334136E-008  0.3843094E+03  0.7957747E-01  0.3432606E+00
         13   -1    0    0    0    0  0.00000000000E+00  0.00000000000E+00  0.14999999963E+04  0.15000000000E+04  0.10566000000E+00 0. -1.
        994   -1    0    0    0    0 -0.00000000000E+00 -0.00000000000E+00  0.11368683772E-12  0.17120000000E+03  0.17120000000E+03 0.  0.
         13    1    1    2    0    0  0.15724598957E+02 -0.53227849807E+00  0.63632618448E+02  0.65548971215E+02  0.10566000000E+00 0. -1.
        994    1    1    2    0    0 -0.71467720117E+01 -0.53357731329E+01  0.22356098889E+01  0.17144674035E+03  0.17120000000E+03 0.  0.
        998    1    1    2    0    0 -0.85778269455E+01  0.58680516310E+01  0.14341317679E+04  0.14342042884E+04  0.10000000000E+02 0. -1.
</event>
<event>
 5    1  0.1334136E-008  0.3808143E+03  0.7957747E-01  0.3447620E+00
         13   -1    0    0    0    0  0.00000000000E+00  0.00000000000E+00  0.14999999963E+04  0.15000000000E+04  0.10566000000E+00 0.  1.
        994   -1    0    0    0    0 -0.00000000000E+00 -0.00000000000E+00  0.11368683772E-12  0.17120000000E+03  0.17120000000E+03 0.  0.
         13    1    1    2    0    0 -0.25394472706E+02  0.30441375209E+01  0.10277824534E+03  0.10591281743E+03  0.10566000000E+00 0.  1.
        994    1    1    2    0    0 -0.11043508416E+02  0.27361454433E+02  0.66306254982E+01  0.17385054921E+03  0.17120000000E+03 0.  0.
        998    1    1    2    0    0  0.36437981122E+02 -0.30405591954E+02  0.13905911254E+04  0.13914366334E+04  0.10000000000E+02 0.  1.
</event>
<event>
 5    1  0.1334136E-008  0.3764904E+03  0.7957747E-01  0.3466584E+00
         13   -1    0    0    0    0  0.00000000000E+00  0.00000000000E+00  0.14999999963E+04  0.15000000000E+04  0.10566000000E+00 0. -1.
        994   -1    0    0    0    0 -0.00000000000E+00 -0.00000000000E+00  0.11368683772E-12  0.17120000000E+03  0.17120000000E+03 0.  0.
         13    1    1    2    0    0  0.15156667785E+02  0.11810484394E+02  0.28146128101E+02  0.34079727274E+02  0.10566000000E+00 0. -1.
        994    1    1    2    0    0 -0.22559435313E+02 -0.54788299060E+01  0.77403072882E+01  0.17294015744E+03  0.17120000000E+03 0.  0.
        998    1    1    2    0    0  0.74027675283E+01 -0.63316544883E+01  0.14641135609E+04  0.14641801153E+04  0.10000000000E+02 0. -1.
</event>
<event>
 5    1  0.1334136E-008  0.3754185E+03  0.7957747E-01  0.3471353E+00
         13   -1    0    0    0    0  0.00000000000E+00  0.00000000000E+00  0.14999999963E+04  0.15000000000E+04  0.10566000000E+00 0. -1.
        994   -1    0    0    0    0 -0.00000000000E+00 -0.00000000000E+00  0.11368683772E-12  0.17120000000E+03  0.17120000000E+03 0.  0.
         13    1    1    2    0    0 -0.10561673779E+01  0.12461330867E+02  0.88800398980E+01  0.15338400475E+02  0.10566000000E+00 0. -1.
        994    1    1    2    0    0  0.66046618408E+01 -0.22836456242E+02  0.83846085893E+01  0.17304585217E+03  0.17120000000E+03 0.  0.
        998    1    1    2    0    0 -0.55484944629E+01  0.10375125375E+02  0.14827353478E+04  0.14828157474E+04  0.10000000000E+02 0. -1.
</event>
<event>
 5    1  0.1334136E-008  0.3793216E+03  0.7957747E-01  0.3454118E+00
         13   -1    0    0    0    0  0.00000000000E+00  0.00000000000E+00  0.14999999963E+04  0.15000000000E+04  0.10566000000E+00 0. -1.
        994   -1    0    0    0    0 -0.00000000000E+00 -0.00000000000E+00  0.11368683772E-12  0.17120000000E+03  0.17120000000E+03 0.  0.
         13    1    1    2    0    0  0.31724129214E+02  0.14772130894E+02  0.11685481011E+03  0.12198235133E+03  0.10566000000E+00 0. -1.
        994    1    1    2    0    0 -0.46161291779E+02 -0.15958390985E+02  0.12510404652E+02  0.17846984430E+03  0.17120000000E+03 0.  0.
        998    1    1    2    0    0  0.14437162565E+02  0.11862600908E+01  0.13706347815E+04  0.13707478044E+04  0.10000000000E+02 0. -1.
</event>
<event>
 5    1  0.1700023E-008  0.3862515E+03  0.7957747E-01  0.3424382E+00
         13   -1    0    0    0    0  0.00000000000E+00  0.00000000000E+00  0.14999999963E+04  0.15000000000E+04  0.10566000000E+00 0. -1.
        994   -1    0    0    0    0 -0.00000000000E+00 -0.00000000000E+00  0.11368683772E-12  0.17120000000E+03  0.17120000000E+03 0.  0.
         13    1    1    2    0    0  0.13410734886E+01  0.10600666618E+02  0.58579784999E+02  0.59546410349E+02  0.10566000000E+00 0. -1.
        994    1    1    2    0    0 -0.32409121108E+01 -0.42417166509E+01  0.11033826057E+01  0.17128675700E+03  0.17120000000E+03 0.  0.
        998    1    1    2    0    0  0.18998386222E+01 -0.63589499675E+01  0.14403168287E+04  0.14403668326E+04  0.10000000000E+02 0. -1.
</event>
<event>
 5    1  0.1334136E-008  0.3748764E+03  0.7957747E-01  0.3473776E+00
         13   -1    0    0    0    0  0.00000000000E+00  0.00000000000E+00  0.14999999963E+04  0.15000000000E+04  0.10566000000E+00 0.  1.
        994   -1    0    0    0    0 -0.00000000000E+00 -0.00000000000E+00  0.11368683772E-12  0.17120000000E+03  0.17120000000E+03 0.  0.
         13    1    1    2    0    0 -0.17131571051E+03 -0.35521632996E+02  0.86738332392E+03  0.88485292612E+03  0.10566000000E+00 0.  1.
        994    1    1    2    0    0  0.16835469859E+03  0.30929858539E+02  0.11397669591E+03  0.26758192745E+03  0.17120000000E+03 0.  0.
        998    1    1    2    0    0  0.29610119249E+01  0.45917744572E+01  0.51863997645E+03  0.51876514644E+03  0.10000000000E+02 0.  1.
</event>
<event>
 5    1  0.1334136E-008  0.3735279E+03  0.7957747E-01  0.3479833E+00
         13   -1    0    0    0    0  0.00000000000E+00  0.00000000000E+00  0.14999999963E+04  0.15000000000E+04  0.10566000000E+00 0.  1.
        994   -1    0    0    0    0 -0.00000000000E+00 -0.00000000000E+00  0.11368683772E-12  0.17120000000E+03  0.17120000000E+03 0.  0.
         13    1    1    2    0    0  0.19818227866E+02 -0.15782645924E+01  0.23106636416E+02  0.30482468492E+02  0.10566000000E+00 0.  1.
        994    1    1    2    0    0 -0.19992551180E+02 -0.43263590561E+01  0.88673309791E+01  0.17264555900E+03  0.17120000000E+03 0.  0.
        998    1    1    2    0    0  0.17432331393E+00  0.59046236485E+01  0.14680260289E+04  0.14680719725E+04  0.10000000000E+02 0.  1.
</event>
<event>
 5    1  0.1334136E-008  0.4366677E+03  0.7957747E-01  0.3236319E+00
         13   -1    0    0    0    0  0.00000000000E+00  0.00000000000E+00  0.14999999963E+04  0.15000000000E+04  0.10566000000E+00 0. -1.
        994   -1    0    0    0    0 -0.00000000000E+00 -0.00000000000E+00  0.11368683772E-12  0.17120000000E+03  0.17120000000E+03 0.  0.
         13    1    1    2    0    0  0.85089739363E+02 -0.97406721623E+02  0.17809468269E+03  0.22010465767E+03  0.10566000000E+00 0. -1.
        994    1    1    2    0    0 -0.38248352171E+02  0.22878847516E+02  0.61068823351E+02  0.18715025860E+03  0.17120000000E+03 0.  0.
        998    1    1    2    0    0 -0.46841387192E+02  0.74527874107E+02  0.12608364902E+04  0.12639450837E+04  0.10000000000E+02 0. -1.
</event>
<event>
 5    1  0.1334136E-008  0.3703841E+03  0.7957747E-01  0.3494127E+00
         13   -1    0    0    0    0  0.00000000000E+00  0.00000000000E+00  0.14999999963E+04  0.15000000000E+04  0.10566000000E+00 0. -1.
        994   -1    0    0    0    0 -0.00000000000E+00 -0.00000000000E+00  0.11368683772E-12  0.17120000000E+03  0.17120000000E+03 0.  0.
         13    1    1    2    0    0  0.41439217870E+01  0.55525691256E+02  0.12838180582E+03  0.13993632018E+03  0.10566000000E+00 0. -1.
        994    1    1    2    0    0 -0.92886342400E+01 -0.47511554220E+02  0.19391800341E+02  0.17896678024E+03  0.17120000000E+03 0.  0.
        998    1    1    2    0    0  0.51447124530E+01 -0.80141370354E+01  0.13522263901E+04  0.13522968996E+04  0.10000000000E+02 0. -1.
</event>
<event>
 5    1  0.1334136E-008  0.3838365E+03  0.7957747E-01  0.3434622E+00
         13   -1    0    0    0    0  0.00000000000E+00  0.00000000000E+00  0.14999999963E+04  0.15000000000E+04  0.10566000000E+00 0. -1.
        994   -1    0    0    0    0 -0.00000000000E+00 -0.00000000000E+00  0.11368683772E-12  0.17120000000E+03  0.17120000000E+03 0.  0.
         13    1    1    2    0    0 -0.58121401296E+01 -0.10158551030E+02  0.29914704915E+02  0.32122855821E+02  0.10566000000E+00 0. -1.
        994    1    1    2    0    0 -0.28937397701E+01  0.15359045980E+02  0.30156606971E+01  0.17193838499E+03  0.17120000000E+03 0.  0.
        998    1    1    2    0    0  0.87058798998E+01 -0.52004949497E+01  0.14670696307E+04  0.14671387592E+04  0.10000000000E+02 0. -1.
</event>
<event>
 5    1  0.1334136E-008  0.3774507E+03  0.7957747E-01  0.3462334E+00
         13   -1    0    0    0    0  0.00000000000E+00  0.00000000000E+00  0.14999999963E+04  0.15000000000E+04  0.10566000000E+00 0.  1.
        994   -1    0    0    0    0 -0.00000000000E+00 -0.00000000000E+00  0.11368683772E-12  0.17120000000E+03  0.17120000000E+03 0.  0.
         13    1    1    2    0    0 -0.22306135788E+01  0.46055056233E+02  0.16551554832E+03  0.17181807745E+03  0.10566000000E+00 0.  1.
        994    1    1    2    0    0 -0.16296415142E+02 -0.55523290140E+02  0.16798640407E+02  0.18149392060E+03  0.17120000000E+03 0.  0.
        998    1    1    2    0    0  0.18527028721E+02  0.94682339074E+01  0.13176858076E+04  0.13178880019E+04  0.10000000000E+02 0.  1.
</event>
<event>
 5    1  0.1334136E-008  0.3823245E+03  0.7957747E-01  0.3441099E+00
         13   -1    0    0    0    0  0.00000000000E+00  0.00000000000E+00  0.14999999963E+04  0.15000000000E+04  0.10566000000E+00 0. -1.
        994   -1    0    0    0    0 -0.00000000000E+00 -0.00000000000E+00  0.11368683772E-12  0.17120000000E+03  0.17120000000E+03 0.  0.
         13    1    1    2    0    0  0.11331493454E+02  0.21068706858E+02  0.10365438764E+03  0.10637921035E+03  0.10566000000E+00 0. -1.
        994    1    1    2    0    0  0.20522456568E+02 -0.13629483655E+02  0.49804060211E+01  0.17303519438E+03  0.17120000000E+03 0.  0.
        998    1    1    2    0    0 -0.31853950022E+02 -0.74392232025E+01  0.13913652026E+04  0.13917855953E+04  0.10000000000E+02 0. -1.
</event>
<event>
 5    1  0.1334136E-008  0.3824630E+03  0.7957747E-01  0.3440503E+00
         13   -1    0    0    0    0  0.00000000000E+00  0.00000000000E+00  0.14999999963E+04  0.15000000000E+04  0.10566000000E+00 0.  1.
        994   -1    0    0    0    0 -0.00000000000E+00 -0.00000000000E+00  0.11368683772E-12  0.17120000000E+03  0.17120000000E+03 0.  0.
         13    1    1    2    0    0 -0.19893844238E+01  0.16582462958E+02  0.46847708754E+02  0.49735849321E+02  0.10566000000E+00 0.  1.
        994    1    1    2    0    0 -0.64216164316E+01 -0.13843256502E+02  0.36675201645E+01  0.17191789788E+03  0.17120000000E+03 0.  0.
        998    1    1    2    0    0  0.84110008554E+01 -0.27392064559E+01  0.14494847674E+04  0.14495462528E+04  0.10000000000E+02 0.  1.
</event>
<event>
 5    1  0.1334136E-008  0.3745521E+03  0.7957747E-01  0.3475228E+00
         13   -1    0    0    0    0  0.00000000000E+00  0.00000000000E+00  0.14999999963E+04  0.15000000000E+04  0.10566000000E+00 0.  1.
        994   -1    0    0    0    0 -0.00000000000E+00 -0.00000000000E+00  0.11368683772E-12  0.17120000000E+03  0.17120000000E+03 0.  0.
         13    1    1    2    0    0  0.90974730269E+01 -0.25758178359E+02  0.23254536037E+02  0.35875233493E+02  0.10566000000E+00 0.  1.
        994    1    1    2    0    0 -0.21292331140E+02 -0.44463021353E+01  0.15048978327E+02  0.17323118864E+03  0.17120000000E+03 0.  0.
        998    1    1    2    0    0  0.12194858113E+02  0.30204480494E+02  0.14616964819E+04  0.14620935779E+04  0.10000000000E+02 0.  1.
</event>
<event>
 5    1  0.1334136E-008  0.3705584E+03  0.7957747E-01  0.3493329E+00
         13   -1    0    0    0    0  0.00000000000E+00  0.00000000000E+00  0.14999999963E+04  0.15000000000E+04  0.10566000000E+00 0.  1.
        994   -1    0    0    0    0 -0.00000000000E+00 -0.00000000000E+00  0.11368683772E-12  0.17120000000E+03  0.17120000000E+03 0.  0.
         13    1    1    2    0    0 -0.13121913225E+02 -0.10673708806E+03  0.44230255237E+03  0.45518847697E+03  0.10566000000E+00 0.  1.
        994    1    1    2    0    0 -0.13592705395E+02  0.11101206472E+03  0.53468949618E+02  0.21136889252E+03  0.17120000000E+03 0.  0.
        998    1    1    2    0    0  0.26714618619E+02 -0.42749766640E+01  0.10042284943E+04  0.10046426305E+04  0.10000000000E+02 0.  0.
</event>
<event>
 5    1  0.1334136E-008  0.3811279E+03  0.7957747E-01  0.3446262E+00
         13   -1    0    0    0    0  0.00000000000E+00  0.00000000000E+00  0.14999999963E+04  0.15000000000E+04  0.10566000000E+00 0. -1.
        994   -1    0    0    0    0 -0.00000000000E+00 -0.00000000000E+00  0.11368683772E-12  0.17120000000E+03  0.17120000000E+03 0.  0.
         13    1    1    2    0    0 -0.39322579630E+01  0.15126569412E+02  0.33211487608E+02  0.36705446844E+02  0.10566000000E+00 0. -1.
        994    1    1    2    0    0  0.11402192107E+01 -0.78180267984E+01  0.37727805745E+01  0.17142373090E+03  0.17120000000E+03 0.  0.
        998    1    1    2    0    0  0.27920387523E+01 -0.73085426137E+01  0.14630157281E+04  0.14630708223E+04  0.10000000000E+02 0. -1.
</event>
<event>
 5    1  0.1334136E-008  0.3827195E+03  0.7957747E-01  0.3439402E+00
         13   -1    0    0    0    0  0.00000000000E+00  0.00000000000E+00  0.14999999963E+04  0.15000000000E+04  0.10566000000E+00 0.  1.
        994   -1    0    0    0    0 -0.00000000000E+00 -0.00000000000E+00  0.11368683772E-12  0.17120000000E+03  0.17120000000E+03 0.  0.
         13    1    1    2    0    0  0.41280202023E+00 -0.13226351170E+02  0.30173092567E+02  0.32947434648E+02  0.10566000000E+00 0.  1.
        994    1    1    2    0    0 -0.33291972475E+01  0.13659913644E+02  0.34218345485E+01  0.17181043550E+03  0.17120000000E+03 0.  0.
        998    1    1    2    0    0  0.29163952272E+01 -0.43356247431E+00  0.14664050692E+04  0.14664421299E+04  0.10000000000E+02 0.  1.
</event>
<event>
 5    1  0.1334136E-008  0.3747988E+03  0.7957747E-01  0.3474123E+00
         13   -1    0    0    0    0  0.00000000000E+00  0.00000000000E+00  0.14999999963E+04  0.15000000000E+04  0.10566000000E+00 0. -1.
        994   -1    0    0    0    0 -0.00000000000E+00 -0.00000000000E+00  0.11368683772E-12  0.17120000000E+03  0.17120000000E+03 0.  0.
         13    1    1    2    0    0  0.12807476914E+01  0.10687763263E+02  0.53635593256E+01  0.12026950191E+02  0.10566000000E+00 0. -1.
        994    1    1    2    0    0  0.75214761797E+00 -0.12102595650E+02  0.72823937290E+01  0.17178332808E+03  0.17120000000E+03 0.  0.
        998    1    1    2    0    0 -0.20328953094E+01  0.14148323874E+01  0.14873540432E+04  0.14873897217E+04  0.10000000000E+02 0. -1.
</event>
<event>
 5    1  0.1334136E-008  0.3847274E+03  0.7957747E-01  0.3430829E+00
         13   -1    0    0    0    0  0.00000000000E+00  0.00000000000E+00  0.14999999963E+04  0.15000000000E+04  0.10566000000E+00 0.  1.
        994   -1    0    0    0    0 -0.00000000000E+00 -0.00000000000E+00  0.11368683772E-12  0.17120000000E+03  0.17120000000E+03 0.  0.
         13    1    1    2    0    0  0.99238228630E+01 -0.16108541905E+02  0.10406161960E+03  0.10576766623E+03  0.10566000000E+00 0.  1.
        994    1    1    2    0    0 -0.90659229693E+01  0.44603849312E+01  0.21016135697E+01  0.17151076576E+03  0.17120000000E+03 0.  0.
        998    1    1    2    0    0 -0.85789989363E+00  0.11648156974E+02  0.13938367631E+04  0.13939215680E+04  0.10000000000E+02 0.  1.
</event>
<event>
 5    1  0.1334136E-008  0.3757980E+03  0.7957747E-01  0.3469661E+00
         13   -1    0    0    0    0  0.00000000000E+00  0.00000000000E+00  0.14999999963E+04  0.15000000000E+04  0.10566000000E+00 0.  1.
        994   -1    0    0    0    0 -0.00000000000E+00 -0.00000000000E+00  0.11368683772E-12  0.17120000000E+03  0.17120000000E+03 0.  0.
         13    1    1    2    0    0 -0.13294211275E+03 -0.67724809228E+02  0.82087116238E+03  0.83431992157E+03  0.10566000000E+00 0.  1.
        994    1    1    2    0    0  0.12273180668E+03  0.74070381732E+02  0.79461081003E+02  0.23700848342E+03  0.17120000000E+03 0.  0.
        998    1    1    2    0    0  0.10210306070E+02 -0.63455725045E+01  0.59966775289E+03  0.59987159501E+03  0.10000000000E+02 0.  1.
</event>
<event>
 5    1  0.1334136E-008  0.3832676E+03  0.7957747E-01  0.3437053E+00
         13   -1    0    0    0    0  0.00000000000E+00  0.00000000000E+00  0.14999999963E+04  0.15000000000E+04  0.10566000000E+00 0.  1.
        994   -1    0    0    0    0 -0.00000000000E+00 -0.00000000000E+00  0.11368683772E-12  0.17120000000E+03  0.17120000000E+03 0.  0.
         13    1    1    2    0    0 -0.19689143945E+02 -0.13432444380E+02  0.12707500388E+03  0.12929099244E+03  0.10566000000E+00 0.  1.
        994    1    1    2    0    0 -0.81306963306E+01  0.10906643290E+02  0.31049787621E+01  0.17176770355E+03  0.17120000000E+03 0.  0.
        998    1    1    2    0    0  0.27819840276E+02  0.25258010905E+01  0.13698200136E+04  0.13701413040E+04  0.10000000000E+02 0.  1.
</event>
<event>
 5    1  0.1334136E-008  0.3830137E+03  0.7957747E-01  0.3438140E+00
         13   -1    0    0    0    0  0.00000000000E+00  0.00000000000E+00  0.14999999963E+04  0.15000000000E+04  0.10566000000E+00 0.  1.
        994   -1    0    0    0    0 -0.00000000000E+00 -0.00000000000E+00  0.11368683772E-12  0.17120000000E+03  0.17120000000E+03 0.  0.
         13    1    1    2    0    0 -0.44821966433E+01 -0.13828737680E+02  0.39215669669E+02  0.41823486036E+02  0.10566000000E+00 0.  1.
        994    1    1    2    0    0 -0.18694784619E+01  0.12806213920E+02  0.31741306718E+01  0.17171781844E+03  0.17120000000E+03 0.  0.
        998    1    1    2    0    0  0.63516751052E+01  0.10225237604E+01  0.14576101959E+04  0.14576586955E+04  0.10000000000E+02 0.  1.
</event>
<event>
 5    1  0.1334136E-008  0.3897365E+03  0.7957747E-01  0.3409829E+00
         13   -1    0    0    0    0  0.00000000000E+00  0.00000000000E+00  0.14999999963E+04  0.15000000000E+04  0.10566000000E+00 0. -1.
        994   -1    0    0    0    0 -0.00000000000E+00 -0.00000000000E+00  0.11368683772E-12  0.17120000000E+03  0.17120000000E+03 0.  0.
         13    1    1    2    0    0  0.50738841404E+02 -0.21480144098E+02  0.60746706654E+02  0.82012195135E+02  0.10566000000E+00 0. -1.
        994    1    1    2    0    0 -0.40702368477E+02  0.28236227360E+02  0.31062583794E+02  0.18090962232E+03  0.17120000000E+03 0.  0.
        998    1    1    2    0    0 -0.10036472927E+02 -0.67560832617E+01  0.14081907058E+04  0.14082781825E+04  0.10000000000E+02 0. -1.
</event>
<event>
 5    1  0.1334136E-008  0.3796626E+03  0.7957747E-01  0.3452629E+00
         13   -1    0    0    0    0  0.00000000000E+00  0.00000000000E+00  0.14999999963E+04  0.15000000000E+04  0.10566000000E+00 0.  1.
        994   -1    0    0    0    0 -0.00000000000E+00 -0.00000000000E+00  0.11368683772E-12  0.17120000000E+03  0.17120000000E+03 0.  0.
         13    1    1    2    0    0 -0.87821365266E+01  0.15595296728E+03  0.48956473483E+03  0.51387945539E+03  0.10566000000E+00 0.  1.
        994    1    1    2    0    0  0.18610779937E+02 -0.15024737437E+03  0.10456587701E+03  0.25132468496E+03  0.17120000000E+03 0.  0.
        998    1    1    2    0    0 -0.98286434102E+01 -0.57055929055E+01  0.90586938445E+03  0.90599585965E+03  0.10000000000E+02 0.  0.
</event>
<event>
 5    1  0.1334136E-008  0.3848615E+03  0.7957747E-01  0.3430260E+00
         13   -1    0    0    0    0  0.00000000000E+00  0.00000000000E+00  0.14999999963E+04  0.15000000000E+04  0.10566000000E+00 0.  1.
        994   -1    0    0    0    0 -0.00000000000E+00 -0.00000000000E+00  0.11368683772E-12  0.17120000000E+03  0.17120000000E+03 0.  0.
         13    1    1    2    0    0 -0.88194921004E+01 -0.13892656169E+02  0.76023133597E+02  0.77783785857E+02  0.10566000000E+00 0.  1.
        994    1    1    2    0    0  0.17664446938E+02  0.99157619974E+01  0.30502123800E+01  0.17242128296E+03  0.17120000000E+03 0.  0.
        998    1    1    2    0    0 -0.88449548373E+01  0.39768941711E+01  0.14209266503E+04  0.14209949312E+04  0.10000000000E+02 0.  1.
</event>
<event>
 5    1  0.1334136E-008  0.3831253E+03  0.7957747E-01  0.3437662E+00
         13   -1    0    0    0    0  0.00000000000E+00  0.00000000000E+00  0.14999999963E+04  0.15000000000E+04  0.10566000000E+00 0. -1.
        994   -1    0    0    0    0 -0.00000000000E+00 -0.00000000000E+00  0.11368683772E-12  0.17120000000E+03  0.17120000000E+03 0.  0.
         13    1    1    2    0    0  0.77312933402E+01  0.96565796881E+01  0.29813774965E+02  0.32278394782E+02  0.10566000000E+00 0. -1.
        994    1    1    2    0    0 -0.60898642690E+01  0.39086964356E+01  0.27370260606E+01  0.17137472295E+03  0.17120000000E+03 0.  0.
        998    1    1    2    0    0 -0.16414290711E+01 -0.13565276124E+02  0.14674491953E+04  0.14675468823E+04  0.10000000000E+02 0. -1.
</event>
<event>
 5    1  0.1334136E-008  0.3821231E+03  0.7957747E-01  0.3441966E+00
         13   -1    0    0    0    0  0.00000000000E+00  0.00000000000E+00  0.14999999963E+04  0.15000000000E+04  0.10566000000E+00 0. -1.
        994   -1    0    0    0    0 -0.00000000000E+00 -0.00000000000E+00  0.11368683772E-12  0.17120000000E+03  0.17120000000E+03 0.  0.
         13    1    1    2    0    0 -0.15426333199E+02 -0.18488139774E+02  0.10116567670E+03  0.10399177071E+03  0.10566000000E+00 0. -1.
        994    1    1    2    0    0 -0.12366919776E+02  0.13177449078E+02  0.41501352058E+01  0.17220118899E+03  0.17120000000E+03 0.  0.
        998    1    1    2    0    0  0.27793252975E+02  0.53106906958E+01  0.13946841844E+04  0.13950070403E+04  0.10000000000E+02 0. -1.
</event>
<event>
 5    1  0.2834238E-008  0.3863351E+03  0.7957747E-01  0.3424030E+00
         13   -1    0    0    0    0  0.00000000000E+00  0.00000000000E+00  0.14999999963E+04  0.15000000000E+04  0.10566000000E+00 0. -1.
        994   -1    0    0    0    0 -0.00000000000E+00 -0.00000000000E+00  0.11368683772E-12  0.17120000000E+03  0.17120000000E+03 0.  0.
         13    1    1    2    0    0 -0.45143607984E+01  0.98118319792E+01  0.61442523219E+02  0.62384664171E+02  0.10566000000E+00 0. -1.
        994    1    1    2    0    0  0.60961329538E+01 -0.48520407151E+01  0.11675274087E+01  0.17138117824E+03  0.17120000000E+03 0.  0.
        998    1    1    2    0    0 -0.15817721554E+01 -0.49597912641E+01  0.14373899457E+04  0.14374341576E+04  0.10000000000E+02 0. -1.
</event>
<event>
 5    1  0.1334136E-008  0.3845577E+03  0.7957747E-01  0.3431550E+00
         13   -1    0    0    0    0  0.00000000000E+00  0.00000000000E+00  0.14999999963E+04  0.15000000000E+04  0.10566000000E+00 0.  1.
        994   -1    0    0    0    0 -0.00000000000E+00 -0.00000000000E+00  0.11368683772E-12  0.17120000000E+03  0.17120000000E+03 0.  0.
         13    1    1    2    0    0  0.12425543926E+02 -0.34936190660E+01  0.44358437089E+02  0.46198285910E+02  0.10566000000E+00 0.  1.
        994    1    1    2    0    0 -0.10751556080E+02  0.21264750811E+00  0.22308234972E+01  0.17155190978E+03  0.17120000000E+03 0.  0.
        998    1    1    2    0    0 -0.16739878461E+01  0.32809715579E+01  0.14534107357E+04  0.14534498043E+04  0.10000000000E+02 0.  1.
</event>
<event>
 5    1  0.1334136E-008  0.3845132E+03  0.7957747E-01  0.3431739E+00
         13   -1    0    0    0    0  0.00000000000E+00  0.00000000000E+00  0.14999999963E+04  0.15000000000E+04  0.10566000000E+00 0.  1.
        994   -1    0    0    0    0 -0.00000000000E+00 -0.00000000000E+00  0.11368683772E-12  0.17120000000E+03  0.17120000000E+03 0.  0.
         13    1    1    2    0    0 -0.10732795338E+02  0.22143879222E+01  0.33944152024E+02  0.35669497197E+02  0.10566000000E+00 0.  1.
        994    1    1    2    0    0 -0.73757181827E+01  0.45536389120E+01  0.21195350777E+01  0.17143240439E+03  0.17120000000E+03 0.  0.
        998    1    1    2    0    0  0.18108513520E+02 -0.67680268343E+01  0.14639363092E+04  0.14640980984E+04  0.10000000000E+02 0.  1.
</event>
<event>
 5    1  0.1334136E-008  0.3712858E+03  0.7957747E-01  0.3490002E+00
         13   -1    0    0    0    0  0.00000000000E+00  0.00000000000E+00  0.14999999963E+04  0.15000000000E+04  0.10566000000E+00 0.  1.
        994   -1    0    0    0    0 -0.00000000000E+00 -0.00000000000E+00  0.11368683772E-12  0.17120000000E+03  0.17120000000E+03 0.  0.
         13    1    1    2    0    0 -0.53302744132E+02 -0.53486484161E+02  0.41293316893E+03  0.41978065664E+03  0.10566000000E+00 0.  1.
        994    1    1    2    0    0  0.45404651519E+02 -0.16526677516E+02  0.16678695380E+02  0.17866821858E+03  0.17120000000E+03 0.  0.
        998    1    1    2    0    0  0.78980926126E+01  0.70013161676E+02  0.10703881320E+04  0.10727511248E+04  0.10000000000E+02 0.  1.
</event>
<event>
 5    1  0.1334136E-008  0.3081364E+03  0.7957747E-01  0.3839592E+00
         13   -1    0    0    0    0  0.00000000000E+00  0.00000000000E+00  0.14999999963E+04  0.15000000000E+04  0.10566000000E+00 0.  1.
        994   -1    0    0    0    0 -0.00000000000E+00 -0.00000000000E+00  0.11368683772E-12  0.17120000000E+03  0.17120000000E+03 0.  0.
         13    1    1    2    0    0  0.12210799298E+03 -0.10065356818E+03  0.84218425572E+03  0.85692230364E+03  0.10566000000E+00 0.  1.
        994    1    1    2    0    0 -0.29339893987E+02  0.12517653131E+03  0.80150966511E+02  0.22861235925E+03  0.17120000000E+03 0.  0.
        998    1    1    2    0    0 -0.92768098989E+02 -0.24522963133E+02  0.57766477405E+03  0.58566533710E+03  0.10000000000E+02 0. -1.
</event>
<event>
 5    1  0.1334136E-008  0.3858138E+03  0.7957747E-01  0.3426228E+00
         13   -1    0    0    0    0  0.00000000000E+00  0.00000000000E+00  0.14999999963E+04  0.15000000000E+04  0.10566000000E+00 0. -1.
        994   -1    0    0    0    0 -0.00000000000E+00 -0.00000000000E+00  0.11368683772E-12  0.17120000000E+03  0.17120000000E+03 0.  0.
         13    1    1    2    0    0 -0.53997057209E+01 -0.10765503432E+02  0.59143480462E+02  0.60357396657E+02  0.10566000000E+00 0. -1.
        994    1    1    2    0    0 -0.27586121972E+01  0.11876703673E+02  0.17144086402E+01  0.17164220119E+03  0.17120000000E+03 0.  0.
        998    1    1    2    0    0  0.81583179182E+01 -0.11112002411E+01  0.14391421072E+04  0.14392004022E+04  0.10000000000E+02 0. -1.
</event>
<event>
 5    1  0.1334136E-008  0.3825011E+03  0.7957747E-01  0.3440340E+00
         13   -1    0    0    0    0  0.00000000000E+00  0.00000000000E+00  0.14999999963E+04  0.15000000000E+04  0.10566000000E+00 0. -1.
        994   -1    0    0    0    0 -0.00000000000E+00 -0.00000000000E+00  0.11368683772E-12  0.17120000000E+03  0.17120000000E+03 0.  0.
         13    1    1    2    0    0  0.11371995445E+02  0.32896191423E+02  0.19276123323E+03  0.19587849777E+03  0.10566000000E+00 0. -1.
        994    1    1    2    0    0  0.15134207021E+02 -0.38644670440E+02  0.86078566485E+01  0.17636890307E+03  0.17120000000E+03 0.  0.
        998    1    1    2    0    0 -0.26506202466E+02  0.57484790164E+01  0.12986309064E+04  0.12989525992E+04  0.10000000000E+02 0. -1.
</event>
<event>
 5    1  0.1334136E-008  0.3812770E+03  0.7957747E-01  0.3445617E+00
         13   -1    0    0    0    0  0.00000000000E+00  0.00000000000E+00  0.14999999963E+04  0.15000000000E+04  0.10566000000E+00 0.  1.
        994   -1    0    0    0    0 -0.00000000000E+00 -0.00000000000E+00  0.11368683772E-12  0.17120000000E+03  0.17120000000E+03 0.  0.
         13    1    1    2    0    0 -0.23086134514E+02  0.33707917351E+01  0.74960579167E+02  0.78507524714E+02  0.10566000000E+00 0.  1.
        994    1    1    2    0    0  0.19497715867E+02 -0.28174712186E+01  0.47828865594E+01  0.17239609935E+03  0.17120000000E+03 0.  0.
        998    1    1    2    0    0  0.35884186468E+01 -0.55332051643E+00  0.14202565306E+04  0.14202963759E+04  0.10000000000E+02 0.  1.
</event>
<event>
 5    1  0.1334136E-008  0.3945051E+03  0.7957747E-01  0.3390334E+00
         13   -1    0    0    0    0  0.00000000000E+00  0.00000000000E+00  0.14999999963E+04  0.15000000000E+04  0.10566000000E+00 0.  1.
        994   -1    0    0    0    0 -0.00000000000E+00 -0.00000000000E+00  0.11368683772E-12  0.17120000000E+03  0.17120000000E+03 0.  0.
         13    1    1    2    0    0 -0.68439450734E+02 -0.13185166755E+03  0.46594385791E+03  0.48905266643E+03  0.10566000000E+00 0.  1.
        994    1    1    2    0    0  0.59859145065E+02  0.61339309591E+02  0.53251314218E+02  0.19872284875E+03  0.17120000000E+03 0.  0.
        998    1    1    2    0    0  0.85803056692E+01  0.70512357962E+02  0.98080482415E+03  0.98342448482E+03  0.10000000000E+02 0.  1.
</event>
<event>
 5    1  0.1334136E-008  0.3815987E+03  0.7957747E-01  0.3444227E+00
         13   -1    0    0    0    0  0.00000000000E+00  0.00000000000E+00  0.14999999963E+04  0.15000000000E+04  0.10566000000E+00 0. -1.
        994   -1    0    0    0    0 -0.00000000000E+00 -0.00000000000E+00  0.11368683772E-12  0.17120000000E+03  0.17120000000E+03 0.  0.
         13    1    1    2    0    0  0.13618608882E+02  0.21669236849E+02  0.97249006538E+02  0.10056044337E+03  0.10566000000E+00 0. -1.
        994    1    1    2    0    0 -0.16681520373E+01 -0.17711532320E+02  0.43814278356E+01  0.17217757699E+03  0.17120000000E+03 0.  0.
        998    1    1    2    0    0 -0.11950456845E+02 -0.39577045283E+01  0.13983695619E+04  0.13984619796E+04  0.10000000000E+02 0. -1.
</event>
<event>
 5    1  0.1334136E-008  0.3841507E+03  0.7957747E-01  0.3433282E+00
         13   -1    0    0    0    0  0.00000000000E+00  0.00000000000E+00  0.14999999963E+04  0.15000000000E+04  0.10566000000E+00 0. -1.
        994   -1    0    0    0    0 -0.00000000000E+00 -0.00000000000E+00  0.11368683772E-12  0.17120000000E+03  0.17120000000E+03 0.  0.
         13    1    1    2    0    0 -0.10695694462E+02 -0.20636895792E+00  0.27495852925E+02  0.29503788914E+02  0.10566000000E+00 0. -1.
        994    1    1    2    0    0  0.55841495748E+01  0.15516930369E+01  0.21631705569E+01  0.17131173277E+03  0.17120000000E+03 0.  0.
        998    1    1    2    0    0  0.51115448874E+01 -0.13453240790E+01  0.14703409728E+04  0.14703844783E+04  0.10000000000E+02 0. -1.
</event>
<event>
 5    1  0.1334136E-008  0.3823998E+03  0.7957747E-01  0.3440775E+00
         13   -1    0    0    0    0  0.00000000000E+00  0.00000000000E+00  0.14999999963E+04  0.15000000000E+04  0.10566000000E+00 0.  1.
        994   -1    0    0    0    0 -0.00000000000E+00 -0.00000000000E+00  0.11368683772E-12  0.17120000000E+03  0.17120000000E+03 0.  0.
         13    1    1    2    0    0  0.79034174644E+00  0.21997444689E+02  0.79271209257E+02  0.82270577937E+02  0.10566000000E+00 0.  1.
        994    1    1    2    0    0 -0.53538109482E+01 -0.19737011421E+02  0.43148933357E+01  0.17247107356E+03  0.17120000000E+03 0.  0.
        998    1    1    2    0    0  0.45634692018E+01 -0.22604332687E+01  0.14164138937E+04  0.14164583485E+04  0.10000000000E+02 0.  1.
</event>
<event>
 5    1  0.1334136E-008  0.3815147E+03  0.7957747E-01  0.3444590E+00
         13   -1    0    0    0    0  0.00000000000E+00  0.00000000000E+00  0.14999999963E+04  0.15000000000E+04  0.10566000000E+00 0. -1.
        994   -1    0    0    0    0 -0.00000000000E+00 -0.00000000000E+00  0.11368683772E-12  0.17120000000E+03  0.17120000000E+03 0.  0.
         13    1    1    2    0    0  0.98115939193E+00 -0.19501883596E+02  0.63587692107E+02  0.66518357534E+02  0.10566000000E+00 0. -1.
        994    1    1    2    0    0  0.33730221322E+01 -0.17175278830E+02  0.43902250982E+01  0.17214842886E+03  0.17120000000E+03 0.  0.
        998    1    1    2    0    0 -0.43541815241E+01  0.36677162427E+02  0.14320220791E+04  0.14325332136E+04  0.10000000000E+02 0. -1.
</event>
<event>
 5    1  0.1334136E-008  0.3819826E+03  0.7957747E-01  0.3442571E+00
         13   -1    0    0    0    0  0.00000000000E+00  0.00000000000E+00  0.14999999963E+04  0.15000000000E+04  0.10566000000E+00 0.  1.
        994   -1    0    0    0    0 -0.00000000000E+00 -0.00000000000E+00  0.11368683772E-12  0.17120000000E+03  0.17120000000E+03 0.  0.
         13    1    1    2    0    0  0.11359819293E+03 -0.17503662563E+03  0.10942042756E+04  0.11139234164E+04  0.10566000000E+00 0.  1.
        994    1    1    2    0    0 -0.11355792524E+03  0.17699040577E+03  0.16742305053E+03  0.31868624691E+03  0.17120000000E+03 0.  0.
        998    1    1    2    0    0 -0.40267693550E-01 -0.19537801385E+01  0.23837267019E+03  0.23859033671E+03  0.10000000000E+02 0.  0.
</event>
<event>
 5    1  0.1334136E-008  0.3687999E+03  0.7957747E-01  0.3501424E+00
         13   -1    0    0    0    0  0.00000000000E+00  0.00000000000E+00  0.14999999963E+04  0.15000000000E+04  0.10566000000E+00 0.  1.
        994   -1    0    0    0    0 -0.00000000000E+00 -0.00000000000E+00  0.11368683772E-12  0.17120000000E+03  0.17120000000E+03 0.  0.
         13    1    1    2    0    0 -0.25251630211E+02 -0.16478717404E+02  0.40041787727E+02  0.50125331760E+02  0.10566000000E+00 0.  1.
        994    1    1    2    0    0  0.10314131868E+02  0.21922878662E+02  0.12351861157E+02  0.17334648078E+03  0.17120000000E+03 0.  0.
        998    1    1    2    0    0  0.14937498343E+02 -0.54441612585E+01  0.14476063474E+04  0.14477281875E+04  0.10000000000E+02 0.  1.
</event>
<event>
 5    1  0.1334136E-008  0.3834025E+03  0.7957747E-01  0.3436476E+00
         13   -1    0    0    0    0  0.00000000000E+00  0.00000000000E+00  0.14999999963E+04  0.15000000000E+04  0.10566000000E+00 0.  1.
        994   -1    0    0    0    0 -0.00000000000E+00 -0.00000000000E+00  0.11368683772E-12  0.17120000000E+03  0.17120000000E+03 0.  0.
         13    1    1    2    0    0 -0.12995399799E+02 -0.74824227827E+01  0.44823379488E+02  0.47265352843E+02  0.10566000000E+00 0.  1.
        994    1    1    2    0    0  0.13060726010E+02  0.58020705703E+01  0.31008374808E+01  0.17182346109E+03  0.17120000000E+03 0.  0.
        998    1    1    2    0    0 -0.65326210793E-01  0.16803522124E+01  0.14520757793E+04  0.14521111861E+04  0.10000000000E+02 0.  1.
</event>
<event>
 5    1  0.1334136E-008  0.3842097E+03  0.7957747E-01  0.3433031E+00
         13   -1    0    0    0    0  0.00000000000E+00  0.00000000000E+00  0.14999999963E+04  0.15000000000E+04  0.10566000000E+00 0. -1.
        994   -1    0    0    0    0 -0.00000000000E+00 -0.00000000000E+00  0.11368683772E-12  0.17120000000E+03  0.17120000000E+03 0.  0.
         13    1    1    2    0    0  0.12531264979E+01  0.11379325555E+02  0.31891438615E+02  0.33884131937E+02  0.10566000000E+00 0. -1.
        994    1    1    2    0    0  0.90713311130E+01 -0.88523324469E+01  0.25528858333E+01  0.17168753613E+03  0.17120000000E+03 0.  0.
        998    1    1    2    0    0 -0.10324457611E+02 -0.25269931080E+01  0.14655556718E+04  0.14656283319E+04  0.10000000000E+02 0. -1.
</event>
<event>
 5    1  0.1334136E-008  0.3834477E+03  0.7957747E-01  0.3436282E+00
         13   -1    0    0    0    0  0.00000000000E+00  0.00000000000E+00  0.14999999963E+04  0.15000000000E+04  0.10566000000E+00 0. -1.
        994   -1    0    0    0    0 -0.00000000000E+00 -0.00000000000E+00  0.11368683772E-12  0.17120000000E+03  0.17120000000E+03 0.  0.
         13    1    1    2    0    0  0.15646230414E+02 -0.46826935215E+01  0.52425386992E+02  0.54910513657E+02  0.10566000000E+00 0. -1.
        994    1    1    2    0    0 -0.19272195429E+02  0.62934585338E+01  0.37625020059E+01  0.17243729747E+03  0.17120000000E+03 0.  0.
        998    1    1    2    0    0  0.36259650145E+01 -0.16107650123E+01  0.14438121073E+04  0.14438521889E+04  0.10000000000E+02 0. -1.
</event>
<event>
 5    1  0.1334136E-008  0.3688356E+03  0.7957747E-01  0.3501259E+00
         13   -1    0    0    0    0  0.00000000000E+00  0.00000000000E+00  0.14999999963E+04  0.15000000000E+04  0.10566000000E+00 0.  1.
        994   -1    0    0    0    0 -0.00000000000E+00 -0.00000000000E+00  0.11368683772E-12  0.17120000000E+03  0.17120000000E+03 0.  0.
         13    1    1    2    0    0  0.29840032756E+02  0.11531590153E+02  0.43219233609E+02  0.53770981432E+02  0.10566000000E+00 0.  1.
        994    1    1    2    0    0 -0.38326838216E+02 -0.14478675464E+02  0.16191695508E+02  0.17677723149E+03  0.17120000000E+03 0.  0.
        998    1    1    2    0    0  0.84868054601E+01  0.29470853112E+01  0.14405890672E+04  0.14406517871E+04  0.10000000000E+02 0.  1.
</event>
<event>
 5    1  0.1334136E-008  0.3826793E+03  0.7957747E-01  0.3439575E+00
         13   -1    0    0    0    0  0.00000000000E+00  0.00000000000E+00  0.14999999963E+04  0.15000000000E+04  0.10566000000E+00 0.  1.
        994   -1    0    0    0    0 -0.00000000000E+00 -0.00000000000E+00  0.11368683772E-12  0.17120000000E+03  0.17120000000E+03 0.  0.
         13    1    1    2    0    0 -0.16038806727E+02 -0.21305315214E+02  0.11223740507E+03  0.11536206499E+03  0.10566000000E+00 0.  1.
        994    1    1    2    0    0  0.18780203312E+02  0.30037171033E+02  0.69562108412E+01  0.17496501522E+03  0.17120000000E+03 0.  0.
        998    1    1    2    0    0 -0.27413965849E+01 -0.87318558188E+01  0.13808063804E+04  0.13808729198E+04  0.10000000000E+02 0.  1.
</event>
<event>
 5    1  0.1334136E-008  0.3951856E+03  0.7957747E-01  0.3387590E+00
         13   -1    0    0    0    0  0.00000000000E+00  0.00000000000E+00  0.14999999963E+04  0.15000000000E+04  0.10566000000E+00 0.  1.
        994   -1    0    0    0    0 -0.00000000000E+00 -0.00000000000E+00  0.11368683772E-12  0.17120000000E+03  0.17120000000E+03 0.  0.
         13    1    1    2    0    0 -0.52680833706E+01  0.44340310754E+02  0.30263198863E+02  0.53941526022E+02  0.10566000000E+00 0.  1.
        994    1    1    2    0    0  0.65734067840E+01 -0.38379288157E+02  0.30775058543E+02  0.17824904955E+03  0.17120000000E+03 0.  0.
        998    1    1    2    0    0 -0.13053234135E+01 -0.59610225965E+01  0.14389617389E+04  0.14390094244E+04  0.10000000000E+02 0.  1.
</event>
<event>
 5    1  0.1334136E-008  0.3798098E+03  0.7957747E-01  0.3451987E+00
         13   -1    0    0    0    0  0.00000000000E+00  0.00000000000E+00  0.14999999963E+04  0.15000000000E+04  0.10566000000E+00 0.  1.
        994   -1    0    0    0    0 -0.00000000000E+00 -0.00000000000E+00  0.11368683772E-12  0.17120000000E+03  0.17120000000E+03 0.  0.
         13    1    1    2    0    0 -0.60762382573E+02 -0.47900244532E+02  0.17450181678E+03  0.19088581872E+03  0.10566000000E+00 0.  1.
        994    1    1    2    0    0  0.43169373830E+02  0.34867796961E+02  0.27458732135E+02  0.18205158629E+03  0.17120000000E+03 0.  0.
        998    1    1    2    0    0  0.17593008743E+02  0.13032447571E+02  0.12980394474E+04  0.12982625950E+04  0.10000000000E+02 0.  1.
</event>
<event>
 5    1  0.1334136E-008  0.3806377E+03  0.7957747E-01  0.3448386E+00
         13   -1    0    0    0    0  0.00000000000E+00  0.00000000000E+00  0.14999999963E+04  0.15000000000E+04  0.10566000000E+00 0. -1.
        994   -1    0    0    0    0 -0.00000000000E+00 -0.00000000000E+00  0.11368683772E-12  0.17120000000E+03  0.17120000000E+03 0.  0.
         13    1    1    2    0    0 -0.11049501238E+02  0.71077269414E+00  0.14313784942E+02  0.18096747742E+02  0.10566000000E+00 0. -1.
        994    1    1    2    0    0  0.11628779737E+02 -0.32485227752E+01  0.42980430131E+01  0.17167904529E+03  0.17120000000E+03 0.  0.
        998    1    1    2    0    0 -0.57927849976E+00  0.25377500811E+01  0.14813881683E+04  0.14814242070E+04  0.10000000000E+02 0. -1.
</event>
<event>
 5    1  0.1334136E-008  0.3889042E+03  0.7957747E-01  0.3413281E+00
         13   -1    0    0    0    0  0.00000000000E+00  0.00000000000E+00  0.14999999963E+04  0.15000000000E+04  0.10566000000E+00 0. -1.
        994   -1    0    0    0    0 -0.00000000000E+00 -0.00000000000E+00  0.11368683772E-12  0.17120000000E+03  0.17120000000E+03 0.  0.
         13    1    1    2    0    0 -0.73120539003E+02  0.58308113548E+02  0.18380165730E+03  0.20622684045E+03  0.10566000000E+00 0. -1.
        994    1    1    2    0    0  0.10279825031E+03 -0.14072966524E+00  0.62084545433E+02  0.20912061317E+03  0.17120000000E+03 0.  0.
        998    1    1    2    0    0 -0.29677711307E+02 -0.58167383883E+02  0.12541137935E+04  0.12558525464E+04  0.10000000000E+02 0. -1.
</event>
<event>
 5    1  0.1334136E-008  0.3744176E+03  0.7957747E-01  0.3475832E+00
         13   -1    0    0    0    0  0.00000000000E+00  0.00000000000E+00  0.14999999963E+04  0.15000000000E+04  0.10566000000E+00 0.  1.
        994   -1    0    0    0    0 -0.00000000000E+00 -0.00000000000E+00  0.11368683772E-12  0.17120000000E+03  0.17120000000E+03 0.  0.
         13    1    1    2    0    0 -0.43723545778E+02 -0.30894225332E+01  0.15610536319E+03  0.16214249464E+03  0.10566000000E+00 0.  1.
        994    1    1    2    0    0  0.34376617840E+01 -0.44248846313E+02  0.13716702707E+02  0.17739043337E+03  0.17120000000E+03 0.  0.
        998    1    1    2    0    0  0.40285883994E+02  0.47338268847E+02  0.13301779304E+04  0.13316670720E+04  0.10000000000E+02 0.  1.
</event>
<event>
 5    1  0.1334136E-008  0.3858853E+03  0.7957747E-01  0.3425926E+00
         13   -1    0    0    0    0  0.00000000000E+00  0.00000000000E+00  0.14999999963E+04  0.15000000000E+04  0.10566000000E+00 0. -1.
        994   -1    0    0    0    0 -0.00000000000E+00 -0.00000000000E+00  0.11368683772E-12  0.17120000000E+03  0.17120000000E+03 0.  0.
         13    1    1    2    0    0  0.67398744899E+01 -0.81778832396E+01  0.47568786430E+02  0.48735041693E+02  0.10566000000E+00 0. -1.
        994    1    1    2    0    0 -0.47421318377E+01  0.54495992580E+01  0.13624089858E+01  0.17135776056E+03  0.17120000000E+03 0.  0.
        998    1    1    2    0    0 -0.19977426521E+01  0.27282839816E+01  0.14510688009E+04  0.14511071977E+04  0.10000000000E+02 0. -1.
</event>
<event>
 5    1  0.1945809E-008  0.3859991E+03  0.7957747E-01  0.3425446E+00
         13   -1    0    0    0    0  0.00000000000E+00  0.00000000000E+00  0.14999999963E+04  0.15000000000E+04  0.10566000000E+00 0. -1.
        994   -1    0    0    0    0 -0.00000000000E+00 -0.00000000000E+00  0.11368683772E-12  0.17120000000E+03  0.17120000000E+03 0.  0.
         13    1    1    2    0    0  0.10268963353E+02 -0.81062544974E+01  0.76299976833E+02  0.77413568572E+02  0.10566000000E+00 0. -1.
        994    1    1    2    0    0 -0.71003196113E+01  0.48497246518E+01  0.13773258771E+01  0.17142132713E+03  0.17120000000E+03 0.  0.
        998    1    1    2    0    0 -0.31686437414E+01  0.32565298456E+01  0.14223226936E+04  0.14223651043E+04  0.10000000000E+02 0. -1.
</event>
<event>
 5    1  0.1334136E-008  0.3845920E+03  0.7957747E-01  0.3431405E+00
         13   -1    0    0    0    0  0.00000000000E+00  0.00000000000E+00  0.14999999963E+04  0.15000000000E+04  0.10566000000E+00 0. -1.
        994   -1    0    0    0    0 -0.00000000000E+00 -0.00000000000E+00  0.11368683772E-12  0.17120000000E+03  0.17120000000E+03 0.  0.
         13    1    1    2    0    0 -0.32145092782E+01 -0.14000168059E+02  0.55093217075E+02  0.56935151772E+02  0.10566000000E+00 0. -1.
        994    1    1    2    0    0  0.36187099778E+01  0.12208577610E+02  0.23669771457E+01  0.17168921635E+03  0.17120000000E+03 0.  0.
        998    1    1    2    0    0 -0.40420069961E+00  0.17915904491E+01  0.14425398021E+04  0.14425756319E+04  0.10000000000E+02 0. -1.
</event>
<event>
 5    1  0.1334136E-008  0.3729194E+03  0.7957747E-01  0.3482580E+00
         13   -1    0    0    0    0  0.00000000000E+00  0.00000000000E+00  0.14999999963E+04  0.15000000000E+04  0.10566000000E+00 0. -1.
        994   -1    0    0    0    0 -0.00000000000E+00 -0.00000000000E+00  0.11368683772E-12  0.17120000000E+03  0.17120000000E+03 0.  0.
         13    1    1    2    0    0 -0.10280728817E+02  0.20154513421E+02  0.29546671791E+02  0.37214443086E+02  0.10566000000E+00 0. -1.
        994    1    1    2    0    0  0.89558159060E+01 -0.17052500685E+02  0.90220512809E+01  0.17251617845E+03  0.17120000000E+03 0.  0.
        998    1    1    2    0    0  0.13249129107E+01 -0.31020127356E+01  0.14614312732E+04  0.14614693785E+04  0.10000000000E+02 0. -1.
</event>
<event>
 5    1  0.1334136E-008  0.3807876E+03  0.7957747E-01  0.3447736E+00
         13   -1    0    0    0    0  0.00000000000E+00  0.00000000000E+00  0.14999999963E+04  0.15000000000E+04  0.10566000000E+00 0. -1.
        994   -1    0    0    0    0 -0.00000000000E+00 -0.00000000000E+00  0.11368683772E-12  0.17120000000E+03  0.17120000000E+03 0.  0.
         13    1    1    2    0    0  0.73274992776E+01  0.14315241886E+02  0.34131553493E+02  0.37730524828E+02  0.10566000000E+00 0. -1.
        994    1    1    2    0    0  0.87522480769E+01 -0.71690592281E+01  0.41629939307E+01  0.17162391376E+03  0.17120000000E+03 0.  0.
        998    1    1    2    0    0 -0.16079747354E+02 -0.71461826574E+01  0.14617054489E+04  0.14618455614E+04  0.10000000000E+02 0. -1.
</event>
<event>
 5    1  0.1334136E-008  0.3831970E+03  0.7957747E-01  0.3437355E+00
         13   -1    0    0    0    0  0.00000000000E+00  0.00000000000E+00  0.14999999963E+04  0.15000000000E+04  0.10566000000E+00 0.  1.
        994   -1    0    0    0    0 -0.00000000000E+00 -0.00000000000E+00  0.11368683772E-12  0.17120000000E+03  0.17120000000E+03 0.  0.
         13    1    1    2    0    0  0.10696749294E+02  0.26129157000E+02  0.13921135838E+03  0.14204565026E+03  0.10566000000E+00 0.  1.
        994    1    1    2    0    0 -0.15392359909E+02 -0.29396161650E+02  0.61787668646E+01  0.17449549055E+03  0.17120000000E+03 0.  0.
        998    1    1    2    0    0  0.46956106149E+01  0.32670046508E+01  0.13546098710E+04  0.13546588592E+04  0.10000000000E+02 0.  1.
</event>
<event>
 5    1  0.1334136E-008  0.3843204E+03  0.7957747E-01  0.3432560E+00
         13   -1    0    0    0    0  0.00000000000E+00  0.00000000000E+00  0.14999999963E+04  0.15000000000E+04  0.10566000000E+00 0.  1.
        994   -1    0    0    0    0 -0.00000000000E+00 -0.00000000000E+00  0.11368683772E-12  0.17120000000E+03  0.17120000000E+03 0.  0.
         13    1    1    2    0    0 -0.16848827371E+02  0.14408148419E+02  0.13314097208E+03  0.13497409876E+03  0.10566000000E+00 0.  1.
        994    1    1    2    0    0 -0.54761752078E+01 -0.16016241672E+02  0.29128065401E+01  0.17205938781E+03  0.17120000000E+03 0.  0.
        998    1    1    2    0    0  0.22325002579E+02  0.16080932524E+01  0.13639462177E+04  0.13641665134E+04  0.10000000000E+02 0.  1.
</event>
<event>
 5    1  0.1334136E-008  0.3695360E+03  0.7957747E-01  0.3498026E+00
         13   -1    0    0    0    0  0.00000000000E+00  0.00000000000E+00  0.14999999963E+04  0.15000000000E+04  0.10566000000E+00 0. -1.
        994   -1    0    0    0    0 -0.00000000000E+00 -0.00000000000E+00  0.11368683772E-12  0.17120000000E+03  0.17120000000E+03 0.  0.
         13    1    1    2    0    0  0.17132659245E+02 -0.65625698826E+02  0.25009350939E+03  0.25912744926E+03  0.10566000000E+00 0. -1.
        994    1    1    2    0    0  0.13444166280E+02  0.14634461105E+02  0.12073239024E+02  0.17277186160E+03  0.17120000000E+03 0.  0.
        998    1    1    2    0    0 -0.30576825525E+02  0.50991237720E+02  0.12378332479E+04  0.12393006891E+04  0.10000000000E+02 0. -1.
</event>
<event>
 5    1  0.1334136E-008  0.3760416E+03  0.7957747E-01  0.3468577E+00
         13   -1    0    0    0    0  0.00000000000E+00  0.00000000000E+00  0.14999999963E+04  0.15000000000E+04  0.10566000000E+00 0.  1.
        994   -1    0    0    0    0 -0.00000000000E+00 -0.00000000000E+00  0.11368683772E-12  0.17120000000E+03  0.17120000000E+03 0.  0.
         13    1    1    2    0    0 -0.38594836741E+02 -0.12730329318E+03  0.74503696931E+03  0.75681952055E+03  0.10566000000E+00 0.  1.
        994    1    1    2    0    0  0.34845954981E+02  0.12248968901E+03  0.63222795172E+02  0.22254106659E+03  0.17120000000E+03 0.  0.
        998    1    1    2    0    0  0.37488817605E+01  0.48136041771E+01  0.69174023180E+03  0.69183941286E+03  0.10000000000E+02 0.  0.
</event>
<event>
 5    1  0.1334136E-008  0.3769494E+03  0.7957747E-01  0.3464550E+00
         13   -1    0    0    0    0  0.00000000000E+00  0.00000000000E+00  0.14999999963E+04  0.15000000000E+04  0.10566000000E+00 0. -1.
        994   -1    0    0    0    0 -0.00000000000E+00 -0.00000000000E+00  0.11368683772E-12  0.17120000000E+03  0.17120000000E+03 0.  0.
         13    1    1    2    0    0  0.16435295948E+02 -0.15375293347E+02  0.39704115067E+02  0.45639308887E+02  0.10566000000E+00 0. -1.
        994    1    1    2    0    0 -0.36631751785E+02  0.13097804215E+02  0.10809049876E+02  0.17589688250E+03  0.17120000000E+03 0.  0.
        998    1    1    2    0    0  0.20196455837E+02  0.22774891321E+01  0.14494868313E+04  0.14496638086E+04  0.10000000000E+02 0. -1.
</event>
<event>
 5    1  0.1334136E-008  0.3758840E+03  0.7957747E-01  0.3469278E+00
         13   -1    0    0    0    0  0.00000000000E+00  0.00000000000E+00  0.14999999963E+04  0.15000000000E+04  0.10566000000E+00 0. -1.
        994   -1    0    0    0    0 -0.00000000000E+00 -0.00000000000E+00  0.11368683772E-12  0.17120000000E+03  0.17120000000E+03 0.  0.
         13    1    1    2    0    0  0.40352140507E+02  0.40913273395E+02  0.32455410163E+03  0.32960213475E+03  0.10566000000E+00 0. -1.
        994    1    1    2    0    0  0.28139620939E+01 -0.14439431482E+02  0.69592467333E+01  0.17197176128E+03  0.17120000000E+03 0.  0.
        998    1    1    2    0    0 -0.43166102601E+02 -0.26473841913E+02  0.11684866479E+04  0.11696261040E+04  0.10000000000E+02 0. -1.
</event>
<event>
 5    1  0.1334136E-008  0.3749547E+03  0.7957747E-01  0.3473425E+00
         13   -1    0    0    0    0  0.00000000000E+00  0.00000000000E+00  0.14999999963E+04  0.15000000000E+04  0.10566000000E+00 0. -1.
        994   -1    0    0    0    0 -0.00000000000E+00 -0.00000000000E+00  0.11368683772E-12  0.17120000000E+03  0.17120000000E+03 0.  0.
         13    1    1    2    0    0 -0.97577515608E+00  0.46733688899E+02  0.16401224592E+03  0.17054330181E+03  0.10566000000E+00 0. -1.
        994    1    1    2    0    0 -0.22726421393E+01 -0.23817771437E+02  0.86506004644E+01  0.17308010870E+03  0.17120000000E+03 0.  0.
        998    1    1    2    0    0  0.32484172953E+01 -0.22915917462E+02  0.13273371499E+04  0.13275765895E+04  0.10000000000E+02 0. -1.
</event>
<event>
 5    1  0.1334136E-008  0.4048249E+03  0.7957747E-01  0.3349711E+00
         13   -1    0    0    0    0  0.00000000000E+00  0.00000000000E+00  0.14999999963E+04  0.15000000000E+04  0.10566000000E+00 0. -1.
        994   -1    0    0    0    0 -0.00000000000E+00 -0.00000000000E+00  0.11368683772E-12  0.17120000000E+03  0.17120000000E+03 0.  0.
         13    1    1    2    0    0 -0.72995094438E+02  0.54930757470E+02  0.11184320122E+03  0.14441116560E+03  0.10566000000E+00 0. -1.
        994    1    1    2    0    0  0.92316560383E+02 -0.52574711549E+02  0.77384437025E+02  0.21583382198E+03  0.17120000000E+03 0.  0.
        998    1    1    2    0    0 -0.19321465944E+02 -0.23560459206E+01  0.13107723580E+04  0.13109550124E+04  0.10000000000E+02 0. -1.
</event>
<event>
 5    1  0.1334136E-008  0.3816817E+03  0.7957747E-01  0.3443868E+00
         13   -1    0    0    0    0  0.00000000000E+00  0.00000000000E+00  0.14999999963E+04  0.15000000000E+04  0.10566000000E+00 0. -1.
        994   -1    0    0    0    0 -0.00000000000E+00 -0.00000000000E+00  0.11368683772E-12  0.17120000000E+03  0.17120000000E+03 0.  0.
         13    1    1    2    0    0  0.28349169403E+02 -0.31147363197E+02  0.25091785097E+03  0.25442801092E+03  0.10566000000E+00 0. -1.
        994    1    1    2    0    0 -0.14715416449E+02  0.29511565553E+02  0.69103061013E+01  0.17448400589E+03  0.17120000000E+03 0.  0.
        998    1    1    2    0    0 -0.13633752954E+02  0.16357976446E+01  0.12421718392E+04  0.12422879832E+04  0.10000000000E+02 0. -1.
</event>
<event>
 5    1  0.1334136E-008  0.3825911E+03  0.7957747E-01  0.3439953E+00
         13   -1    0    0    0    0  0.00000000000E+00  0.00000000000E+00  0.14999999963E+04  0.15000000000E+04  0.10566000000E+00 0. -1.
        994   -1    0    0    0    0 -0.00000000000E+00 -0.00000000000E+00  0.11368683772E-12  0.17120000000E+03  0.17120000000E+03 0.  0.
         13    1    1    2    0    0  0.26938353299E+02 -0.12296717511E+02  0.13822948886E+03  0.14136579110E+03  0.10566000000E+00 0. -1.
        994    1    1    2    0    0 -0.28463126683E+02  0.17080765549E+02  0.64917613146E+01  0.17450926937E+03  0.17120000000E+03 0.  0.
        998    1    1    2    0    0  0.15247733841E+01 -0.47840480378E+01  0.13552787461E+04  0.13553249395E+04  0.10000000000E+02 0. -1.
</event>
<event>
 5    1  0.1334136E-008  0.3847926E+03  0.7957747E-01  0.3430552E+00
         13   -1    0    0    0    0  0.00000000000E+00  0.00000000000E+00  0.14999999963E+04  0.15000000000E+04  0.10566000000E+00 0.  1.
        994   -1    0    0    0    0 -0.00000000000E+00 -0.00000000000E+00  0.11368683772E-12  0.17120000000E+03  0.17120000000E+03 0.  0.
         13    1    1    2    0    0  0.27220693098E+01  0.10123401540E+02  0.31042786100E+02  0.32765204913E+02  0.10566000000E+00 0.  1.
        994    1    1    2    0    0 -0.43127696744E+01 -0.89779514235E+01  0.20596635625E+01  0.17150185366E+03  0.17120000000E+03 0.  0.
        998    1    1    2    0    0  0.15907003646E+01 -0.11454501166E+01  0.14668975466E+04  0.14669329414E+04  0.10000000000E+02 0.  1.
</event>
<event>
 5    1  0.1334136E-008  0.3855778E+03  0.7957747E-01  0.3427225E+00
         13   -1    0    0    0    0  0.00000000000E+00  0.00000000000E+00  0.14999999963E+04  0.15000000000E+04  0.10566000000E+00 0.  1.
        994   -1    0    0    0    0 -0.00000000000E+00 -0.00000000000E+00  0.11368683772E-12  0.17120000000E+03  0.17120000000E+03 0.  0.
         13    1    1    2    0    0  0.22763207992E+01  0.14855110416E+02  0.88758552739E+02  0.90021929496E+02  0.10566000000E+00 0.  1.
        994    1    1    2    0    0 -0.52769796624E+01 -0.31172834528E+01  0.14668477318E+01  0.17131595259E+03  0.17120000000E+03 0.  0.
        998    1    1    2    0    0  0.30006588632E+01 -0.11737826963E+02  0.14097745958E+04  0.14098621179E+04  0.10000000000E+02 0.  1.
</event>
<event>
 5    1  0.1334136E-008  0.3786773E+03  0.7957747E-01  0.3456938E+00
         13   -1    0    0    0    0  0.00000000000E+00  0.00000000000E+00  0.14999999963E+04  0.15000000000E+04  0.10566000000E+00 0. -1.
        994   -1    0    0    0    0 -0.00000000000E+00 -0.00000000000E+00  0.11368683772E-12  0.17120000000E+03  0.17120000000E+03 0.  0.
         13    1    1    2    0    0  0.14186843859E+02  0.22977951230E+01  0.20953489994E+02  0.25408784073E+02  0.10566000000E+00 0. -1.
        994    1    1    2    0    0  0.18058990958E+02  0.21553723280E+01  0.59136966598E+01  0.17226486755E+03  0.17120000000E+03 0.  0.
        998    1    1    2    0    0 -0.32245834817E+02 -0.44531674510E+01  0.14731328096E+04  0.14735263484E+04  0.10000000000E+02 0. -1.
</event>
<event>
 5    1  0.1334136E-008  0.3846459E+03  0.7957747E-01  0.3431175E+00
         13   -1    0    0    0    0  0.00000000000E+00  0.00000000000E+00  0.14999999963E+04  0.15000000000E+04  0.10566000000E+00 0. -1.
        994   -1    0    0    0    0 -0.00000000000E+00 -0.00000000000E+00  0.11368683772E-12  0.17120000000E+03  0.17120000000E+03 0.  0.
         13    1    1    2    0    0  0.14663835372E+02 -0.32070270717E+01  0.71765454546E+02  0.73318515538E+02  0.10566000000E+00 0. -1.
        994    1    1    2    0    0  0.11901377870E+02 -0.22677699460E+01  0.22894860313E+01  0.17164343076E+03  0.17120000000E+03 0.  0.
        998    1    1    2    0    0 -0.26565213243E+02  0.54747970177E+01  0.14259450557E+04  0.14262380537E+04  0.10000000000E+02 0. -1.
</event>
<event>
 5    1  0.1334136E-008  0.3834807E+03  0.7957747E-01  0.3436142E+00
         13   -1    0    0    0    0  0.00000000000E+00  0.00000000000E+00  0.14999999963E+04  0.15000000000E+04  0.10566000000E+00 0.  1.
        994   -1    0    0    0    0 -0.00000000000E+00 -0.00000000000E+00  0.11368683772E-12  0.17120000000E+03  0.17120000000E+03 0.  0.
         13    1    1    2    0    0 -0.10758575649E+02  0.63647630732E+01  0.30606280976E+02  0.33060743461E+02  0.10566000000E+00 0.  1.
        994    1    1    2    0    0  0.19600556890E+02 -0.67388239877E+01  0.38074090062E+01  0.17249211560E+03  0.17120000000E+03 0.  0.
        998    1    1    2    0    0 -0.88419812413E+01  0.37406091450E+00  0.14655863063E+04  0.14656471409E+04  0.10000000000E+02 0.  1.
</event>
<event>
 5    1  0.1334136E-008  0.3844301E+03  0.7957747E-01  0.3432093E+00
         13   -1    0    0    0    0  0.00000000000E+00  0.00000000000E+00  0.14999999963E+04  0.15000000000E+04  0.10566000000E+00 0. -1.
        994   -1    0    0    0    0 -0.00000000000E+00 -0.00000000000E+00  0.11368683772E-12  0.17120000000E+03  0.17120000000E+03 0.  0.
         13    1    1    2    0    0  0.38014468805E+01 -0.23650727816E+02  0.13562417397E+03  0.13772340271E+03  0.10566000000E+00 0. -1.
        994    1    1    2    0    0 -0.21736680799E+01  0.26392823687E+02  0.42273939654E+01  0.17328767075E+03  0.17120000000E+03 0.  0.
        998    1    1    2    0    0 -0.16277788006E+01 -0.27420958714E+01  0.13601484283E+04  0.13601889265E+04  0.10000000000E+02 0. -1.
</event>
<event>
 5    1  0.1334136E-008  0.3828454E+03  0.7957747E-01  0.3438862E+00
         13   -1    0    0    0    0  0.00000000000E+00  0.00000000000E+00  0.14999999963E+04  0.15000000000E+04  0.10566000000E+00 0.  1.
        994   -1    0    0    0    0 -0.00000000000E+00 -0.00000000000E+00  0.11368683772E-12  0.17120000000E+03  0.17120000000E+03 0.  0.
         13    1    1    2    0    0  0.17038445852E+02  0.46678140752E+01  0.60930245707E+02  0.63439759861E+02  0.10566000000E+00 0.  1.
        994    1    1    2    0    0  0.22861486937E+00  0.80207967181E+01  0.29169262820E+01  0.17141275887E+03  0.17120000000E+03 0.  0.
        998    1    1    2    0    0 -0.17267060722E+02 -0.12688610793E+02  0.14361528243E+04  0.14363474813E+04  0.10000000000E+02 0.  1.
</event>
<event>
 5    1  0.1334136E-008  0.3696381E+03  0.7957747E-01  0.3497556E+00
         13   -1    0    0    0    0  0.00000000000E+00  0.00000000000E+00  0.14999999963E+04  0.15000000000E+04  0.10566000000E+00 0. -1.
        994   -1    0    0    0    0 -0.00000000000E+00 -0.00000000000E+00  0.11368683772E-12  0.17120000000E+03  0.17120000000E+03 0.  0.
         13    1    1    2    0    0 -0.10941373052E+03  0.69552882853E+02  0.69385345557E+03  0.70586230733E+03  0.10566000000E+00 0. -1.
        994    1    1    2    0    0  0.11835463226E+03 -0.11450700139E+02  0.60130865272E+02  0.21694261562E+03  0.17120000000E+03 0.  0.
        998    1    1    2    0    0 -0.89409017430E+01 -0.58102182713E+02  0.74601567544E+03  0.74839507705E+03  0.10000000000E+02 0. -1.
</event>
<event>
 5    1  0.1334136E-008  0.3841690E+03  0.7957747E-01  0.3433204E+00
         13   -1    0    0    0    0  0.00000000000E+00  0.00000000000E+00  0.14999999963E+04  0.15000000000E+04  0.10566000000E+00 0. -1.
        994   -1    0    0    0    0 -0.00000000000E+00 -0.00000000000E+00  0.11368683772E-12  0.17120000000E+03  0.17120000000E+03 0.  0.
         13    1    1    2    0    0 -0.71978200623E+02  0.10138892073E+03  0.44049490471E+03  0.45770770897E+03  0.10566000000E+00 0. -1.
        994    1    1    2    0    0  0.54177942381E+01 -0.74802627997E+02  0.39641773697E+02  0.19106463794E+03  0.17120000000E+03 0.  0.
        998    1    1    2    0    0  0.66560406385E+02 -0.26586292731E+02  0.10198633179E+04  0.10224276531E+04  0.10000000000E+02 0. -1.
</event>
<event>
 5    1  0.1429588E-008  0.3863284E+03  0.7957747E-01  0.3424058E+00
         13   -1    0    0    0    0  0.00000000000E+00  0.00000000000E+00  0.14999999963E+04  0.15000000000E+04  0.10566000000E+00 0. -1.
        994   -1    0    0    0    0 -0.00000000000E+00 -0.00000000000E+00  0.11368683772E-12  0.17120000000E+03  0.17120000000E+03 0.  0.
         13    1    1    2    0    0  0.11835418312E+02  0.44913054293E+01  0.70182870236E+02  0.71315463889E+02  0.10566000000E+00 0. -1.
        994    1    1    2    0    0 -0.22374230217E+02 -0.27691277146E+02  0.51332506690E+01  0.17493771254E+03  0.17120000000E+03 0.  0.
        998    1    1    2    0    0  0.10538811905E+02  0.23199971716E+02  0.14246838754E+04  0.14249468236E+04  0.10000000000E+02 0. -1.
</event>
<event>
 5    1  0.1334136E-008  0.3854952E+03  0.7957747E-01  0.3427575E+00
         13   -1    0    0    0    0  0.00000000000E+00  0.00000000000E+00  0.14999999963E+04  0.15000000000E+04  0.10566000000E+00 0. -1.
        994   -1    0    0    0    0 -0.00000000000E+00 -0.00000000000E+00  0.11368683772E-12  0.17120000000E+03  0.17120000000E+03 0.  0.
         13    1    1    2    0    0  0.13273488477E+02  0.55597985254E+01  0.77377703518E+02  0.78704618808E+02  0.10566000000E+00 0. -1.
        994    1    1    2    0    0 -0.80955602800E+01  0.46537214309E+01  0.16708484213E+01  0.17146261095E+03  0.17120000000E+03 0.  0.
        998    1    1    2    0    0 -0.51779281971E+01 -0.10213519956E+02  0.14209514443E+04  0.14210327702E+04  0.10000000000E+02 0. -1.
</event>
<event>
 5    1  0.1334136E-008  0.3750375E+03  0.7957747E-01  0.3473055E+00
         13   -1    0    0    0    0  0.00000000000E+00  0.00000000000E+00  0.14999999963E+04  0.15000000000E+04  0.10566000000E+00 0. -1.
        994   -1    0    0    0    0 -0.00000000000E+00 -0.00000000000E+00  0.11368683772E-12  0.17120000000E+03  0.17120000000E+03 0.  0.
         13    1    1    2    0    0 -0.19598018316E+02  0.48913004014E+02  0.99842933224E+02  0.11289458252E+03  0.10566000000E+00 0. -1.
        994    1    1    2    0    0  0.28037774981E+02 -0.17074660075E+02  0.17472494699E+02  0.17519243395E+03  0.17120000000E+03 0.  0.
        998    1    1    2    0    0 -0.84397566647E+01 -0.31838343940E+02  0.13826845684E+04  0.13831129835E+04  0.10000000000E+02 0. -1.
</event>
<event>
 5    1  0.1334136E-008  0.3738181E+03  0.7957747E-01  0.3478526E+00
         13   -1    0    0    0    0  0.00000000000E+00  0.00000000000E+00  0.14999999963E+04  0.15000000000E+04  0.10566000000E+00 0.  1.
        994   -1    0    0    0    0 -0.00000000000E+00 -0.00000000000E+00  0.11368683772E-12  0.17120000000E+03  0.17120000000E+03 0.  0.
         13    1    1    2    0    0  0.11139021166E+03 -0.45667135748E+02  0.58638640948E+03  0.59861698850E+03  0.10566000000E+00 0.  1.
        994    1    1    2    0    0 -0.10892019914E+03  0.49241870430E+02  0.57736346464E+02  0.21663632495E+03  0.17120000000E+03 0.  0.
        998    1    1    2    0    0 -0.24700125190E+01 -0.35747346817E+01  0.85587724034E+03  0.85594668655E+03  0.10000000000E+02 0.  0.
</event>
<event>
 5    1  0.1334136E-008  0.4192644E+03  0.7957747E-01  0.3296197E+00
         13   -1    0    0    0    0  0.00000000000E+00  0.00000000000E+00  0.14999999963E+04  0.15000000000E+04  0.10566000000E+00 0. -1.
        994   -1    0    0    0    0 -0.00000000000E+00 -0.00000000000E+00  0.11368683772E-12  0.17120000000E+03  0.17120000000E+03 0.  0.
         13    1    1    2    0    0 -0.31040861289E+02 -0.82560687448E+02  0.84165000745E+02  0.12191620358E+03  0.10566000000E+00 0. -1.
        994    1    1    2    0    0  0.15754708429E+02  0.75251218893E+02  0.65451343318E+02  0.19875682410E+03  0.17120000000E+03 0.  0.
        998    1    1    2    0    0  0.15286152860E+02  0.73094685549E+01  0.13503836522E+04  0.13505269723E+04  0.10000000000E+02 0. -1.
</event>
<event>
 5    1  0.1334136E-008  0.3824234E+03  0.7957747E-01  0.3440674E+00
         13   -1    0    0    0    0  0.00000000000E+00  0.00000000000E+00  0.14999999963E+04  0.15000000000E+04  0.10566000000E+00 0.  1.
        994   -1    0    0    0    0 -0.00000000000E+00 -0.00000000000E+00  0.11368683772E-12  0.17120000000E+03  0.17120000000E+03 0.  0.
         13    1    1    2    0    0 -0.12068939757E+02 -0.15919294341E+02  0.80490721460E+02  0.82932808010E+02  0.10566000000E+00 0.  1.
        994    1    1    2    0    0 -0.10019881834E+02 -0.16138632116E+02  0.41124561573E+01  0.17229975558E+03  0.17120000000E+03 0.  0.
        998    1    1    2    0    0  0.22088821590E+02  0.32057926457E+02  0.14153968187E+04  0.14159674364E+04  0.10000000000E+02 0.  1.
</event>
<event>
 5    1  0.1334136E-008  0.3837109E+03  0.7957747E-01  0.3435158E+00
         13   -1    0    0    0    0  0.00000000000E+00  0.00000000000E+00  0.14999999963E+04  0.15000000000E+04  0.10566000000E+00 0. -1.
        994   -1    0    0    0    0 -0.00000000000E+00 -0.00000000000E+00  0.11368683772E-12  0.17120000000E+03  0.17120000000E+03 0.  0.
         13    1    1    2    0    0 -0.54100039053E+01  0.13668324691E+02  0.44525536533E+02  0.46889506393E+02  0.10566000000E+00 0. -1.
        994    1    1    2    0    0  0.29279023073E+01 -0.22127950031E+02  0.39185949234E+01  0.17269341091E+03  0.17120000000E+03 0.  0.
        998    1    1    2    0    0  0.24821015981E+01  0.84596253404E+01  0.14515558648E+04  0.14516170827E+04  0.10000000000E+02 0. -1.
</event>
<event>
 5    1  0.1334136E-008  0.3853929E+03  0.7957747E-01  0.3428008E+00
         13   -1    0    0    0    0  0.00000000000E+00  0.00000000000E+00  0.14999999963E+04  0.15000000000E+04  0.10566000000E+00 0.  1.
        994   -1    0    0    0    0 -0.00000000000E+00 -0.00000000000E+00  0.11368683772E-12  0.17120000000E+03  0.17120000000E+03 0.  0.
         13    1    1    2    0    0 -0.92316700832E+01 -0.40099578723E+01  0.35432143229E+02  0.36834106919E+02  0.10566000000E+00 0.  1.
        994    1    1    2    0    0  0.45259190971E+01  0.48320478080E+01  0.15791808245E+01  0.17133524577E+03  0.17120000000E+03 0.  0.
        998    1    1    2    0    0  0.47057509861E+01 -0.82208993570E+00  0.14629886722E+04  0.14630306473E+04  0.10000000000E+02 0.  1.
</event>
<event>
 5    1  0.1334136E-008  0.3849173E+03  0.7957747E-01  0.3430023E+00
         13   -1    0    0    0    0  0.00000000000E+00  0.00000000000E+00  0.14999999963E+04  0.15000000000E+04  0.10566000000E+00 0. -1.
        994   -1    0    0    0    0 -0.00000000000E+00 -0.00000000000E+00  0.11368683772E-12  0.17120000000E+03  0.17120000000E+03 0.  0.
         13    1    1    2    0    0 -0.14779711566E+03  0.13935209138E+03  0.11986352195E+04  0.12157258710E+04  0.10566000000E+00 0. -1.
        994    1    1    2    0    0  0.14925437260E+03 -0.14129449057E+03  0.15581737639E+03  0.30956339511E+03  0.17120000000E+03 0.  0.
        998    1    1    2    0    0 -0.14572569401E+01  0.19423991870E+01  0.14554740035E+03  0.14591073388E+03  0.10000000000E+02 0.  0.
</event>
<event>
 5    1  0.1334136E-008  0.3764788E+03  0.7957747E-01  0.3466635E+00
         13   -1    0    0    0    0  0.00000000000E+00  0.00000000000E+00  0.14999999963E+04  0.15000000000E+04  0.10566000000E+00 0.  1.
        994   -1    0    0    0    0 -0.00000000000E+00 -0.00000000000E+00  0.11368683772E-12  0.17120000000E+03  0.17120000000E+03 0.  0.
         13    1    1    2    0    0  0.12812655739E+02  0.14266845347E+02  0.27996180296E+02  0.33933822337E+02  0.10566000000E+00 0.  1.
        994    1    1    2    0    0 -0.13814119632E+02 -0.15924488394E+02  0.74258979905E+01  0.17265284009E+03  0.17120000000E+03 0.  0.
        998    1    1    2    0    0  0.10014638930E+01  0.16576430470E+01  0.14645779180E+04  0.14646133376E+04  0.10000000000E+02 0.  1.
</event>
<event>
 5    1  0.1334136E-008  0.3693775E+03  0.7957747E-01  0.3498757E+00
         13   -1    0    0    0    0  0.00000000000E+00  0.00000000000E+00  0.14999999963E+04  0.15000000000E+04  0.10566000000E+00 0. -1.
        994   -1    0    0    0    0 -0.00000000000E+00 -0.00000000000E+00  0.11368683772E-12  0.17120000000E+03  0.17120000000E+03 0.  0.
         13    1    1    2    0    0  0.29035099055E+02  0.78606402947E-02  0.36291960732E+02  0.46477463536E+02  0.10566000000E+00 0. -1.
        994    1    1    2    0    0 -0.82414639317E+01  0.69260006421E+02  0.27778803883E+02  0.18693841810E+03  0.17120000000E+03 0.  0.
        998    1    1    2    0    0 -0.20793635123E+02 -0.69267867061E+02  0.14359292317E+04  0.14377841184E+04  0.10000000000E+02 0. -1.
</event>
<event>
 5    1  0.1334136E-008  0.3739288E+03  0.7957747E-01  0.3478027E+00
         13   -1    0    0    0    0  0.00000000000E+00  0.00000000000E+00  0.14999999963E+04  0.15000000000E+04  0.10566000000E+00 0.  1.
        994   -1    0    0    0    0 -0.00000000000E+00 -0.00000000000E+00  0.11368683772E-12  0.17120000000E+03  0.17120000000E+03 0.  0.
         13    1    1    2    0    0 -0.92976309715E+01 -0.92902038265E+02  0.43589806609E+03  0.44578511622E+03  0.10566000000E+00 0.  1.
        994    1    1    2    0    0 -0.13508667133E+02  0.92428080737E+02  0.37607369702E+02  0.19861819769E+03  0.17120000000E+03 0.  0.
        998    1    1    2    0    0  0.22806298104E+02  0.47395752805E+00  0.10264945605E+04  0.10267966861E+04  0.10000000000E+02 0.  1.
</event>
<event>
 5    1  0.1334136E-008  0.3769496E+03  0.7957747E-01  0.3464549E+00
         13   -1    0    0    0    0  0.00000000000E+00  0.00000000000E+00  0.14999999963E+04  0.15000000000E+04  0.10566000000E+00 0.  1.
        994   -1    0    0    0    0 -0.00000000000E+00 -0.00000000000E+00  0.11368683772E-12  0.17120000000E+03  0.17120000000E+03 0.  0.
         13    1    1    2    0    0  0.17774088252E+00  0.29316685946E+02  0.72669732523E+02  0.78360709898E+02  0.10566000000E+00 0.  1.
        994    1    1    2    0    0  0.27595588157E+01 -0.21562176717E+02  0.72783796717E+01  0.17272798685E+03  0.17120000000E+03 0.  0.
        998    1    1    2    0    0 -0.29372996982E+01 -0.77545092288E+01  0.14200518841E+04  0.14201113033E+04  0.10000000000E+02 0.  1.
</event>
<event>
 5    1  0.1334136E-008  0.3788834E+03  0.7957747E-01  0.3456035E+00
         13   -1    0    0    0    0  0.00000000000E+00  0.00000000000E+00  0.14999999963E+04  0.15000000000E+04  0.10566000000E+00 0.  1.
        994   -1    0    0    0    0 -0.00000000000E+00 -0.00000000000E+00  0.11368683772E-12  0.17120000000E+03  0.17120000000E+03 0.  0.
         13    1    1    2    0    0 -0.11486477815E+02  0.83539011882E+01  0.19365684567E+02  0.24015989267E+02  0.10566000000E+00 0.  1.
        994    1    1    2    0    0  0.11042380048E+02 -0.57253548374E+01  0.52171195313E+01  0.17173052199E+03  0.17120000000E+03 0.  0.
        998    1    1    2    0    0  0.44409776701E+00 -0.26285463508E+01  0.14754171922E+04  0.14754534887E+04  0.10000000000E+02 0.  1.
</event>
<event>
 5    1  0.1334136E-008  0.3837914E+03  0.7957747E-01  0.3434814E+00
         13   -1    0    0    0    0  0.00000000000E+00  0.00000000000E+00  0.14999999963E+04  0.15000000000E+04  0.10566000000E+00 0.  1.
        994   -1    0    0    0    0 -0.00000000000E+00 -0.00000000000E+00  0.11368683772E-12  0.17120000000E+03  0.17120000000E+03 0.  0.
         13    1    1    2    0    0 -0.25482813577E+01 -0.16571156105E+02  0.61000348831E+02  0.63262553490E+02  0.10566000000E+00 0.  1.
        994    1    1    2    0    0  0.10925144890E+01  0.15466054350E+02  0.30254520866E+01  0.17192726888E+03  0.17120000000E+03 0.  0.
        998    1    1    2    0    0  0.14557668687E+01  0.11051017544E+01  0.14359741954E+04  0.14360101776E+04  0.10000000000E+02 0.  1.
</event>
<event>
 5    1  0.1334136E-008  0.3859475E+03  0.7957747E-01  0.3425664E+00
         13   -1    0    0    0    0  0.00000000000E+00  0.00000000000E+00  0.14999999963E+04  0.15000000000E+04  0.10566000000E+00 0. -1.
        994   -1    0    0    0    0 -0.00000000000E+00 -0.00000000000E+00  0.11368683772E-12  0.17120000000E+03  0.17120000000E+03 0.  0.
         13    1    1    2    0    0  0.10670560843E+02  0.42033816237E+01  0.62018752513E+02  0.63070326724E+02  0.10566000000E+00 0. -1.
        994    1    1    2    0    0  0.53361980938E+01 -0.54623710779E+01  0.13516440600E+01  0.17137555091E+03  0.17120000000E+03 0.  0.
        998    1    1    2    0    0 -0.16006758937E+02  0.12589894542E+01  0.14366295997E+04  0.14367541224E+04  0.10000000000E+02 0. -1.
</event>
<event>
 5    1  0.1334136E-008  0.3719044E+03  0.7957747E-01  0.3487184E+00
         13   -1    0    0    0    0  0.00000000000E+00  0.00000000000E+00  0.14999999963E+04  0.15000000000E+04  0.10566000000E+00 0.  1.
        994   -1    0    0    0    0 -0.00000000000E+00 -0.00000000000E+00  0.11368683772E-12  0.17120000000E+03  0.17120000000E+03 0.  0.
         13    1    1    2    0    0 -0.48204010334E+02  0.41258892775E+02  0.15569738494E+03  0.16812974064E+03  0.10566000000E+00 0.  1.
        994    1    1    2    0    0  0.41671675476E+02 -0.31471167201E+02  0.21609402888E+02  0.18028690800E+03  0.17120000000E+03 0.  0.
        998    1    1    2    0    0  0.65323348576E+01 -0.97877255739E+01  0.13226932085E+04  0.13227833514E+04  0.10000000000E+02 0.  1.
</event>
<event>
 5    1  0.1334136E-008  0.3807472E+03  0.7957747E-01  0.3447912E+00
         13   -1    0    0    0    0  0.00000000000E+00  0.00000000000E+00  0.14999999963E+04  0.15000000000E+04  0.10566000000E+00 0. -1.
        994   -1    0    0    0    0 -0.00000000000E+00 -0.00000000000E+00  0.11368683772E-12  0.17120000000E+03  0.17120000000E+03 0.  0.
         13    1    1    2    0    0  0.56550629036E+02  0.11090623682E+01  0.34205302325E+03  0.34669797453E+03  0.10566000000E+00 0. -1.
        994    1    1    2    0    0 -0.53299321383E+02 -0.76778060946E+01  0.13487427126E+02  0.17997532347E+03  0.17120000000E+03 0.  0.
        998    1    1    2    0    0 -0.32513076524E+01  0.65687437264E+01  0.11444595459E+04  0.11445267020E+04  0.10000000000E+02 0. -1.
</event>
<event>
 5    1  0.1334136E-008  0.3725049E+03  0.7957747E-01  0.3484458E+00
         13   -1    0    0    0    0  0.00000000000E+00  0.00000000000E+00  0.14999999963E+04  0.15000000000E+04  0.10566000000E+00 0.  1.
        994   -1    0    0    0    0 -0.00000000000E+00 -0.00000000000E+00  0.11368683772E-12  0.17120000000E+03  0.17120000000E+03 0.  0.
         13    1    1    2    0    0  0.77368525159E+01 -0.28183952205E+02  0.49353644125E+02  0.57358411773E+02  0.10566000000E+00 0.  1.
        994    1    1    2    0    0  0.36092297427E+01  0.29175850088E+02  0.10934106757E+02  0.17404956610E+03  0.17120000000E+03 0.  0.
        998    1    1    2    0    0 -0.11346082259E+02 -0.99189788310E+00  0.14397122454E+04  0.14397920221E+04  0.10000000000E+02 0.  1.
</event>
<event>
 5    1  0.1334136E-008  0.3746959E+03  0.7957747E-01  0.3474584E+00
         13   -1    0    0    0    0  0.00000000000E+00  0.00000000000E+00  0.14999999963E+04  0.15000000000E+04  0.10566000000E+00 0. -1.
        994   -1    0    0    0    0 -0.00000000000E+00 -0.00000000000E+00  0.11368683772E-12  0.17120000000E+03  0.17120000000E+03 0.  0.
         13    1    1    2    0    0 -0.66382963305E+02 -0.12804189952E+02  0.28200121319E+03  0.28999196628E+03  0.10566000000E+00 0. -1.
        994    1    1    2    0    0  0.59675481987E+02  0.17726115087E+02  0.20138115883E+02  0.18327673616E+03  0.17120000000E+03 0.  0.
        998    1    1    2    0    0  0.67074813181E+01 -0.49219251350E+01  0.11978606672E+04  0.11979312976E+04  0.10000000000E+02 0. -1.
</event>
<event>
 5    1  0.1334136E-008  0.3778093E+03  0.7957747E-01  0.3460753E+00
         13   -1    0    0    0    0  0.00000000000E+00  0.00000000000E+00  0.14999999963E+04  0.15000000000E+04  0.10566000000E+00 0.  1.
        994   -1    0    0    0    0 -0.00000000000E+00 -0.00000000000E+00  0.11368683772E-12  0.17120000000E+03  0.17120000000E+03 0.  0.
         13    1    1    2    0    0  0.37121087985E+02 -0.13918327960E+02  0.15717830899E+03  0.16210097781E+03  0.10566000000E+00 0.  1.
        994    1    1    2    0    0 -0.74920031596E+01  0.18070743837E+02  0.65327718057E+01  0.17243781198E+03  0.17120000000E+03 0.  0.
        998    1    1    2    0    0 -0.29629084825E+02 -0.41524158771E+01  0.13362889155E+04  0.13366612102E+04  0.10000000000E+02 0.  1.
</event>
<event>
 5    1  0.1334136E-008  0.3844121E+03  0.7957747E-01  0.3432170E+00
         13   -1    0    0    0    0  0.00000000000E+00  0.00000000000E+00  0.14999999963E+04  0.15000000000E+04  0.10566000000E+00 0. -1.
        994   -1    0    0    0    0 -0.00000000000E+00 -0.00000000000E+00  0.11368683772E-12  0.17120000000E+03  0.17120000000E+03 0.  0.
         13    1    1    2    0    0 -0.22388526895E+02 -0.11338858733E+01  0.13101935745E+03  0.13292334266E+03  0.10566000000E+00 0. -1.
        994    1    1    2    0    0  0.16494047969E+02 -0.29700885563E+02  0.57345979948E+01  0.17463253373E+03  0.17120000000E+03 0.  0.
        998    1    1    2    0    0  0.58944789264E+01  0.30834771436E+02  0.13632460408E+04  0.13636441236E+04  0.10000000000E+02 0. -1.
</event>
<event>
 5    1  0.1334136E-008  0.3824368E+03  0.7957747E-01  0.3440616E+00
         13   -1    0    0    0    0  0.00000000000E+00  0.00000000000E+00  0.14999999963E+04  0.15000000000E+04  0.10566000000E+00 0.  1.
        994   -1    0    0    0    0 -0.00000000000E+00 -0.00000000000E+00  0.11368683772E-12  0.17120000000E+03  0.17120000000E+03 0.  0.
         13    1    1    2    0    0  0.26576956734E+01  0.27060495962E+02  0.12678767424E+03  0.12967057989E+03  0.10566000000E+00 0.  1.
        994    1    1    2    0    0  0.33244019666E+01 -0.16157081338E+02  0.38109575922E+01  0.17203507295E+03  0.17120000000E+03 0.  0.
        998    1    1    2    0    0 -0.59820976400E+01 -0.10903414624E+02  0.13694013645E+04  0.13694943472E+04  0.10000000000E+02 0.  1.
</event>
<event>
 5    1  0.1334136E-008  0.3797370E+03  0.7957747E-01  0.3452304E+00
         13   -1    0    0    0    0  0.00000000000E+00  0.00000000000E+00  0.14999999963E+04  0.15000000000E+04  0.10566000000E+00 0.  1.
        994   -1    0    0    0    0 -0.00000000000E+00 -0.00000000000E+00  0.11368683772E-12  0.17120000000E+03  0.17120000000E+03 0.  0.
         13    1    1    2    0    0  0.36016510082E+01 -0.15836460739E+02  0.29766112137E+02  0.33908671081E+02  0.10566000000E+00 0.  1.
        994    1    1    2    0    0  0.42905986020E+01  0.59501796423E+01  0.44460137875E+01  0.17141476282E+03  0.17120000000E+03 0.  0.
        998    1    1    2    0    0 -0.78922496102E+01  0.98862810971E+01  0.14657878704E+04  0.14658765661E+04  0.10000000000E+02 0.  1.
</event>
<event>
 5    1  0.1334136E-008  0.3724938E+03  0.7957747E-01  0.3484508E+00
         13   -1    0    0    0    0  0.00000000000E+00  0.00000000000E+00  0.14999999963E+04  0.15000000000E+04  0.10566000000E+00 0.  1.
        994   -1    0    0    0    0 -0.00000000000E+00 -0.00000000000E+00  0.11368683772E-12  0.17120000000E+03  0.17120000000E+03 0.  0.
         13    1    1    2    0    0 -0.25259263662E+02 -0.11099310735E+02  0.41739840425E+02  0.50034493525E+02  0.10566000000E+00 0.  1.
        994    1    1    2    0    0  0.36302565037E+02  0.20916393271E+02  0.14013167216E+02  0.17680831596E+03  0.17120000000E+03 0.  0.
        998    1    1    2    0    0 -0.11043301374E+02 -0.98170825363E+01  0.14442469886E+04  0.14443571905E+04  0.10000000000E+02 0.  1.
</event>
<event>
 5    1  0.1334136E-008  0.3729412E+03  0.7957747E-01  0.3482482E+00
         13   -1    0    0    0    0  0.00000000000E+00  0.00000000000E+00  0.14999999963E+04  0.15000000000E+04  0.10566000000E+00 0. -1.
        994   -1    0    0    0    0 -0.00000000000E+00 -0.00000000000E+00  0.11368683772E-12  0.17120000000E+03  0.17120000000E+03 0.  0.
         13    1    1    2    0    0  0.41853242714E+01  0.34286868145E+02  0.71128201754E+02  0.79071730190E+02  0.10566000000E+00 0. -1.
        994    1    1    2    0    0 -0.11304794581E+01 -0.34428616661E+02  0.11812330879E+02  0.17503022250E+03  0.17120000000E+03 0.  0.
        998    1    1    2    0    0 -0.30548448132E+01  0.14174851637E+00  0.14170594636E+04  0.14170980473E+04  0.10000000000E+02 0. -1.
</event>
<event>
 5    1  0.1334136E-008  0.3772447E+03  0.7957747E-01  0.3463244E+00
         13   -1    0    0    0    0  0.00000000000E+00  0.00000000000E+00  0.14999999963E+04  0.15000000000E+04  0.10566000000E+00 0.  1.
        994   -1    0    0    0    0 -0.00000000000E+00 -0.00000000000E+00  0.11368683772E-12  0.17120000000E+03  0.17120000000E+03 0.  0.
         13    1    1    2    0    0  0.18366691203E+02 -0.40739977686E+02  0.14170594207E+03  0.14858555216E+03  0.10566000000E+00 0.  1.
        994    1    1    2    0    0 -0.11364069551E+02  0.72071050353E+02  0.23705880361E+02  0.18760273756E+03  0.17120000000E+03 0.  0.
        998    1    1    2    0    0 -0.70026216520E+01 -0.31331072668E+02  0.13345881738E+04  0.13350117103E+04  0.10000000000E+02 0.  1.
</event>
<event>
 5    1  0.1334136E-008  0.3769949E+03  0.7957747E-01  0.3464349E+00
         13   -1    0    0    0    0  0.00000000000E+00  0.00000000000E+00  0.14999999963E+04  0.15000000000E+04  0.10566000000E+00 0.  1.
        994   -1    0    0    0    0 -0.00000000000E+00 -0.00000000000E+00  0.11368683772E-12  0.17120000000E+03  0.17120000000E+03 0.  0.
         13    1    1    2    0    0 -0.71771760232E+01  0.16251521940E+02  0.25325399071E+02  0.30935591528E+02  0.10566000000E+00 0.  1.
        994    1    1    2    0    0  0.29702760685E+01 -0.15487805814E+02  0.64980182730E+01  0.17204754840E+03  0.17120000000E+03 0.  0.
        998    1    1    2    0    0  0.42068999547E+01 -0.76371612607E+00  0.14681765789E+04  0.14682168601E+04  0.10000000000E+02 0.  1.
</event>
<event>
 5    1  0.1334136E-008  0.3846845E+03  0.7957747E-01  0.3431011E+00
         13   -1    0    0    0    0  0.00000000000E+00  0.00000000000E+00  0.14999999963E+04  0.15000000000E+04  0.10566000000E+00 0. -1.
        994   -1    0    0    0    0 -0.00000000000E+00 -0.00000000000E+00  0.11368683772E-12  0.17120000000E+03  0.17120000000E+03 0.  0.
         13    1    1    2    0    0 -0.77286728733E-01 -0.12588795810E+02  0.44255531527E+02  0.46011378896E+02  0.10566000000E+00 0. -1.
        994    1    1    2    0    0  0.74131593169E+01  0.78043469541E+01  0.21683805454E+01  0.17155175498E+03  0.17120000000E+03 0.  0.
        998    1    1    2    0    0 -0.73358725882E+01  0.47844488561E+01  0.14535760842E+04  0.14536368661E+04  0.10000000000E+02 0. -1.
</event>
<event>
 5    1  0.1334136E-008  0.3852709E+03  0.7957747E-01  0.3428524E+00
         13   -1    0    0    0    0  0.00000000000E+00  0.00000000000E+00  0.14999999963E+04  0.15000000000E+04  0.10566000000E+00 0.  1.
        994   -1    0    0    0    0 -0.00000000000E+00 -0.00000000000E+00  0.11368683772E-12  0.17120000000E+03  0.17120000000E+03 0.  0.
         13    1    1    2    0    0 -0.85039355442E+01  0.56112751352E+01  0.33221271728E+02  0.34748631450E+02  0.10566000000E+00 0.  1.
        994    1    1    2    0    0  0.15503704401E+02 -0.49576539413E+01  0.23667000337E+01  0.17198832650E+03  0.17120000000E+03 0.  0.
        998    1    1    2    0    0 -0.69997688570E+01 -0.65362119388E+00  0.14644120245E+04  0.14644630421E+04  0.10000000000E+02 0.  1.
</event>
<event>
 5    1  0.1334136E-008  0.3845316E+03  0.7957747E-01  0.3431661E+00
         13   -1    0    0    0    0  0.00000000000E+00  0.00000000000E+00  0.14999999963E+04  0.15000000000E+04  0.10566000000E+00 0.  1.
        994   -1    0    0    0    0 -0.00000000000E+00 -0.00000000000E+00  0.11368683772E-12  0.17120000000E+03  0.17120000000E+03 0.  0.
         13    1    1    2    0    0  0.12017759294E+01 -0.12989179972E+02  0.44936092099E+02  0.46791309011E+02  0.10566000000E+00 0.  1.
        994    1    1    2    0    0 -0.27315675634E+01  0.10511699554E+02  0.22514764833E+01  0.17155892992E+03  0.17120000000E+03 0.  0.
        998    1    1    2    0    0  0.15297916339E+01  0.24774804184E+01  0.14528124277E+04  0.14528497611E+04  0.10000000000E+02 0.  1.
</event>
<event>
 5    1  0.1334136E-008  0.3759813E+03  0.7957747E-01  0.3468846E+00
         13   -1    0    0    0    0  0.00000000000E+00  0.00000000000E+00  0.14999999963E+04  0.15000000000E+04  0.10566000000E+00 0. -1.
        994   -1    0    0    0    0 -0.00000000000E+00 -0.00000000000E+00  0.11368683772E-12  0.17120000000E+03  0.17120000000E+03 0.  0.
         13    1    1    2    0    0  0.34348329336E+02 -0.17929190954E+02  0.13310484269E+03  0.13862962861E+03  0.10566000000E+00 0. -1.
        994    1    1    2    0    0 -0.36206955556E+01 -0.32000511111E+01  0.62547975599E+01  0.17138235690E+03  0.17120000000E+03 0.  0.
        998    1    1    2    0    0 -0.30727633781E+02  0.21129242065E+02  0.13606403560E+04  0.13611880145E+04  0.10000000000E+02 0. -1.
</event>
<event>
 5    1  0.1334136E-008  0.3856799E+03  0.7957747E-01  0.3426794E+00
         13   -1    0    0    0    0  0.00000000000E+00  0.00000000000E+00  0.14999999963E+04  0.15000000000E+04  0.10566000000E+00 0. -1.
        994   -1    0    0    0    0 -0.00000000000E+00 -0.00000000000E+00  0.11368683772E-12  0.17120000000E+03  0.17120000000E+03 0.  0.
         13    1    1    2    0    0 -0.10319571129E+02  0.28146144709E+01  0.45367793943E+02  0.46611838563E+02  0.10566000000E+00 0. -1.
        994    1    1    2    0    0 -0.42546211252E+00 -0.18290732885E+02  0.23921215603E+01  0.17219144628E+03  0.17120000000E+03 0.  0.
        998    1    1    2    0    0  0.10745033241E+02  0.15476118414E+02  0.14522400808E+04  0.14523967152E+04  0.10000000000E+02 0. -1.
</event>
<event>
 5    1  0.1334136E-008  0.3854192E+03  0.7957747E-01  0.3427896E+00
         13   -1    0    0    0    0  0.00000000000E+00  0.00000000000E+00  0.14999999963E+04  0.15000000000E+04  0.10566000000E+00 0. -1.
        994   -1    0    0    0    0 -0.00000000000E+00 -0.00000000000E+00  0.11368683772E-12  0.17120000000E+03  0.17120000000E+03 0.  0.
         13    1    1    2    0    0  0.56887321872E+01  0.97948452727E+01  0.45918613407E+02  0.47295146570E+02  0.10566000000E+00 0. -1.
        994    1    1    2    0    0 -0.89642072112E+01 -0.64825843205E+00  0.16875057489E+01  0.17144405771E+03  0.17120000000E+03 0.  0.
        998    1    1    2    0    0  0.32754750240E+01 -0.91465868406E+01  0.14523938771E+04  0.14524607957E+04  0.10000000000E+02 0. -1.
</event>
<event>
 5    1  0.1334136E-008  0.3851008E+03  0.7957747E-01  0.3429245E+00
         13   -1    0    0    0    0  0.00000000000E+00  0.00000000000E+00  0.14999999963E+04  0.15000000000E+04  0.10566000000E+00 0.  1.
        994   -1    0    0    0    0 -0.00000000000E+00 -0.00000000000E+00  0.11368683772E-12  0.17120000000E+03  0.17120000000E+03 0.  0.
         13    1    1    2    0    0 -0.13694025100E+02 -0.10417052689E+02  0.83268517562E+02  0.85027633692E+02  0.10566000000E+00 0.  1.
        994    1    1    2    0    0  0.89828512782E+01  0.35449527646E+02  0.59891833494E+01  0.17516469663E+03  0.17120000000E+03 0.  0.
        998    1    1    2    0    0  0.47111738213E+01 -0.25032474957E+02  0.14107422954E+04  0.14110076697E+04  0.10000000000E+02 0.  1.
</event>
<event>
 5    1  0.1484793E-008  0.3861436E+03  0.7957747E-01  0.3424836E+00
         13   -1    0    0    0    0  0.00000000000E+00  0.00000000000E+00  0.14999999963E+04  0.15000000000E+04  0.10566000000E+00 0.  1.
        994   -1    0    0    0    0 -0.00000000000E+00 -0.00000000000E+00  0.11368683772E-12  0.17120000000E+03  0.17120000000E+03 0.  0.
         13    1    1    2    0    0  0.24642704607E+01  0.11155311532E+02  0.57256758530E+02  0.58385453374E+02  0.10566000000E+00 0.  1.
        994    1    1    2    0    0 -0.62477865714E+01 -0.18353155344E+02  0.22959136936E+01  0.17230955971E+03  0.17120000000E+03 0.  0.
        998    1    1    2    0    0  0.37835161107E+01  0.71978438116E+01  0.14404473241E+04  0.14405049869E+04  0.10000000000E+02 0.  1.
</event>
<event>
 5    1  0.1334136E-008  0.3855014E+03  0.7957747E-01  0.3427548E+00
         13   -1    0    0    0    0  0.00000000000E+00  0.00000000000E+00  0.14999999963E+04  0.15000000000E+04  0.10566000000E+00 0. -1.
        994   -1    0    0    0    0 -0.00000000000E+00 -0.00000000000E+00  0.11368683772E-12  0.17120000000E+03  0.17120000000E+03 0.  0.
         13    1    1    2    0    0  0.33306616069E+01  0.13720719734E+02  0.75177994939E+02  0.76492441089E+02  0.10566000000E+00 0. -1.
        994    1    1    2    0    0  0.75934086619E+01 -0.65416424088E+01  0.17112749837E+01  0.17150166589E+03  0.17120000000E+03 0.  0.
        998    1    1    2    0    0 -0.10924070269E+02 -0.71790773255E+01  0.14231107264E+04  0.14232058930E+04  0.10000000000E+02 0. -1.
</event>
<event>
 5    1  0.1334136E-008  0.3756365E+03  0.7957747E-01  0.3470381E+00
         13   -1    0    0    0    0  0.00000000000E+00  0.00000000000E+00  0.14999999963E+04  0.15000000000E+04  0.10566000000E+00 0.  1.
        994   -1    0    0    0    0 -0.00000000000E+00 -0.00000000000E+00  0.11368683772E-12  0.17120000000E+03  0.17120000000E+03 0.  0.
         13    1    1    2    0    0  0.14382078669E+02  0.57163074956E+02  0.23577690383E+03  0.24303337398E+03  0.10566000000E+00 0.  1.
        994    1    1    2    0    0 -0.39335403071E+02 -0.47905983478E+02  0.19498258263E+02  0.18311711898E+03  0.17120000000E+03 0.  0.
        998    1    1    2    0    0  0.24953324402E+02 -0.92570914780E+01  0.12447248342E+04  0.12450495070E+04  0.10000000000E+02 0.  1.
</event>
<event>
 5    1  0.1334136E-008  0.3856767E+03  0.7957747E-01  0.3426807E+00
         13   -1    0    0    0    0  0.00000000000E+00  0.00000000000E+00  0.14999999963E+04  0.15000000000E+04  0.10566000000E+00 0.  1.
        994   -1    0    0    0    0 -0.00000000000E+00 -0.00000000000E+00  0.11368683772E-12  0.17120000000E+03  0.17120000000E+03 0.  0.
         13    1    1    2    0    0  0.11545657913E+02 -0.85953538039E+00  0.63493628358E+02  0.64540630798E+02  0.10566000000E+00 0.  1.
        994    1    1    2    0    0  0.18979224509E+02 -0.57762733330E+01  0.25871234526E+01  0.17236504722E+03  0.17120000000E+03 0.  0.
        998    1    1    2    0    0 -0.30524882422E+02  0.66358087134E+01  0.14339192445E+04  0.14342943220E+04  0.10000000000E+02 0.  1.
</event>
<event>
 5    1  0.1334136E-008  0.3821930E+03  0.7957747E-01  0.3441665E+00
         13   -1    0    0    0    0  0.00000000000E+00  0.00000000000E+00  0.14999999963E+04  0.15000000000E+04  0.10566000000E+00 0.  1.
        994   -1    0    0    0    0 -0.00000000000E+00 -0.00000000000E+00  0.11368683772E-12  0.17120000000E+03  0.17120000000E+03 0.  0.
         13    1    1    2    0    0  0.42124433705E+00  0.23164076416E+02  0.83180202539E+02  0.86346448343E+02  0.10566000000E+00 0.  1.
        994    1    1    2    0    0 -0.38100745525E+01 -0.24099520016E+02  0.50084267756E+01  0.17300239268E+03  0.17120000000E+03 0.  0.
        998    1    1    2    0    0  0.33888302155E+01  0.93544359951E+00  0.14118113670E+04  0.14118511590E+04  0.10000000000E+02 0.  0.
</event>
<event>
 5    1  0.1334136E-008  0.3806378E+03  0.7957747E-01  0.3448386E+00
         13   -1    0    0    0    0  0.00000000000E+00  0.00000000000E+00  0.14999999963E+04  0.15000000000E+04  0.10566000000E+00 0.  1.
        994   -1    0    0    0    0 -0.00000000000E+00 -0.00000000000E+00  0.11368683772E-12  0.17120000000E+03  0.17120000000E+03 0.  0.
         13    1    1    2    0    0  0.37391857653E+02  0.85988847134E+01  0.18949963002E+03  0.19334480283E+03  0.10566000000E+00 0.  1.
        994    1    1    2    0    0 -0.22854324392E+02 -0.71413039644E+01  0.57264088253E+01  0.17296112316E+03  0.17120000000E+03 0.  0.
        998    1    1    2    0    0 -0.14537533261E+02 -0.14575807490E+01  0.13047739574E+04  0.13048940740E+04  0.10000000000E+02 0.  1.
</event>
<event>
 5    1  0.1334136E-008  0.3747383E+03  0.7957747E-01  0.3474394E+00
         13   -1    0    0    0    0  0.00000000000E+00  0.00000000000E+00  0.14999999963E+04  0.15000000000E+04  0.10566000000E+00 0. -1.
        994   -1    0    0    0    0 -0.00000000000E+00 -0.00000000000E+00  0.11368683772E-12  0.17120000000E+03  0.17120000000E+03 0.  0.
         13    1    1    2    0    0  0.75067552201E+02 -0.14682640817E+02  0.25230188337E+03  0.26364174338E+03  0.10566000000E+00 0. -1.
        994    1    1    2    0    0 -0.16211850545E+02 -0.13008887806E+02  0.15003926476E+02  0.17310867416E+03  0.17120000000E+03 0.  0.
        998    1    1    2    0    0 -0.58855701655E+02  0.27691528623E+02  0.12326941864E+04  0.12344495825E+04  0.10000000000E+02 0. -1.
</event>
<event>
 5    1  0.1334136E-008  0.3720849E+03  0.7957747E-01  0.3486364E+00
         13   -1    0    0    0    0  0.00000000000E+00  0.00000000000E+00  0.14999999963E+04  0.15000000000E+04  0.10566000000E+00 0. -1.
        994   -1    0    0    0    0 -0.00000000000E+00 -0.00000000000E+00  0.11368683772E-12  0.17120000000E+03  0.17120000000E+03 0.  0.
         13    1    1    2    0    0 -0.22825254998E+02  0.10718827024E+01  0.27992212993E+02  0.36134697322E+02  0.10566000000E+00 0. -1.
        994    1    1    2    0    0  0.23179134650E+02 -0.27995237865E-01  0.10030019531E+02  0.17305292358E+03  0.17120000000E+03 0.  0.
        998    1    1    2    0    0 -0.35387965243E+00 -0.10438874645E+01  0.14619777638E+04  0.14620123791E+04  0.10000000000E+02 0. -1.
</event>
<event>
 5    1  0.1334136E-008  0.3732982E+03  0.7957747E-01  0.3480869E+00
         13   -1    0    0    0    0  0.00000000000E+00  0.00000000000E+00  0.14999999963E+04  0.15000000000E+04  0.10566000000E+00 0.  1.
        994   -1    0    0    0    0 -0.00000000000E+00 -0.00000000000E+00  0.11368683772E-12  0.17120000000E+03  0.17120000000E+03 0.  0.
         13    1    1    2    0    0 -0.40455819146E+01  0.55146822613E+02  0.11407946508E+03  0.12677410735E+03  0.10566000000E+00 0.  1.
        994    1    1    2    0    0 -0.18503768341E+02 -0.41751816537E+02  0.20106689599E+02  0.17832364564E+03  0.17120000000E+03 0.  0.
        998    1    1    2    0    0  0.22549350256E+02 -0.13395006076E+02  0.13658138416E+04  0.13661022470E+04  0.10000000000E+02 0.  1.
</event>
<event>
 5    1  0.1334136E-008  0.3738671E+03  0.7957747E-01  0.3478305E+00
         13   -1    0    0    0    0  0.00000000000E+00  0.00000000000E+00  0.14999999963E+04  0.15000000000E+04  0.10566000000E+00 0. -1.
        994   -1    0    0    0    0 -0.00000000000E+00 -0.00000000000E+00  0.11368683772E-12  0.17120000000E+03  0.17120000000E+03 0.  0.
         13    1    1    2    0    0 -0.12574081920E+01  0.19283622580E+02  0.21818891989E+02  0.29146430087E+02  0.10566000000E+00 0. -1.
        994    1    1    2    0    0 -0.27353402626E+01 -0.28585909536E+02  0.10080634689E+02  0.17388414392E+03  0.17120000000E+03 0.  0.
        998    1    1    2    0    0  0.39927484546E+01  0.93022869557E+01  0.14681004696E+04  0.14681694260E+04  0.10000000000E+02 0. -1.
</event>
<event>
 5    1  0.1334136E-008  0.3806102E+03  0.7957747E-01  0.3448506E+00
         13   -1    0    0    0    0  0.00000000000E+00  0.00000000000E+00  0.14999999963E+04  0.15000000000E+04  0.10566000000E+00 0. -1.
        994   -1    0    0    0    0 -0.00000000000E+00 -0.00000000000E+00  0.11368683772E-12  0.17120000000E+03  0.17120000000E+03 0.  0.
         13    1    1    2    0    0  0.12157984756E+02 -0.97270193249E+01  0.29878708788E+02  0.33692430918E+02  0.10566000000E+00 0. -1.
        994    1    1    2    0    0 -0.17547491293E+02  0.30810599442E+00  0.48536642283E+01  0.17216563953E+03  0.17120000000E+03 0.  0.
        998    1    1    2    0    0  0.53895065369E+01  0.94189133305E+01  0.14652676233E+04  0.14653419295E+04  0.10000000000E+02 0. -1.
</event>
<event>
 5    1  0.1334136E-008  0.3988543E+03  0.7957747E-01  0.3372959E+00
         13   -1    0    0    0    0  0.00000000000E+00  0.00000000000E+00  0.14999999963E+04  0.15000000000E+04  0.10566000000E+00 0. -1.
        994   -1    0    0    0    0 -0.00000000000E+00 -0.00000000000E+00  0.11368683772E-12  0.17120000000E+03  0.17120000000E+03 0.  0.
         13    1    1    2    0    0  0.30178043692E+01  0.67419724866E+02  0.74620253553E+02  0.10061172819E+03  0.10566000000E+00 0. -1.
        994    1    1    2    0    0 -0.34632914458E+01 -0.53028739082E+02  0.38181559605E+02  0.18327933067E+03  0.17120000000E+03 0.  0.
        998    1    1    2    0    0  0.44548707660E+00 -0.14390985784E+02  0.13871981831E+04  0.13873089411E+04  0.10000000000E+02 0. -1.
</event>
<event>
 5    1  0.1334136E-008  0.3739911E+03  0.7957747E-01  0.3477747E+00
         13   -1    0    0    0    0  0.00000000000E+00  0.00000000000E+00  0.14999999963E+04  0.15000000000E+04  0.10566000000E+00 0.  1.
        994   -1    0    0    0    0 -0.00000000000E+00 -0.00000000000E+00  0.11368683772E-12  0.17120000000E+03  0.17120000000E+03 0.  0.
         13    1    1    2    0    0  0.72040036681E+02  0.51718883961E+02  0.37929917282E+03  0.38952854004E+03  0.10566000000E+00 0.  1.
        994    1    1    2    0    0 -0.22587408732E+02  0.35200743147E+01  0.14919922660E+02  0.17336270086E+03  0.17120000000E+03 0.  0.
        998    1    1    2    0    0 -0.49452627948E+02 -0.55238958276E+02  0.11057809008E+04  0.11083087591E+04  0.10000000000E+02 0.  1.
</event>
<event>
 5    1  0.1334136E-008  0.3768884E+03  0.7957747E-01  0.3464820E+00
         13   -1    0    0    0    0  0.00000000000E+00  0.00000000000E+00  0.14999999963E+04  0.15000000000E+04  0.10566000000E+00 0.  1.
        994   -1    0    0    0    0 -0.00000000000E+00 -0.00000000000E+00  0.11368683772E-12  0.17120000000E+03  0.17120000000E+03 0.  0.
         13    1    1    2    0    0  0.17900722749E+01 -0.16574660305E+02  0.29581247774E+01  0.16931786356E+02  0.10566000000E+00 0.  1.
        994    1    1    2    0    0  0.82624042252E+01  0.91101753646E+01  0.15170624549E+02  0.17231033187E+03  0.17120000000E+03 0.  0.
        998    1    1    2    0    0 -0.10052476500E+02  0.74644849403E+01  0.14818712470E+04  0.14819578818E+04  0.10000000000E+02 0.  1.
</event>
<event>
 5    1  0.1334136E-008  0.4207482E+03  0.7957747E-01  0.3290903E+00
         13   -1    0    0    0    0  0.00000000000E+00  0.00000000000E+00  0.14999999963E+04  0.15000000000E+04  0.10566000000E+00 0.  1.
        994   -1    0    0    0    0 -0.00000000000E+00 -0.00000000000E+00  0.11368683772E-12  0.17120000000E+03  0.17120000000E+03 0.  0.
         13    1    1    2    0    0 -0.45490371781E+02 -0.19305684671E+02  0.11568244363E+02  0.50753510490E+02  0.10566000000E+00 0.  1.
        994    1    1    2    0    0  0.93895096790E+02  0.11668137615E+02  0.80333043990E+02  0.21145986048E+03  0.17120000000E+03 0.  0.
        998    1    1    2    0    0 -0.48404725009E+02  0.76375470565E+01  0.14080987079E+04  0.14089866290E+04  0.10000000000E+02 0.  1.
</event>
<event>
 5    1  0.1334136E-008  0.3823824E+03  0.7957747E-01  0.3440850E+00
         13   -1    0    0    0    0  0.00000000000E+00  0.00000000000E+00  0.14999999963E+04  0.15000000000E+04  0.10566000000E+00 0.  1.
        994   -1    0    0    0    0 -0.00000000000E+00 -0.00000000000E+00  0.11368683772E-12  0.17120000000E+03  0.17120000000E+03 0.  0.
         13    1    1    2    0    0 -0.10674162272E+01 -0.14892227577E+02  0.36973902783E+02  0.39874784898E+02  0.10566000000E+00 0.  1.
        994    1    1    2    0    0  0.54400650158E+01  0.95746316826E+01  0.33376356245E+01  0.17158626895E+03  0.17120000000E+03 0.  0.
        998    1    1    2    0    0 -0.43726487886E+01  0.53175958939E+01  0.14596884579E+04  0.14597389462E+04  0.10000000000E+02 0.  1.
</event>
<event>
 5    1  0.1334136E-008  0.3832287E+03  0.7957747E-01  0.3437219E+00
         13   -1    0    0    0    0  0.00000000000E+00  0.00000000000E+00  0.14999999963E+04  0.15000000000E+04  0.10566000000E+00 0.  1.
        994   -1    0    0    0    0 -0.00000000000E+00 -0.00000000000E+00  0.11368683772E-12  0.17120000000E+03  0.17120000000E+03 0.  0.
         13    1    1    2    0    0 -0.20720996585E+02 -0.64991056925E+01  0.11658826092E+03  0.11859355725E+03  0.10566000000E+00 0.  1.
        994    1    1    2    0    0 -0.23288923188E+02  0.19139067528E+02  0.55234901980E+01  0.17392132357E+03  0.17120000000E+03 0.  0.
        998    1    1    2    0    0  0.44009919773E+02 -0.12639961836E+02  0.13778882452E+04  0.13786851192E+04  0.10000000000E+02 0.  1.
</event>
<event>
 5    1  0.1469667E-008  0.3845895E+03  0.7957747E-01  0.3431415E+00
         13   -1    0    0    0    0  0.00000000000E+00  0.00000000000E+00  0.14999999963E+04  0.15000000000E+04  0.10566000000E+00 0.  1.
        994   -1    0    0    0    0 -0.00000000000E+00 -0.00000000000E+00  0.11368683772E-12  0.17120000000E+03  0.17120000000E+03 0.  0.
         13    1    1    2    0    0  0.11591053401E+02 -0.63069913276E+00  0.36332061818E+02  0.38141580726E+02  0.10566000000E+00 0.  1.
        994    1    1    2    0    0 -0.82771210524E+01  0.59488299108E+00  0.20608754639E+01  0.17141339454E+03  0.17120000000E+03 0.  0.
        998    1    1    2    0    0 -0.33139323484E+01  0.35816141683E-01  0.14616070590E+04  0.14616450247E+04  0.10000000000E+02 0.  1.
</event>
<event>
 5    1  0.1334136E-008  0.3704138E+03  0.7957747E-01  0.3493991E+00
         13   -1    0    0    0    0  0.00000000000E+00  0.00000000000E+00  0.14999999963E+04  0.15000000000E+04  0.10566000000E+00 0. -1.
        994   -1    0    0    0    0 -0.00000000000E+00 -0.00000000000E+00  0.11368683772E-12  0.17120000000E+03  0.17120000000E+03 0.  0.
         13    1    1    2    0    0  0.12349200667E+03  0.80802204887E+02  0.85720296513E+03  0.86981389194E+03  0.10566000000E+00 0. -1.
        994    1    1    2    0    0 -0.93557309000E+02 -0.66607506129E+02  0.56073239988E+02  0.21364264130E+03  0.17120000000E+03 0.  0.
        998    1    1    2    0    0 -0.29934697670E+02 -0.14194698758E+02  0.58672379116E+03  0.58774346676E+03  0.10000000000E+02 0. -1.
</event>
<event>
 5    1  0.1334136E-008  0.3804986E+03  0.7957747E-01  0.3448990E+00
         13   -1    0    0    0    0  0.00000000000E+00  0.00000000000E+00  0.14999999963E+04  0.15000000000E+04  0.10566000000E+00 0.  1.
        994   -1    0    0    0    0 -0.00000000000E+00 -0.00000000000E+00  0.11368683772E-12  0.17120000000E+03  0.17120000000E+03 0.  0.
         13    1    1    2    0    0 -0.41391925941E+02 -0.35451223177E+02  0.31566440556E+03  0.32033437040E+03  0.10566000000E+00 0.  1.
        994    1    1    2    0    0  0.10536630763E+03 -0.20667835285E+02  0.43370200789E+02  0.20668728194E+03  0.17120000000E+03 0.  0.
        998    1    1    2    0    0 -0.63974381693E+02  0.56119058462E+02  0.11409653899E+04  0.11441783477E+04  0.10000000000E+02 0.  1.
</event>
<event>
 5    1  0.1334136E-008  0.3813407E+03  0.7957747E-01  0.3445342E+00
         13   -1    0    0    0    0  0.00000000000E+00  0.00000000000E+00  0.14999999963E+04  0.15000000000E+04  0.10566000000E+00 0. -1.
        994   -1    0    0    0    0 -0.00000000000E+00 -0.00000000000E+00  0.11368683772E-12  0.17120000000E+03  0.17120000000E+03 0.  0.
         13    1    1    2    0    0  0.14744203752E+02 -0.15301602806E+02  0.63409369610E+02  0.66875181578E+02  0.10566000000E+00 0. -1.
        994    1    1    2    0    0  0.13443331746E+02  0.36080729575E+02  0.84078226169E+01  0.17567775527E+03  0.17120000000E+03 0.  0.
        998    1    1    2    0    0 -0.28187535499E+02 -0.20779126769E+02  0.14281828041E+04  0.14286470632E+04  0.10000000000E+02 0. -1.
</event>
<event>
 5    1  0.1334136E-008  0.3772202E+03  0.7957747E-01  0.3463352E+00
         13   -1    0    0    0    0  0.00000000000E+00  0.00000000000E+00  0.14999999963E+04  0.15000000000E+04  0.10566000000E+00 0.  1.
        994   -1    0    0    0    0 -0.00000000000E+00 -0.00000000000E+00  0.11368683772E-12  0.17120000000E+03  0.17120000000E+03 0.  0.
         13    1    1    2    0    0 -0.28980261258E+02 -0.28342478918E+02  0.15473186170E+03  0.15995346774E+03  0.10566000000E+00 0.  1.
        994    1    1    2    0    0  0.26532789290E+02 -0.63394553298E+01  0.80578579433E+01  0.17354695813E+03  0.17120000000E+03 0.  0.
        998    1    1    2    0    0  0.24474719671E+01  0.34681934248E+02  0.13372102766E+04  0.13376995741E+04  0.10000000000E+02 0.  1.
</event>
<event>
 5    1  0.1334136E-008  0.3855194E+03  0.7957747E-01  0.3427473E+00
         13   -1    0    0    0    0  0.00000000000E+00  0.00000000000E+00  0.14999999963E+04  0.15000000000E+04  0.10566000000E+00 0.  1.
        994   -1    0    0    0    0 -0.00000000000E+00 -0.00000000000E+00  0.11368683772E-12  0.17120000000E+03  0.17120000000E+03 0.  0.
         13    1    1    2    0    0 -0.10373169456E+01  0.11231322125E+02  0.49562711556E+02  0.50830032106E+02  0.10566000000E+00 0.  1.
        994    1    1    2    0    0 -0.97778443801E+01  0.17305344962E+01  0.16962947024E+01  0.17149611776E+03  0.17120000000E+03 0.  0.
        998    1    1    2    0    0  0.10815161326E+02 -0.12961856621E+02  0.14487409900E+04  0.14488738501E+04  0.10000000000E+02 0.  1.
</event>
<event>
 5    1  0.1334136E-008  0.3822249E+03  0.7957747E-01  0.3441528E+00
         13   -1    0    0    0    0  0.00000000000E+00  0.00000000000E+00  0.14999999963E+04  0.15000000000E+04  0.10566000000E+00 0. -1.
        994   -1    0    0    0    0 -0.00000000000E+00 -0.00000000000E+00  0.11368683772E-12  0.17120000000E+03  0.17120000000E+03 0.  0.
         13    1    1    2    0    0  0.28566462573E+02 -0.19978091709E+02  0.18163011070E+03  0.18494505998E+03  0.10566000000E+00 0. -1.
        994    1    1    2    0    0 -0.25450632516E+02  0.20887397143E+02  0.66199141085E+01  0.17446283649E+03  0.17120000000E+03 0.  0.
        998    1    1    2    0    0 -0.31158300565E+01 -0.90930543398E+00  0.13117499715E+04  0.13117921035E+04  0.10000000000E+02 0. -1.
</event>
<event>
 5    1  0.1334136E-008  0.3815907E+03  0.7957747E-01  0.3444261E+00
         13   -1    0    0    0    0  0.00000000000E+00  0.00000000000E+00  0.14999999963E+04  0.15000000000E+04  0.10566000000E+00 0.  1.
        994   -1    0    0    0    0 -0.00000000000E+00 -0.00000000000E+00  0.11368683772E-12  0.17120000000E+03  0.17120000000E+03 0.  0.
         13    1    1    2    0    0  0.87190462201E+01 -0.49544332880E+01  0.13663435269E+02  0.16949005976E+02  0.10566000000E+00 0.  1.
        994    1    1    2    0    0 -0.62151516689E+01  0.49497933019E+01  0.35422754476E+01  0.17142087469E+03  0.17120000000E+03 0.  0.
        998    1    1    2    0    0 -0.25038945512E+01  0.46399860914E-02  0.14827942856E+04  0.14828301193E+04  0.10000000000E+02 0.  1.
</event>
<event>
 5    1  0.1334136E-008  0.3706006E+03  0.7957747E-01  0.3493135E+00
         13   -1    0    0    0    0  0.00000000000E+00  0.00000000000E+00  0.14999999963E+04  0.15000000000E+04  0.10566000000E+00 0.  1.
        994   -1    0    0    0    0 -0.00000000000E+00 -0.00000000000E+00  0.11368683772E-12  0.17120000000E+03  0.17120000000E+03 0.  0.
         13    1    1    2    0    0  0.24585147296E+02 -0.22974929136E+02  0.45082329062E+02  0.56255705436E+02  0.10566000000E+00 0.  1.
        994    1    1    2    0    0 -0.28104922373E+02  0.13915008674E+02  0.14710121396E+02  0.17466923541E+03  0.17120000000E+03 0.  0.
        998    1    1    2    0    0  0.35197750768E+01  0.90599204626E+01  0.14402075458E+04  0.14402750592E+04  0.10000000000E+02 0.  1.
</event>
<event>
 5    1  0.1334136E-008  0.4000731E+03  0.7957747E-01  0.3368157E+00
         13   -1    0    0    0    0  0.00000000000E+00  0.00000000000E+00  0.14999999963E+04  0.15000000000E+04  0.10566000000E+00 0. -1.
        994   -1    0    0    0    0 -0.00000000000E+00 -0.00000000000E+00  0.11368683772E-12  0.17120000000E+03  0.17120000000E+03 0.  0.
         13    1    1    2    0    0  0.81994278927E+02 -0.35367048995E+02  0.12361385763E+03  0.15249356345E+03  0.10566000000E+00 0. -1.
        994    1    1    2    0    0 -0.78390571327E+02  0.45735090758E+02  0.60866930573E+02  0.20310343039E+03  0.17120000000E+03 0.  0.
        998    1    1    2    0    0 -0.36037076001E+01 -0.10368041762E+02  0.13155192081E+04  0.13156030062E+04  0.10000000000E+02 0. -1.
</event>
<event>
 5    1  0.1334136E-008  0.3744478E+03  0.7957747E-01  0.3475696E+00
         13   -1    0    0    0    0  0.00000000000E+00  0.00000000000E+00  0.14999999963E+04  0.15000000000E+04  0.10566000000E+00 0. -1.
        994   -1    0    0    0    0 -0.00000000000E+00 -0.00000000000E+00  0.11368683772E-12  0.17120000000E+03  0.17120000000E+03 0.  0.
         13    1    1    2    0    0 -0.19340703061E+02 -0.64891041224E+02  0.39780869588E+03  0.40353027112E+03  0.10566000000E+00 0. -1.
        994    1    1    2    0    0 -0.15021184495E+02  0.23461873536E+02  0.96101336622E+01  0.17371784641E+03  0.17120000000E+03 0.  0.
        998    1    1    2    0    0  0.34361887556E+02  0.41429167688E+02  0.10925811667E+04  0.10939518825E+04  0.10000000000E+02 0. -1.
</event>
<event>
 5    1  0.1334136E-008  0.3802376E+03  0.7957747E-01  0.3450125E+00
         13   -1    0    0    0    0  0.00000000000E+00  0.00000000000E+00  0.14999999963E+04  0.15000000000E+04  0.10566000000E+00 0.  1.
        994   -1    0    0    0    0 -0.00000000000E+00 -0.00000000000E+00  0.11368683772E-12  0.17120000000E+03  0.17120000000E+03 0.  0.
         13    1    1    2    0    0  0.27599289619E+02  0.23053795093E+02  0.15369159654E+03  0.15784269469E+03  0.10566000000E+00 0.  1.
        994    1    1    2    0    0 -0.50303248433E+01 -0.37450298162E+02  0.87973928667E+01  0.17554105822E+03  0.17120000000E+03 0.  0.
        998    1    1    2    0    0 -0.22568964776E+02  0.14396503069E+02  0.13375110069E+04  0.13378162471E+04  0.10000000000E+02 0.  1.
</event>
<event>
 5    1  0.1334136E-008  0.3848442E+03  0.7957747E-01  0.3430333E+00
         13   -1    0    0    0    0  0.00000000000E+00  0.00000000000E+00  0.14999999963E+04  0.15000000000E+04  0.10566000000E+00 0. -1.
        994   -1    0    0    0    0 -0.00000000000E+00 -0.00000000000E+00  0.11368683772E-12  0.17120000000E+03  0.17120000000E+03 0.  0.
         13    1    1    2    0    0 -0.80251208241E+01  0.13133818696E+02  0.69243230513E+02  0.70933320053E+02  0.10566000000E+00 0. -1.
        994    1    1    2    0    0  0.48931586128E+01 -0.90115477312E+01  0.20535808592E+01  0.17151911902E+03  0.17120000000E+03 0.  0.
        998    1    1    2    0    0  0.31319622113E+01 -0.41222709644E+01  0.14287031849E+04  0.14287475609E+04  0.10000000000E+02 0. -1.
</event>
<event>
 5    1  0.1334136E-008  0.3778613E+03  0.7957747E-01  0.3460524E+00
         13   -1    0    0    0    0  0.00000000000E+00  0.00000000000E+00  0.14999999963E+04  0.15000000000E+04  0.10566000000E+00 0.  1.
        994   -1    0    0    0    0 -0.00000000000E+00 -0.00000000000E+00  0.11368683772E-12  0.17120000000E+03  0.17120000000E+03 0.  0.
         13    1    1    2    0    0  0.30226943411E+02 -0.42945517447E+02  0.29640526880E+03  0.30102172697E+03  0.10566000000E+00 0.  1.
        994    1    1    2    0    0 -0.56965796512E+01  0.15277667239E+02  0.61122229494E+01  0.17208328625E+03  0.17120000000E+03 0.  0.
        998    1    1    2    0    0 -0.24530363760E+02  0.27667850208E+02  0.11974825045E+04  0.11980949868E+04  0.10000000000E+02 0.  1.
</event>
<event>
 5    1  0.1334136E-008  0.3731719E+03  0.7957747E-01  0.3481439E+00
         13   -1    0    0    0    0  0.00000000000E+00  0.00000000000E+00  0.14999999963E+04  0.15000000000E+04  0.10566000000E+00 0.  1.
        994   -1    0    0    0    0 -0.00000000000E+00 -0.00000000000E+00  0.11368683772E-12  0.17120000000E+03  0.17120000000E+03 0.  0.
         13    1    1    2    0    0 -0.51718187546E+02  0.24886590164E+03  0.11639734286E+04  0.11914038617E+04  0.10566000000E+00 0.  1.
        994    1    1    2    0    0  0.51932659906E+02 -0.22723862019E+03  0.22551144983E+03  0.36674138800E+03  0.17120000000E+03 0.  0.
        998    1    1    2    0    0 -0.21447235957E+00 -0.21627281454E+02  0.11051511782E+03  0.11305475031E+03  0.10000000000E+02 0.  0.
</event>
<event>
 5    1  0.1334136E-008  0.3854322E+03  0.7957747E-01  0.3427841E+00
         13   -1    0    0    0    0  0.00000000000E+00  0.00000000000E+00  0.14999999963E+04  0.15000000000E+04  0.10566000000E+00 0. -1.
        994   -1    0    0    0    0 -0.00000000000E+00 -0.00000000000E+00  0.11368683772E-12  0.17120000000E+03  0.17120000000E+03 0.  0.
         13    1    1    2    0    0 -0.42109636657E+00 -0.11191804833E+02  0.45504560440E+02  0.46862671738E+02  0.10566000000E+00 0. -1.
        994    1    1    2    0    0 -0.45235242313E+01  0.35528037911E+01  0.15243944045E+01  0.17130338136E+03  0.17120000000E+03 0.  0.
        998    1    1    2    0    0  0.49446205978E+01  0.76390010419E+01  0.14529710414E+04  0.14530339469E+04  0.10000000000E+02 0. -1.
</event>
<event>
 5    1  0.1334136E-008  0.3831323E+03  0.7957747E-01  0.3437632E+00
         13   -1    0    0    0    0  0.00000000000E+00  0.00000000000E+00  0.14999999963E+04  0.15000000000E+04  0.10566000000E+00 0. -1.
        994   -1    0    0    0    0 -0.00000000000E+00 -0.00000000000E+00  0.11368683772E-12  0.17120000000E+03  0.17120000000E+03 0.  0.
         13    1    1    2    0    0  0.10910526424E+01 -0.18625475619E+02  0.64093097757E+02  0.66753539847E+02  0.10566000000E+00 0. -1.
        994    1    1    2    0    0 -0.48520442561E+01  0.21281250997E+02  0.41382129285E+01  0.17263545054E+03  0.17120000000E+03 0.  0.
        998    1    1    2    0    0  0.37609916137E+01 -0.26557753776E+01  0.14317686856E+04  0.14318110096E+04  0.10000000000E+02 0. -1.
</event>
<event>
 5    1  0.1334136E-008  0.3826866E+03  0.7957747E-01  0.3439543E+00
         13   -1    0    0    0    0  0.00000000000E+00  0.00000000000E+00  0.14999999963E+04  0.15000000000E+04  0.10566000000E+00 0. -1.
        994   -1    0    0    0    0 -0.00000000000E+00 -0.00000000000E+00  0.11368683772E-12  0.17120000000E+03  0.17120000000E+03 0.  0.
         13    1    1    2    0    0  0.23112008437E+02  0.14368391279E+01  0.88625591005E+02  0.91600960615E+02  0.10566000000E+00 0. -1.
        994    1    1    2    0    0 -0.27932275162E+02  0.52674700713E+01  0.54648488576E+01  0.17362967146E+03  0.17120000000E+03 0.  0.
        998    1    1    2    0    0  0.48202667249E+01 -0.67043091993E+01  0.14059095564E+04  0.14059693679E+04  0.10000000000E+02 0. -1.
</event>
<event>
 5    1  0.1334136E-008  0.3825661E+03  0.7957747E-01  0.3440061E+00
         13   -1    0    0    0    0  0.00000000000E+00  0.00000000000E+00  0.14999999963E+04  0.15000000000E+04  0.10566000000E+00 0. -1.
        994   -1    0    0    0    0 -0.00000000000E+00 -0.00000000000E+00  0.11368683772E-12  0.17120000000E+03  0.17120000000E+03 0.  0.
         13    1    1    2    0    0 -0.21125014497E+01 -0.24138720100E+02  0.11934574772E+03  0.12178078311E+03  0.10566000000E+00 0. -1.
        994    1    1    2    0    0  0.52944104340E+01 -0.80638266161E+01  0.31518745677E+01  0.17150052593E+03  0.17120000000E+03 0.  0.
        998    1    1    2    0    0 -0.31819089843E+01  0.32202546716E+02  0.13775023740E+04  0.13779186910E+04  0.10000000000E+02 0. -1.
</event>
<event>
 5    1  0.1334136E-008  0.3827147E+03  0.7957747E-01  0.3439423E+00
         13   -1    0    0    0    0  0.00000000000E+00  0.00000000000E+00  0.14999999963E+04  0.15000000000E+04  0.10566000000E+00 0.  1.
        994   -1    0    0    0    0 -0.00000000000E+00 -0.00000000000E+00  0.11368683772E-12  0.17120000000E+03  0.17120000000E+03 0.  0.
         13    1    1    2    0    0  0.84228233317E+01 -0.11706864500E+02  0.35825060569E+02  0.38619176041E+02  0.10566000000E+00 0.  1.
        994    1    1    2    0    0 -0.12206036067E+02  0.10384295114E+02  0.36203778051E+01  0.17198653446E+03  0.17120000000E+03 0.  0.
        998    1    1    2    0    0  0.37832127358E+01  0.13225693864E+01  0.14605545579E+04  0.14605942895E+04  0.10000000000E+02 0.  1.
</event>
<event>
 5    1  0.1334136E-008  0.3735756E+03  0.7957747E-01  0.3479618E+00
         13   -1    0    0    0    0  0.00000000000E+00  0.00000000000E+00  0.14999999963E+04  0.15000000000E+04  0.10566000000E+00 0.  1.
        994   -1    0    0    0    0 -0.00000000000E+00 -0.00000000000E+00  0.11368683772E-12  0.17120000000E+03  0.17120000000E+03 0.  0.
         13    1    1    2    0    0 -0.60405215557E+02  0.29692762409E+02  0.34946833438E+03  0.35589124477E+03  0.10566000000E+00 0.  1.
        994    1    1    2    0    0  0.14713767198E+02 -0.17992195251E+02  0.92593485644E+01  0.17301846598E+03  0.17120000000E+03 0.  0.
        998    1    1    2    0    0  0.45691448359E+02 -0.11700567158E+02  0.11412723133E+04  0.11422902892E+04  0.10000000000E+02 0.  1.
</event>
<event>
 5    1  0.1334136E-008  0.3815600E+03  0.7957747E-01  0.3444394E+00
         13   -1    0    0    0    0  0.00000000000E+00  0.00000000000E+00  0.14999999963E+04  0.15000000000E+04  0.10566000000E+00 0.  1.
        994   -1    0    0    0    0 -0.00000000000E+00 -0.00000000000E+00  0.11368683772E-12  0.17120000000E+03  0.17120000000E+03 0.  0.
         13    1    1    2    0    0  0.90230454520E+01 -0.47571079834E+02  0.25826004593E+03  0.26275974858E+03  0.10566000000E+00 0.  1.
        994    1    1    2    0    0 -0.24490183006E+02  0.58169488876E+02  0.16711056928E+02  0.18322706657E+03  0.17120000000E+03 0.  0.
        998    1    1    2    0    0  0.15467137554E+02 -0.10598409041E+02  0.12250288934E+04  0.12252131848E+04  0.10000000000E+02 0.  1.
</event>
<event>
 5    1  0.1334136E-008  0.3711564E+03  0.7957747E-01  0.3490593E+00
         13   -1    0    0    0    0  0.00000000000E+00  0.00000000000E+00  0.14999999963E+04  0.15000000000E+04  0.10566000000E+00 0.  1.
        994   -1    0    0    0    0 -0.00000000000E+00 -0.00000000000E+00  0.11368683772E-12  0.17120000000E+03  0.17120000000E+03 0.  0.
         13    1    1    2    0    0  0.12283237041E+02  0.57419505271E+02  0.17852678191E+03  0.18793536261E+03  0.10566000000E+00 0.  1.
        994    1    1    2    0    0 -0.59617083453E+01 -0.53312891625E+02  0.18642821257E+02  0.18037405901E+03  0.17120000000E+03 0.  0.
        998    1    1    2    0    0 -0.63215286959E+01 -0.41066136462E+01  0.13028303931E+04  0.13028905784E+04  0.10000000000E+02 0.  1.
</event>
<event>
 5    1  0.1334136E-008  0.3826828E+03  0.7957747E-01  0.3439560E+00
         13   -1    0    0    0    0  0.00000000000E+00  0.00000000000E+00  0.14999999963E+04  0.15000000000E+04  0.10566000000E+00 0.  1.
        994   -1    0    0    0    0 -0.00000000000E+00 -0.00000000000E+00  0.11368683772E-12  0.17120000000E+03  0.17120000000E+03 0.  0.
         13    1    1    2    0    0 -0.13748443048E+02  0.20780195975E+02  0.12996555028E+03  0.13233250415E+03  0.10566000000E+00 0.  1.
        994    1    1    2    0    0 -0.25479042163E+02 -0.95045955975E+01  0.52392704389E+01  0.17342551393E+03  0.17120000000E+03 0.  0.
        998    1    1    2    0    0  0.39227485210E+02 -0.11275600377E+02  0.13647951756E+04  0.13654419819E+04  0.10000000000E+02 0.  1.
</event>
<event>
 5    1  0.1334136E-008  0.3693735E+03  0.7957747E-01  0.3498775E+00
         13   -1    0    0    0    0  0.00000000000E+00  0.00000000000E+00  0.14999999963E+04  0.15000000000E+04  0.10566000000E+00 0.  1.
        994   -1    0    0    0    0 -0.00000000000E+00 -0.00000000000E+00  0.11368683772E-12  0.17120000000E+03  0.17120000000E+03 0.  0.
         13    1    1    2    0    0  0.31141039816E+02 -0.65757767557E+02  0.24360019319E+03  0.25423397421E+03  0.10566000000E+00 0.  1.
        994    1    1    2    0    0 -0.50478917400E+02  0.26493809471E+02  0.22032573043E+02  0.18178261005E+03  0.17120000000E+03 0.  0.
        998    1    1    2    0    0  0.19337877584E+02  0.39263958087E+02  0.12343672300E+04  0.12351834157E+04  0.10000000000E+02 0.  1.
</event>
<event>
 5    1  0.1334136E-008  0.3705945E+03  0.7957747E-01  0.3493163E+00
         13   -1    0    0    0    0  0.00000000000E+00  0.00000000000E+00  0.14999999963E+04  0.15000000000E+04  0.10566000000E+00 0.  1.
        994   -1    0    0    0    0 -0.00000000000E+00 -0.00000000000E+00  0.11368683772E-12  0.17120000000E+03  0.17120000000E+03 0.  0.
         13    1    1    2    0    0 -0.13846923678E+03 -0.71325483229E+01  0.69133387446E+03  0.70510080125E+03  0.10566000000E+00 0.  1.
        994    1    1    2    0    0  0.10314129742E+03 -0.95704758114E+01  0.49852899429E+02  0.20621462805E+03  0.17120000000E+03 0.  0.
        998    1    1    2    0    0  0.35327939356E+02  0.16703024134E+02  0.75881322239E+03  0.75988457070E+03  0.10000000000E+02 0.  1.
</event>
<event>
 5    1  0.1334136E-008  0.3825861E+03  0.7957747E-01  0.3439975E+00
         13   -1    0    0    0    0  0.00000000000E+00  0.00000000000E+00  0.14999999963E+04  0.15000000000E+04  0.10566000000E+00 0. -1.
        994   -1    0    0    0    0 -0.00000000000E+00 -0.00000000000E+00  0.11368683772E-12  0.17120000000E+03  0.17120000000E+03 0.  0.
         13    1    1    2    0    0  0.24720316793E+02 -0.61071324211E+01  0.11948767479E+03  0.12217080961E+03  0.10566000000E+00 0. -1.
        994    1    1    2    0    0 -0.92202401086E+01 -0.41130293956E+01  0.31713105149E+01  0.17152675316E+03  0.17120000000E+03 0.  0.
        998    1    1    2    0    0 -0.15500076685E+02  0.10220161817E+02  0.13773410110E+04  0.13775024372E+04  0.10000000000E+02 0. -1.
</event>
<event>
 5    1  0.1334136E-008  0.3801399E+03  0.7957747E-01  0.3450550E+00
         13   -1    0    0    0    0  0.00000000000E+00  0.00000000000E+00  0.14999999963E+04  0.15000000000E+04  0.10566000000E+00 0. -1.
        994   -1    0    0    0    0 -0.00000000000E+00 -0.00000000000E+00  0.11368683772E-12  0.17120000000E+03  0.17120000000E+03 0.  0.
         13    1    1    2    0    0  0.64762658923E+01 -0.12454436442E+02  0.22949454824E+02  0.26902484044E+02  0.10566000000E+00 0. -1.
        994    1    1    2    0    0 -0.23992204996E+02 -0.80098277364E+01  0.62032309718E+01  0.17316957965E+03  0.17120000000E+03 0.  0.
        998    1    1    2    0    0  0.17515939103E+02  0.20464264178E+02  0.14708473105E+04  0.14711279363E+04  0.10000000000E+02 0. -1.
</event>
<event>
 5    1  0.1334136E-008  0.3807233E+03  0.7957747E-01  0.3448015E+00
         13   -1    0    0    0    0  0.00000000000E+00  0.00000000000E+00  0.14999999963E+04  0.15000000000E+04  0.10566000000E+00 0. -1.
        994   -1    0    0    0    0 -0.00000000000E+00 -0.00000000000E+00  0.11368683772E-12  0.17120000000E+03  0.17120000000E+03 0.  0.
         13    1    1    2    0    0  0.14870091043E+02 -0.18787537491E+01  0.28237480236E+02  0.31968981488E+02  0.10566000000E+00 0. -1.
        994    1    1    2    0    0 -0.11072813783E+02  0.21649469856E+01  0.41931060756E+01  0.17162259857E+03  0.17120000000E+03 0.  0.
        998    1    1    2    0    0 -0.37972772598E+01 -0.28619323654E+00  0.14675694100E+04  0.14676084199E+04  0.10000000000E+02 0. -1.
</event>
<event>
 5    1  0.1334136E-008  0.3719418E+03  0.7957747E-01  0.3487014E+00
         13   -1    0    0    0    0  0.00000000000E+00  0.00000000000E+00  0.14999999963E+04  0.15000000000E+04  0.10566000000E+00 0. -1.
        994   -1    0    0    0    0 -0.00000000000E+00 -0.00000000000E+00  0.11368683772E-12  0.17120000000E+03  0.17120000000E+03 0.  0.
         13    1    1    2    0    0 -0.57959650361E+02 -0.22341122263E+03  0.11902328790E+04  0.12124051356E+04  0.10566000000E+00 0. -1.
        994    1    1    2    0    0  0.78400067879E+02  0.20742843190E+03  0.19656790230E+03  0.34223019331E+03  0.17120000000E+03 0.  0.
        998    1    1    2    0    0 -0.20440417518E+02  0.15982790732E+02  0.11319921497E+03  0.11656467105E+03  0.10000000000E+02 0.  1.
</event>
<event>
 5    1  0.1334136E-008  0.3786825E+03  0.7957747E-01  0.3456915E+00
         13   -1    0    0    0    0  0.00000000000E+00  0.00000000000E+00  0.14999999963E+04  0.15000000000E+04  0.10566000000E+00 0. -1.
        994   -1    0    0    0    0 -0.00000000000E+00 -0.00000000000E+00  0.11368683772E-12  0.17120000000E+03  0.17120000000E+03 0.  0.
         13    1    1    2    0    0 -0.14886281930E+02 -0.46210455542E+02  0.23953565768E+03  0.24440611706E+03  0.10566000000E+00 0. -1.
        994    1    1    2    0    0 -0.90638774645E+01  0.35196803970E+02  0.92476731345E+01  0.17525960271E+03  0.17120000000E+03 0.  0.
        998    1    1    2    0    0  0.23950159395E+02  0.11013651572E+02  0.12512166655E+04  0.12515342802E+04  0.10000000000E+02 0. -1.
</event>
<event>
 5    1  0.1334136E-008  0.3735532E+03  0.7957747E-01  0.3479719E+00
         13   -1    0    0    0    0  0.00000000000E+00  0.00000000000E+00  0.14999999963E+04  0.15000000000E+04  0.10566000000E+00 0.  1.
        994   -1    0    0    0    0 -0.00000000000E+00 -0.00000000000E+00  0.11368683772E-12  0.17120000000E+03  0.17120000000E+03 0.  0.
         13    1    1    2    0    0  0.38654753810E+02  0.26231859348E+02  0.13832140036E+03  0.14599699106E+03  0.10566000000E+00 0.  1.
        994    1    1    2    0    0 -0.40824871419E+02 -0.62786442824E+01  0.13273826033E+02  0.17661179450E+03  0.17120000000E+03 0.  0.
        998    1    1    2    0    0  0.21701176093E+01 -0.19953215065E+02  0.13484047699E+04  0.13485912144E+04  0.10000000000E+02 0.  1.
</event>
<event>
 5    1  0.1334136E-008  0.3840508E+03  0.7957747E-01  0.3433708E+00
         13   -1    0    0    0    0  0.00000000000E+00  0.00000000000E+00  0.14999999963E+04  0.15000000000E+04  0.10566000000E+00 0. -1.
        994   -1    0    0    0    0 -0.00000000000E+00 -0.00000000000E+00  0.11368683772E-12  0.17120000000E+03  0.17120000000E+03 0.  0.
         13    1    1    2    0    0 -0.14870121459E+02  0.86867271283E+01  0.64774475485E+02  0.67024798238E+02  0.10566000000E+00 0. -1.
        994    1    1    2    0    0  0.28340512620E+02 -0.23073288883E+01  0.47737980015E+01  0.17361087976E+03  0.17120000000E+03 0.  0.
        998    1    1    2    0    0 -0.13470391161E+02 -0.63793982400E+01  0.14304517228E+04  0.14305643220E+04  0.10000000000E+02 0. -1.
</event>
<event>
 5    1  0.1334136E-008  0.3839787E+03  0.7957747E-01  0.3434015E+00
         13   -1    0    0    0    0  0.00000000000E+00  0.00000000000E+00  0.14999999963E+04  0.15000000000E+04  0.10566000000E+00 0. -1.
        994   -1    0    0    0    0 -0.00000000000E+00 -0.00000000000E+00  0.11368683772E-12  0.17120000000E+03  0.17120000000E+03 0.  0.
         13    1    1    2    0    0  0.15391219976E+02 -0.92941724921E+01  0.74340956926E+02  0.76484379682E+02  0.10566000000E+00 0. -1.
        994    1    1    2    0    0 -0.99022183448E+01  0.96236079461E+01  0.27674312873E+01  0.17177824785E+03  0.17120000000E+03 0.  0.
        998    1    1    2    0    0 -0.54890016310E+01 -0.32943545401E+00  0.14228916081E+04  0.14229373725E+04  0.10000000000E+02 0. -1.
</event>
<event>
 5    1  0.1334136E-008  0.3853527E+03  0.7957747E-01  0.3428178E+00
         13   -1    0    0    0    0  0.00000000000E+00  0.00000000000E+00  0.14999999963E+04  0.15000000000E+04  0.10566000000E+00 0.  1.
        994   -1    0    0    0    0 -0.00000000000E+00 -0.00000000000E+00  0.11368683772E-12  0.17120000000E+03  0.17120000000E+03 0.  0.
         13    1    1    2    0    0  0.13102647586E+02  0.68250357678E+00  0.60461326718E+02  0.61868638077E+02  0.10566000000E+00 0.  1.
        994    1    1    2    0    0 -0.58839597051E+01  0.48415740895E+00  0.15696283914E+01  0.17130895809E+03  0.17120000000E+03 0.  0.
        998    1    1    2    0    0 -0.72186878808E+01 -0.11666609857E+01  0.14379690412E+04  0.14380224038E+04  0.10000000000E+02 0.  1.
</event>
<event>
 5    1  0.1334136E-008  0.4465353E+03  0.7957747E-01  0.3204388E+00
         13   -1    0    0    0    0  0.00000000000E+00  0.00000000000E+00  0.14999999963E+04  0.15000000000E+04  0.10566000000E+00 0. -1.
        994   -1    0    0    0    0 -0.00000000000E+00 -0.00000000000E+00  0.11368683772E-12  0.17120000000E+03  0.17120000000E+03 0.  0.
         13    1    1    2    0    0 -0.53890235966E+02 -0.46647212348E+02  0.23692581466E+02  0.75109716634E+02  0.10566000000E+00 0. -1.
        994    1    1    2    0    0  0.49849025166E+02  0.42780177452E+02  0.80543293226E+02  0.20027913265E+03  0.17120000000E+03 0.  0.
        998    1    1    2    0    0  0.40412107996E+01  0.38670348969E+01  0.13957641216E+04  0.13958111507E+04  0.10000000000E+02 0. -1.
</event>
<event>
 5    1  0.1334136E-008  0.3762986E+03  0.7957747E-01  0.3467435E+00
         13   -1    0    0    0    0  0.00000000000E+00  0.00000000000E+00  0.14999999963E+04  0.15000000000E+04  0.10566000000E+00 0. -1.
        994   -1    0    0    0    0 -0.00000000000E+00 -0.00000000000E+00  0.11368683772E-12  0.17120000000E+03  0.17120000000E+03 0.  0.
         13    1    1    2    0    0  0.16082126679E+02  0.23171652495E+02  0.51395399532E+02  0.58626432051E+02  0.10566000000E+00 0. -1.
        994    1    1    2    0    0 -0.15864154908E+02 -0.89159467446E+02  0.34294027998E+02  0.19668910087E+03  0.17120000000E+03 0.  0.
        998    1    1    2    0    0 -0.21797177094E+00  0.65987814951E+02  0.14143105687E+04  0.14158844671E+04  0.10000000000E+02 0. -1.
</event>
<event>
 5    1  0.1334136E-008  0.3830123E+03  0.7957747E-01  0.3438146E+00
         13   -1    0    0    0    0  0.00000000000E+00  0.00000000000E+00  0.14999999963E+04  0.15000000000E+04  0.10566000000E+00 0.  1.
        994   -1    0    0    0    0 -0.00000000000E+00 -0.00000000000E+00  0.11368683772E-12  0.17120000000E+03  0.17120000000E+03 0.  0.
         13    1    1    2    0    0  0.74359489382E+01  0.20782409694E+02  0.11032836942E+03  0.11251471971E+03  0.10566000000E+00 0.  1.
        994    1    1    2    0    0 -0.19848199471E+02  0.19448564127E+02  0.51803931437E+01  0.17351793608E+03  0.17120000000E+03 0.  0.
        998    1    1    2    0    0  0.12412250533E+02 -0.40230973821E+02  0.13844912337E+04  0.13851673442E+04  0.10000000000E+02 0.  1.
</event>
<event>
 5    1  0.1334136E-008  0.3702028E+03  0.7957747E-01  0.3494960E+00
         13   -1    0    0    0    0  0.00000000000E+00  0.00000000000E+00  0.14999999963E+04  0.15000000000E+04  0.10566000000E+00 0. -1.
        994   -1    0    0    0    0 -0.00000000000E+00 -0.00000000000E+00  0.11368683772E-12  0.17120000000E+03  0.17120000000E+03 0.  0.
         13    1    1    2    0    0 -0.81658315373E+02  0.11413054218E+03  0.77405009009E+03  0.78666855426E+03  0.10566000000E+00 0. -1.
        994    1    1    2    0    0  0.98821188677E+02 -0.70682308475E+02  0.62042096304E+02  0.21890700714E+03  0.17120000000E+03 0.  0.
        998    1    1    2    0    0 -0.17162873303E+02 -0.43448233704E+02  0.66390780988E+03  0.66562443860E+03  0.10000000000E+02 0. -1.
</event>
<event>
 5    1  0.1334136E-008  0.3836211E+03  0.7957747E-01  0.3435541E+00
         13   -1    0    0    0    0  0.00000000000E+00  0.00000000000E+00  0.14999999963E+04  0.15000000000E+04  0.10566000000E+00 0.  1.
        994   -1    0    0    0    0 -0.00000000000E+00 -0.00000000000E+00  0.11368683772E-12  0.17120000000E+03  0.17120000000E+03 0.  0.
         13    1    1    2    0    0  0.97077304166E+01 -0.11655051627E+02  0.50946010968E+02  0.53156255096E+02  0.10566000000E+00 0.  1.
        994    1    1    2    0    0  0.38989136214E+01  0.62374624702E+01  0.24950543869E+01  0.17137611491E+03  0.17120000000E+03 0.  0.
        998    1    1    2    0    0 -0.13606644038E+02  0.54175891571E+01  0.14465589309E+04  0.14466676300E+04  0.10000000000E+02 0.  1.
</event>
<event>
 5    1  0.1334136E-008  0.3839786E+03  0.7957747E-01  0.3434016E+00
         13   -1    0    0    0    0  0.00000000000E+00  0.00000000000E+00  0.14999999963E+04  0.15000000000E+04  0.10566000000E+00 0.  1.
        994   -1    0    0    0    0 -0.00000000000E+00 -0.00000000000E+00  0.11368683772E-12  0.17120000000E+03  0.17120000000E+03 0.  0.
         13    1    1    2    0    0  0.10499904057E+02  0.17145722366E+02  0.92227498018E+02  0.94393571473E+02  0.10566000000E+00 0.  1.
        994    1    1    2    0    0 -0.71548503290E+01 -0.14069131732E+02  0.29605676041E+01  0.17195155513E+03  0.17120000000E+03 0.  0.
        998    1    1    2    0    0 -0.33450537280E+01 -0.30765906341E+01  0.14048119307E+04  0.14048548734E+04  0.10000000000E+02 0.  1.
</event>
<event>
 5    1  0.1334136E-008  0.3851650E+03  0.7957747E-01  0.3428973E+00
         13   -1    0    0    0    0  0.00000000000E+00  0.00000000000E+00  0.14999999963E+04  0.15000000000E+04  0.10566000000E+00 0.  1.
        994   -1    0    0    0    0 -0.00000000000E+00 -0.00000000000E+00  0.11368683772E-12  0.17120000000E+03  0.17120000000E+03 0.  0.
         13    1    1    2    0    0  0.15122530136E+02  0.11229443141E+02  0.11388595688E+03  0.11543315663E+03  0.10566000000E+00 0.  1.
        994    1    1    2    0    0 -0.86990872696E+01 -0.97829751651E+01  0.21117686037E+01  0.17171278429E+03  0.17120000000E+03 0.  0.
        998    1    1    2    0    0 -0.64234428664E+01 -0.14464679761E+01  0.13840022708E+04  0.13840540591E+04  0.10000000000E+02 0.  1.
</event>
<event>
 5    1  0.1334136E-008  0.3849997E+03  0.7957747E-01  0.3429674E+00
         13   -1    0    0    0    0  0.00000000000E+00  0.00000000000E+00  0.14999999963E+04  0.15000000000E+04  0.10566000000E+00 0.  1.
        994   -1    0    0    0    0 -0.00000000000E+00 -0.00000000000E+00  0.11368683772E-12  0.17120000000E+03  0.17120000000E+03 0.  0.
         13    1    1    2    0    0 -0.13037666923E+02  0.78496348162E+01  0.78370564341E+02  0.79834541676E+02  0.10566000000E+00 0.  1.
        994    1    1    2    0    0  0.89937874968E-01  0.75547376292E+01  0.18180558482E+01  0.17137627454E+03  0.17120000000E+03 0.  0.
        998    1    1    2    0    0  0.12947729048E+02 -0.15404372445E+02  0.14198113761E+04  0.14199891838E+04  0.10000000000E+02 0.  1.
</event>
<event>
 5    1  0.1334136E-008  0.3712992E+03  0.7957747E-01  0.3489941E+00
         13   -1    0    0    0    0  0.00000000000E+00  0.00000000000E+00  0.14999999963E+04  0.15000000000E+04  0.10566000000E+00 0.  1.
        994   -1    0    0    0    0 -0.00000000000E+00 -0.00000000000E+00  0.11368683772E-12  0.17120000000E+03  0.17120000000E+03 0.  0.
         13    1    1    2    0    0  0.91079596882E+01 -0.36311005584E+02  0.12778067782E+03  0.13315163103E+03  0.10566000000E+00 0.  1.
        994    1    1    2    0    0  0.20778980958E+02 -0.81461432073E+02  0.33328225052E+02  0.19361803002E+03  0.17120000000E+03 0.  0.
        998    1    1    2    0    0 -0.29886940646E+02  0.11777243766E+03  0.13388910934E+04  0.13444303389E+04  0.10000000000E+02 0.  1.
</event>
<event>
 5    1  0.1334136E-008  0.3830407E+03  0.7957747E-01  0.3438025E+00
         13   -1    0    0    0    0  0.00000000000E+00  0.00000000000E+00  0.14999999963E+04  0.15000000000E+04  0.10566000000E+00 0. -1.
        994   -1    0    0    0    0 -0.00000000000E+00 -0.00000000000E+00  0.11368683772E-12  0.17120000000E+03  0.17120000000E+03 0.  0.
         13    1    1    2    0    0 -0.35174205033E-02 -0.22501585468E+02  0.92029667228E+02  0.94740657455E+02  0.10566000000E+00 0. -1.
        994    1    1    2    0    0 -0.33056119558E+01  0.21765981283E+02  0.42118238233E+01  0.17266112612E+03  0.17120000000E+03 0.  0.
        998    1    1    2    0    0  0.33091293763E+01  0.73560418541E+00  0.14037585052E+04  0.14037982164E+04  0.10000000000E+02 0. -1.
</event>
<event>
 5    1  0.1334136E-008  0.3851232E+03  0.7957747E-01  0.3429150E+00
         13   -1    0    0    0    0  0.00000000000E+00  0.00000000000E+00  0.14999999963E+04  0.15000000000E+04  0.10566000000E+00 0. -1.
        994   -1    0    0    0    0 -0.00000000000E+00 -0.00000000000E+00  0.11368683772E-12  0.17120000000E+03  0.17120000000E+03 0.  0.
         13    1    1    2    0    0 -0.57590325627E+01  0.16887577852E+02  0.97057807017E+02  0.98684273361E+02  0.10566000000E+00 0. -1.
        994    1    1    2    0    0  0.67396974337E+01 -0.15948661374E+02  0.25551018770E+01  0.17209227718E+03  0.17120000000E+03 0.  0.
        998    1    1    2    0    0 -0.98066487100E+00 -0.93891647817E+00  0.14003870874E+04  0.14004234495E+04  0.10000000000E+02 0. -1.
</event>
<event>
 5    1  0.1334136E-008  0.3813934E+03  0.7957747E-01  0.3445114E+00
         13   -1    0    0    0    0  0.00000000000E+00  0.00000000000E+00  0.14999999963E+04  0.15000000000E+04  0.10566000000E+00 0.  1.
        994   -1    0    0    0    0 -0.00000000000E+00 -0.00000000000E+00  0.11368683772E-12  0.17120000000E+03  0.17120000000E+03 0.  0.
         13    1    1    2    0    0 -0.96297839214E+01  0.21516933596E+02  0.74803736688E+02  0.78430359914E+02  0.10566000000E+00 0.  1.
        994    1    1    2    0    0  0.17046135029E+02 -0.23348411663E+02  0.62173137403E+01  0.17373489585E+03  0.17120000000E+03 0.  0.
        998    1    1    2    0    0 -0.74163511078E+01  0.18314780677E+01  0.14189789459E+04  0.14190347442E+04  0.10000000000E+02 0.  1.
</event>
<event>
 5    1  0.1334136E-008  0.3977817E+03  0.7957747E-01  0.3377209E+00
         13   -1    0    0    0    0  0.00000000000E+00  0.00000000000E+00  0.14999999963E+04  0.15000000000E+04  0.10566000000E+00 0. -1.
        994   -1    0    0    0    0 -0.00000000000E+00 -0.00000000000E+00  0.11368683772E-12  0.17120000000E+03  0.17120000000E+03 0.  0.
         13    1    1    2    0    0  0.39913632838E+02  0.25063922303E+02  0.31146004157E+02  0.56492327148E+02  0.10566000000E+00 0. -1.
        994    1    1    2    0    0 -0.41389656297E+02 -0.25921264966E+02  0.35769412140E+02  0.18158718697E+03  0.17120000000E+03 0.  0.
        998    1    1    2    0    0  0.14760234590E+01  0.85734266225E+00  0.14330845800E+04  0.14331204859E+04  0.10000000000E+02 0. -1.
</event>
<event>
 5    1  0.1334136E-008  0.3750452E+03  0.7957747E-01  0.3473021E+00
         13   -1    0    0    0    0  0.00000000000E+00  0.00000000000E+00  0.14999999963E+04  0.15000000000E+04  0.10566000000E+00 0. -1.
        994   -1    0    0    0    0 -0.00000000000E+00 -0.00000000000E+00  0.11368683772E-12  0.17120000000E+03  0.17120000000E+03 0.  0.
         13    1    1    2    0    0 -0.13658918056E+02 -0.60047664981E+02  0.25089517485E+03  0.25834219176E+03  0.10566000000E+00 0. -1.
        994    1    1    2    0    0  0.82178773064E+01  0.52663496398E+02  0.16373061266E+02  0.18005136627E+03  0.17120000000E+03 0.  0.
        998    1    1    2    0    0  0.54410407498E+01  0.73841685833E+01  0.12327317602E+04  0.12328064420E+04  0.10000000000E+02 0. -1.
</event>
<event>
 5    1  0.1334136E-008  0.3847724E+03  0.7957747E-01  0.3430638E+00
         13   -1    0    0    0    0  0.00000000000E+00  0.00000000000E+00  0.14999999963E+04  0.15000000000E+04  0.10566000000E+00 0. -1.
        994   -1    0    0    0    0 -0.00000000000E+00 -0.00000000000E+00  0.11368683772E-12  0.17120000000E+03  0.17120000000E+03 0.  0.
         13    1    1    2    0    0 -0.14991966954E+02 -0.14761025633E+02  0.11696671783E+03  0.11884389422E+03  0.10566000000E+00 0. -1.
        994    1    1    2    0    0  0.15599614460E+02  0.17139729133E+02  0.35128772423E+01  0.17279727600E+03  0.17120000000E+03 0.  0.
        998    1    1    2    0    0 -0.60764750664E+00 -0.23787035003E+01  0.13795204012E+04  0.13795588298E+04  0.10000000000E+02 0. -1.
</event>
<event>
 5    1  0.1608343E-008  0.3863695E+03  0.7957747E-01  0.3423885E+00
         13   -1    0    0    0    0  0.00000000000E+00  0.00000000000E+00  0.14999999963E+04  0.15000000000E+04  0.10566000000E+00 0. -1.
        994   -1    0    0    0    0 -0.00000000000E+00 -0.00000000000E+00  0.11368683772E-12  0.17120000000E+03  0.17120000000E+03 0.  0.
         13    1    1    2    0    0  0.48077601193E-01  0.10035522753E+02  0.54415570694E+02  0.55333349134E+02  0.10566000000E+00 0. -1.
        994    1    1    2    0    0 -0.12532174819E+01 -0.55372137883E+01  0.10572645455E+01  0.17129737038E+03  0.17120000000E+03 0.  0.
        998    1    1    2    0    0  0.12051398807E+01 -0.44983089651E+01  0.14445271610E+04  0.14445692805E+04  0.10000000000E+02 0. -1.
</event>
<event>
 5    1  0.1334136E-008  0.3837231E+03  0.7957747E-01  0.3435106E+00
         13   -1    0    0    0    0  0.00000000000E+00  0.00000000000E+00  0.14999999963E+04  0.15000000000E+04  0.10566000000E+00 0.  1.
        994   -1    0    0    0    0 -0.00000000000E+00 -0.00000000000E+00  0.11368683772E-12  0.17120000000E+03  0.17120000000E+03 0.  0.
         13    1    1    2    0    0  0.29871266564E+02  0.34716572382E+01  0.16601819325E+03  0.16871987620E+03  0.10566000000E+00 0.  1.
        994    1    1    2    0    0 -0.38307598353E+02 -0.98937695633E+01  0.74519497983E+01  0.17587020874E+03  0.17120000000E+03 0.  0.
        998    1    1    2    0    0  0.84363317897E+01  0.64221123251E+01  0.13265298532E+04  0.13266099151E+04  0.10000000000E+02 0.  1.
</event>
<event>
 5    1  0.1334136E-008  0.3757862E+03  0.7957747E-01  0.3469714E+00
         13   -1    0    0    0    0  0.00000000000E+00  0.00000000000E+00  0.14999999963E+04  0.15000000000E+04  0.10566000000E+00 0. -1.
        994   -1    0    0    0    0 -0.00000000000E+00 -0.00000000000E+00  0.11368683772E-12  0.17120000000E+03  0.17120000000E+03 0.  0.
         13    1    1    2    0    0 -0.20581225820E+02  0.21684682436E+02  0.66892342540E+02  0.73269427206E+02  0.10566000000E+00 0. -1.
        994    1    1    2    0    0  0.17089011184E+02 -0.21071180858E+02  0.87748501865E+01  0.17355825236E+03  0.17120000000E+03 0.  0.
        998    1    1    2    0    0  0.34922146363E+01 -0.61350157746E+00  0.14243328036E+04  0.14243723204E+04  0.10000000000E+02 0. -1.
</event>
<event>
 5    1  0.1334136E-008  0.3814825E+03  0.7957747E-01  0.3444728E+00
         13   -1    0    0    0    0  0.00000000000E+00  0.00000000000E+00  0.14999999963E+04  0.15000000000E+04  0.10566000000E+00 0. -1.
        994   -1    0    0    0    0 -0.00000000000E+00 -0.00000000000E+00  0.11368683772E-12  0.17120000000E+03  0.17120000000E+03 0.  0.
         13    1    1    2    0    0  0.93644749458E+00 -0.13024040663E+02  0.23959369311E+02  0.27286720413E+02  0.10566000000E+00 0. -1.
        994    1    1    2    0    0 -0.34544805504E+01  0.72100352263E+01  0.35993005871E+01  0.17142436527E+03  0.17120000000E+03 0.  0.
        998    1    1    2    0    0  0.25180330558E+01  0.58140054364E+01  0.14724413264E+04  0.14724889143E+04  0.10000000000E+02 0. -1.
</event>
<event>
 5    1  0.1334136E-008  0.3805354E+03  0.7957747E-01  0.3448831E+00
         13   -1    0    0    0    0  0.00000000000E+00  0.00000000000E+00  0.14999999963E+04  0.15000000000E+04  0.10566000000E+00 0. -1.
        994   -1    0    0    0    0 -0.00000000000E+00 -0.00000000000E+00  0.11368683772E-12  0.17120000000E+03  0.17120000000E+03 0.  0.
         13    1    1    2    0    0  0.22424599165E+02 -0.70093173251E+01  0.76327097223E+02  0.79861317994E+02  0.10566000000E+00 0. -1.
        994    1    1    2    0    0  0.22083522794E+01 -0.41831369322E+01  0.39378185833E+01  0.17131060058E+03  0.17120000000E+03 0.  0.
        998    1    1    2    0    0 -0.24632951445E+02  0.11192454257E+02  0.14197350805E+04  0.14200280814E+04  0.10000000000E+02 0. -1.
</event>
<event>
 5    1  0.1334136E-008  0.3843487E+03  0.7957747E-01  0.3432439E+00
         13   -1    0    0    0    0  0.00000000000E+00  0.00000000000E+00  0.14999999963E+04  0.15000000000E+04  0.10566000000E+00 0.  1.
        994   -1    0    0    0    0 -0.00000000000E+00 -0.00000000000E+00  0.11368683772E-12  0.17120000000E+03  0.17120000000E+03 0.  0.
         13    1    1    2    0    0  0.88497550080E+01  0.88602423833E+01  0.43600491370E+02  0.45363378077E+02  0.10566000000E+00 0.  1.
        994    1    1    2    0    0  0.12902162307E+02  0.19586703735E+01  0.25153067051E+01  0.17171508073E+03  0.17120000000E+03 0.  0.
        998    1    1    2    0    0 -0.21751917315E+02 -0.10818912757E+02  0.14538841982E+04  0.14541215412E+04  0.10000000000E+02 0.  1.
</event>
<event>
 5    1  0.1334136E-008  0.3834072E+03  0.7957747E-01  0.3436456E+00
         13   -1    0    0    0    0  0.00000000000E+00  0.00000000000E+00  0.14999999963E+04  0.15000000000E+04  0.10566000000E+00 0. -1.
        994   -1    0    0    0    0 -0.00000000000E+00 -0.00000000000E+00  0.11368683772E-12  0.17120000000E+03  0.17120000000E+03 0.  0.
         13    1    1    2    0    0  0.77679602797E+01  0.12538633254E+02  0.43510616717E+02  0.45942828188E+02  0.10566000000E+00 0. -1.
        994    1    1    2    0    0 -0.63199449576E+01 -0.11910219070E+02  0.30242142088E+01  0.17175674920E+03  0.17120000000E+03 0.  0.
        998    1    1    2    0    0 -0.14480153221E+01 -0.62841418369E+00  0.14534651654E+04  0.14535004226E+04  0.10000000000E+02 0. -1.
</event>
<event>
 5    1  0.1334136E-008  0.3869718E+03  0.7957747E-01  0.3421352E+00
         13   -1    0    0    0    0  0.00000000000E+00  0.00000000000E+00  0.14999999963E+04  0.15000000000E+04  0.10566000000E+00 0.  1.
        994   -1    0    0    0    0 -0.00000000000E+00 -0.00000000000E+00  0.11368683772E-12  0.17120000000E+03  0.17120000000E+03 0.  0.
         13    1    1    2    0    0 -0.32580357422E+01  0.10348181962E+03  0.22843886009E+03  0.25080555368E+03  0.10566000000E+00 0.  1.
        994    1    1    2    0    0  0.42253139358E+02 -0.92605917925E+02  0.59859448477E+02  0.20797542497E+03  0.17120000000E+03 0.  0.
        998    1    1    2    0    0 -0.38995103616E+02 -0.10875901698E+02  0.12117016877E+04  0.12124190214E+04  0.10000000000E+02 0.  1.
</event>
<event>
 5    1  0.1334136E-008  0.3851924E+03  0.7957747E-01  0.3428857E+00
         13   -1    0    0    0    0  0.00000000000E+00  0.00000000000E+00  0.14999999963E+04  0.15000000000E+04  0.10566000000E+00 0.  1.
        994   -1    0    0    0    0 -0.00000000000E+00 -0.00000000000E+00  0.11368683772E-12  0.17120000000E+03  0.17120000000E+03 0.  0.
         13    1    1    2    0    0  0.10142733725E+02  0.20154892395E+01  0.34961335744E+02  0.36458790509E+02  0.10566000000E+00 0.  1.
        994    1    1    2    0    0 -0.51056711880E+01 -0.37809677099E+01  0.16673089811E+01  0.17132595692E+03  0.17120000000E+03 0.  0.
        998    1    1    2    0    0 -0.50370625372E+01  0.17654784705E+01  0.14633713516E+04  0.14634152526E+04  0.10000000000E+02 0.  1.
</event>
<event>
 5    1  0.1334136E-008  0.3845892E+03  0.7957747E-01  0.3431416E+00
         13   -1    0    0    0    0  0.00000000000E+00  0.00000000000E+00  0.14999999963E+04  0.15000000000E+04  0.10566000000E+00 0.  1.
        994   -1    0    0    0    0 -0.00000000000E+00 -0.00000000000E+00  0.11368683772E-12  0.17120000000E+03  0.17120000000E+03 0.  0.
         13    1    1    2    0    0 -0.82932680456E+01 -0.23499213550E+02  0.14968890277E+03  0.15174903659E+03  0.10566000000E+00 0.  1.
        994    1    1    2    0    0  0.12903734704E+02  0.25897491968E+02  0.45959757750E+01  0.17368865666E+03  0.17120000000E+03 0.  0.
        998    1    1    2    0    0 -0.46104666586E+01 -0.23982784181E+01  0.13457151177E+04  0.13457623067E+04  0.10000000000E+02 0.  1.
</event>
<event>
 5    1  0.1334136E-008  0.3833056E+03  0.7957747E-01  0.3436890E+00
         13   -1    0    0    0    0  0.00000000000E+00  0.00000000000E+00  0.14999999963E+04  0.15000000000E+04  0.10566000000E+00 0. -1.
        994   -1    0    0    0    0 -0.00000000000E+00 -0.00000000000E+00  0.11368683772E-12  0.17120000000E+03  0.17120000000E+03 0.  0.
         13    1    1    2    0    0 -0.11360621547E+02 -0.21157964848E+01  0.26281670770E+02  0.28710236836E+02  0.10566000000E+00 0. -1.
        994    1    1    2    0    0  0.59302856328E+01  0.44113139293E+01  0.26543918684E+01  0.17138002735E+03  0.17120000000E+03 0.  0.
        998    1    1    2    0    0  0.54303359144E+01 -0.22955174445E+01  0.14710639336E+04  0.14711097358E+04  0.10000000000E+02 0. -1.
</event>
<event>
 5    1  0.1334136E-008  0.3804610E+03  0.7957747E-01  0.3449154E+00
         13   -1    0    0    0    0  0.00000000000E+00  0.00000000000E+00  0.14999999963E+04  0.15000000000E+04  0.10566000000E+00 0. -1.
        994   -1    0    0    0    0 -0.00000000000E+00 -0.00000000000E+00  0.11368683772E-12  0.17120000000E+03  0.17120000000E+03 0.  0.
         13    1    1    2    0    0 -0.53271427089E+02 -0.93513758424E+02  0.64538145473E+03  0.65429343664E+03  0.10566000000E+00 0. -1.
        994    1    1    2    0    0 -0.67248708615E+02  0.56809999432E+02  0.45281592494E+02  0.19776154193E+03  0.17120000000E+03 0.  0.
        998    1    1    2    0    0  0.12052013570E+03  0.36703758992E+02  0.80933694905E+03  0.81914502143E+03  0.10000000000E+02 0.  1.
</event>
<event>
 5    1  0.1334136E-008  0.3832850E+03  0.7957747E-01  0.3436978E+00
         13   -1    0    0    0    0  0.00000000000E+00  0.00000000000E+00  0.14999999963E+04  0.15000000000E+04  0.10566000000E+00 0.  1.
        994   -1    0    0    0    0 -0.00000000000E+00 -0.00000000000E+00  0.11368683772E-12  0.17120000000E+03  0.17120000000E+03 0.  0.
         13    1    1    2    0    0  0.66407780149E+01 -0.25140190053E+02  0.12587583284E+03  0.12853351915E+03  0.10566000000E+00 0.  1.
        994    1    1    2    0    0 -0.61025410627E+01  0.25215179396E+02  0.47129445178E+01  0.17321864255E+03  0.17120000000E+03 0.  0.
        998    1    1    2    0    0 -0.53823695212E+00 -0.74989342899E-01  0.13694112189E+04  0.13694478383E+04  0.10000000000E+02 0.  0.
</event>
<event>
 5    1  0.1334136E-008  0.3806463E+03  0.7957747E-01  0.3448349E+00
         13   -1    0    0    0    0  0.00000000000E+00  0.00000000000E+00  0.14999999963E+04  0.15000000000E+04  0.10566000000E+00 0. -1.
        994   -1    0    0    0    0 -0.00000000000E+00 -0.00000000000E+00  0.11368683772E-12  0.17120000000E+03  0.17120000000E+03 0.  0.
         13    1    1    2    0    0 -0.78014479141E+01 -0.25934874749E+02  0.94726954035E+02  0.98522521804E+02  0.10566000000E+00 0. -1.
        994    1    1    2    0    0  0.76838147934E+01  0.15659933006E+02  0.48228904922E+01  0.17215392759E+03  0.17120000000E+03 0.  0.
        998    1    1    2    0    0  0.11763312064E+00  0.10274941742E+02  0.14004501518E+04  0.14005235506E+04  0.10000000000E+02 0. -1.
</event>
<event>
 5    1  0.1334136E-008  0.3803000E+03  0.7957747E-01  0.3449853E+00
         13   -1    0    0    0    0  0.00000000000E+00  0.00000000000E+00  0.14999999963E+04  0.15000000000E+04  0.10566000000E+00 0. -1.
        994   -1    0    0    0    0 -0.00000000000E+00 -0.00000000000E+00  0.11368683772E-12  0.17120000000E+03  0.17120000000E+03 0.  0.
         13    1    1    2    0    0  0.33314288748E+02 -0.35651905119E+01  0.13998344893E+03  0.14393724173E+03  0.10566000000E+00 0. -1.
        994    1    1    2    0    0 -0.18681437153E+02  0.80354432231E+01  0.53641389622E+01  0.17248703844E+03  0.17120000000E+03 0.  0.
        998    1    1    2    0    0 -0.14632851595E+02 -0.44702527113E+01  0.13546524084E+04  0.13547757198E+04  0.10000000000E+02 0. -1.
</event>
<event>
 5    1  0.1334136E-008  0.3799468E+03  0.7957747E-01  0.3451390E+00
         13   -1    0    0    0    0  0.00000000000E+00  0.00000000000E+00  0.14999999963E+04  0.15000000000E+04  0.10566000000E+00 0. -1.
        994   -1    0    0    0    0 -0.00000000000E+00 -0.00000000000E+00  0.11368683772E-12  0.17120000000E+03  0.17120000000E+03 0.  0.
         13    1    1    2    0    0 -0.82330868549E+01  0.13748818177E+02  0.28881635680E+02  0.33029891977E+02  0.10566000000E+00 0. -1.
        994    1    1    2    0    0  0.14188104452E+02 -0.85675551063E+01  0.50790024124E+01  0.17207539503E+03  0.17120000000E+03 0.  0.
        998    1    1    2    0    0 -0.59550175972E+01 -0.51812630706E+01  0.14660393582E+04  0.14660947130E+04  0.10000000000E+02 0. -1.
</event>
<event>
 5    1  0.1334136E-008  0.3854551E+03  0.7957747E-01  0.3427745E+00
         13   -1    0    0    0    0  0.00000000000E+00  0.00000000000E+00  0.14999999963E+04  0.15000000000E+04  0.10566000000E+00 0. -1.
        994   -1    0    0    0    0 -0.00000000000E+00 -0.00000000000E+00  0.11368683772E-12  0.17120000000E+03  0.17120000000E+03 0.  0.
         13    1    1    2    0    0 -0.31505898602E+01 -0.12928737187E+02  0.64463222198E+02  0.65822463049E+02  0.10566000000E+00 0. -1.
        994    1    1    2    0    0  0.42765806148E+01  0.53692803345E+01  0.15591219348E+01  0.17134465026E+03  0.17120000000E+03 0.  0.
        998    1    1    2    0    0 -0.11259907546E+01  0.75594568528E+01  0.14339776521E+04  0.14340328867E+04  0.10000000000E+02 0. -1.
</event>
<event>
 5    1  0.1334136E-008  0.4092564E+03  0.7957747E-01  0.3332891E+00
         13   -1    0    0    0    0  0.00000000000E+00  0.00000000000E+00  0.14999999963E+04  0.15000000000E+04  0.10566000000E+00 0.  1.
        994   -1    0    0    0    0 -0.00000000000E+00 -0.00000000000E+00  0.11368683772E-12  0.17120000000E+03  0.17120000000E+03 0.  0.
         13    1    1    2    0    0  0.25411415120E+02  0.67613570865E+02  0.69736125701E+02  0.10040156062E+03  0.10566000000E+00 0.  1.
        994    1    1    2    0    0  0.15402862918E+02 -0.51148651083E+02  0.45132406731E+02  0.18493189782E+03  0.17120000000E+03 0.  0.
        998    1    1    2    0    0 -0.40814278038E+02 -0.16464919781E+02  0.13851314638E+04  0.13858665416E+04  0.10000000000E+02 0.  1.
</event>
<event>
 5    1  0.1334136E-008  0.3756827E+03  0.7957747E-01  0.3470175E+00
         13   -1    0    0    0    0  0.00000000000E+00  0.00000000000E+00  0.14999999963E+04  0.15000000000E+04  0.10566000000E+00 0. -1.
        994   -1    0    0    0    0 -0.00000000000E+00 -0.00000000000E+00  0.11368683772E-12  0.17120000000E+03  0.17120000000E+03 0.  0.
         13    1    1    2    0    0 -0.82441237193E+01  0.13570772682E+02  0.16951018022E+02  0.23226700651E+02  0.10566000000E+00 0. -1.
        994    1    1    2    0    0  0.10468071795E+02 -0.13305431770E+02  0.73011601279E+01  0.17218990093E+03  0.17120000000E+03 0.  0.
        998    1    1    2    0    0 -0.22239480758E+01 -0.26534091157E+00  0.14757478181E+04  0.14757833984E+04  0.10000000000E+02 0. -1.
</event>
<event>
 5    1  0.1334136E-008  0.3837165E+03  0.7957747E-01  0.3435134E+00
         13   -1    0    0    0    0  0.00000000000E+00  0.00000000000E+00  0.14999999963E+04  0.15000000000E+04  0.10566000000E+00 0. -1.
        994   -1    0    0    0    0 -0.00000000000E+00 -0.00000000000E+00  0.11368683772E-12  0.17120000000E+03  0.17120000000E+03 0.  0.
         13    1    1    2    0    0 -0.10368004544E+02  0.17595803675E+02  0.95280410288E+02  0.97444730868E+02  0.10566000000E+00 0. -1.
        994    1    1    2    0    0  0.27801271051E+01 -0.59961474949E+01  0.24129954148E+01  0.17134452264E+03  0.17120000000E+03 0.  0.
        998    1    1    2    0    0  0.75878774391E+01 -0.11599656180E+02  0.14023065906E+04  0.14024107465E+04  0.10000000000E+02 0. -1.
</event>
<event>
 5    1  0.1334136E-008  0.3820930E+03  0.7957747E-01  0.3442095E+00
         13   -1    0    0    0    0  0.00000000000E+00  0.00000000000E+00  0.14999999963E+04  0.15000000000E+04  0.10566000000E+00 0.  1.
        994   -1    0    0    0    0 -0.00000000000E+00 -0.00000000000E+00  0.11368683772E-12  0.17120000000E+03  0.17120000000E+03 0.  0.
         13    1    1    2    0    0 -0.24423595321E+02  0.18624748551E+02  0.14154106853E+03  0.14483534966E+03  0.10566000000E+00 0.  1.
        994    1    1    2    0    0  0.21697080386E+02 -0.18846781681E+02  0.58273065636E+01  0.17369329860E+03  0.17120000000E+03 0.  0.
        998    1    1    2    0    0  0.27265149349E+01  0.22203312974E+00  0.13526316212E+04  0.13526713517E+04  0.10000000000E+02 0.  1.
</event>
<event>
 5    1  0.1334136E-008  0.3811893E+03  0.7957747E-01  0.3445996E+00
         13   -1    0    0    0    0  0.00000000000E+00  0.00000000000E+00  0.14999999963E+04  0.15000000000E+04  0.10566000000E+00 0. -1.
        994   -1    0    0    0    0 -0.00000000000E+00 -0.00000000000E+00  0.11368683772E-12  0.17120000000E+03  0.17120000000E+03 0.  0.
         13    1    1    2    0    0 -0.15726726387E+02 -0.28481028202E+02  0.18112044685E+03  0.18401936398E+03  0.10566000000E+00 0. -1.
        994    1    1    2    0    0 -0.42258482530E+01 -0.49031786301E+01  0.36735391561E+01  0.17136170472E+03  0.17120000000E+03 0.  0.
        998    1    1    2    0    0  0.19952574640E+02  0.33384206832E+02  0.13152060103E+04  0.13158189313E+04  0.10000000000E+02 0. -1.
</event>
<event>
 5    1  0.1334136E-008  0.3761699E+03  0.7957747E-01  0.3468007E+00
         13   -1    0    0    0    0  0.00000000000E+00  0.00000000000E+00  0.14999999963E+04  0.15000000000E+04  0.10566000000E+00 0.  1.
        994   -1    0    0    0    0 -0.00000000000E+00 -0.00000000000E+00  0.11368683772E-12  0.17120000000E+03  0.17120000000E+03 0.  0.
         13    1    1    2    0    0 -0.24321919861E+02  0.23526147203E+01  0.47807198465E+02  0.53690129175E+02  0.10566000000E+00 0.  1.
        994    1    1    2    0    0  0.95574401833E+01  0.50371921556E+01  0.64744670877E+01  0.17166268287E+03  0.17120000000E+03 0.  0.
        998    1    1    2    0    0  0.14764479678E+02 -0.73898068759E+01  0.14457183307E+04  0.14458471879E+04  0.10000000000E+02 0.  1.
</event>
<event>
 5    1  0.1334136E-008  0.3894870E+03  0.7957747E-01  0.3410863E+00
         13   -1    0    0    0    0  0.00000000000E+00  0.00000000000E+00  0.14999999963E+04  0.15000000000E+04  0.10566000000E+00 0. -1.
        994   -1    0    0    0    0 -0.00000000000E+00 -0.00000000000E+00  0.11368683772E-12  0.17120000000E+03  0.17120000000E+03 0.  0.
         13    1    1    2    0    0 -0.15258086316E+02 -0.86540160753E+02  0.15681905741E+03  0.17976161034E+03  0.10566000000E+00 0. -1.
        994    1    1    2    0    0  0.74796668038E+01  0.83133278711E+02  0.48302384133E+02  0.19649337841E+03  0.17120000000E+03 0.  0.
        998    1    1    2    0    0  0.77784195127E+01  0.34068820418E+01  0.12948785547E+04  0.12949450113E+04  0.10000000000E+02 0. -1.
</event>
<event>
 5    1  0.1334136E-008  0.3764110E+03  0.7957747E-01  0.3466936E+00
         13   -1    0    0    0    0  0.00000000000E+00  0.00000000000E+00  0.14999999963E+04  0.15000000000E+04  0.10566000000E+00 0. -1.
        994   -1    0    0    0    0 -0.00000000000E+00 -0.00000000000E+00  0.11368683772E-12  0.17120000000E+03  0.17120000000E+03 0.  0.
         13    1    1    2    0    0  0.23159509889E+02 -0.21921585809E+02  0.90393772693E+02  0.95853868614E+02  0.10566000000E+00 0. -1.
        994    1    1    2    0    0 -0.19683186717E+02 -0.19913142370E+02  0.86127134894E+01  0.17368816860E+03  0.17120000000E+03 0.  0.
        998    1    1    2    0    0 -0.34763231722E+01  0.41834728178E+02  0.14009935101E+04  0.14016579628E+04  0.10000000000E+02 0. -1.
</event>
<event>
 5    1  0.1334136E-008  0.3780581E+03  0.7957747E-01  0.3459658E+00
         13   -1    0    0    0    0  0.00000000000E+00  0.00000000000E+00  0.14999999963E+04  0.15000000000E+04  0.10566000000E+00 0.  1.
        994   -1    0    0    0    0 -0.00000000000E+00 -0.00000000000E+00  0.11368683772E-12  0.17120000000E+03  0.17120000000E+03 0.  0.
         13    1    1    2    0    0  0.47091398087E+02  0.62790407395E+00  0.27207142227E+03  0.27611748227E+03  0.10566000000E+00 0.  1.
        994    1    1    2    0    0  0.38218499190E+00 -0.26062383164E+02  0.74058154645E+01  0.17333112815E+03  0.17120000000E+03 0.  0.
        998    1    1    2    0    0 -0.47473583079E+02  0.25434479090E+02  0.12205227585E+04  0.12217513896E+04  0.10000000000E+02 0.  1.
</event>
<event>
 5    1  0.1334136E-008  0.3811757E+03  0.7957747E-01  0.3446055E+00
         13   -1    0    0    0    0  0.00000000000E+00  0.00000000000E+00  0.14999999963E+04  0.15000000000E+04  0.10566000000E+00 0. -1.
        994   -1    0    0    0    0 -0.00000000000E+00 -0.00000000000E+00  0.11368683772E-12  0.17120000000E+03  0.17120000000E+03 0.  0.
         13    1    1    2    0    0 -0.92401694090E+01 -0.17069087548E+02  0.51233142623E+02  0.54786682210E+02  0.10566000000E+00 0. -1.
        994    1    1    2    0    0  0.12392668768E+02  0.11547732365E+02  0.44968617589E+01  0.17209471267E+03  0.17120000000E+03 0.  0.
        998    1    1    2    0    0 -0.31524993595E+01  0.55213551831E+01  0.14442699919E+04  0.14443186051E+04  0.10000000000E+02 0. -1.
</event>
<event>
 5    1  0.1334136E-008  0.3738577E+03  0.7957747E-01  0.3478347E+00
         13   -1    0    0    0    0  0.00000000000E+00  0.00000000000E+00  0.14999999963E+04  0.15000000000E+04  0.10566000000E+00 0.  1.
        994   -1    0    0    0    0 -0.00000000000E+00 -0.00000000000E+00  0.11368683772E-12  0.17120000000E+03  0.17120000000E+03 0.  0.
         13    1    1    2    0    0  0.24378661922E+02 -0.60504812303E+02  0.26474963745E+03  0.27266744060E+03  0.10566000000E+00 0.  1.
        994    1    1    2    0    0 -0.30449819276E+02  0.43239967704E+02  0.16871169584E+02  0.17997489454E+03  0.17120000000E+03 0.  0.
        998    1    1    2    0    0  0.60711573538E+01  0.17264844599E+02  0.12183791892E+04  0.12185576649E+04  0.10000000000E+02 0.  1.
</event>
<event>
 5    1  0.1334136E-008  0.3817875E+03  0.7957747E-01  0.3443412E+00
         13   -1    0    0    0    0  0.00000000000E+00  0.00000000000E+00  0.14999999963E+04  0.15000000000E+04  0.10566000000E+00 0.  1.
        994   -1    0    0    0    0 -0.00000000000E+00 -0.00000000000E+00  0.11368683772E-12  0.17120000000E+03  0.17120000000E+03 0.  0.
         13    1    1    2    0    0  0.16323830224E+02  0.90524467563E+01  0.50804700300E+02  0.54125252535E+02  0.10566000000E+00 0.  1.
        994    1    1    2    0    0 -0.21660070992E+02 -0.48827142339E+01  0.48736543415E+01  0.17270261168E+03  0.17120000000E+03 0.  0.
        998    1    1    2    0    0  0.53362407679E+01 -0.41697325224E+01  0.14443216416E+04  0.14443721358E+04  0.10000000000E+02 0.  1.
</event>
<event>
 5    1  0.1334136E-008  0.3773886E+03  0.7957747E-01  0.3462608E+00
         13   -1    0    0    0    0  0.00000000000E+00  0.00000000000E+00  0.14999999963E+04  0.15000000000E+04  0.10566000000E+00 0. -1.
        994   -1    0    0    0    0 -0.00000000000E+00 -0.00000000000E+00  0.11368683772E-12  0.17120000000E+03  0.17120000000E+03 0.  0.
         13    1    1    2    0    0 -0.62226177791E+01  0.79191072222E+01  0.68315730739E+01  0.12170241818E+02  0.10566000000E+00 0. -1.
        994    1    1    2    0    0  0.23908534932E+01 -0.48562482230E+01  0.55559988328E+01  0.17137563552E+03  0.17120000000E+03 0.  0.
        998    1    1    2    0    0  0.38317642858E+01 -0.30628589992E+01  0.14876124244E+04  0.14876541227E+04  0.10000000000E+02 0. -1.
</event>
<event>
 5    1  0.1334136E-008  0.3784830E+03  0.7957747E-01  0.3457791E+00
         13   -1    0    0    0    0  0.00000000000E+00  0.00000000000E+00  0.14999999963E+04  0.15000000000E+04  0.10566000000E+00 0.  1.
        994   -1    0    0    0    0 -0.00000000000E+00 -0.00000000000E+00  0.11368683772E-12  0.17120000000E+03  0.17120000000E+03 0.  0.
         13    1    1    2    0    0 -0.70407998486E+01  0.17387463458E+02  0.34799814326E+02  0.39533972596E+02  0.10566000000E+00 0.  1.
        994    1    1    2    0    0  0.56707817363E+01 -0.25794176937E+01  0.50313014195E+01  0.17138717909E+03  0.17120000000E+03 0.  0.
        998    1    1    2    0    0  0.13700181123E+01 -0.14808045764E+02  0.14601688805E+04  0.14602788483E+04  0.10000000000E+02 0.  1.
</event>
<event>
 5    1  0.1334136E-008  0.3852895E+03  0.7957747E-01  0.3428445E+00
         13   -1    0    0    0    0  0.00000000000E+00  0.00000000000E+00  0.14999999963E+04  0.15000000000E+04  0.10566000000E+00 0.  1.
        994   -1    0    0    0    0 -0.00000000000E+00 -0.00000000000E+00  0.11368683772E-12  0.17120000000E+03  0.17120000000E+03 0.  0.
         13    1    1    2    0    0  0.12469230985E+02  0.46379266958E+01  0.61432691212E+02  0.62856811874E+02  0.10566000000E+00 0.  1.
        994    1    1    2    0    0 -0.51431444276E+01  0.11947075688E+01  0.15780959834E+01  0.17128867344E+03  0.17120000000E+03 0.  0.
        998    1    1    2    0    0 -0.73260865577E+01 -0.58326342646E+01  0.14369892091E+04  0.14370545147E+04  0.10000000000E+02 0.  1.
</event>
<event>
 5    1  0.1334136E-008  0.3838790E+03  0.7957747E-01  0.3434441E+00
         13   -1    0    0    0    0  0.00000000000E+00  0.00000000000E+00  0.14999999963E+04  0.15000000000E+04  0.10566000000E+00 0. -1.
        994   -1    0    0    0    0 -0.00000000000E+00 -0.00000000000E+00  0.11368683772E-12  0.17120000000E+03  0.17120000000E+03 0.  0.
         13    1    1    2    0    0  0.47807562949E+01  0.19950968433E+02  0.92234782032E+02  0.94488956776E+02  0.10566000000E+00 0. -1.
        994    1    1    2    0    0  0.11468173777E+01 -0.19461280436E+02  0.34431720142E+01  0.17234080207E+03  0.17120000000E+03 0.  0.
        998    1    1    2    0    0 -0.59275736727E+01 -0.48968799738E+00  0.14043220422E+04  0.14043702411E+04  0.10000000000E+02 0. -1.
</event>
<event>
 5    1  0.1334136E-008  0.3775268E+03  0.7957747E-01  0.3461999E+00
         13   -1    0    0    0    0  0.00000000000E+00  0.00000000000E+00  0.14999999963E+04  0.15000000000E+04  0.10566000000E+00 0. -1.
        994   -1    0    0    0    0 -0.00000000000E+00 -0.00000000000E+00  0.11368683772E-12  0.17120000000E+03  0.17120000000E+03 0.  0.
         13    1    1    2    0    0  0.86275231316E+01  0.16880371680E+02  0.30236973727E+02  0.35688469393E+02  0.10566000000E+00 0. -1.
        994    1    1    2    0    0 -0.12968068825E+02 -0.19734741757E+02  0.72686138843E+01  0.17297370780E+03  0.17120000000E+03 0.  0.
        998    1    1    2    0    0  0.43405456934E+01  0.28543700776E+01  0.14624944087E+04  0.14625378228E+04  0.10000000000E+02 0. -1.
</event>
<event>
 5    1  0.1334136E-008  0.3704314E+03  0.7957747E-01  0.3493911E+00
         13   -1    0    0    0    0  0.00000000000E+00  0.00000000000E+00  0.14999999963E+04  0.15000000000E+04  0.10566000000E+00 0. -1.
        994   -1    0    0    0    0 -0.00000000000E+00 -0.00000000000E+00  0.11368683772E-12  0.17120000000E+03  0.17120000000E+03 0.  0.
         13    1    1    2    0    0  0.29913187874E+02 -0.83999397122E+02  0.34445961064E+03  0.35581333877E+03  0.10566000000E+00 0. -1.
        994    1    1    2    0    0  0.17452550002E+02  0.99717819289E+02  0.45305799913E+02  0.20398600563E+03  0.17120000000E+03 0.  0.
        998    1    1    2    0    0 -0.47365737876E+02 -0.15718422167E+02  0.11102345857E+04  0.11114006556E+04  0.10000000000E+02 0.  1.
</event>
<event>
 5    1  0.1334136E-008  0.3794405E+03  0.7957747E-01  0.3453598E+00
         13   -1    0    0    0    0  0.00000000000E+00  0.00000000000E+00  0.14999999963E+04  0.15000000000E+04  0.10566000000E+00 0.  1.
        994   -1    0    0    0    0 -0.00000000000E+00 -0.00000000000E+00  0.11368683772E-12  0.17120000000E+03  0.17120000000E+03 0.  0.
         13    1    1    2    0    0 -0.11040798418E+02 -0.20068611557E+02  0.57209931120E+02  0.61624960708E+02  0.10566000000E+00 0.  1.
        994    1    1    2    0    0  0.16464743895E+02  0.10647257716E+02  0.57044872576E+01  0.17241355244E+03  0.17120000000E+03 0.  0.
        998    1    1    2    0    0 -0.54239454774E+01  0.94213538413E+01  0.14370855779E+04  0.14371614869E+04  0.10000000000E+02 0.  1.
</event>
<event>
 5    1  0.1334136E-008  0.3703402E+03  0.7957747E-01  0.3494329E+00
         13   -1    0    0    0    0  0.00000000000E+00  0.00000000000E+00  0.14999999963E+04  0.15000000000E+04  0.10566000000E+00 0.  1.
        994   -1    0    0    0    0 -0.00000000000E+00 -0.00000000000E+00  0.11368683772E-12  0.17120000000E+03  0.17120000000E+03 0.  0.
         13    1    1    2    0    0 -0.24882303112E+02 -0.18533777612E+02  0.37788960390E+02  0.48894239048E+02  0.10566000000E+00 0.  1.
        994    1    1    2    0    0  0.35533342855E+02  0.66278057505E+01  0.15705755064E+02  0.17567770777E+03  0.17120000000E+03 0.  0.
        998    1    1    2    0    0 -0.10651039742E+02  0.11905971861E+02  0.14465052808E+04  0.14466280532E+04  0.10000000000E+02 0.  1.
</event>
<event>
 5    1  0.1334136E-008  0.3743214E+03  0.7957747E-01  0.3476263E+00
         13   -1    0    0    0    0  0.00000000000E+00  0.00000000000E+00  0.14999999963E+04  0.15000000000E+04  0.10566000000E+00 0.  1.
        994   -1    0    0    0    0 -0.00000000000E+00 -0.00000000000E+00  0.11368683772E-12  0.17120000000E+03  0.17120000000E+03 0.  0.
         13    1    1    2    0    0 -0.16827483283E+02  0.20725345334E+02  0.21208276051E+02  0.34095546189E+02  0.10566000000E+00 0.  1.
        994    1    1    2    0    0  0.18747328126E+02 -0.14530258734E+02  0.15241835229E+02  0.17350603526E+03  0.17120000000E+03 0.  0.
        998    1    1    2    0    0 -0.19198448431E+01 -0.61950866008E+01  0.14635498850E+04  0.14635984186E+04  0.10000000000E+02 0.  1.
</event>
<event>
 5    1  0.1334136E-008  0.3852017E+03  0.7957747E-01  0.3428817E+00
         13   -1    0    0    0    0  0.00000000000E+00  0.00000000000E+00  0.14999999963E+04  0.15000000000E+04  0.10566000000E+00 0.  1.
        994   -1    0    0    0    0 -0.00000000000E+00 -0.00000000000E+00  0.11368683772E-12  0.17120000000E+03  0.17120000000E+03 0.  0.
         13    1    1    2    0    0 -0.44866425220E+01  0.12935920213E+02  0.74263135295E+02  0.75514849008E+02  0.10566000000E+00 0.  1.
        994    1    1    2    0    0  0.78140140915E+01  0.20684505356E+02  0.31384658774E+01  0.17265050694E+03  0.17120000000E+03 0.  0.
        998    1    1    2    0    0 -0.33273715695E+01 -0.33620425568E+02  0.14225983951E+04  0.14230346441E+04  0.10000000000E+02 0.  1.
</event>
<event>
 5    1  0.1334136E-008  0.3711267E+03  0.7957747E-01  0.3490729E+00
         13   -1    0    0    0    0  0.00000000000E+00  0.00000000000E+00  0.14999999963E+04  0.15000000000E+04  0.10566000000E+00 0. -1.
        994   -1    0    0    0    0 -0.00000000000E+00 -0.00000000000E+00  0.11368683772E-12  0.17120000000E+03  0.17120000000E+03 0.  0.
         13    1    1    2    0    0 -0.66011599604E+02 -0.19748112485E+02  0.16725322937E+03  0.18088994756E+03  0.10566000000E+00 0. -1.
        994    1    1    2    0    0  0.73903531867E+02  0.49042995993E+02  0.39684642730E+02  0.19685339303E+03  0.17120000000E+03 0.  0.
        998    1    1    2    0    0 -0.78919322634E+01 -0.29294883508E+02  0.12930621242E+04  0.12934566594E+04  0.10000000000E+02 0. -1.
</event>
<event>
 5    1  0.1334136E-008  0.3829606E+03  0.7957747E-01  0.3438368E+00
         13   -1    0    0    0    0  0.00000000000E+00  0.00000000000E+00  0.14999999963E+04  0.15000000000E+04  0.10566000000E+00 0. -1.
        994   -1    0    0    0    0 -0.00000000000E+00 -0.00000000000E+00  0.11368683772E-12  0.17120000000E+03  0.17120000000E+03 0.  0.
         13    1    1    2    0    0  0.13440412318E+02  0.19482774243E+02  0.11076453601E+03  0.11326524965E+03  0.10566000000E+00 0. -1.
        994    1    1    2    0    0 -0.90693747743E+01 -0.19292846492E+01  0.29307516227E+01  0.17147596042E+03  0.17120000000E+03 0.  0.
        998    1    1    2    0    0 -0.43710375435E+01 -0.17553489594E+02  0.13863047086E+04  0.13864587899E+04  0.10000000000E+02 0. -1.
</event>
<event>
 5    1  0.1334136E-008  0.3763542E+03  0.7957747E-01  0.3467189E+00
         13   -1    0    0    0    0  0.00000000000E+00  0.00000000000E+00  0.14999999963E+04  0.15000000000E+04  0.10566000000E+00 0. -1.
        994   -1    0    0    0    0 -0.00000000000E+00 -0.00000000000E+00  0.11368683772E-12  0.17120000000E+03  0.17120000000E+03 0.  0.
         13    1    1    2    0    0  0.17922326508E+02  0.16978101399E+02  0.51912420699E+02  0.57483704660E+02  0.10566000000E+00 0. -1.
        994    1    1    2    0    0  0.10538388497E+01  0.42523211713E+01  0.60499313997E+01  0.17136287370E+03  0.17120000000E+03 0.  0.
        998    1    1    2    0    0 -0.18976165357E+02 -0.21230422570E+02  0.14420376442E+04  0.14423534216E+04  0.10000000000E+02 0. -1.
</event>
<event>
 5    1  0.1334136E-008  0.3821212E+03  0.7957747E-01  0.3441974E+00
         13   -1    0    0    0    0  0.00000000000E+00  0.00000000000E+00  0.14999999963E+04  0.15000000000E+04  0.10566000000E+00 0.  1.
        994   -1    0    0    0    0 -0.00000000000E+00 -0.00000000000E+00  0.11368683772E-12  0.17120000000E+03  0.17120000000E+03 0.  0.
         13    1    1    2    0    0  0.89106810920E+01 -0.89327573031E+01  0.25213863381E+02  0.28194759463E+02  0.10566000000E+00 0.  1.
        994    1    1    2    0    0  0.21839681093E+00  0.51931668996E+01  0.31558912710E+01  0.17130795758E+03  0.17120000000E+03 0.  0.
        998    1    1    2    0    0 -0.91290779029E+01  0.37395904035E+01  0.14716302416E+04  0.14716972830E+04  0.10000000000E+02 0.  1.
</event>
<event>
 5    1  0.1334136E-008  0.3837895E+03  0.7957747E-01  0.3434823E+00
         13   -1    0    0    0    0  0.00000000000E+00  0.00000000000E+00  0.14999999963E+04  0.15000000000E+04  0.10566000000E+00 0.  1.
        994   -1    0    0    0    0 -0.00000000000E+00 -0.00000000000E+00  0.11368683772E-12  0.17120000000E+03  0.17120000000E+03 0.  0.
         13    1    1    2    0    0 -0.27320545394E+01 -0.11831473122E+02  0.31674611032E+02  0.33922559254E+02  0.10566000000E+00 0.  1.
        994    1    1    2    0    0  0.25899852626E+01  0.13661374726E+02  0.28709405376E+01  0.17178772797E+03  0.17120000000E+03 0.  0.
        998    1    1    2    0    0  0.14206927672E+00 -0.18299016042E+01  0.14654544447E+04  0.14654897128E+04  0.10000000000E+02 0.  1.
</event>
<event>
 5    1  0.1334136E-008  0.3716133E+03  0.7957747E-01  0.3488509E+00
         13   -1    0    0    0    0  0.00000000000E+00  0.00000000000E+00  0.14999999963E+04  0.15000000000E+04  0.10566000000E+00 0. -1.
        994   -1    0    0    0    0 -0.00000000000E+00 -0.00000000000E+00  0.11368683772E-12  0.17120000000E+03  0.17120000000E+03 0.  0.
         13    1    1    2    0    0  0.14319883242E+02 -0.33129904407E+02  0.51991836941E+02  0.63291483587E+02  0.10566000000E+00 0. -1.
        994    1    1    2    0    0 -0.42307876764E+02 -0.18983929600E+01  0.18126939161E+02  0.17728955484E+03  0.17120000000E+03 0.  0.
        998    1    1    2    0    0  0.27987993523E+02  0.35028297367E+02  0.14298812202E+04  0.14306189616E+04  0.10000000000E+02 0. -1.
</event>
<event>
 5    1  0.1334136E-008  0.3770840E+03  0.7957747E-01  0.3463955E+00
         13   -1    0    0    0    0  0.00000000000E+00  0.00000000000E+00  0.14999999963E+04  0.15000000000E+04  0.10566000000E+00 0. -1.
        994   -1    0    0    0    0 -0.00000000000E+00 -0.00000000000E+00  0.11368683772E-12  0.17120000000E+03  0.17120000000E+03 0.  0.
         13    1    1    2    0    0 -0.21300339324E+02 -0.48491563500E+02  0.30115532398E+03  0.30577716807E+03  0.10566000000E+00 0. -1.
        994    1    1    2    0    0 -0.13098614470E+02  0.14286483180E+02  0.68815545514E+01  0.17243106766E+03  0.17120000000E+03 0.  0.
        998    1    1    2    0    0  0.34398953794E+02  0.34205080320E+02  0.11919631177E+04  0.11929917643E+04  0.10000000000E+02 0. -1.
</event>
<event>
 5    1  0.1334136E-008  0.3745033E+03  0.7957747E-01  0.3475447E+00
         13   -1    0    0    0    0  0.00000000000E+00  0.00000000000E+00  0.14999999963E+04  0.15000000000E+04  0.10566000000E+00 0.  1.
        994   -1    0    0    0    0 -0.00000000000E+00 -0.00000000000E+00  0.11368683772E-12  0.17120000000E+03  0.17120000000E+03 0.  0.
         13    1    1    2    0    0 -0.54673830557E+02 -0.11669524649E+02  0.19029573747E+03  0.19833780380E+03  0.10566000000E+00 0.  1.
        994    1    1    2    0    0  0.61678943128E+02  0.22868351049E+01  0.20017769516E+02  0.18308378611E+03  0.17120000000E+03 0.  0.
        998    1    1    2    0    0 -0.70051125706E+01  0.93826895442E+01  0.12896864893E+04  0.12897784101E+04  0.10000000000E+02 0.  1.
</event>
<event>
 5    1  0.1334136E-008  0.3884913E+03  0.7957747E-01  0.3414999E+00
         13   -1    0    0    0    0  0.00000000000E+00  0.00000000000E+00  0.14999999963E+04  0.15000000000E+04  0.10566000000E+00 0.  1.
        994   -1    0    0    0    0 -0.00000000000E+00 -0.00000000000E+00  0.11368683772E-12  0.17120000000E+03  0.17120000000E+03 0.  0.
         13    1    1    2    0    0 -0.69240453180E+02  0.75294516925E+02  0.21797406048E+03  0.24078248865E+03  0.10566000000E+00 0.  1.
        994    1    1    2    0    0  0.68730854366E+02 -0.58357209610E+02  0.52165955736E+02  0.20040015268E+03  0.17120000000E+03 0.  0.
        998    1    1    2    0    0  0.50959881359E+00 -0.16937307315E+02  0.12298599801E+04  0.12300173587E+04  0.10000000000E+02 0.  0.
</event>
<event>
 5    1  0.1334136E-008  0.3848737E+03  0.7957747E-01  0.3430208E+00
         13   -1    0    0    0    0  0.00000000000E+00  0.00000000000E+00  0.14999999963E+04  0.15000000000E+04  0.10566000000E+00 0.  1.
        994   -1    0    0    0    0 -0.00000000000E+00 -0.00000000000E+00  0.11368683772E-12  0.17120000000E+03  0.17120000000E+03 0.  0.
         13    1    1    2    0    0  0.12682363190E+02 -0.15683917071E+01  0.46721563216E+02  0.48437772678E+02  0.10566000000E+00 0.  1.
        994    1    1    2    0    0 -0.13344745067E+02  0.69231855893E+01  0.24367918547E+01  0.17187609105E+03  0.17120000000E+03 0.  0.
        998    1    1    2    0    0  0.66238187753E+00 -0.53547938823E+01  0.14508416412E+04  0.14508861363E+04  0.10000000000E+02 0.  1.
</event>
<event>
 5    1  0.1334136E-008  0.3755997E+03  0.7957747E-01  0.3470545E+00
         13   -1    0    0    0    0  0.00000000000E+00  0.00000000000E+00  0.14999999963E+04  0.15000000000E+04  0.10566000000E+00 0. -1.
        994   -1    0    0    0    0 -0.00000000000E+00 -0.00000000000E+00  0.11368683772E-12  0.17120000000E+03  0.17120000000E+03 0.  0.
         13    1    1    2    0    0  0.13329233529E+02  0.71054055378E+01  0.14833845018E+02  0.21170955963E+02  0.10566000000E+00 0. -1.
        994    1    1    2    0    0 -0.17782360472E+02 -0.66007564772E+01  0.75925600598E+01  0.17241481751E+03  0.17120000000E+03 0.  0.
        998    1    1    2    0    0  0.44531269426E+01 -0.50464906051E+00  0.14775735912E+04  0.14776142265E+04  0.10000000000E+02 0. -1.
</event>
<event>
 5    1  0.1334136E-008  0.3763080E+03  0.7957747E-01  0.3467394E+00
         13   -1    0    0    0    0  0.00000000000E+00  0.00000000000E+00  0.14999999963E+04  0.15000000000E+04  0.10566000000E+00 0. -1.
        994   -1    0    0    0    0 -0.00000000000E+00 -0.00000000000E+00  0.11368683772E-12  0.17120000000E+03  0.17120000000E+03 0.  0.
         13    1    1    2    0    0  0.50365820198E+01  0.11230125972E+02 -0.13598940698E+01  0.12383188754E+02  0.10566000000E+00 0. -1.
        994    1    1    2    0    0 -0.14751197794E+02 -0.70213350712E+01  0.15268620388E+02  0.17265418544E+03  0.17120000000E+03 0.  0.
        998    1    1    2    0    0  0.97146157747E+01 -0.42087909008E+01  0.14860912700E+04  0.14861626258E+04  0.10000000000E+02 0. -1.
</event>
<event>
 5    1  0.1334136E-008  0.3819177E+03  0.7957747E-01  0.3442851E+00
         13   -1    0    0    0    0  0.00000000000E+00  0.00000000000E+00  0.14999999963E+04  0.15000000000E+04  0.10566000000E+00 0. -1.
        994   -1    0    0    0    0 -0.00000000000E+00 -0.00000000000E+00  0.11368683772E-12  0.17120000000E+03  0.17120000000E+03 0.  0.
         13    1    1    2    0    0 -0.91203281769E+01  0.65288893996E+01  0.18296265862E+02  0.21460924756E+02  0.10566000000E+00 0. -1.
        994    1    1    2    0    0  0.82788450436E+01 -0.11459363481E+02  0.38323960919E+01  0.17182544499E+03  0.17120000000E+03 0.  0.
        998    1    1    2    0    0  0.84148313327E+00  0.49304740811E+01  0.14778713343E+04  0.14779136303E+04  0.10000000000E+02 0. -1.
</event>
<event>
 5    1  0.1334136E-008  0.3790015E+03  0.7957747E-01  0.3455518E+00
         13   -1    0    0    0    0  0.00000000000E+00  0.00000000000E+00  0.14999999963E+04  0.15000000000E+04  0.10566000000E+00 0. -1.
        994   -1    0    0    0    0 -0.00000000000E+00 -0.00000000000E+00  0.11368683772E-12  0.17120000000E+03  0.17120000000E+03 0.  0.
         13    1    1    2    0    0 -0.69572978347E+02  0.39730754009E+02  0.39552964887E+03  0.40356244427E+03  0.10566000000E+00 0. -1.
        994    1    1    2    0    0  0.79860988230E+02 -0.70494962110E+02  0.43690050044E+02  0.20631426901E+03  0.17120000000E+03 0.  0.
        998    1    1    2    0    0 -0.10288009883E+02  0.30764208100E+02  0.10607802974E+04  0.10613232867E+04  0.10000000000E+02 0. -1.
</event>
<event>
 5    1  0.1403355E-008  0.3861183E+03  0.7957747E-01  0.3424943E+00
         13   -1    0    0    0    0  0.00000000000E+00  0.00000000000E+00  0.14999999963E+04  0.15000000000E+04  0.10566000000E+00 0.  1.
        994   -1    0    0    0    0 -0.00000000000E+00 -0.00000000000E+00  0.11368683772E-12  0.17120000000E+03  0.17120000000E+03 0.  0.
         13    1    1    2    0    0  0.77826225573E+01 -0.78600468655E+01  0.54410661718E+02  0.55523696051E+02  0.10566000000E+00 0.  1.
        994    1    1    2    0    0 -0.15820463463E+02  0.64758665952E+01  0.20340718648E+01  0.17206336438E+03  0.17120000000E+03 0.  0.
        998    1    1    2    0    0  0.80378409059E+01  0.13841802703E+01  0.14435552627E+04  0.14436129396E+04  0.10000000000E+02 0.  1.
</event>
<event>
 5    1  0.1334136E-008  0.3797317E+03  0.7957747E-01  0.3452327E+00
         13   -1    0    0    0    0  0.00000000000E+00  0.00000000000E+00  0.14999999963E+04  0.15000000000E+04  0.10566000000E+00 0. -1.
        994   -1    0    0    0    0 -0.00000000000E+00 -0.00000000000E+00  0.11368683772E-12  0.17120000000E+03  0.17120000000E+03 0.  0.
         13    1    1    2    0    0  0.79591791185E+01 -0.27200153999E+02  0.98330417934E+02  0.10233317724E+03  0.10566000000E+00 0. -1.
        994    1    1    2    0    0  0.39249801665E+00  0.58185825233E+01  0.43824218899E+01  0.17135534885E+03  0.17120000000E+03 0.  0.
        998    1    1    2    0    0 -0.83516771352E+01  0.21381571475E+02  0.13972871565E+04  0.13975114739E+04  0.10000000000E+02 0. -1.
</event>
<event>
 5    1  0.1334136E-008  0.3809423E+03  0.7957747E-01  0.3447066E+00
         13   -1    0    0    0    0  0.00000000000E+00  0.00000000000E+00  0.14999999963E+04  0.15000000000E+04  0.10566000000E+00 0. -1.
        994   -1    0    0    0    0 -0.00000000000E+00 -0.00000000000E+00  0.11368683772E-12  0.17120000000E+03  0.17120000000E+03 0.  0.
         13    1    1    2    0    0  0.23371611344E+02 -0.78323939554E+01  0.85788129122E+02  0.89259133282E+02  0.10566000000E+00 0. -1.
        994    1    1    2    0    0 -0.30504626233E+01  0.96337748508E+01  0.39985905731E+01  0.17154458215E+03  0.17120000000E+03 0.  0.
        998    1    1    2    0    0 -0.20321148721E+02 -0.18013808955E+01  0.14102132766E+04  0.14103962846E+04  0.10000000000E+02 0. -1.
</event>
<event>
 5    1  0.1334136E-008  0.3694358E+03  0.7957747E-01  0.3498488E+00
         13   -1    0    0    0    0  0.00000000000E+00  0.00000000000E+00  0.14999999963E+04  0.15000000000E+04  0.10566000000E+00 0.  1.
        994   -1    0    0    0    0 -0.00000000000E+00 -0.00000000000E+00  0.11368683772E-12  0.17120000000E+03  0.17120000000E+03 0.  0.
         13    1    1    2    0    0  0.58506283447E+02 -0.83189951274E+02  0.48482274045E+03  0.49537526585E+03  0.10566000000E+00 0.  1.
        994    1    1    2    0    0 -0.71235283588E+02  0.39055893817E+02  0.32790038810E+02  0.19231342937E+03  0.17120000000E+03 0.  0.
        998    1    1    2    0    0  0.12729000141E+02  0.44134057457E+02  0.98238721702E+03  0.98351130478E+03  0.10000000000E+02 0. -1.
</event>
<event>
 5    1  0.1334136E-008  0.3814297E+03  0.7957747E-01  0.3444957E+00
         13   -1    0    0    0    0  0.00000000000E+00  0.00000000000E+00  0.14999999963E+04  0.15000000000E+04  0.10566000000E+00 0.  1.
        994   -1    0    0    0    0 -0.00000000000E+00 -0.00000000000E+00  0.11368683772E-12  0.17120000000E+03  0.17120000000E+03 0.  0.
         13    1    1    2    0    0  0.32989779681E+02  0.25199951866E+01  0.16164831332E+03  0.16499958879E+03  0.10566000000E+00 0.  1.
        994    1    1    2    0    0 -0.18281220265E+02  0.94694331096E+01  0.48247583595E+01  0.17250098977E+03  0.17120000000E+03 0.  0.
        998    1    1    2    0    0 -0.14708559415E+02 -0.11989428296E+02  0.13335269246E+04  0.13336994214E+04  0.10000000000E+02 0.  1.
</event>
<event>
 5    1  0.1334136E-008  0.3829830E+03  0.7957747E-01  0.3438272E+00
         13   -1    0    0    0    0  0.00000000000E+00  0.00000000000E+00  0.14999999963E+04  0.15000000000E+04  0.10566000000E+00 0.  1.
        994   -1    0    0    0    0 -0.00000000000E+00 -0.00000000000E+00  0.11368683772E-12  0.17120000000E+03  0.17120000000E+03 0.  0.
         13    1    1    2    0    0 -0.27653989234E+02 -0.16416522728E+02  0.17556514143E+03  0.17848634510E+03  0.10566000000E+00 0.  1.
        994    1    1    2    0    0  0.25099222780E+02  0.20170689538E+02  0.60746299770E+01  0.17430768437E+03  0.17120000000E+03 0.  0.
        998    1    1    2    0    0  0.25547664544E+01 -0.37541668094E+01  0.13183602249E+04  0.13184059705E+04  0.10000000000E+02 0.  1.
</event>
<event>
 5    1  0.1334136E-008  0.3798260E+03  0.7957747E-01  0.3451916E+00
         13   -1    0    0    0    0  0.00000000000E+00  0.00000000000E+00  0.14999999963E+04  0.15000000000E+04  0.10566000000E+00 0.  1.
        994   -1    0    0    0    0 -0.00000000000E+00 -0.00000000000E+00  0.11368683772E-12  0.17120000000E+03  0.17120000000E+03 0.  0.
         13    1    1    2    0    0  0.22336565457E+02 -0.22304653638E+01  0.84024794427E+01  0.23968937335E+02  0.10566000000E+00 0.  1.
        994    1    1    2    0    0 -0.19098061692E+02  0.36800435479E+01  0.17602724601E+02  0.17319807907E+03  0.17120000000E+03 0.  0.
        998    1    1    2    0    0 -0.32385037651E+01 -0.14495781841E+01  0.14739947922E+04  0.14740329836E+04  0.10000000000E+02 0.  1.
</event>
<event>
 5    1  0.1334136E-008  0.3820791E+03  0.7957747E-01  0.3442155E+00
         13   -1    0    0    0    0  0.00000000000E+00  0.00000000000E+00  0.14999999963E+04  0.15000000000E+04  0.10566000000E+00 0. -1.
        994   -1    0    0    0    0 -0.00000000000E+00 -0.00000000000E+00  0.11368683772E-12  0.17120000000E+03  0.17120000000E+03 0.  0.
         13    1    1    2    0    0 -0.24666967582E+02 -0.10978306715E+02  0.11214305010E+03  0.11534755029E+03  0.10566000000E+00 0. -1.
        994    1    1    2    0    0  0.27514606981E+02 -0.37600170254E+01  0.56519299343E+01  0.17352975433E+03  0.17120000000E+03 0.  0.
        998    1    1    2    0    0 -0.28476393983E+01  0.14738323740E+02  0.13822050162E+04  0.13823226954E+04  0.10000000000E+02 0. -1.
</event>
<event>
 5    1  0.1334136E-008  0.3780461E+03  0.7957747E-01  0.3459710E+00
         13   -1    0    0    0    0  0.00000000000E+00  0.00000000000E+00  0.14999999963E+04  0.15000000000E+04  0.10566000000E+00 0. -1.
        994   -1    0    0    0    0 -0.00000000000E+00 -0.00000000000E+00  0.11368683772E-12  0.17120000000E+03  0.17120000000E+03 0.  0.
         13    1    1    2    0    0  0.31998149860E+02  0.12606090054E+02  0.10291908458E+03  0.10851333667E+03  0.10566000000E+00 0. -1.
        994    1    1    2    0    0 -0.35628914831E+02 -0.23666295789E+02  0.11303186498E+02  0.17682396657E+03  0.17120000000E+03 0.  0.
        998    1    1    2    0    0  0.36307649715E+01  0.11060205735E+02  0.13857777252E+04  0.13858626968E+04  0.10000000000E+02 0. -1.
</event>
<event>
 5    1  0.1334136E-008  0.3805077E+03  0.7957747E-01  0.3448951E+00
         13   -1    0    0    0    0  0.00000000000E+00  0.00000000000E+00  0.14999999963E+04  0.15000000000E+04  0.10566000000E+00 0.  1.
        994   -1    0    0    0    0 -0.00000000000E+00 -0.00000000000E+00  0.11368683772E-12  0.17120000000E+03  0.17120000000E+03 0.  0.
         13    1    1    2    0    0 -0.11022285536E+02  0.14525205553E+02  0.39979642346E+02  0.43941499075E+02  0.10566000000E+00 0.  1.
        994    1    1    2    0    0  0.98047292188E+01 -0.20409752247E+02  0.55899455117E+01  0.17278130163E+03  0.17120000000E+03 0.  0.
        998    1    1    2    0    0  0.12175563168E+01  0.58845466943E+01  0.14544304084E+04  0.14544771993E+04  0.10000000000E+02 0.  1.
</event>
<event>
 5    1  0.1334136E-008  0.3759348E+03  0.7957747E-01  0.3469052E+00
         13   -1    0    0    0    0  0.00000000000E+00  0.00000000000E+00  0.14999999963E+04  0.15000000000E+04  0.10566000000E+00 0. -1.
        994   -1    0    0    0    0 -0.00000000000E+00 -0.00000000000E+00  0.11368683772E-12  0.17120000000E+03  0.17120000000E+03 0.  0.
         13    1    1    2    0    0  0.62677943567E+02 -0.12333295539E+03  0.61211720070E+03  0.62755638874E+03  0.10566000000E+00 0. -1.
        994    1    1    2    0    0 -0.12983965573E+03  0.12638747207E+03  0.12706991647E+03  0.27980052353E+03  0.17120000000E+03 0.  0.
        998    1    1    2    0    0  0.67161712167E+02 -0.30545166814E+01  0.76081287910E+03  0.76384308772E+03  0.10000000000E+02 0. -1.
</event>
<event>
 5    1  0.1334136E-008  0.3907314E+03  0.7957747E-01  0.3405723E+00
         13   -1    0    0    0    0  0.00000000000E+00  0.00000000000E+00  0.14999999963E+04  0.15000000000E+04  0.10566000000E+00 0. -1.
        994   -1    0    0    0    0 -0.00000000000E+00 -0.00000000000E+00  0.11368683772E-12  0.17120000000E+03  0.17120000000E+03 0.  0.
         13    1    1    2    0    0 -0.64469533466E+02  0.51739315929E+02  0.13118156641E+03  0.15505448103E+03  0.10566000000E+00 0. -1.
        994    1    1    2    0    0  0.61977613188E+02 -0.62466085429E+02  0.52199938294E+02  0.19944299918E+03  0.17120000000E+03 0.  0.
        998    1    1    2    0    0  0.24919202780E+01  0.10726769500E+02  0.13166184916E+04  0.13167025198E+04  0.10000000000E+02 0. -1.
</event>
<event>
 5    1  0.1334136E-008  0.3783868E+03  0.7957747E-01  0.3458213E+00
         13   -1    0    0    0    0  0.00000000000E+00  0.00000000000E+00  0.14999999963E+04  0.15000000000E+04  0.10566000000E+00 0. -1.
        994   -1    0    0    0    0 -0.00000000000E+00 -0.00000000000E+00  0.11368683772E-12  0.17120000000E+03  0.17120000000E+03 0.  0.
         13    1    1    2    0    0  0.18979740371E+01  0.11272120732E+02  0.10954455737E+02  0.15832696415E+02  0.10566000000E+00 0. -1.
        994    1    1    2    0    0 -0.85225741658E+01 -0.86600050490E+01  0.54460308464E+01  0.17171700326E+03  0.17120000000E+03 0.  0.
        998    1    1    2    0    0  0.66246001288E+01 -0.26121156833E+01  0.14835995097E+04  0.14836503003E+04  0.10000000000E+02 0. -1.
</event>
<event>
 5    1  0.1334136E-008  0.3841111E+03  0.7957747E-01  0.3433451E+00
         13   -1    0    0    0    0  0.00000000000E+00  0.00000000000E+00  0.14999999963E+04  0.15000000000E+04  0.10566000000E+00 0.  1.
        994   -1    0    0    0    0 -0.00000000000E+00 -0.00000000000E+00  0.11368683772E-12  0.17120000000E+03  0.17120000000E+03 0.  0.
         13    1    1    2    0    0 -0.28507847282E+02  0.53955841223E+02  0.91752216459E+02  0.11019260659E+03  0.10566000000E+00 0.  1.
        994    1    1    2    0    0  0.23999057813E+02 -0.43281462465E+02  0.27670236933E+02  0.18034500764E+03  0.17120000000E+03 0.  0.
        998    1    1    2    0    0  0.45087894685E+01 -0.10674378758E+02  0.13805775429E+04  0.13806623858E+04  0.10000000000E+02 0.  1.
</event>
<event>
 5    1  0.1334136E-008  0.3833250E+03  0.7957747E-01  0.3436807E+00
         13   -1    0    0    0    0  0.00000000000E+00  0.00000000000E+00  0.14999999963E+04  0.15000000000E+04  0.10566000000E+00 0.  1.
        994   -1    0    0    0    0 -0.00000000000E+00 -0.00000000000E+00  0.11368683772E-12  0.17120000000E+03  0.17120000000E+03 0.  0.
         13    1    1    2    0    0  0.71995739665E+01  0.80981920066E+01  0.22440722996E+02  0.24920108180E+02  0.10566000000E+00 0.  1.
        994    1    1    2    0    0 -0.12796581583E+02 -0.80770565227E+01  0.32215914269E+01  0.17189767303E+03  0.17120000000E+03 0.  0.
        998    1    1    2    0    0  0.55970076164E+01 -0.21135483878E-01  0.14743376819E+04  0.14743822188E+04  0.10000000000E+02 0.  1.
</event>
<event>
 5    1  0.1334136E-008  0.3845592E+03  0.7957747E-01  0.3431544E+00
         13   -1    0    0    0    0  0.00000000000E+00  0.00000000000E+00  0.14999999963E+04  0.15000000000E+04  0.10566000000E+00 0. -1.
        994   -1    0    0    0    0 -0.00000000000E+00 -0.00000000000E+00  0.11368683772E-12  0.17120000000E+03  0.17120000000E+03 0.  0.
         13    1    1    2    0    0 -0.83886483742E+01 -0.87442424946E+01  0.39019107440E+02  0.40857473096E+02  0.10566000000E+00 0. -1.
        994    1    1    2    0    0  0.91331636208E+01  0.53133754695E+01  0.22169486853E+01  0.17154008715E+03  0.17120000000E+03 0.  0.
        998    1    1    2    0    0 -0.74451524661E+00  0.34308670251E+01  0.14587639402E+04  0.14588024398E+04  0.10000000000E+02 0. -1.
</event>
<event>
 5    1  0.1334136E-008  0.3808574E+03  0.7957747E-01  0.3447433E+00
         13   -1    0    0    0    0  0.00000000000E+00  0.00000000000E+00  0.14999999963E+04  0.15000000000E+04  0.10566000000E+00 0.  1.
        994   -1    0    0    0    0 -0.00000000000E+00 -0.00000000000E+00  0.11368683772E-12  0.17120000000E+03  0.17120000000E+03 0.  0.
         13    1    1    2    0    0 -0.21941551992E+03  0.82167493978E+02  0.10689857003E+04  0.10943605924E+04  0.10566000000E+00 0.  1.
        994    1    1    2    0    0  0.23364065544E+03 -0.62432163679E+02  0.23261104798E+03  0.37670023969E+03  0.17120000000E+03 0.  0.
        998    1    1    2    0    0 -0.14225135523E+02 -0.19735330299E+02  0.19840324795E+03  0.20013916793E+03  0.10000000000E+02 0. -1.
</event>
<event>
 5    1  0.1334136E-008  0.3824942E+03  0.7957747E-01  0.3440369E+00
         13   -1    0    0    0    0  0.00000000000E+00  0.00000000000E+00  0.14999999963E+04  0.15000000000E+04  0.10566000000E+00 0. -1.
        994   -1    0    0    0    0 -0.00000000000E+00 -0.00000000000E+00  0.11368683772E-12  0.17120000000E+03  0.17120000000E+03 0.  0.
         13    1    1    2    0    0 -0.96289768520E+01  0.28388000282E+01  0.16419198779E+02  0.19245187279E+02  0.10566000000E+00 0. -1.
        994    1    1    2    0    0  0.39010530844E+01 -0.68705138816E+01  0.30863249815E+01  0.17140999848E+03  0.17120000000E+03 0.  0.
        998    1    1    2    0    0  0.57279237676E+01  0.40317138534E+01  0.14804944725E+04  0.14805448142E+04  0.10000000000E+02 0. -1.
</event>
<event>
 5    1  0.1334136E-008  0.3814132E+03  0.7957747E-01  0.3445028E+00
         13   -1    0    0    0    0  0.00000000000E+00  0.00000000000E+00  0.14999999963E+04  0.15000000000E+04  0.10566000000E+00 0. -1.
        994   -1    0    0    0    0 -0.00000000000E+00 -0.00000000000E+00  0.11368683772E-12  0.17120000000E+03  0.17120000000E+03 0.  0.
         13    1    1    2    0    0  0.18438607043E+01  0.12605575161E+02  0.22365585689E+02  0.25739676274E+02  0.10566000000E+00 0. -1.
        994    1    1    2    0    0 -0.77725938723E+01 -0.76993057412E+01  0.38198381148E+01  0.17159173549E+03  0.17120000000E+03 0.  0.
        998    1    1    2    0    0  0.59287331680E+01 -0.49062694201E+01  0.14738145725E+04  0.14738685882E+04  0.10000000000E+02 0. -1.
</event>
<event>
 5    1  0.1334136E-008  0.3746373E+03  0.7957747E-01  0.3474847E+00
         13   -1    0    0    0    0  0.00000000000E+00  0.00000000000E+00  0.14999999963E+04  0.15000000000E+04  0.10566000000E+00 0. -1.
        994   -1    0    0    0    0 -0.00000000000E+00 -0.00000000000E+00  0.11368683772E-12  0.17120000000E+03  0.17120000000E+03 0.  0.
         13    1    1    2    0    0  0.15319594352E+02 -0.66946943547E+01  0.17342615390E+02  0.24089133987E+02  0.10566000000E+00 0. -1.
        994    1    1    2    0    0 -0.14788058529E+02 -0.17962708110E+01  0.76207263094E+01  0.17201578048E+03  0.17120000000E+03 0.  0.
        998    1    1    2    0    0 -0.53153582345E+00  0.84909651657E+01  0.14750366546E+04  0.14750950855E+04  0.10000000000E+02 0. -1.
</event>
<event>
 5    1  0.1334136E-008  0.3775274E+03  0.7957747E-01  0.3461996E+00
         13   -1    0    0    0    0  0.00000000000E+00  0.00000000000E+00  0.14999999963E+04  0.15000000000E+04  0.10566000000E+00 0.  1.
        994   -1    0    0    0    0 -0.00000000000E+00 -0.00000000000E+00  0.11368683772E-12  0.17120000000E+03  0.17120000000E+03 0.  0.
         13    1    1    2    0    0 -0.23242943533E+02 -0.16191690736E+02  0.20526752329E+02  0.34982338375E+02  0.10566000000E+00 0.  1.
        994    1    1    2    0    0  0.22099867682E+02  0.69226655159E+01  0.16903883877E+02  0.17358429865E+03  0.17120000000E+03 0.  0.
        998    1    1    2    0    0  0.11430758513E+01  0.92690252201E+01  0.14625693601E+04  0.14626333630E+04  0.10000000000E+02 0.  1.
</event>
<event>
 5    1  0.1334136E-008  0.3816852E+03  0.7957747E-01  0.3443853E+00
         13   -1    0    0    0    0  0.00000000000E+00  0.00000000000E+00  0.14999999963E+04  0.15000000000E+04  0.10566000000E+00 0. -1.
        994   -1    0    0    0    0 -0.00000000000E+00 -0.00000000000E+00  0.11368683772E-12  0.17120000000E+03  0.17120000000E+03 0.  0.
         13    1    1    2    0    0  0.21281954862E+02 -0.68921408111E+01  0.74865828712E+02  0.78136589896E+02  0.10566000000E+00 0. -1.
        994    1    1    2    0    0 -0.15945030074E+02 -0.15047647649E+01  0.41380760303E+01  0.17199730223E+03  0.17120000000E+03 0.  0.
        998    1    1    2    0    0 -0.53369247882E+01  0.83969055760E+01  0.14209960915E+04  0.14210661079E+04  0.10000000000E+02 0. -1.
</event>
<event>
 5    1  0.1334136E-008  0.3850190E+03  0.7957747E-01  0.3429592E+00
         13   -1    0    0    0    0  0.00000000000E+00  0.00000000000E+00  0.14999999963E+04  0.15000000000E+04  0.10566000000E+00 0.  1.
        994   -1    0    0    0    0 -0.00000000000E+00 -0.00000000000E+00  0.11368683772E-12  0.17120000000E+03  0.17120000000E+03 0.  0.
         13    1    1    2    0    0 -0.13601110619E+02 -0.19060022557E+01  0.56555881266E+02  0.58199672890E+02  0.10566000000E+00 0.  1.
        994    1    1    2    0    0  0.14427799135E+02 -0.23801292467E+01  0.23241698694E+01  0.17183907637E+03  0.17120000000E+03 0.  0.
        998    1    1    2    0    0 -0.82668851576E+00  0.42861315024E+01  0.14411199451E+04  0.14411612507E+04  0.10000000000E+02 0.  1.
</event>
<event>
 5    1  0.1334136E-008  0.3832669E+03  0.7957747E-01  0.3437056E+00
         13   -1    0    0    0    0  0.00000000000E+00  0.00000000000E+00  0.14999999963E+04  0.15000000000E+04  0.10566000000E+00 0.  1.
        994   -1    0    0    0    0 -0.00000000000E+00 -0.00000000000E+00  0.11368683772E-12  0.17120000000E+03  0.17120000000E+03 0.  0.
         13    1    1    2    0    0 -0.19950707394E+02  0.20504561610E+01  0.77110977495E+02  0.79676527976E+02  0.10566000000E+00 0.  1.
        994    1    1    2    0    0  0.19049644002E+02 -0.32858241373E+01  0.37298866551E+01  0.17232828448E+03  0.17120000000E+03 0.  0.
        998    1    1    2    0    0  0.90106339154E+00  0.12353679764E+01  0.14191591321E+04  0.14191951875E+04  0.10000000000E+02 0.  0.
</event>
<event>
 5    1  0.1334136E-008  0.3845106E+03  0.7957747E-01  0.3431751E+00
         13   -1    0    0    0    0  0.00000000000E+00  0.00000000000E+00  0.14999999963E+04  0.15000000000E+04  0.10566000000E+00 0. -1.
        994   -1    0    0    0    0 -0.00000000000E+00 -0.00000000000E+00  0.11368683772E-12  0.17120000000E+03  0.17120000000E+03 0.  0.
         13    1    1    2    0    0 -0.11699797239E+02 -0.52365476662E+01  0.42228263008E+02  0.44130987385E+02  0.10566000000E+00 0. -1.
        994    1    1    2    0    0  0.13341173938E+02  0.68220683034E+01  0.26132328320E+01  0.17187436261E+03  0.17120000000E+03 0.  0.
        998    1    1    2    0    0 -0.16413766992E+01 -0.15855206372E+01  0.14551585004E+04  0.14551946500E+04  0.10000000000E+02 0. -1.
</event>
<event>
 5    1  0.1334136E-008  0.3849953E+03  0.7957747E-01  0.3429692E+00
         13   -1    0    0    0    0  0.00000000000E+00  0.00000000000E+00  0.14999999963E+04  0.15000000000E+04  0.10566000000E+00 0.  1.
        994   -1    0    0    0    0 -0.00000000000E+00 -0.00000000000E+00  0.11368683772E-12  0.17120000000E+03  0.17120000000E+03 0.  0.
         13    1    1    2    0    0  0.10940165769E+02  0.85259803795E+01  0.78681682673E+02  0.79894917990E+02  0.10566000000E+00 0.  1.
        994    1    1    2    0    0  0.23778774321E+02  0.18427239303E+02  0.46143971188E+01  0.17388423136E+03  0.17120000000E+03 0.  0.
        998    1    1    2    0    0 -0.34718940090E+02 -0.26953219682E+02  0.14167039165E+04  0.14174208506E+04  0.10000000000E+02 0.  1.
</event>
<event>
 5    1  0.1334136E-008  0.3821348E+03  0.7957747E-01  0.3441915E+00
         13   -1    0    0    0    0  0.00000000000E+00  0.00000000000E+00  0.14999999963E+04  0.15000000000E+04  0.10566000000E+00 0. -1.
        994   -1    0    0    0    0 -0.00000000000E+00 -0.00000000000E+00  0.11368683772E-12  0.17120000000E+03  0.17120000000E+03 0.  0.
         13    1    1    2    0    0  0.10862399181E+02 -0.14934468374E+01  0.17874271162E+02  0.20969569214E+02  0.10566000000E+00 0. -1.
        994    1    1    2    0    0 -0.18695087373E+02 -0.33715279280E+00  0.42207887235E+01  0.17226977396E+03  0.17120000000E+03 0.  0.
        998    1    1    2    0    0  0.78326881917E+01  0.18305996302E+01  0.14779049364E+04  0.14779606568E+04  0.10000000000E+02 0. -1.
</event>
<event>
 5    1  0.1334136E-008  0.3834991E+03  0.7957747E-01  0.3436063E+00
         13   -1    0    0    0    0  0.00000000000E+00  0.00000000000E+00  0.14999999963E+04  0.15000000000E+04  0.10566000000E+00 0.  1.
        994   -1    0    0    0    0 -0.00000000000E+00 -0.00000000000E+00  0.11368683772E-12  0.17120000000E+03  0.17120000000E+03 0.  0.
         13    1    1    2    0    0  0.34144476222E+01 -0.20327061414E+02  0.91501639148E+02  0.93794504152E+02  0.10566000000E+00 0.  1.
        994    1    1    2    0    0 -0.26343160526E+01  0.78595547400E+01  0.26042646612E+01  0.17142034423E+03  0.17120000000E+03 0.  0.
        998    1    1    2    0    0 -0.78013156956E+00  0.12467506674E+02  0.14058940925E+04  0.14059851516E+04  0.10000000000E+02 0.  1.
</event>
<event>
 5    1  0.1334136E-008  0.3818862E+03  0.7957747E-01  0.3442986E+00
         13   -1    0    0    0    0  0.00000000000E+00  0.00000000000E+00  0.14999999963E+04  0.15000000000E+04  0.10566000000E+00 0.  1.
        994   -1    0    0    0    0 -0.00000000000E+00 -0.00000000000E+00  0.11368683772E-12  0.17120000000E+03  0.17120000000E+03 0.  0.
         13    1    1    2    0    0  0.10233752051E+02 -0.49677664001E+02  0.30558627059E+03  0.30976697680E+03  0.10566000000E+00 0.  1.
        994    1    1    2    0    0  0.50406116076E+01  0.59059917000E+02  0.14945701252E+02  0.18178640089E+03  0.17120000000E+03 0.  0.
        998    1    1    2    0    0 -0.15274363658E+02 -0.93822529989E+01  0.11794680244E+04  0.11796466223E+04  0.10000000000E+02 0.  1.
</event>
<event>
 5    1  0.1334136E-008  0.3801473E+03  0.7957747E-01  0.3450517E+00
         13   -1    0    0    0    0  0.00000000000E+00  0.00000000000E+00  0.14999999963E+04  0.15000000000E+04  0.10566000000E+00 0.  1.
        994   -1    0    0    0    0 -0.00000000000E+00 -0.00000000000E+00  0.11368683772E-12  0.17120000000E+03  0.17120000000E+03 0.  0.
         13    1    1    2    0    0  0.27697318672E+02  0.55233520331E+01  0.92963151266E+02  0.97158671958E+02  0.10566000000E+00 0.  1.
        994    1    1    2    0    0 -0.24035838507E+02 -0.10032987588E+02  0.63287905008E+01  0.17328553304E+03  0.17120000000E+03 0.  0.
        998    1    1    2    0    0 -0.36614801648E+01  0.45096355545E+01  0.14007080545E+04  0.14007557950E+04  0.10000000000E+02 0.  1.
</event>
<event>
 5    1  0.1334136E-008  0.3765171E+03  0.7957747E-01  0.3466466E+00
         13   -1    0    0    0    0  0.00000000000E+00  0.00000000000E+00  0.14999999963E+04  0.15000000000E+04  0.10566000000E+00 0.  1.
        994   -1    0    0    0    0 -0.00000000000E+00 -0.00000000000E+00  0.11368683772E-12  0.17120000000E+03  0.17120000000E+03 0.  0.
         13    1    1    2    0    0 -0.46315385674E+02  0.23642028912E+02  0.19759821896E+03  0.20432603305E+03  0.10566000000E+00 0.  1.
        994    1    1    2    0    0  0.44796157026E+02 -0.28124555420E+02  0.15422460976E+02  0.17984709785E+03  0.17120000000E+03 0.  0.
        998    1    1    2    0    0  0.15192286482E+01  0.44825265085E+01  0.12869793163E+04  0.12870268691E+04  0.10000000000E+02 0.  1.
</event>
<event>
 5    1  0.1334136E-008  0.3814702E+03  0.7957747E-01  0.3444782E+00
         13   -1    0    0    0    0  0.00000000000E+00  0.00000000000E+00  0.14999999963E+04  0.15000000000E+04  0.10566000000E+00 0. -1.
        994   -1    0    0    0    0 -0.00000000000E+00 -0.00000000000E+00  0.11368683772E-12  0.17120000000E+03  0.17120000000E+03 0.  0.
         13    1    1    2    0    0  0.82805399166E+01  0.59074269248E+01  0.13973878931E+02  0.17284255570E+02  0.10566000000E+00 0. -1.
        994    1    1    2    0    0 -0.95270345842E+01  0.85420087311E+01  0.39377380695E+01  0.17172267201E+03  0.17120000000E+03 0.  0.
        998    1    1    2    0    0  0.12464946675E+01 -0.14449435656E+02  0.14820883793E+04  0.14821930724E+04  0.10000000000E+02 0. -1.
</event>
<event>
 5    1  0.1334136E-008  0.3925967E+03  0.7957747E-01  0.3398079E+00
         13   -1    0    0    0    0  0.00000000000E+00  0.00000000000E+00  0.14999999963E+04  0.15000000000E+04  0.10566000000E+00 0.  1.
        994   -1    0    0    0    0 -0.00000000000E+00 -0.00000000000E+00  0.11368683772E-12  0.17120000000E+03  0.17120000000E+03 0.  0.
         13    1    1    2    0    0  0.64277278092E+02  0.93571132310E+02  0.22782223628E+03  0.25453901034E+03  0.10566000000E+00 0.  1.
        994    1    1    2    0    0 -0.24969441362E+02 -0.11692039138E+03  0.80076690880E+02  0.22364160468E+03  0.17120000000E+03 0.  0.
        998    1    1    2    0    0 -0.39307836730E+02  0.23349259067E+02  0.11921010691E+04  0.11930193850E+04  0.10000000000E+02 0.  1.
</event>
<event>
 5    1  0.1334136E-008  0.3842822E+03  0.7957747E-01  0.3432722E+00
         13   -1    0    0    0    0  0.00000000000E+00  0.00000000000E+00  0.14999999963E+04  0.15000000000E+04  0.10566000000E+00 0. -1.
        994   -1    0    0    0    0 -0.00000000000E+00 -0.00000000000E+00  0.11368683772E-12  0.17120000000E+03  0.17120000000E+03 0.  0.
         13    1    1    2    0    0 -0.19764912433E+02 -0.43846318184E+01  0.95106097389E+02  0.97237120917E+02  0.10566000000E+00 0. -1.
        994    1    1    2    0    0  0.23748296845E+02  0.43095560804E+01  0.39095836739E+01  0.17293721034E+03  0.17120000000E+03 0.  0.
        998    1    1    2    0    0 -0.39833844115E+01  0.75075737923E-01  0.14009843152E+04  0.14010256687E+04  0.10000000000E+02 0. -1.
</event>
<event>
 5    1  0.1334136E-008  0.3694212E+03  0.7957747E-01  0.3498555E+00
         13   -1    0    0    0    0  0.00000000000E+00  0.00000000000E+00  0.14999999963E+04  0.15000000000E+04  0.10566000000E+00 0. -1.
        994   -1    0    0    0    0 -0.00000000000E+00 -0.00000000000E+00  0.11368683772E-12  0.17120000000E+03  0.17120000000E+03 0.  0.
         13    1    1    2    0    0 -0.39200252543E+02  0.16923722250E+02  0.84771856574E+02  0.94917601135E+02  0.10566000000E+00 0. -1.
        994    1    1    2    0    0  0.45360303009E+02 -0.21376536504E+02  0.18334618182E+02  0.17933240540E+03  0.17120000000E+03 0.  0.
        998    1    1    2    0    0 -0.61600504662E+01  0.44528142545E+01  0.13968935215E+04  0.13969499935E+04  0.10000000000E+02 0. -1.
</event>
<event>
 5    1  0.1334136E-008  0.3788191E+03  0.7957747E-01  0.3456317E+00
         13   -1    0    0    0    0  0.00000000000E+00  0.00000000000E+00  0.14999999963E+04  0.15000000000E+04  0.10566000000E+00 0.  1.
        994   -1    0    0    0    0 -0.00000000000E+00 -0.00000000000E+00  0.11368683772E-12  0.17120000000E+03  0.17120000000E+03 0.  0.
         13    1    1    2    0    0  0.29352804310E+02  0.15302461667E+02  0.10920479077E+03  0.11411156797E+03  0.10566000000E+00 0.  1.
        994    1    1    2    0    0 -0.26111118350E+02 -0.12105542567E+02  0.75153537959E+01  0.17376494239E+03  0.17120000000E+03 0.  0.
        998    1    1    2    0    0 -0.32416859606E+01 -0.31969190999E+01  0.13832798517E+04  0.13833234896E+04  0.10000000000E+02 0.  1.
</event>
<event>
 5    1  0.1334136E-008  0.3844432E+03  0.7957747E-01  0.3432037E+00
         13   -1    0    0    0    0  0.00000000000E+00  0.00000000000E+00  0.14999999963E+04  0.15000000000E+04  0.10566000000E+00 0.  1.
        994   -1    0    0    0    0 -0.00000000000E+00 -0.00000000000E+00  0.11368683772E-12  0.17120000000E+03  0.17120000000E+03 0.  0.
         13    1    1    2    0    0 -0.16010479335E+02  0.55862420067E+01  0.60651133802E+02  0.62977081100E+02  0.10566000000E+00 0.  1.
        994    1    1    2    0    0  0.36115103192E+02 -0.51433025597E+02  0.15029543143E+02  0.18298902691E+03  0.17120000000E+03 0.  0.
        998    1    1    2    0    0 -0.20104623857E+02  0.45846783590E+02  0.14243193193E+04  0.14252338920E+04  0.10000000000E+02 0.  1.
</event>
<event>
 5    1  0.1334136E-008  0.3850516E+03  0.7957747E-01  0.3429453E+00
         13   -1    0    0    0    0  0.00000000000E+00  0.00000000000E+00  0.14999999963E+04  0.15000000000E+04  0.10566000000E+00 0.  1.
        994   -1    0    0    0    0 -0.00000000000E+00 -0.00000000000E+00  0.11368683772E-12  0.17120000000E+03  0.17120000000E+03 0.  0.
         13    1    1    2    0    0  0.81565023852E+01 -0.10589476198E+02  0.62500081846E+02  0.63913511342E+02  0.10566000000E+00 0.  1.
        994    1    1    2    0    0  0.15569204523E+01 -0.10363325550E+02  0.19657204840E+01  0.17153170720E+03  0.17120000000E+03 0.  0.
        998    1    1    2    0    0 -0.97134228375E+01  0.20952801748E+02  0.14355341939E+04  0.14357547815E+04  0.10000000000E+02 0.  1.
</event>
<event>
 5    1  0.1334136E-008  0.3778491E+03  0.7957747E-01  0.3460578E+00
         13   -1    0    0    0    0  0.00000000000E+00  0.00000000000E+00  0.14999999963E+04  0.15000000000E+04  0.10566000000E+00 0. -1.
        994   -1    0    0    0    0 -0.00000000000E+00 -0.00000000000E+00  0.11368683772E-12  0.17120000000E+03  0.17120000000E+03 0.  0.
         13    1    1    2    0    0  0.26165013055E+02 -0.26999935041E+02  0.12505048830E+03  0.13058039741E+03  0.10566000000E+00 0. -1.
        994    1    1    2    0    0 -0.39983744048E+02  0.10577398792E+02  0.11003844593E+02  0.17646842706E+03  0.17120000000E+03 0.  0.
        998    1    1    2    0    0  0.13818730992E+02  0.16422536249E+02  0.13639456634E+04  0.13641511755E+04  0.10000000000E+02 0. -1.
</event>
<event>
 5    1  0.1334136E-008  0.3825767E+03  0.7957747E-01  0.3440015E+00
         13   -1    0    0    0    0  0.00000000000E+00  0.00000000000E+00  0.14999999963E+04  0.15000000000E+04  0.10566000000E+00 0. -1.
        994   -1    0    0    0    0 -0.00000000000E+00 -0.00000000000E+00  0.11368683772E-12  0.17120000000E+03  0.17120000000E+03 0.  0.
         13    1    1    2    0    0  0.33787972615E+02 -0.64600358802E+02  0.22181484046E+03  0.23348804694E+03  0.10566000000E+00 0. -1.
        994    1    1    2    0    0  0.16448136183E+01 -0.55912982094E+02  0.29286489619E+02  0.18247220460E+03  0.17120000000E+03 0.  0.
        998    1    1    2    0    0 -0.35432786234E+02  0.12051334090E+03  0.12488986662E+04  0.12552397485E+04  0.10000000000E+02 0. -1.
</event>
<event>
 5    1  0.1334136E-008  0.3799369E+03  0.7957747E-01  0.3451433E+00
         13   -1    0    0    0    0  0.00000000000E+00  0.00000000000E+00  0.14999999963E+04  0.15000000000E+04  0.10566000000E+00 0.  1.
        994   -1    0    0    0    0 -0.00000000000E+00 -0.00000000000E+00  0.11368683772E-12  0.17120000000E+03  0.17120000000E+03 0.  0.
         13    1    1    2    0    0 -0.20130737311E+02 -0.51669140137E+02  0.33069378974E+03  0.33531081158E+03  0.10566000000E+00 0.  1.
        994    1    1    2    0    0  0.34691106088E+02  0.32969173526E+02  0.11861683342E+02  0.17815885826E+03  0.17120000000E+03 0.  0.
        998    1    1    2    0    0 -0.14560368777E+02  0.18699966610E+02  0.11574445232E+04  0.11577303302E+04  0.10000000000E+02 0.  1.
</event>
<event>
 5    1  0.1334136E-008  0.3751923E+03  0.7957747E-01  0.3472363E+00
         13   -1    0    0    0    0  0.00000000000E+00  0.00000000000E+00  0.14999999963E+04  0.15000000000E+04  0.10566000000E+00 0. -1.
        994   -1    0    0    0    0 -0.00000000000E+00 -0.00000000000E+00  0.11368683772E-12  0.17120000000E+03  0.17120000000E+03 0.  0.
         13    1    1    2    0    0  0.12750059267E+02 -0.57495103386E+02  0.24009012276E+03  0.24720746173E+03  0.10566000000E+00 0. -1.
        994    1    1    2    0    0 -0.18913831903E+02  0.43758645725E+02  0.14339257737E+02  0.17829079176E+03  0.17120000000E+03 0.  0.
        998    1    1    2    0    0  0.61637726362E+01  0.13736457661E+02  0.12455706158E+04  0.12457017465E+04  0.10000000000E+02 0. -1.
</event>
<event>
 5    1  0.1334136E-008  0.3822611E+03  0.7957747E-01  0.3441372E+00
         13   -1    0    0    0    0  0.00000000000E+00  0.00000000000E+00  0.14999999963E+04  0.15000000000E+04  0.10566000000E+00 0. -1.
        994   -1    0    0    0    0 -0.00000000000E+00 -0.00000000000E+00  0.11368683772E-12  0.17120000000E+03  0.17120000000E+03 0.  0.
         13    1    1    2    0    0  0.32010038654E+02  0.35783128517E+01  0.17606143314E+03  0.17898348053E+03  0.10566000000E+00 0. -1.
        994    1    1    2    0    0 -0.17092307484E+02  0.67868899581E+01  0.41191149242E+01  0.17223418928E+03  0.17120000000E+03 0.  0.
        998    1    1    2    0    0 -0.14917731170E+02 -0.10365202810E+02  0.13198194482E+04  0.13199823302E+04  0.10000000000E+02 0. -1.
</event>
<event>
 5    1  0.1334136E-008  0.3738099E+03  0.7957747E-01  0.3478563E+00
         13   -1    0    0    0    0  0.00000000000E+00  0.00000000000E+00  0.14999999963E+04  0.15000000000E+04  0.10566000000E+00 0.  1.
        994   -1    0    0    0    0 -0.00000000000E+00 -0.00000000000E+00  0.11368683772E-12  0.17120000000E+03  0.17120000000E+03 0.  0.
         13    1    1    2    0    0  0.79683116737E+01 -0.12574709006E+02  0.11813132094E+02  0.19004698141E+02  0.10566000000E+00 0.  1.
        994    1    1    2    0    0  0.38071446722E+00  0.19056944637E+02  0.85320847300E+01  0.17246897852E+03  0.17120000000E+03 0.  0.
        998    1    1    2    0    0 -0.83490261409E+01 -0.64822356316E+01  0.14796547795E+04  0.14797263233E+04  0.10000000000E+02 0.  1.
</event>
<event>
 5    1  0.1334136E-008  0.3808742E+03  0.7957747E-01  0.3447361E+00
         13   -1    0    0    0    0  0.00000000000E+00  0.00000000000E+00  0.14999999963E+04  0.15000000000E+04  0.10566000000E+00 0.  1.
        994   -1    0    0    0    0 -0.00000000000E+00 -0.00000000000E+00  0.11368683772E-12  0.17120000000E+03  0.17120000000E+03 0.  0.
         13    1    1    2    0    0 -0.68061724659E+01 -0.78683624446E+01  0.13119423034E+02  0.16744119444E+02  0.10566000000E+00 0.  1.
        994    1    1    2    0    0  0.15155160604E+02 -0.53692398760E+01  0.45546801079E+01  0.17201364115E+03  0.17120000000E+03 0.  0.
        998    1    1    2    0    0 -0.83489881385E+01  0.13237602321E+02  0.14823258931E+04  0.14824422394E+04  0.10000000000E+02 0.  1.
</event>
<event>
 5    1  0.1334136E-008  0.3851854E+03  0.7957747E-01  0.3428886E+00
         13   -1    0    0    0    0  0.00000000000E+00  0.00000000000E+00  0.14999999963E+04  0.15000000000E+04  0.10566000000E+00 0. -1.
        994   -1    0    0    0    0 -0.00000000000E+00 -0.00000000000E+00  0.11368683772E-12  0.17120000000E+03  0.17120000000E+03 0.  0.
         13    1    1    2    0    0  0.92501551705E+01  0.71242510390E+01  0.44987622690E+02  0.46478141990E+02  0.10566000000E+00 0. -1.
        994    1    1    2    0    0 -0.48228014811E+01 -0.20592341608E+01  0.16285242960E+01  0.17128803797E+03  0.17120000000E+03 0.  0.
        998    1    1    2    0    0 -0.44273536894E+01 -0.50650168781E+01  0.14533838493E+04  0.14534338200E+04  0.10000000000E+02 0. -1.
</event>
<event>
 5    1  0.1334136E-008  0.3854647E+03  0.7957747E-01  0.3427704E+00
         13   -1    0    0    0    0  0.00000000000E+00  0.00000000000E+00  0.14999999963E+04  0.15000000000E+04  0.10566000000E+00 0.  1.
        994   -1    0    0    0    0 -0.00000000000E+00 -0.00000000000E+00  0.11368683772E-12  0.17120000000E+03  0.17120000000E+03 0.  0.
         13    1    1    2    0    0  0.16926284129E+01  0.12914431656E+02  0.68493929771E+02  0.69721425081E+02  0.10566000000E+00 0.  1.
        994    1    1    2    0    0 -0.10919772109E+01  0.80289850891E+01  0.16152095194E+01  0.17139925880E+03  0.17120000000E+03 0.  0.
        998    1    1    2    0    0 -0.60065120195E+00 -0.20943416745E+02  0.14298908570E+04  0.14300793161E+04  0.10000000000E+02 0.  1.
</event>
<event>
 5    1  0.1334136E-008  0.3815910E+03  0.7957747E-01  0.3444260E+00
         13   -1    0    0    0    0  0.00000000000E+00  0.00000000000E+00  0.14999999963E+04  0.15000000000E+04  0.10566000000E+00 0. -1.
        994   -1    0    0    0    0 -0.00000000000E+00 -0.00000000000E+00  0.11368683772E-12  0.17120000000E+03  0.17120000000E+03 0.  0.
         13    1    1    2    0    0  0.21807880672E+02 -0.26821171256E+01  0.75930492970E+02  0.79045735738E+02  0.10566000000E+00 0. -1.
        994    1    1    2    0    0 -0.73151404809E+00  0.51184976461E+01  0.34210753398E+01  0.17131222340E+03  0.17120000000E+03 0.  0.
        998    1    1    2    0    0 -0.21076366624E+02 -0.24363805206E+01  0.14206484280E+04  0.14208420409E+04  0.10000000000E+02 0. -1.
</event>
<event>
 5    1  0.1334136E-008  0.3832854E+03  0.7957747E-01  0.3436977E+00
         13   -1    0    0    0    0  0.00000000000E+00  0.00000000000E+00  0.14999999963E+04  0.15000000000E+04  0.10566000000E+00 0. -1.
        994   -1    0    0    0    0 -0.00000000000E+00 -0.00000000000E+00  0.11368683772E-12  0.17120000000E+03  0.17120000000E+03 0.  0.
         13    1    1    2    0    0 -0.85928950355E+01  0.79015022320E+01  0.27477690260E+02  0.29854751861E+02  0.10566000000E+00 0. -1.
        994    1    1    2    0    0  0.51602241079E+01  0.71449974863E+01  0.27407211795E+01  0.17144862337E+03  0.17120000000E+03 0.  0.
        998    1    1    2    0    0  0.34326709276E+01 -0.15046499718E+02  0.14697815848E+04  0.14698966248E+04  0.10000000000E+02 0. -1.
</event>
<event>
 5    1  0.1334136E-008  0.3725474E+03  0.7957747E-01  0.3484265E+00
         13   -1    0    0    0    0  0.00000000000E+00  0.00000000000E+00  0.14999999963E+04  0.15000000000E+04  0.10566000000E+00 0. -1.
        994   -1    0    0    0    0 -0.00000000000E+00 -0.00000000000E+00  0.11368683772E-12  0.17120000000E+03  0.17120000000E+03 0.  0.
         13    1    1    2    0    0 -0.10955489763E+02 -0.52790216273E+02  0.16207991070E+03  0.17081199697E+03  0.10566000000E+00 0. -1.
        994    1    1    2    0    0  0.73222881726E+01  0.53101775009E+02  0.17857386908E+02  0.18028239149E+03  0.17120000000E+03 0.  0.
        998    1    1    2    0    0  0.36332015907E+01 -0.31155873611E+00  0.13200626987E+04  0.13201056115E+04  0.10000000000E+02 0. -1.
</event>
<event>
 5    1  0.1334136E-008  0.3821195E+03  0.7957747E-01  0.3441981E+00
         13   -1    0    0    0    0  0.00000000000E+00  0.00000000000E+00  0.14999999963E+04  0.15000000000E+04  0.10566000000E+00 0. -1.
        994   -1    0    0    0    0 -0.00000000000E+00 -0.00000000000E+00  0.11368683772E-12  0.17120000000E+03  0.17120000000E+03 0.  0.
         13    1    1    2    0    0 -0.19783740132E+02  0.86692901419E+01  0.69274841678E+02  0.72564232365E+02  0.10566000000E+00 0. -1.
        994    1    1    2    0    0  0.29184497357E+02 -0.86875047261E+01  0.61511457884E+01  0.17399564425E+03  0.17120000000E+03 0.  0.
        998    1    1    2    0    0 -0.94007572252E+01  0.18214584165E-01  0.14245740088E+04  0.14246401234E+04  0.10000000000E+02 0. -1.
</event>
<event>
 5    1  0.1334136E-008  0.3786118E+03  0.7957747E-01  0.3457226E+00
         13   -1    0    0    0    0  0.00000000000E+00  0.00000000000E+00  0.14999999963E+04  0.15000000000E+04  0.10566000000E+00 0. -1.
        994   -1    0    0    0    0 -0.00000000000E+00 -0.00000000000E+00  0.11368683772E-12  0.17120000000E+03  0.17120000000E+03 0.  0.
         13    1    1    2    0    0 -0.27020651145E+02 -0.93223256052E+01  0.71348960816E+02  0.76861607559E+02  0.10566000000E+00 0. -1.
        994    1    1    2    0    0  0.61560591844E+02 -0.12063105340E+02  0.18166999668E+02  0.18323401664E+03  0.17120000000E+03 0.  0.
        998    1    1    2    0    0 -0.34539940699E+02  0.21385430945E+02  0.14104840358E+04  0.14111043758E+04  0.10000000000E+02 0. -1.
</event>
<event>
 5    1  0.1334136E-008  0.3852366E+03  0.7957747E-01  0.3428670E+00
         13   -1    0    0    0    0  0.00000000000E+00  0.00000000000E+00  0.14999999963E+04  0.15000000000E+04  0.10566000000E+00 0. -1.
        994   -1    0    0    0    0 -0.00000000000E+00 -0.00000000000E+00  0.11368683772E-12  0.17120000000E+03  0.17120000000E+03 0.  0.
         13    1    1    2    0    0 -0.11615023798E+02 -0.91642243206E+01  0.75249179233E+02  0.76689907580E+02  0.10566000000E+00 0. -1.
        994    1    1    2    0    0  0.15950483571E+01  0.53018115913E+01  0.16134723346E+01  0.17129710061E+03  0.17120000000E+03 0.  0.
        998    1    1    2    0    0  0.10019975440E+02  0.38624127293E+01  0.14231373447E+04  0.14232129918E+04  0.10000000000E+02 0. -1.
</event>
<event>
 5    1  0.1334136E-008  0.3838524E+03  0.7957747E-01  0.3434554E+00
         13   -1    0    0    0    0  0.00000000000E+00  0.00000000000E+00  0.14999999963E+04  0.15000000000E+04  0.10566000000E+00 0.  1.
        994   -1    0    0    0    0 -0.00000000000E+00 -0.00000000000E+00  0.11368683772E-12  0.17120000000E+03  0.17120000000E+03 0.  0.
         13    1    1    2    0    0  0.97417494586E+01  0.23763606882E+02  0.12765522333E+03  0.13021320172E+03  0.10566000000E+00 0.  1.
        994    1    1    2    0    0 -0.10264185233E+02 -0.35190042800E+02  0.66490555093E+01  0.17520657108E+03  0.17120000000E+03 0.  0.
        998    1    1    2    0    0  0.52243577445E+00  0.11426435918E+02  0.13656957174E+04  0.13657802272E+04  0.10000000000E+02 0.  1.
</event>
<event>
 5    1  0.1334136E-008  0.3734694E+03  0.7957747E-01  0.3480097E+00
         13   -1    0    0    0    0  0.00000000000E+00  0.00000000000E+00  0.14999999963E+04  0.15000000000E+04  0.10566000000E+00 0.  1.
        994   -1    0    0    0    0 -0.00000000000E+00 -0.00000000000E+00  0.11368683772E-12  0.17120000000E+03  0.17120000000E+03 0.  0.
         13    1    1    2    0    0  0.64731003475E+02 -0.39388287657E+02  0.33965642497E+03  0.34800580197E+03  0.10566000000E+00 0.  1.
        994    1    1    2    0    0 -0.51705951921E+02  0.28016006054E+02  0.19377274717E+02  0.18205307148E+03  0.17120000000E+03 0.  0.
        998    1    1    2    0    0 -0.13025051554E+02  0.11372281603E+02  0.11409662966E+04  0.11411411265E+04  0.10000000000E+02 0.  1.
</event>
<event>
 5    1  0.1334136E-008  0.3807992E+03  0.7957747E-01  0.3447686E+00
         13   -1    0    0    0    0  0.00000000000E+00  0.00000000000E+00  0.14999999963E+04  0.15000000000E+04  0.10566000000E+00 0. -1.
        994   -1    0    0    0    0 -0.00000000000E+00 -0.00000000000E+00  0.11368683772E-12  0.17120000000E+03  0.17120000000E+03 0.  0.
         13    1    1    2    0    0  0.21886598576E+02  0.27570937582E+02  0.15162001414E+03  0.15565288191E+03  0.10566000000E+00 0. -1.
        994    1    1    2    0    0 -0.55427617868E+01 -0.38850264749E+02  0.88820888759E+01  0.17586471159E+03  0.17120000000E+03 0.  0.
        998    1    1    2    0    0 -0.16343836789E+02  0.11279327167E+02  0.13394978933E+04  0.13396824065E+04  0.10000000000E+02 0. -1.
</event>
<event>
 5    1  0.1334136E-008  0.3807891E+03  0.7957747E-01  0.3447730E+00
         13   -1    0    0    0    0  0.00000000000E+00  0.00000000000E+00  0.14999999963E+04  0.15000000000E+04  0.10566000000E+00 0. -1.
        994   -1    0    0    0    0 -0.00000000000E+00 -0.00000000000E+00  0.11368683772E-12  0.17120000000E+03  0.17120000000E+03 0.  0.
         13    1    1    2    0    0 -0.11629522410E+02 -0.15898620509E+02  0.51060896817E+02  0.54728770070E+02  0.10566000000E+00 0. -1.
        994    1    1    2    0    0 -0.34389704109E+01  0.15533976572E+02  0.45798097637E+01  0.17199867907E+03  0.17120000000E+03 0.  0.
        998    1    1    2    0    0  0.15068492821E+02  0.36464393646E+00  0.14443592897E+04  0.14444725509E+04  0.10000000000E+02 0. -1.
</event>
<event>
 5    1  0.1334136E-008  0.3786335E+03  0.7957747E-01  0.3457130E+00
         13   -1    0    0    0    0  0.00000000000E+00  0.00000000000E+00  0.14999999963E+04  0.15000000000E+04  0.10566000000E+00 0.  1.
        994   -1    0    0    0    0 -0.00000000000E+00 -0.00000000000E+00  0.11368683772E-12  0.17120000000E+03  0.17120000000E+03 0.  0.
         13    1    1    2    0    0 -0.81811709810E+02  0.28367870688E+02  0.23777853282E+03  0.25305440875E+03  0.10566000000E+00 0.  1.
        994    1    1    2    0    0  0.65228414169E+02  0.29414084596E+02  0.34278359721E+02  0.18869123014E+03  0.17120000000E+03 0.  0.
        998    1    1    2    0    0  0.16583295640E+02 -0.57781955284E+02  0.12279431037E+04  0.12294543611E+04  0.10000000000E+02 0.  1.
</event>
<event>
 5    1  0.1334136E-008  0.3808268E+03  0.7957747E-01  0.3447566E+00
         13   -1    0    0    0    0  0.00000000000E+00  0.00000000000E+00  0.14999999963E+04  0.15000000000E+04  0.10566000000E+00 0.  1.
        994   -1    0    0    0    0 -0.00000000000E+00 -0.00000000000E+00  0.11368683772E-12  0.17120000000E+03  0.17120000000E+03 0.  0.
         13    1    1    2    0    0  0.73916240568E+01  0.15210629385E+02  0.37293149952E+02  0.40948620854E+02  0.10566000000E+00 0.  1.
        994    1    1    2    0    0 -0.14271657721E+01 -0.10033892077E+02  0.40588741700E+01  0.17154774919E+03  0.17120000000E+03 0.  0.
        998    1    1    2    0    0 -0.59644582848E+01 -0.51767373075E+01  0.14586479722E+04  0.14587036300E+04  0.10000000000E+02 0.  1.
</event>
<event>
 5    1  0.1334136E-008  0.3831369E+03  0.7957747E-01  0.3437612E+00
         13   -1    0    0    0    0  0.00000000000E+00  0.00000000000E+00  0.14999999963E+04  0.15000000000E+04  0.10566000000E+00 0. -1.
        994   -1    0    0    0    0 -0.00000000000E+00 -0.00000000000E+00  0.11368683772E-12  0.17120000000E+03  0.17120000000E+03 0.  0.
         13    1    1    2    0    0  0.72601898270E+01  0.17410138974E+02  0.67588570573E+02  0.70171570679E+02  0.10566000000E+00 0. -1.
        994    1    1    2    0    0 -0.25311125972E+02 -0.67618463717E+01  0.48322430036E+01  0.17326040008E+03  0.17120000000E+03 0.  0.
        998    1    1    2    0    0  0.18050936145E+02 -0.10648292602E+02  0.14275791827E+04  0.14277680292E+04  0.10000000000E+02 0. -1.
</event>
<event>
 5    1  0.1334136E-008  0.3822325E+03  0.7957747E-01  0.3441495E+00
         13   -1    0    0    0    0  0.00000000000E+00  0.00000000000E+00  0.14999999963E+04  0.15000000000E+04  0.10566000000E+00 0. -1.
        994   -1    0    0    0    0 -0.00000000000E+00 -0.00000000000E+00  0.11368683772E-12  0.17120000000E+03  0.17120000000E+03 0.  0.
         13    1    1    2    0    0  0.11835012199E+02  0.89182411581E+01  0.35049173448E+02  0.38053360726E+02  0.10566000000E+00 0. -1.
        994    1    1    2    0    0 -0.83697093253E+01 -0.10183890343E+02  0.35872597377E+01  0.17174420540E+03  0.17120000000E+03 0.  0.
        998    1    1    2    0    0 -0.34653028738E+01  0.12656491852E+01  0.14613635631E+04  0.14614024339E+04  0.10000000000E+02 0. -1.
</event>
<event>
 5    1  0.1334136E-008  0.3809276E+03  0.7957747E-01  0.3447129E+00
         13   -1    0    0    0    0  0.00000000000E+00  0.00000000000E+00  0.14999999963E+04  0.15000000000E+04  0.10566000000E+00 0. -1.
        994   -1    0    0    0    0 -0.00000000000E+00 -0.00000000000E+00  0.11368683772E-12  0.17120000000E+03  0.17120000000E+03 0.  0.
         13    1    1    2    0    0  0.22185469537E+02  0.86409999100E+01  0.90718633246E+02  0.93790956494E+02  0.10566000000E+00 0. -1.
        994    1    1    2    0    0  0.18348121531E+02  0.35722857557E+01  0.48309887093E+01  0.17228520900E+03  0.17120000000E+03 0.  0.
        998    1    1    2    0    0 -0.40533591068E+02 -0.12213285666E+02  0.14044503743E+04  0.14051238345E+04  0.10000000000E+02 0. -1.
</event>
<event>
 5    1  0.1334136E-008  0.3852948E+03  0.7957747E-01  0.3428423E+00
         13   -1    0    0    0    0  0.00000000000E+00  0.00000000000E+00  0.14999999963E+04  0.15000000000E+04  0.10566000000E+00 0.  1.
        994   -1    0    0    0    0 -0.00000000000E+00 -0.00000000000E+00  0.11368683772E-12  0.17120000000E+03  0.17120000000E+03 0.  0.
         13    1    1    2    0    0 -0.26363800408E+01  0.14719669976E+02  0.70348008680E+02  0.71919904569E+02  0.10566000000E+00 0.  1.
        994    1    1    2    0    0  0.63692851511E+01 -0.19567449011E+02  0.28763273843E+01  0.17245627305E+03  0.17120000000E+03 0.  0.
        998    1    1    2    0    0 -0.37329051103E+01  0.48477790356E+01  0.14267756602E+04  0.14268238224E+04  0.10000000000E+02 0.  1.
</event>
<event>
 5    1  0.1334136E-008  0.3793870E+03  0.7957747E-01  0.3453832E+00
         13   -1    0    0    0    0  0.00000000000E+00  0.00000000000E+00  0.14999999963E+04  0.15000000000E+04  0.10566000000E+00 0.  1.
        994   -1    0    0    0    0 -0.00000000000E+00 -0.00000000000E+00  0.11368683772E-12  0.17120000000E+03  0.17120000000E+03 0.  0.
         13    1    1    2    0    0 -0.49303546926E+02  0.14217651802E+02  0.25200113375E+03  0.25717224566E+03  0.10566000000E+00 0.  1.
        994    1    1    2    0    0  0.46275749566E+02 -0.16446247798E+02  0.12564885089E+02  0.17854758582E+03  0.17120000000E+03 0.  0.
        998    1    1    2    0    0  0.30277973598E+01  0.22285959957E+01  0.12354339774E+04  0.12354801685E+04  0.10000000000E+02 0.  1.
</event>
<event>
 5    1  0.1334136E-008  0.3803783E+03  0.7957747E-01  0.3449513E+00
         13   -1    0    0    0    0  0.00000000000E+00  0.00000000000E+00  0.14999999963E+04  0.15000000000E+04  0.10566000000E+00 0. -1.
        994   -1    0    0    0    0 -0.00000000000E+00 -0.00000000000E+00  0.11368683772E-12  0.17120000000E+03  0.17120000000E+03 0.  0.
         13    1    1    2    0    0  0.23766006338E+02 -0.26919941790E+02  0.14216303823E+03  0.14662826100E+03  0.10566000000E+00 0. -1.
        994    1    1    2    0    0 -0.27315109462E+02  0.32649497067E+02  0.10016281668E+02  0.17669711588E+03  0.17120000000E+03 0.  0.
        998    1    1    2    0    0  0.35491031239E+01 -0.57295552762E+01  0.13478206764E+04  0.13478746231E+04  0.10000000000E+02 0. -1.
</event>
<event>
 5    1  0.1334136E-008  0.3843800E+03  0.7957747E-01  0.3432306E+00
         13   -1    0    0    0    0  0.00000000000E+00  0.00000000000E+00  0.14999999963E+04  0.15000000000E+04  0.10566000000E+00 0. -1.
        994   -1    0    0    0    0 -0.00000000000E+00 -0.00000000000E+00  0.11368683772E-12  0.17120000000E+03  0.17120000000E+03 0.  0.
         13    1    1    2    0    0  0.98865596486E+01 -0.17096400409E+01  0.24760273507E+02  0.26716085771E+02  0.10566000000E+00 0. -1.
        994    1    1    2    0    0 -0.14640247120E+02 -0.10891593736E+01  0.26488044547E+01  0.17184871041E+03  0.17120000000E+03 0.  0.
        998    1    1    2    0    0  0.47536874709E+01  0.27987994145E+01  0.14725909183E+04  0.14726352038E+04  0.10000000000E+02 0. -1.
</event>
<event>
 5    1  0.1334136E-008  0.3812364E+03  0.7957747E-01  0.3445793E+00
         13   -1    0    0    0    0  0.00000000000E+00  0.00000000000E+00  0.14999999963E+04  0.15000000000E+04  0.10566000000E+00 0.  1.
        994   -1    0    0    0    0 -0.00000000000E+00 -0.00000000000E+00  0.11368683772E-12  0.17120000000E+03  0.17120000000E+03 0.  0.
         13    1    1    2    0    0 -0.37738083602E+01 -0.24338535797E+02  0.75962756116E+02  0.79855854106E+02  0.10566000000E+00 0.  1.
        994    1    1    2    0    0  0.10186942879E+02  0.38297705827E+02  0.87566885103E+01  0.17594489953E+03  0.17120000000E+03 0.  0.
        998    1    1    2    0    0 -0.64131345186E+01 -0.13959170030E+02  0.14152805517E+04  0.14153992464E+04  0.10000000000E+02 0.  1.
</event>
<event>
 5    1  0.1334136E-008  0.3730566E+03  0.7957747E-01  0.3481960E+00
         13   -1    0    0    0    0  0.00000000000E+00  0.00000000000E+00  0.14999999963E+04  0.15000000000E+04  0.10566000000E+00 0.  1.
        994   -1    0    0    0    0 -0.00000000000E+00 -0.00000000000E+00  0.11368683772E-12  0.17120000000E+03  0.17120000000E+03 0.  0.
         13    1    1    2    0    0 -0.30574132804E+02 -0.83903823823E+02  0.39681470463E+03  0.40673892145E+03  0.10566000000E+00 0.  1.
        994    1    1    2    0    0  0.22137549918E+02  0.80800198970E+02  0.32090797022E+02  0.19328218367E+03  0.17120000000E+03 0.  0.
        998    1    1    2    0    0  0.84365828855E+01  0.31036248529E+01  0.10710944946E+04  0.10711788949E+04  0.10000000000E+02 0.  1.
</event>
<event>
 5    1  0.1334136E-008  0.3784542E+03  0.7957747E-01  0.3457917E+00
         13   -1    0    0    0    0  0.00000000000E+00  0.00000000000E+00  0.14999999963E+04  0.15000000000E+04  0.10566000000E+00 0.  1.
        994   -1    0    0    0    0 -0.00000000000E+00 -0.00000000000E+00  0.11368683772E-12  0.17120000000E+03  0.17120000000E+03 0.  0.
         13    1    1    2    0    0 -0.14181808148E+03  0.11100736490E+02  0.67712552549E+03  0.69190648430E+03  0.10566000000E+00 0.  1.
        994    1    1    2    0    0  0.17031884213E+03  0.33557150144E+01  0.10957610669E+03  0.26520960006E+03  0.17120000000E+03 0.  0.
        998    1    1    2    0    0 -0.28500760652E+02 -0.14456451505E+02  0.71329836409E+03  0.71408391563E+03  0.10000000000E+02 0. -1.
</event>
<event>
 5    1  0.1334136E-008  0.3770978E+03  0.7957747E-01  0.3463893E+00
         13   -1    0    0    0    0  0.00000000000E+00  0.00000000000E+00  0.14999999963E+04  0.15000000000E+04  0.10566000000E+00 0.  1.
        994   -1    0    0    0    0 -0.00000000000E+00 -0.00000000000E+00  0.11368683772E-12  0.17120000000E+03  0.17120000000E+03 0.  0.
         13    1    1    2    0    0  0.46525715060E+02 -0.34952458735E+02  0.10151256103E+03  0.11700909257E+03  0.10566000000E+00 0.  1.
        994    1    1    2    0    0 -0.63141684388E+02  0.19151653936E+02  0.30521648935E+02  0.18599642257E+03  0.17120000000E+03 0.  0.
        998    1    1    2    0    0  0.16615969329E+02  0.15800804799E+02  0.13679657863E+04  0.13681944849E+04  0.10000000000E+02 0.  1.
</event>
<event>
 5    1  0.1334136E-008  0.3693807E+03  0.7957747E-01  0.3498742E+00
         13   -1    0    0    0    0  0.00000000000E+00  0.00000000000E+00  0.14999999963E+04  0.15000000000E+04  0.10566000000E+00 0.  1.
        994   -1    0    0    0    0 -0.00000000000E+00 -0.00000000000E+00  0.11368683772E-12  0.17120000000E+03  0.17120000000E+03 0.  0.
         13    1    1    2    0    0 -0.63837135026E+01 -0.32213780222E+02  0.50947688106E+02  0.60614829222E+02  0.10566000000E+00 0.  1.
        994    1    1    2    0    0  0.87792529100E+01  0.31459328921E+02  0.13298478159E+02  0.17479431964E+03  0.17120000000E+03 0.  0.
        998    1    1    2    0    0 -0.23955394074E+01  0.75445130148E+00  0.14357538300E+04  0.14357908511E+04  0.10000000000E+02 0.  1.
</event>
<event>
 5    1  0.1334136E-008  0.3765969E+03  0.7957747E-01  0.3466112E+00
         13   -1    0    0    0    0  0.00000000000E+00  0.00000000000E+00  0.14999999963E+04  0.15000000000E+04  0.10566000000E+00 0.  1.
        994   -1    0    0    0    0 -0.00000000000E+00 -0.00000000000E+00  0.11368683772E-12  0.17120000000E+03  0.17120000000E+03 0.  0.
         13    1    1    2    0    0  0.33019753731E+02 -0.11744332665E+02  0.10696731252E+03  0.11256220769E+03  0.10566000000E+00 0.  1.
        994    1    1    2    0    0 -0.18387469545E+02 -0.13828744922E+02  0.76527056676E+01  0.17290846459E+03  0.17120000000E+03 0.  0.
        998    1    1    2    0    0 -0.14632284186E+02  0.25573077587E+02  0.13853799781E+04  0.13857293277E+04  0.10000000000E+02 0.  1.
</event>
<event>
 5    1  0.1334136E-008  0.3837478E+03  0.7957747E-01  0.3435000E+00
         13   -1    0    0    0    0  0.00000000000E+00  0.00000000000E+00  0.14999999963E+04  0.15000000000E+04  0.10566000000E+00 0.  1.
        994   -1    0    0    0    0 -0.00000000000E+00 -0.00000000000E+00  0.11368683772E-12  0.17120000000E+03  0.17120000000E+03 0.  0.
         13    1    1    2    0    0 -0.47760663875E+00  0.10724293763E+02  0.25751439870E+02  0.27899577134E+02  0.10566000000E+00 0.  1.
        994    1    1    2    0    0 -0.18904041591E+02  0.14187956445E+01  0.34406836715E+01  0.17228074203E+03  0.17120000000E+03 0.  0.
        998    1    1    2    0    0  0.19381648230E+02 -0.12143089408E+02  0.14708078727E+04  0.14710196808E+04  0.10000000000E+02 0.  1.
</event>
<event>
 5    1  0.1334136E-008  0.3833348E+03  0.7957747E-01  0.3436765E+00
         13   -1    0    0    0    0  0.00000000000E+00  0.00000000000E+00  0.14999999963E+04  0.15000000000E+04  0.10566000000E+00 0. -1.
        994   -1    0    0    0    0 -0.00000000000E+00 -0.00000000000E+00  0.11368683772E-12  0.17120000000E+03  0.17120000000E+03 0.  0.
         13    1    1    2    0    0  0.21115771657E+02  0.43491077908E+01  0.10708806152E+03  0.10923669089E+03  0.10566000000E+00 0. -1.
        994    1    1    2    0    0  0.58502398653E+00  0.22403988157E+02  0.41216750735E+01  0.17270989880E+03  0.17120000000E+03 0.  0.
        998    1    1    2    0    0 -0.21700795644E+02 -0.26753095948E+02  0.13887902597E+04  0.13892534103E+04  0.10000000000E+02 0. -1.
</event>
<event>
 5    1  0.1334136E-008  0.3830878E+03  0.7957747E-01  0.3437823E+00
         13   -1    0    0    0    0  0.00000000000E+00  0.00000000000E+00  0.14999999963E+04  0.15000000000E+04  0.10566000000E+00 0. -1.
        994   -1    0    0    0    0 -0.00000000000E+00 -0.00000000000E+00  0.11368683772E-12  0.17120000000E+03  0.17120000000E+03 0.  0.
         13    1    1    2    0    0  0.16695960250E+02  0.12554894318E+02  0.83115964162E+02  0.85700963371E+02  0.10566000000E+00 0. -1.
        994    1    1    2    0    0 -0.76707247742E+01 -0.14056123021E+02  0.34314599433E+01  0.17198148020E+03  0.17120000000E+03 0.  0.
        998    1    1    2    0    0 -0.90252354763E+01  0.15012287023E+01  0.14134525722E+04  0.14135175564E+04  0.10000000000E+02 0. -1.
</event>
<event>
 5    1  0.1334136E-008  0.3612633E+03  0.7957747E-01  0.3537033E+00
         13   -1    0    0    0    0  0.00000000000E+00  0.00000000000E+00  0.14999999963E+04  0.15000000000E+04  0.10566000000E+00 0. -1.
        994   -1    0    0    0    0 -0.00000000000E+00 -0.00000000000E+00  0.11368683772E-12  0.17120000000E+03  0.17120000000E+03 0.  0.
         13    1    1    2    0    0 -0.22067792768E+03 -0.14029330696E+03  0.99506633161E+03  0.10288527471E+04  0.10566000000E+00 0. -1.
        994    1    1    2    0    0  0.21548419215E+03  0.13168059693E+03  0.27126672871E+03  0.40825028449E+03  0.17120000000E+03 0.  0.
        998    1    1    2    0    0  0.51937355337E+01  0.86127100290E+01  0.23366693595E+03  0.23409696842E+03  0.10000000000E+02 0.  0.
</event>
<event>
 5    1  0.1334136E-008  0.3838357E+03  0.7957747E-01  0.3434625E+00
         13   -1    0    0    0    0  0.00000000000E+00  0.00000000000E+00  0.14999999963E+04  0.15000000000E+04  0.10566000000E+00 0.  1.
        994   -1    0    0    0    0 -0.00000000000E+00 -0.00000000000E+00  0.11368683772E-12  0.17120000000E+03  0.17120000000E+03 0.  0.
         13    1    1    2    0    0 -0.13117365191E+02 -0.78779101008E+01  0.51918567036E+02  0.54126476924E+02  0.10566000000E+00 0.  1.
        994    1    1    2    0    0  0.14034903184E+02  0.47742589717E+00  0.28605452022E+01  0.17179880431E+03  0.17120000000E+03 0.  0.
        998    1    1    2    0    0 -0.91753799257E+00  0.74004842037E+01  0.14452208840E+04  0.14452747188E+04  0.10000000000E+02 0.  1.
</event>
<event>
 5    1  0.1334136E-008  0.3796410E+03  0.7957747E-01  0.3452723E+00
         13   -1    0    0    0    0  0.00000000000E+00  0.00000000000E+00  0.14999999963E+04  0.15000000000E+04  0.10566000000E+00 0. -1.
        994   -1    0    0    0    0 -0.00000000000E+00 -0.00000000000E+00  0.11368683772E-12  0.17120000000E+03  0.17120000000E+03 0.  0.
         13    1    1    2    0    0 -0.13785394039E+02  0.64103455790E+01  0.24890278205E+02  0.29166191600E+02  0.10566000000E+00 0. -1.
        994    1    1    2    0    0  0.12387570907E+02 -0.27052246181E+01  0.48527211515E+01  0.17173747132E+03  0.17120000000E+03 0.  0.
        998    1    1    2    0    0  0.13978231319E+01 -0.37051209609E+01  0.14702569969E+04  0.14702963371E+04  0.10000000000E+02 0. -1.
</event>
<event>
 5    1  0.1334136E-008  0.3804607E+03  0.7957747E-01  0.3449155E+00
         13   -1    0    0    0    0  0.00000000000E+00  0.00000000000E+00  0.14999999963E+04  0.15000000000E+04  0.10566000000E+00 0. -1.
        994   -1    0    0    0    0 -0.00000000000E+00 -0.00000000000E+00  0.11368683772E-12  0.17120000000E+03  0.17120000000E+03 0.  0.
         13    1    1    2    0    0 -0.18460846022E+02  0.22216082936E+02  0.10046419368E+03  0.10453431280E+03  0.10566000000E+00 0. -1.
        994    1    1    2    0    0  0.18053308466E+02 -0.20189055017E+02  0.63529768671E+01  0.17344543870E+03  0.17120000000E+03 0.  0.
        998    1    1    2    0    0  0.40753755623E+00 -0.20270279188E+01  0.13931828257E+04  0.13932202485E+04  0.10000000000E+02 0. -1.
</event>
<event>
 5    1  0.1334136E-008  0.3815056E+03  0.7957747E-01  0.3444629E+00
         13   -1    0    0    0    0  0.00000000000E+00  0.00000000000E+00  0.14999999963E+04  0.15000000000E+04  0.10566000000E+00 0. -1.
        994   -1    0    0    0    0 -0.00000000000E+00 -0.00000000000E+00  0.11368683772E-12  0.17120000000E+03  0.17120000000E+03 0.  0.
         13    1    1    2    0    0 -0.42716097940E+02 -0.87046376684E+01  0.25474710801E+03  0.25845025816E+03  0.10566000000E+00 0. -1.
        994    1    1    2    0    0  0.37666689014E+02 -0.57202553680E+01  0.82183835675E+01  0.17558041637E+03  0.17120000000E+03 0.  0.
        998    1    1    2    0    0  0.50494089260E+01  0.14424893036E+02  0.12370345047E+04  0.12371693255E+04  0.10000000000E+02 0. -1.
</event>
<event>
 5    1  0.1334136E-008  0.3827362E+03  0.7957747E-01  0.3439331E+00
         13   -1    0    0    0    0  0.00000000000E+00  0.00000000000E+00  0.14999999963E+04  0.15000000000E+04  0.10566000000E+00 0. -1.
        994   -1    0    0    0    0 -0.00000000000E+00 -0.00000000000E+00  0.11368683772E-12  0.17120000000E+03  0.17120000000E+03 0.  0.
         13    1    1    2    0    0  0.72585784093E+01  0.17520939041E+02  0.68299694108E+02  0.70883916686E+02  0.10566000000E+00 0. -1.
        994    1    1    2    0    0 -0.74942897125E+01  0.23172672507E+01  0.29621691526E+01  0.17140521740E+03  0.17120000000E+03 0.  0.
        998    1    1    2    0    0  0.23571130323E+00 -0.19838206292E+02  0.14287381330E+04  0.14289108659E+04  0.10000000000E+02 0. -1.
</event>
<event>
 5    1  0.1334136E-008  0.3701504E+03  0.7957747E-01  0.3495200E+00
         13   -1    0    0    0    0  0.00000000000E+00  0.00000000000E+00  0.14999999963E+04  0.15000000000E+04  0.10566000000E+00 0.  1.
        994   -1    0    0    0    0 -0.00000000000E+00 -0.00000000000E+00  0.11368683772E-12  0.17120000000E+03  0.17120000000E+03 0.  0.
         13    1    1    2    0    0  0.34854158836E+02 -0.93804744430E+01  0.64491719223E+02  0.73905336082E+02  0.10566000000E+00 0.  1.
        994    1    1    2    0    0 -0.36197043312E+02  0.10704030668E+02  0.14130429455E+02  0.17588038905E+03  0.17120000000E+03 0.  0.
        998    1    1    2    0    0  0.13428844752E+01 -0.13235562245E+01  0.14213778476E+04  0.14214142749E+04  0.10000000000E+02 0.  1.
</event>
<event>
 5    1  0.1334136E-008  0.3785151E+03  0.7957747E-01  0.3457650E+00
         13   -1    0    0    0    0  0.00000000000E+00  0.00000000000E+00  0.14999999963E+04  0.15000000000E+04  0.10566000000E+00 0. -1.
        994   -1    0    0    0    0 -0.00000000000E+00 -0.00000000000E+00  0.11368683772E-12  0.17120000000E+03  0.17120000000E+03 0.  0.
         13    1    1    2    0    0  0.51165137843E+02 -0.38450712607E+02  0.33363127596E+03  0.33971483349E+03  0.10566000000E+00 0. -1.
        994    1    1    2    0    0 -0.58256082241E+02  0.25598897440E+02  0.18609737241E+02  0.18358877141E+03  0.17120000000E+03 0.  0.
        998    1    1    2    0    0  0.70909443978E+01  0.12851815167E+02  0.11477589831E+04  0.11478963951E+04  0.10000000000E+02 0.  0.
</event>
<event>
 5    1  0.1334136E-008  0.3708705E+03  0.7957747E-01  0.3491900E+00
         13   -1    0    0    0    0  0.00000000000E+00  0.00000000000E+00  0.14999999963E+04  0.15000000000E+04  0.10566000000E+00 0.  1.
        994   -1    0    0    0    0 -0.00000000000E+00 -0.00000000000E+00  0.11368683772E-12  0.17120000000E+03  0.17120000000E+03 0.  0.
         13    1    1    2    0    0 -0.19569841437E+02 -0.11047670179E+02  0.16397688806E+02  0.27819508846E+02  0.10566000000E+00 0.  1.
        994    1    1    2    0    0  0.36521854674E+02  0.12087214305E+02  0.16607413866E+02  0.17625320653E+03  0.17120000000E+03 0.  0.
        998    1    1    2    0    0 -0.16952013237E+02 -0.10395441261E+01  0.14669948936E+04  0.14671272846E+04  0.10000000000E+02 0.  1.
</event>
<event>
 5    1  0.1334136E-008  0.3772583E+03  0.7957747E-01  0.3463184E+00
         13   -1    0    0    0    0  0.00000000000E+00  0.00000000000E+00  0.14999999963E+04  0.15000000000E+04  0.10566000000E+00 0. -1.
        994   -1    0    0    0    0 -0.00000000000E+00 -0.00000000000E+00  0.11368683772E-12  0.17120000000E+03  0.17120000000E+03 0.  0.
         13    1    1    2    0    0 -0.16778852264E+02  0.23848523741E+02  0.77746008005E+02  0.83034540360E+02  0.10566000000E+00 0. -1.
        994    1    1    2    0    0  0.50130278618E+00 -0.10952256580E+02  0.59292041692E+01  0.17165313481E+03  0.17120000000E+03 0.  0.
        998    1    1    2    0    0  0.16277549478E+02 -0.12896267160E+02  0.14163247841E+04  0.14165123248E+04  0.10000000000E+02 0. -1.
</event>
<event>
 5    1  0.1334136E-008  0.3831525E+03  0.7957747E-01  0.3437546E+00
         13   -1    0    0    0    0  0.00000000000E+00  0.00000000000E+00  0.14999999963E+04  0.15000000000E+04  0.10566000000E+00 0. -1.
        994   -1    0    0    0    0 -0.00000000000E+00 -0.00000000000E+00  0.11368683772E-12  0.17120000000E+03  0.17120000000E+03 0.  0.
         13    1    1    2    0    0  0.57632094956E+01 -0.13097976120E+02  0.40075815294E+02  0.42554126681E+02  0.10566000000E+00 0. -1.
        994    1    1    2    0    0 -0.20585152070E+01  0.48574893850E+01  0.26422716027E+01  0.17130164707E+03  0.17120000000E+03 0.  0.
        998    1    1    2    0    0 -0.37046942886E+01  0.82404867351E+01  0.14572819094E+04  0.14573442263E+04  0.10000000000E+02 0. -1.
</event>
<event>
 5    1  0.1334136E-008  0.3798472E+03  0.7957747E-01  0.3451824E+00
         13   -1    0    0    0    0  0.00000000000E+00  0.00000000000E+00  0.14999999963E+04  0.15000000000E+04  0.10566000000E+00 0.  1.
        994   -1    0    0    0    0 -0.00000000000E+00 -0.00000000000E+00  0.11368683772E-12  0.17120000000E+03  0.17120000000E+03 0.  0.
         13    1    1    2    0    0  0.17321610606E+02 -0.21228766642E+02  0.85317605904E+02  0.89609172345E+02  0.10566000000E+00 0.  1.
        994    1    1    2    0    0 -0.16341197930E+02  0.15941998872E+02  0.59553965989E+01  0.17281808015E+03  0.17120000000E+03 0.  0.
        998    1    1    2    0    0 -0.98041267580E+00  0.52867677700E+01  0.14087269938E+04  0.14087727475E+04  0.10000000000E+02 0.  1.
</event>
<event>
 5    1  0.1334136E-008  0.3842855E+03  0.7957747E-01  0.3432708E+00
         13   -1    0    0    0    0  0.00000000000E+00  0.00000000000E+00  0.14999999963E+04  0.15000000000E+04  0.10566000000E+00 0.  1.
        994   -1    0    0    0    0 -0.00000000000E+00 -0.00000000000E+00  0.11368683772E-12  0.17120000000E+03  0.17120000000E+03 0.  0.
         13    1    1    2    0    0  0.71204341096E+01 -0.17821781417E+02  0.89311066737E+02  0.91349845541E+02  0.10566000000E+00 0.  1.
        994    1    1    2    0    0 -0.55326526326E+01  0.16473783346E+02  0.29813962960E+01  0.17210556210E+03  0.17120000000E+03 0.  0.
        998    1    1    2    0    0 -0.15877814769E+01  0.13479980717E+01  0.14077075332E+04  0.14077445924E+04  0.10000000000E+02 0.  1.
</event>
<event>
 5    1  0.1334136E-008  0.3739028E+03  0.7957747E-01  0.3478144E+00
         13   -1    0    0    0    0  0.00000000000E+00  0.00000000000E+00  0.14999999963E+04  0.15000000000E+04  0.10566000000E+00 0.  1.
        994   -1    0    0    0    0 -0.00000000000E+00 -0.00000000000E+00  0.11368683772E-12  0.17120000000E+03  0.17120000000E+03 0.  0.
         13    1    1    2    0    0  0.42876169632E+02  0.61087813781E+02  0.31947582624E+03  0.32807758477E+03  0.10566000000E+00 0.  1.
        994    1    1    2    0    0 -0.36436300054E+02 -0.56177370687E+02  0.22697801654E+02  0.18522454249E+03  0.17120000000E+03 0.  0.
        998    1    1    2    0    0 -0.64398695773E+01 -0.49104430945E+01  0.11578263684E+04  0.11578978727E+04  0.10000000000E+02 0.  1.
</event>
<event>
 5    1  0.1334136E-008  0.3772416E+03  0.7957747E-01  0.3463258E+00
         13   -1    0    0    0    0  0.00000000000E+00  0.00000000000E+00  0.14999999963E+04  0.15000000000E+04  0.10566000000E+00 0. -1.
        994   -1    0    0    0    0 -0.00000000000E+00 -0.00000000000E+00  0.11368683772E-12  0.17120000000E+03  0.17120000000E+03 0.  0.
         13    1    1    2    0    0  0.29365203883E+02 -0.49393890658E+02  0.25586490878E+03  0.26223831593E+03  0.10566000000E+00 0. -1.
        994    1    1    2    0    0 -0.22865792950E+02  0.48177999164E+02  0.15187613273E+02  0.17995573813E+03  0.17120000000E+03 0.  0.
        998    1    1    2    0    0 -0.64994109330E+01  0.12158914944E+01  0.12289474742E+04  0.12290059459E+04  0.10000000000E+02 0. -1.
</event>
<event>
 5    1  0.1334136E-008  0.3788145E+03  0.7957747E-01  0.3456337E+00
         13   -1    0    0    0    0  0.00000000000E+00  0.00000000000E+00  0.14999999963E+04  0.15000000000E+04  0.10566000000E+00 0.  1.
        994   -1    0    0    0    0 -0.00000000000E+00 -0.00000000000E+00  0.11368683772E-12  0.17120000000E+03  0.17120000000E+03 0.  0.
         13    1    1    2    0    0 -0.27782841757E+02 -0.12785136565E+02  0.88098829159E+02  0.93256425388E+02  0.10566000000E+00 0.  1.
        994    1    1    2    0    0  0.39061255065E+02  0.11473298293E+02  0.10315360124E+02  0.17627610410E+03  0.17120000000E+03 0.  0.
        998    1    1    2    0    0 -0.11278413308E+02  0.13118382718E+01  0.14015858070E+04  0.14016674705E+04  0.10000000000E+02 0.  1.
</event>
<event>
 5    1  0.1334136E-008  0.3791689E+03  0.7957747E-01  0.3454785E+00
         13   -1    0    0    0    0  0.00000000000E+00  0.00000000000E+00  0.14999999963E+04  0.15000000000E+04  0.10566000000E+00 0. -1.
        994   -1    0    0    0    0 -0.00000000000E+00 -0.00000000000E+00  0.11368683772E-12  0.17120000000E+03  0.17120000000E+03 0.  0.
         13    1    1    2    0    0  0.12847294798E+02 -0.37928292673E+01  0.17503124440E+02  0.22041076803E+02  0.10566000000E+00 0. -1.
        994    1    1    2    0    0 -0.14370489210E+02  0.53108266260E+01  0.53404410346E+01  0.17196707868E+03  0.17120000000E+03 0.  0.
        998    1    1    2    0    0  0.15231944122E+01 -0.15179973587E+01  0.14771564308E+04  0.14771918445E+04  0.10000000000E+02 0. -1.
</event>
<event>
 5    1  0.1334136E-008  0.3769508E+03  0.7957747E-01  0.3464544E+00
         13   -1    0    0    0    0  0.00000000000E+00  0.00000000000E+00  0.14999999963E+04  0.15000000000E+04  0.10566000000E+00 0. -1.
        994   -1    0    0    0    0 -0.00000000000E+00 -0.00000000000E+00  0.11368683772E-12  0.17120000000E+03  0.17120000000E+03 0.  0.
         13    1    1    2    0    0  0.19632913173E+03 -0.82664816323E+02  0.67292089610E+03  0.70583365136E+03  0.10566000000E+00 0. -1.
        994    1    1    2    0    0 -0.24301830609E+03  0.10403720156E+03  0.29759979747E+03  0.43330903044E+03  0.17120000000E+03 0.  0.
        998    1    1    2    0    0  0.46689174367E+02 -0.21372385241E+02  0.52947930271E+03  0.53205731820E+03  0.10000000000E+02 0. -1.
</event>
<event>
 5    1  0.1334136E-008  0.3859855E+03  0.7957747E-01  0.3425503E+00
         13   -1    0    0    0    0  0.00000000000E+00  0.00000000000E+00  0.14999999963E+04  0.15000000000E+04  0.10566000000E+00 0. -1.
        994   -1    0    0    0    0 -0.00000000000E+00 -0.00000000000E+00  0.11368683772E-12  0.17120000000E+03  0.17120000000E+03 0.  0.
         13    1    1    2    0    0  0.10187495574E+02 -0.80737084606E+01  0.77314852513E+02  0.78400047305E+02  0.10566000000E+00 0. -1.
        994    1    1    2    0    0 -0.53803797031E+01  0.67871179619E+00  0.12380736451E+01  0.17129034404E+03  0.17120000000E+03 0.  0.
        998    1    1    2    0    0 -0.48071158709E+01  0.73949966644E+01  0.14214470701E+04  0.14215096087E+04  0.10000000000E+02 0. -1.
</event>
<event>
 5    1  0.1334136E-008  0.3855896E+03  0.7957747E-01  0.3427176E+00
         13   -1    0    0    0    0  0.00000000000E+00  0.00000000000E+00  0.14999999963E+04  0.15000000000E+04  0.10566000000E+00 0.  1.
        994   -1    0    0    0    0 -0.00000000000E+00 -0.00000000000E+00  0.11368683772E-12  0.17120000000E+03  0.17120000000E+03 0.  0.
         13    1    1    2    0    0 -0.56623520799E+01  0.11841019167E+02  0.70866735164E+02  0.72072028436E+02  0.10566000000E+00 0.  1.
        994    1    1    2    0    0  0.21711955677E+01  0.48301021767E+01  0.14297579113E+01  0.17128785183E+03  0.17120000000E+03 0.  0.
        998    1    1    2    0    0  0.34911565122E+01 -0.16671121344E+02  0.14277035032E+04  0.14278401197E+04  0.10000000000E+02 0.  1.
</event>
<event>
 5    1  0.1334136E-008  0.3847539E+03  0.7957747E-01  0.3430717E+00
         13   -1    0    0    0    0  0.00000000000E+00  0.00000000000E+00  0.14999999963E+04  0.15000000000E+04  0.10566000000E+00 0. -1.
        994   -1    0    0    0    0 -0.00000000000E+00 -0.00000000000E+00  0.11368683772E-12  0.17120000000E+03  0.17120000000E+03 0.  0.
         13    1    1    2    0    0  0.64356403934E+01 -0.12398734595E+02  0.55451686738E+02  0.57184323140E+02  0.10566000000E+00 0. -1.
        994    1    1    2    0    0 -0.13910840637E+02  0.36536540306E+01  0.24335117993E+01  0.17182032084E+03  0.17120000000E+03 0.  0.
        998    1    1    2    0    0  0.74752002433E+01  0.87450805640E+01  0.14421147977E+04  0.14421953560E+04  0.10000000000E+02 0. -1.
</event>
<event>
 5    1  0.1334136E-008  0.3837780E+03  0.7957747E-01  0.3434871E+00
         13   -1    0    0    0    0  0.00000000000E+00  0.00000000000E+00  0.14999999963E+04  0.15000000000E+04  0.10566000000E+00 0.  1.
        994   -1    0    0    0    0 -0.00000000000E+00 -0.00000000000E+00  0.11368683772E-12  0.17120000000E+03  0.17120000000E+03 0.  0.
         13    1    1    2    0    0  0.13217993524E+02  0.22295560950E+02  0.13552903396E+03  0.13798528038E+03  0.10566000000E+00 0.  1.
        994    1    1    2    0    0 -0.12498550351E+02 -0.25520773439E+02  0.49088439493E+01  0.17361180947E+03  0.17120000000E+03 0.  0.
        998    1    1    2    0    0 -0.71944317274E+00  0.32252124893E+01  0.13595621184E+04  0.13596029102E+04  0.10000000000E+02 0.  1.
</event>
<event>
 5    1  0.1334136E-008  0.3832179E+03  0.7957747E-01  0.3437265E+00
         13   -1    0    0    0    0  0.00000000000E+00  0.00000000000E+00  0.14999999963E+04  0.15000000000E+04  0.10566000000E+00 0. -1.
        994   -1    0    0    0    0 -0.00000000000E+00 -0.00000000000E+00  0.11368683772E-12  0.17120000000E+03  0.17120000000E+03 0.  0.
         13    1    1    2    0    0 -0.10449586447E+02 -0.17607499933E+02  0.77344688499E+02  0.80008936463E+02  0.10566000000E+00 0. -1.
        994    1    1    2    0    0  0.10348915067E+02  0.22572773137E+02  0.45598150151E+01  0.17305161670E+03  0.17120000000E+03 0.  0.
        998    1    1    2    0    0  0.10067137924E+00 -0.49652732044E+01  0.14180954928E+04  0.14181394468E+04  0.10000000000E+02 0. -1.
</event>
<event>
 5    1  0.1334136E-008  0.3769537E+03  0.7957747E-01  0.3464531E+00
         13   -1    0    0    0    0  0.00000000000E+00  0.00000000000E+00  0.14999999963E+04  0.15000000000E+04  0.10566000000E+00 0. -1.
        994   -1    0    0    0    0 -0.00000000000E+00 -0.00000000000E+00  0.11368683772E-12  0.17120000000E+03  0.17120000000E+03 0.  0.
         13    1    1    2    0    0  0.11195408832E+02  0.73750142211E+01  0.13269337120E+02  0.18863045494E+02  0.10566000000E+00 0. -1.
        994    1    1    2    0    0 -0.11900370060E+02 -0.24613720589E+01  0.61776993841E+01  0.17174190266E+03  0.17120000000E+03 0.  0.
        998    1    1    2    0    0  0.70496122854E+00 -0.49136421622E+01  0.14805529598E+04  0.14805950518E+04  0.10000000000E+02 0. -1.
</event>
<event>
 5    1  0.1334136E-008  0.3850526E+03  0.7957747E-01  0.3429449E+00
         13   -1    0    0    0    0  0.00000000000E+00  0.00000000000E+00  0.14999999963E+04  0.15000000000E+04  0.10566000000E+00 0. -1.
        994   -1    0    0    0    0 -0.00000000000E+00 -0.00000000000E+00  0.11368683772E-12  0.17120000000E+03  0.17120000000E+03 0.  0.
         13    1    1    2    0    0 -0.77011708645E+01 -0.72703731192E+01  0.32742774079E+02  0.34413177366E+02  0.10566000000E+00 0. -1.
        994    1    1    2    0    0  0.27236361177E+02  0.12603133628E+01  0.40522362980E+01  0.17340492605E+03  0.17120000000E+03 0.  0.
        998    1    1    2    0    0 -0.19535190313E+02  0.60100597563E+01  0.14632049859E+04  0.14633818966E+04  0.10000000000E+02 0. -1.
</event>
<event>
 5    1  0.1334136E-008  0.3852751E+03  0.7957747E-01  0.3428506E+00
         13   -1    0    0    0    0  0.00000000000E+00  0.00000000000E+00  0.14999999963E+04  0.15000000000E+04  0.10566000000E+00 0.  1.
        994   -1    0    0    0    0 -0.00000000000E+00 -0.00000000000E+00  0.11368683772E-12  0.17120000000E+03  0.17120000000E+03 0.  0.
         13    1    1    2    0    0 -0.14118571418E+02  0.10350852160E+02  0.10203501457E+03  0.10352598496E+03  0.10566000000E+00 0.  1.
        994    1    1    2    0    0  0.84753958872E+01 -0.90383470561E+01  0.19982280012E+01  0.17165942144E+03  0.17120000000E+03 0.  0.
        998    1    1    2    0    0  0.56431755308E+01 -0.13125051037E+01  0.13959667537E+04  0.13960145936E+04  0.10000000000E+02 0.  1.
</event>
<event>
 5    1  0.1334136E-008  0.3816984E+03  0.7957747E-01  0.3443796E+00
         13   -1    0    0    0    0  0.00000000000E+00  0.00000000000E+00  0.14999999963E+04  0.15000000000E+04  0.10566000000E+00 0.  1.
        994   -1    0    0    0    0 -0.00000000000E+00 -0.00000000000E+00  0.11368683772E-12  0.17120000000E+03  0.17120000000E+03 0.  0.
         13    1    1    2    0    0  0.88961764169E+01 -0.31235285667E+02  0.15481680557E+03  0.15818672345E+03  0.10566000000E+00 0.  1.
        994    1    1    2    0    0 -0.31080412446E+02  0.16620106000E+02  0.74187328574E+01  0.17494769949E+03  0.17120000000E+03 0.  0.
        998    1    1    2    0    0  0.22184236029E+02  0.14615179667E+02  0.13377644579E+04  0.13380655771E+04  0.10000000000E+02 0.  1.
</event>
<event>
 5    1  0.1334136E-008  0.3798669E+03  0.7957747E-01  0.3451738E+00
         13   -1    0    0    0    0  0.00000000000E+00  0.00000000000E+00  0.14999999963E+04  0.15000000000E+04  0.10566000000E+00 0. -1.
        994   -1    0    0    0    0 -0.00000000000E+00 -0.00000000000E+00  0.11368683772E-12  0.17120000000E+03  0.17120000000E+03 0.  0.
         13    1    1    2    0    0 -0.39753667561E+01  0.16190172400E+02  0.30304136211E+02  0.34587238380E+02  0.10566000000E+00 0. -1.
        994    1    1    2    0    0  0.91009210637E+01 -0.21505929675E+02  0.60262780163E+01  0.17289039245E+03  0.17120000000E+03 0.  0.
        998    1    1    2    0    0 -0.51255543076E+01  0.53157572744E+01  0.14636695821E+04  0.14637223692E+04  0.10000000000E+02 0. -1.
</event>
<event>
 5    1  0.1334136E-008  0.3709894E+03  0.7957747E-01  0.3491356E+00
         13   -1    0    0    0    0  0.00000000000E+00  0.00000000000E+00  0.14999999963E+04  0.15000000000E+04  0.10566000000E+00 0.  1.
        994   -1    0    0    0    0 -0.00000000000E+00 -0.00000000000E+00  0.11368683772E-12  0.17120000000E+03  0.17120000000E+03 0.  0.
         13    1    1    2    0    0  0.29350545781E+02 -0.24306064846E+02  0.77216103431E+02  0.86107938769E+02  0.10566000000E+00 0.  1.
        994    1    1    2    0    0 -0.22763192767E+02  0.25521737277E+02  0.12793590739E+02  0.17505038698E+03  0.17120000000E+03 0.  0.
        998    1    1    2    0    0 -0.65873530136E+01 -0.12156724305E+01  0.14099903021E+04  0.14100416742E+04  0.10000000000E+02 0.  1.
</event>
<event>
 5    1  0.1334136E-008  0.3778558E+03  0.7957747E-01  0.3460548E+00
         13   -1    0    0    0    0  0.00000000000E+00  0.00000000000E+00  0.14999999963E+04  0.15000000000E+04  0.10566000000E+00 0.  1.
        994   -1    0    0    0    0 -0.00000000000E+00 -0.00000000000E+00  0.11368683772E-12  0.17120000000E+03  0.17120000000E+03 0.  0.
         13    1    1    2    0    0  0.53591512157E+02  0.43676595156E+02  0.14571848766E+03  0.16128727150E+03  0.10566000000E+00 0.  1.
        994    1    1    2    0    0 -0.13297316781E+01 -0.88061053831E+02  0.43599350952E+02  0.19740025530E+03  0.17120000000E+03 0.  0.
        998    1    1    2    0    0 -0.52261780479E+02  0.44384458675E+02  0.13106821577E+04  0.13125124732E+04  0.10000000000E+02 0.  1.
</event>
<event>
 5    1  0.1334136E-008  0.3797653E+03  0.7957747E-01  0.3452181E+00
         13   -1    0    0    0    0  0.00000000000E+00  0.00000000000E+00  0.14999999963E+04  0.15000000000E+04  0.10566000000E+00 0.  1.
        994   -1    0    0    0    0 -0.00000000000E+00 -0.00000000000E+00  0.11368683772E-12  0.17120000000E+03  0.17120000000E+03 0.  0.
         13    1    1    2    0    0 -0.14691811232E+02  0.94915560887E+01  0.33567852530E+02  0.37851695362E+02  0.10566000000E+00 0.  1.
        994    1    1    2    0    0  0.17031678372E+02 -0.80603109621E+01  0.54403515378E+01  0.17231971479E+03  0.17120000000E+03 0.  0.
        998    1    1    2    0    0 -0.23398671394E+01 -0.14312451266E+01  0.14609917922E+04  0.14610285898E+04  0.10000000000E+02 0.  1.
</event>
<event>
 5    1  0.1334136E-008  0.3814866E+03  0.7957747E-01  0.3444711E+00
         13   -1    0    0    0    0  0.00000000000E+00  0.00000000000E+00  0.14999999963E+04  0.15000000000E+04  0.10566000000E+00 0. -1.
        994   -1    0    0    0    0 -0.00000000000E+00 -0.00000000000E+00  0.11368683772E-12  0.17120000000E+03  0.17120000000E+03 0.  0.
         13    1    1    2    0    0 -0.66959754522E+01  0.42667791344E+02  0.25368536483E+03  0.25733567960E+03  0.10566000000E+00 0. -1.
        994    1    1    2    0    0 -0.14754448315E+02 -0.36861724092E+02  0.86466743109E+01  0.17595648731E+03  0.17120000000E+03 0.  0.
        998    1    1    2    0    0  0.21450423767E+02 -0.58060672521E+01  0.12376679571E+04  0.12379078331E+04  0.10000000000E+02 0. -1.
</event>
<event>
 5    1  0.1334136E-008  0.3714726E+03  0.7957747E-01  0.3489150E+00
         13   -1    0    0    0    0  0.00000000000E+00  0.00000000000E+00  0.14999999963E+04  0.15000000000E+04  0.10566000000E+00 0. -1.
        994   -1    0    0    0    0 -0.00000000000E+00 -0.00000000000E+00  0.11368683772E-12  0.17120000000E+03  0.17120000000E+03 0.  0.
         13    1    1    2    0    0  0.34618619771E+02 -0.70685993701E+02  0.28994360385E+03  0.30043678723E+03  0.10566000000E+00 0. -1.
        994    1    1    2    0    0 -0.34918038273E+02  0.14879636820E+02  0.16799291842E+02  0.17615995344E+03  0.17120000000E+03 0.  0.
        998    1    1    2    0    0  0.29941850198E+00  0.55806356880E+02  0.11932571006E+04  0.11946032593E+04  0.10000000000E+02 0. -1.
</event>
<event>
 5    1  0.1334136E-008  0.3832496E+03  0.7957747E-01  0.3437130E+00
         13   -1    0    0    0    0  0.00000000000E+00  0.00000000000E+00  0.14999999963E+04  0.15000000000E+04  0.10566000000E+00 0. -1.
        994   -1    0    0    0    0 -0.00000000000E+00 -0.00000000000E+00  0.11368683772E-12  0.17120000000E+03  0.17120000000E+03 0.  0.
         13    1    1    2    0    0  0.67713463427E+01 -0.93892316651E+01  0.26125115166E+02  0.28575192196E+02  0.10566000000E+00 0. -1.
        994    1    1    2    0    0 -0.29295628577E+01  0.51285844819E+01  0.26170851627E+01  0.17132184289E+03  0.17120000000E+03 0.  0.
        998    1    1    2    0    0 -0.38417834850E+01  0.42606471832E+01  0.14712577959E+04  0.14713029649E+04  0.10000000000E+02 0. -1.
</event>
<event>
 5    1  0.1334136E-008  0.3714341E+03  0.7957747E-01  0.3489326E+00
         13   -1    0    0    0    0  0.00000000000E+00  0.00000000000E+00  0.14999999963E+04  0.15000000000E+04  0.10566000000E+00 0.  1.
        994   -1    0    0    0    0 -0.00000000000E+00 -0.00000000000E+00  0.11368683772E-12  0.17120000000E+03  0.17120000000E+03 0.  0.
         13    1    1    2    0    0  0.85602312616E+01 -0.14212176161E+02  0.12623063253E+02  0.20847455490E+02  0.10566000000E+00 0.  1.
        994    1    1    2    0    0  0.15787803921E+02  0.13234326480E+02  0.99829410083E+01  0.17272377156E+03  0.17120000000E+03 0.  0.
        998    1    1    2    0    0 -0.24348035183E+02  0.97784968102E+00  0.14773939920E+04  0.14776287730E+04  0.10000000000E+02 0.  1.
</event>
<event>
 5    1  0.1334136E-008  0.3837197E+03  0.7957747E-01  0.3435120E+00
         13   -1    0    0    0    0  0.00000000000E+00  0.00000000000E+00  0.14999999963E+04  0.15000000000E+04  0.10566000000E+00 0. -1.
        994   -1    0    0    0    0 -0.00000000000E+00 -0.00000000000E+00  0.11368683772E-12  0.17120000000E+03  0.17120000000E+03 0.  0.
         13    1    1    2    0    0  0.11143145974E+02  0.50088161812E+01  0.31674528082E+02  0.33949150725E+02  0.10566000000E+00 0. -1.
        994    1    1    2    0    0 -0.14986990772E+02  0.16842347396E+01  0.30185622816E+01  0.17188949432E+03  0.17120000000E+03 0.  0.
        998    1    1    2    0    0  0.38438447974E+01 -0.66930509208E+01  0.14653069059E+04  0.14653613550E+04  0.10000000000E+02 0. -1.
</event>
<event>
 5    1  0.1334136E-008  0.3751072E+03  0.7957747E-01  0.3472744E+00
         13   -1    0    0    0    0  0.00000000000E+00  0.00000000000E+00  0.14999999963E+04  0.15000000000E+04  0.10566000000E+00 0.  1.
        994   -1    0    0    0    0 -0.00000000000E+00 -0.00000000000E+00  0.11368683772E-12  0.17120000000E+03  0.17120000000E+03 0.  0.
         13    1    1    2    0    0  0.12687767727E+03 -0.84505779549E+02  0.63953071012E+03  0.65744863838E+03  0.10566000000E+00 0.  1.
        994    1    1    2    0    0 -0.16087637865E+03  0.81334698180E+02  0.12653869746E+03  0.27895882186E+03  0.17120000000E+03 0.  0.
        998    1    1    2    0    0  0.33998701381E+02  0.31710813693E+01  0.73393058870E+03  0.73479253976E+03  0.10000000000E+02 0.  1.
</event>
<event>
 5    1  0.1334136E-008  0.3752120E+03  0.7957747E-01  0.3472275E+00
         13   -1    0    0    0    0  0.00000000000E+00  0.00000000000E+00  0.14999999963E+04  0.15000000000E+04  0.10566000000E+00 0. -1.
        994   -1    0    0    0    0 -0.00000000000E+00 -0.00000000000E+00  0.11368683772E-12  0.17120000000E+03  0.17120000000E+03 0.  0.
         13    1    1    2    0    0  0.23024287903E+02  0.38871194617E+01  0.41439380219E+02  0.47565333260E+02  0.10566000000E+00 0. -1.
        994    1    1    2    0    0  0.99082948367E+01 -0.22255885381E+02  0.85884894806E+01  0.17313780896E+03  0.17120000000E+03 0.  0.
        998    1    1    2    0    0 -0.32932582740E+02  0.18368765919E+02  0.14499721266E+04  0.14504968578E+04  0.10000000000E+02 0. -1.
</event>
<event>
 5    1  0.1334136E-008  0.3743392E+03  0.7957747E-01  0.3476183E+00
         13   -1    0    0    0    0  0.00000000000E+00  0.00000000000E+00  0.14999999963E+04  0.15000000000E+04  0.10566000000E+00 0. -1.
        994   -1    0    0    0    0 -0.00000000000E+00 -0.00000000000E+00  0.11368683772E-12  0.17120000000E+03  0.17120000000E+03 0.  0.
         13    1    1    2    0    0 -0.16401473778E+02 -0.10795198122E+02  0.24568724210E+02  0.31451200580E+02  0.10566000000E+00 0. -1.
        994    1    1    2    0    0  0.10780905290E+02  0.69800992709E+01  0.75806036257E+01  0.17184834959E+03  0.17120000000E+03 0.  0.
        998    1    1    2    0    0  0.56205684885E+01  0.38150988511E+01  0.14678506684E+04  0.14679004498E+04  0.10000000000E+02 0. -1.
</event>
<event>
 5    1  0.1334136E-008  0.3836856E+03  0.7957747E-01  0.3435266E+00
         13   -1    0    0    0    0  0.00000000000E+00  0.00000000000E+00  0.14999999963E+04  0.15000000000E+04  0.10566000000E+00 0.  1.
        994   -1    0    0    0    0 -0.00000000000E+00 -0.00000000000E+00  0.11368683772E-12  0.17120000000E+03  0.17120000000E+03 0.  0.
         13    1    1    2    0    0  0.11317415122E+02  0.14312510872E+01  0.28753454182E+02  0.30933875544E+02  0.10566000000E+00 0.  1.
        994    1    1    2    0    0  0.25105853934E-01  0.99825991948E+01  0.26133169909E+01  0.17151070620E+03  0.17120000000E+03 0.  0.
        998    1    1    2    0    0 -0.11342520976E+02 -0.11413850282E+02  0.14686332251E+04  0.14687554183E+04  0.10000000000E+02 0.  1.
</event>
<event>
 5    1  0.1334136E-008  0.3773288E+03  0.7957747E-01  0.3462872E+00
         13   -1    0    0    0    0  0.00000000000E+00  0.00000000000E+00  0.14999999963E+04  0.15000000000E+04  0.10566000000E+00 0.  1.
        994   -1    0    0    0    0 -0.00000000000E+00 -0.00000000000E+00  0.11368683772E-12  0.17120000000E+03  0.17120000000E+03 0.  0.
         13    1    1    2    0    0 -0.15750444944E+02 -0.17711636582E+02  0.50568203387E+02  0.55847407676E+02  0.10566000000E+00 0.  1.
        994    1    1    2    0    0 -0.51270678102E+01  0.13432416028E+02  0.61851481718E+01  0.17191396884E+03  0.17120000000E+03 0.  0.
        998    1    1    2    0    0  0.20877512754E+02  0.42792205532E+01  0.14432466447E+04  0.14434386235E+04  0.10000000000E+02 0.  1.
</event>
<event>
 5    1  0.3628488E-008  0.3864843E+03  0.7957747E-01  0.3423401E+00
         13   -1    0    0    0    0  0.00000000000E+00  0.00000000000E+00  0.14999999963E+04  0.15000000000E+04  0.10566000000E+00 0.  1.
        994   -1    0    0    0    0 -0.00000000000E+00 -0.00000000000E+00  0.11368683772E-12  0.17120000000E+03  0.17120000000E+03 0.  0.
         13    1    1    2    0    0 -0.76677392762E+01  0.74812060901E+01  0.63303423269E+02  0.64203560896E+02  0.10566000000E+00 0.  1.
        994    1    1    2    0    0  0.80059564081E+01 -0.79025193008E+01  0.13092490787E+01  0.17157418012E+03  0.17120000000E+03 0.  0.
        998    1    1    2    0    0 -0.33821713189E+00  0.42131321066E+00  0.14353873239E+04  0.14354222590E+04  0.10000000000E+02 0.  1.
</event>
<event>
 5    1  0.1334136E-008  0.3804785E+03  0.7957747E-01  0.3449078E+00
         13   -1    0    0    0    0  0.00000000000E+00  0.00000000000E+00  0.14999999963E+04  0.15000000000E+04  0.10566000000E+00 0.  1.
        994   -1    0    0    0    0 -0.00000000000E+00 -0.00000000000E+00  0.11368683772E-12  0.17120000000E+03  0.17120000000E+03 0.  0.
         13    1    1    2    0    0  0.41529908790E+02  0.77993477529E+01  0.20063237439E+03  0.20503395808E+03  0.10566000000E+00 0.  1.
        994    1    1    2    0    0 -0.41790596680E+02 -0.28645261134E+01  0.97705340860E+01  0.17652071498E+03  0.17120000000E+03 0.  0.
        998    1    1    2    0    0  0.26068789019E+00 -0.49348216395E+01  0.12895970878E+04  0.12896453269E+04  0.10000000000E+02 0.  0.
</event>
<event>
 5    1  0.1334136E-008  0.3814726E+03  0.7957747E-01  0.3444772E+00
         13   -1    0    0    0    0  0.00000000000E+00  0.00000000000E+00  0.14999999963E+04  0.15000000000E+04  0.10566000000E+00 0. -1.
        994   -1    0    0    0    0 -0.00000000000E+00 -0.00000000000E+00  0.11368683772E-12  0.17120000000E+03  0.17120000000E+03 0.  0.
         13    1    1    2    0    0  0.18377260509E+02  0.17651763197E+02  0.89362809387E+02  0.92924869187E+02  0.10566000000E+00 0. -1.
        994    1    1    2    0    0 -0.24685003951E+02 -0.12652788431E+02  0.59555786042E+01  0.17353487082E+03  0.17120000000E+03 0.  0.
        998    1    1    2    0    0  0.63077434414E+01 -0.49989747665E+01  0.14046816083E+04  0.14047402600E+04  0.10000000000E+02 0. -1.
</event>
<event>
 5    1  0.1334136E-008  0.3842277E+03  0.7957747E-01  0.3432954E+00
         13   -1    0    0    0    0  0.00000000000E+00  0.00000000000E+00  0.14999999963E+04  0.15000000000E+04  0.10566000000E+00 0.  1.
        994   -1    0    0    0    0 -0.00000000000E+00 -0.00000000000E+00  0.11368683772E-12  0.17120000000E+03  0.17120000000E+03 0.  0.
         13    1    1    2    0    0 -0.16582947349E+02  0.44550901859E+01  0.77852863642E+02  0.79724033470E+02  0.10566000000E+00 0.  1.
        994    1    1    2    0    0 -0.33427674713E+01 -0.16261505540E+02  0.29232578092E+01  0.17202789336E+03  0.17120000000E+03 0.  0.
        998    1    1    2    0    0  0.19925714820E+02  0.11806415354E+02  0.14192238748E+04  0.14194480732E+04  0.10000000000E+02 0.  1.
</event>
<event>
 5    1  0.1334136E-008  0.3812184E+03  0.7957747E-01  0.3445871E+00
         13   -1    0    0    0    0  0.00000000000E+00  0.00000000000E+00  0.14999999963E+04  0.15000000000E+04  0.10566000000E+00 0.  1.
        994   -1    0    0    0    0 -0.00000000000E+00 -0.00000000000E+00  0.11368683772E-12  0.17120000000E+03  0.17120000000E+03 0.  0.
         13    1    1    2    0    0  0.99604179392E+01 -0.23819977146E+01  0.13487880567E+02  0.16935699715E+02  0.10566000000E+00 0.  1.
        994    1    1    2    0    0 -0.65401446177E+01 -0.65926194248E+01  0.38065664249E+01  0.17149392430E+03  0.17120000000E+03 0.  0.
        998    1    1    2    0    0 -0.34202733214E+01  0.89746171394E+01  0.14827055493E+04  0.14827703760E+04  0.10000000000E+02 0.  1.
</event>
<event>
 5    1  0.1334136E-008  0.3853517E+03  0.7957747E-01  0.3428182E+00
         13   -1    0    0    0    0  0.00000000000E+00  0.00000000000E+00  0.14999999963E+04  0.15000000000E+04  0.10566000000E+00 0.  1.
        994   -1    0    0    0    0 -0.00000000000E+00 -0.00000000000E+00  0.11368683772E-12  0.17120000000E+03  0.17120000000E+03 0.  0.
         13    1    1    2    0    0  0.10754261123E+02  0.10368900232E+02  0.71545580039E+02  0.73088640783E+02  0.10566000000E+00 0.  1.
        994    1    1    2    0    0 -0.13767519243E+02 -0.14968549315E+02  0.28154382608E+01  0.17242670544E+03  0.17120000000E+03 0.  0.
        998    1    1    2    0    0  0.30132581201E+01  0.45996490828E+01  0.14256389780E+04  0.14256846538E+04  0.10000000000E+02 0.  1.
</event>
<event>
 5    1  0.1334136E-008  0.3752411E+03  0.7957747E-01  0.3472145E+00
         13   -1    0    0    0    0  0.00000000000E+00  0.00000000000E+00  0.14999999963E+04  0.15000000000E+04  0.10566000000E+00 0. -1.
        994   -1    0    0    0    0 -0.00000000000E+00 -0.00000000000E+00  0.11368683772E-12  0.17120000000E+03  0.17120000000E+03 0.  0.
         13    1    1    2    0    0  0.12361756113E+02 -0.17295735073E+02  0.32282270979E+02  0.38653740433E+02  0.10566000000E+00 0. -1.
        994    1    1    2    0    0 -0.12510032799E+02  0.20346727291E+01  0.71007391417E+01  0.17181531163E+03  0.17120000000E+03 0.  0.
        998    1    1    2    0    0  0.14827668671E+00  0.15261062344E+02  0.14606169862E+04  0.14607309479E+04  0.10000000000E+02 0. -1.
</event>
<event>
 5    1  0.1334136E-008  0.3849890E+03  0.7957747E-01  0.3429719E+00
         13   -1    0    0    0    0  0.00000000000E+00  0.00000000000E+00  0.14999999963E+04  0.15000000000E+04  0.10566000000E+00 0.  1.
        994   -1    0    0    0    0 -0.00000000000E+00 -0.00000000000E+00  0.11368683772E-12  0.17120000000E+03  0.17120000000E+03 0.  0.
         13    1    1    2    0    0  0.19836880642E+02 -0.47359392178E+02  0.62381145298E+02  0.80795001787E+02  0.10566000000E+00 0.  1.
        994    1    1    2    0    0 -0.19816774550E+02  0.30900399995E+02  0.24085176370E+02  0.17674013408E+03  0.17120000000E+03 0.  0.
        998    1    1    2    0    0 -0.20106091719E-01  0.16458992183E+02  0.14135336746E+04  0.14136648641E+04  0.10000000000E+02 0.  1.
</event>
<event>
 5    1  0.1334136E-008  0.3857603E+03  0.7957747E-01  0.3426454E+00
         13   -1    0    0    0    0  0.00000000000E+00  0.00000000000E+00  0.14999999963E+04  0.15000000000E+04  0.10566000000E+00 0. -1.
        994   -1    0    0    0    0 -0.00000000000E+00 -0.00000000000E+00  0.11368683772E-12  0.17120000000E+03  0.17120000000E+03 0.  0.
         13    1    1    2    0    0  0.89852984124E+01 -0.45736851836E+01  0.40105857524E+02  0.41353901333E+02  0.10566000000E+00 0. -1.
        994    1    1    2    0    0 -0.10421571049E+02  0.16485447026E+01  0.16184315962E+01  0.17153246388E+03  0.17120000000E+03 0.  0.
        998    1    1    2    0    0  0.14362726370E+01  0.29251404810E+01  0.14582757072E+04  0.14583136348E+04  0.10000000000E+02 0. -1.
</event>
<event>
 5    1  0.1334136E-008  0.3853444E+03  0.7957747E-01  0.3428213E+00
         13   -1    0    0    0    0  0.00000000000E+00  0.00000000000E+00  0.14999999963E+04  0.15000000000E+04  0.10566000000E+00 0. -1.
        994   -1    0    0    0    0 -0.00000000000E+00 -0.00000000000E+00  0.11368683772E-12  0.17120000000E+03  0.17120000000E+03 0.  0.
         13    1    1    2    0    0 -0.11993966818E+01 -0.11862657298E+02  0.49175032599E+02  0.50599962309E+02  0.10566000000E+00 0. -1.
        994    1    1    2    0    0 -0.77980810755E+00  0.69024673896E+01  0.16177696270E+01  0.17134850258E+03  0.17120000000E+03 0.  0.
        998    1    1    2    0    0  0.19792047893E+01  0.49601899084E+01  0.14492071941E+04  0.14492515351E+04  0.10000000000E+02 0. -1.
</event>
<event>
 5    1  0.1334136E-008  0.3778006E+03  0.7957747E-01  0.3460791E+00
         13   -1    0    0    0    0  0.00000000000E+00  0.00000000000E+00  0.14999999963E+04  0.15000000000E+04  0.10566000000E+00 0. -1.
        994   -1    0    0    0    0 -0.00000000000E+00 -0.00000000000E+00  0.11368683772E-12  0.17120000000E+03  0.17120000000E+03 0.  0.
         13    1    1    2    0    0  0.71205570559E+01 -0.12842322594E+02  0.17718905810E+02  0.23013004357E+02  0.10566000000E+00 0. -1.
        994    1    1    2    0    0 -0.15498560088E+02  0.17865522351E+02  0.71334765193E+01  0.17297314457E+03  0.17120000000E+03 0.  0.
        998    1    1    2    0    0  0.83780030316E+01 -0.50231997574E+01  0.14751476139E+04  0.14752138511E+04  0.10000000000E+02 0. -1.
</event>
<event>
 5    1  0.1334136E-008  0.3831339E+03  0.7957747E-01  0.3437625E+00
         13   -1    0    0    0    0  0.00000000000E+00  0.00000000000E+00  0.14999999963E+04  0.15000000000E+04  0.10566000000E+00 0. -1.
        994   -1    0    0    0    0 -0.00000000000E+00 -0.00000000000E+00  0.11368683772E-12  0.17120000000E+03  0.17120000000E+03 0.  0.
         13    1    1    2    0    0  0.34340520367E+00  0.11425871227E+02  0.24574626420E+02  0.27103355662E+02  0.10566000000E+00 0. -1.
        994    1    1    2    0    0 -0.34674850904E+01 -0.85014839070E+01  0.28384134620E+01  0.17146951704E+03  0.17120000000E+03 0.  0.
        998    1    1    2    0    0  0.31240798867E+01 -0.29243873202E+01  0.14725869564E+04  0.14726271273E+04  0.10000000000E+02 0. -1.
</event>
<event>
 5    1  0.1334136E-008  0.3817236E+03  0.7957747E-01  0.3443688E+00
         13   -1    0    0    0    0  0.00000000000E+00  0.00000000000E+00  0.14999999963E+04  0.15000000000E+04  0.10566000000E+00 0.  1.
        994   -1    0    0    0    0 -0.00000000000E+00 -0.00000000000E+00  0.11368683772E-12  0.17120000000E+03  0.17120000000E+03 0.  0.
         13    1    1    2    0    0 -0.69562869129E+01  0.92042983768E+01  0.19055082968E+02  0.22275914957E+02  0.10566000000E+00 0.  1.
        994    1    1    2    0    0  0.43566403654E+01 -0.71588588310E+01  0.34990714090E+01  0.17144069842E+03  0.17120000000E+03 0.  0.
        998    1    1    2    0    0  0.25996465476E+01 -0.20454395459E+01  0.14774458419E+04  0.14774833866E+04  0.10000000000E+02 0.  1.
</event>
<event>
 5    1  0.1334136E-008  0.3847783E+03  0.7957747E-01  0.3430613E+00
         13   -1    0    0    0    0  0.00000000000E+00  0.00000000000E+00  0.14999999963E+04  0.15000000000E+04  0.10566000000E+00 0. -1.
        994   -1    0    0    0    0 -0.00000000000E+00 -0.00000000000E+00  0.11368683772E-12  0.17120000000E+03  0.17120000000E+03 0.  0.
         13    1    1    2    0    0  0.85937243552E+01 -0.91963092271E+01  0.45743635794E+02  0.47443814996E+02  0.10566000000E+00 0. -1.
        994    1    1    2    0    0 -0.32426830716E+01  0.61433832325E+01  0.18990688057E+01  0.17135140097E+03  0.17120000000E+03 0.  0.
        998    1    1    2    0    0 -0.53510412837E+01  0.30529259946E+01  0.14523572917E+04  0.14524047840E+04  0.10000000000E+02 0. -1.
</event>
<event>
 5    1  0.1334136E-008  0.3689307E+03  0.7957747E-01  0.3500820E+00
         13   -1    0    0    0    0  0.00000000000E+00  0.00000000000E+00  0.14999999963E+04  0.15000000000E+04  0.10566000000E+00 0. -1.
        994   -1    0    0    0    0 -0.00000000000E+00 -0.00000000000E+00  0.11368683772E-12  0.17120000000E+03  0.17120000000E+03 0.  0.
         13    1    1    2    0    0 -0.26153588908E+02 -0.21236961187E+03  0.82045240390E+03  0.84789564245E+03  0.10566000000E+00 0. -1.
        994    1    1    2    0    0  0.27727588125E+02  0.20948054216E+03  0.18561989571E+03  0.32926448696E+03  0.17120000000E+03 0.  0.
        998    1    1    2    0    0 -0.15739992163E+01  0.28890697086E+01  0.49392769667E+03  0.49403987059E+03  0.10000000000E+02 0.  0.
</event>
<event>
 5    1  0.1334136E-008  0.3812727E+03  0.7957747E-01  0.3445635E+00
         13   -1    0    0    0    0  0.00000000000E+00  0.00000000000E+00  0.14999999963E+04  0.15000000000E+04  0.10566000000E+00 0.  1.
        994   -1    0    0    0    0 -0.00000000000E+00 -0.00000000000E+00  0.11368683772E-12  0.17120000000E+03  0.17120000000E+03 0.  0.
         13    1    1    2    0    0 -0.22483518317E+02  0.49270511712E+01  0.71776970343E+02  0.75377245007E+02  0.10566000000E+00 0.  1.
        994    1    1    2    0    0  0.19969190807E+02 -0.16215857682E+02  0.56979905049E+01  0.17321555853E+03  0.17120000000E+03 0.  0.
        998    1    1    2    0    0  0.25143275095E+01  0.11288806511E+02  0.14225250354E+04  0.14226071965E+04  0.10000000000E+02 0.  1.
</event>
<event>
 5    1  0.1334136E-008  0.3801564E+03  0.7957747E-01  0.3450478E+00
         13   -1    0    0    0    0  0.00000000000E+00  0.00000000000E+00  0.14999999963E+04  0.15000000000E+04  0.10566000000E+00 0. -1.
        994   -1    0    0    0    0 -0.00000000000E+00 -0.00000000000E+00  0.11368683772E-12  0.17120000000E+03  0.17120000000E+03 0.  0.
         13    1    1    2    0    0 -0.32720048995E+02 -0.23085768997E+01  0.13688464757E+03  0.14075989854E+03  0.10566000000E+00 0. -1.
        994    1    1    2    0    0  0.11980106336E+02  0.12249803257E+02  0.50357563899E+01  0.17212896174E+03  0.17120000000E+03 0.  0.
        998    1    1    2    0    0  0.20739942659E+02 -0.99412263571E+01  0.13580795923E+04  0.13583111397E+04  0.10000000000E+02 0. -1.
</event>
<event>
 5    1  0.1334136E-008  0.3845104E+03  0.7957747E-01  0.3431751E+00
         13   -1    0    0    0    0  0.00000000000E+00  0.00000000000E+00  0.14999999963E+04  0.15000000000E+04  0.10566000000E+00 0. -1.
        994   -1    0    0    0    0 -0.00000000000E+00 -0.00000000000E+00  0.11368683772E-12  0.17120000000E+03  0.17120000000E+03 0.  0.
         13    1    1    2    0    0 -0.10169658918E+02  0.10966970571E+02  0.58731192020E+02  0.60605779314E+02  0.10566000000E+00 0. -1.
        994    1    1    2    0    0  0.12298805706E+02 -0.50838466046E+01  0.24569836542E+01  0.17173404696E+03  0.17120000000E+03 0.  0.
        998    1    1    2    0    0 -0.21291467877E+01 -0.58831239668E+01  0.14388118206E+04  0.14388601737E+04  0.10000000000E+02 0. -1.
</event>
<event>
 5    1  0.1334136E-008  0.3846464E+03  0.7957747E-01  0.3431173E+00
         13   -1    0    0    0    0  0.00000000000E+00  0.00000000000E+00  0.14999999963E+04  0.15000000000E+04  0.10566000000E+00 0.  1.
        994   -1    0    0    0    0 -0.00000000000E+00 -0.00000000000E+00  0.11368683772E-12  0.17120000000E+03  0.17120000000E+03 0.  0.
         13    1    1    2    0    0 -0.19762582748E+02 -0.55132615499E+00  0.99110024242E+02  0.10106271175E+03  0.10566000000E+00 0.  1.
        994    1    1    2    0    0  0.24171535327E+02  0.99815930612E+01  0.40607079614E+01  0.17323343981E+03  0.17120000000E+03 0.  0.
        998    1    1    2    0    0 -0.44089525790E+01 -0.94302669062E+01  0.13968292641E+04  0.13969038484E+04  0.10000000000E+02 0.  1.
</event>
<event>
 5    1  0.1334136E-008  0.3851652E+03  0.7957747E-01  0.3428972E+00
         13   -1    0    0    0    0  0.00000000000E+00  0.00000000000E+00  0.14999999963E+04  0.15000000000E+04  0.10566000000E+00 0. -1.
        994   -1    0    0    0    0 -0.00000000000E+00 -0.00000000000E+00  0.11368683772E-12  0.17120000000E+03  0.17120000000E+03 0.  0.
         13    1    1    2    0    0 -0.56112590403E+01  0.11966674968E+02  0.62192057630E+02  0.63581056409E+02  0.10566000000E+00 0. -1.
        994    1    1    2    0    0  0.56480233366E+01  0.92680808442E+01  0.19354300408E+01  0.17155460757E+03  0.17120000000E+03 0.  0.
        998    1    1    2    0    0 -0.36764296308E-01 -0.21234755813E+02  0.14358725086E+04  0.14360643360E+04  0.10000000000E+02 0. -1.
</event>
<event>
 5    1  0.1334136E-008  0.3788557E+03  0.7957747E-01  0.3456156E+00
         13   -1    0    0    0    0  0.00000000000E+00  0.00000000000E+00  0.14999999963E+04  0.15000000000E+04  0.10566000000E+00 0.  1.
        994   -1    0    0    0    0 -0.00000000000E+00 -0.00000000000E+00  0.11368683772E-12  0.17120000000E+03  0.17120000000E+03 0.  0.
         13    1    1    2    0    0 -0.16757525113E+02  0.77767057992E+01  0.33709435390E+02  0.38439940158E+02  0.10566000000E+00 0.  1.
        994    1    1    2    0    0  0.19485346671E+02 -0.19344009846E+01  0.59995513352E+01  0.17242057667E+03  0.17120000000E+03 0.  0.
        998    1    1    2    0    0 -0.27278215576E+01 -0.58423048147E+01  0.14602910096E+04  0.14603394832E+04  0.10000000000E+02 0.  1.
</event>
<event>
 5    1  0.1334136E-008  0.3845912E+03  0.7957747E-01  0.3431408E+00
         13   -1    0    0    0    0  0.00000000000E+00  0.00000000000E+00  0.14999999963E+04  0.15000000000E+04  0.10566000000E+00 0. -1.
        994   -1    0    0    0    0 -0.00000000000E+00 -0.00000000000E+00  0.11368683772E-12  0.17120000000E+03  0.17120000000E+03 0.  0.
         13    1    1    2    0    0 -0.63232884401E+01  0.11230166355E+02  0.44114345546E+02  0.45958538489E+02  0.10566000000E+00 0. -1.
        994    1    1    2    0    0  0.10910178961E+02 -0.85537417250E+01  0.24664100022E+01  0.17177811758E+03  0.17120000000E+03 0.  0.
        998    1    1    2    0    0 -0.45868905208E+01 -0.26764246300E+01  0.14534192407E+04  0.14534633439E+04  0.10000000000E+02 0. -1.
</event>
<event>
 5    1  0.1334136E-008  0.3742511E+03  0.7957747E-01  0.3476579E+00
         13   -1    0    0    0    0  0.00000000000E+00  0.00000000000E+00  0.14999999963E+04  0.15000000000E+04  0.10566000000E+00 0. -1.
        994   -1    0    0    0    0 -0.00000000000E+00 -0.00000000000E+00  0.11368683772E-12  0.17120000000E+03  0.17120000000E+03 0.  0.
         13    1    1    2    0    0  0.41960377698E+02 -0.81380029064E+02  0.42316459473E+03  0.43295688911E+03  0.10566000000E+00 0. -1.
        994    1    1    2    0    0  0.62279718973E+01  0.11172860999E+03  0.51014119599E+02  0.21079362021E+03  0.17120000000E+03 0.  0.
        998    1    1    2    0    0 -0.48188349595E+02 -0.30348580924E+02  0.10258212819E+04  0.10274494907E+04  0.10000000000E+02 0. -1.
</event>
<event>
 5    1  0.1334136E-008  0.3828421E+03  0.7957747E-01  0.3438876E+00
         13   -1    0    0    0    0  0.00000000000E+00  0.00000000000E+00  0.14999999963E+04  0.15000000000E+04  0.10566000000E+00 0. -1.
        994   -1    0    0    0    0 -0.00000000000E+00 -0.00000000000E+00  0.11368683772E-12  0.17120000000E+03  0.17120000000E+03 0.  0.
         13    1    1    2    0    0  0.12456153114E+02  0.29097176208E+01  0.29458684169E+02  0.32116155500E+02  0.10566000000E+00 0. -1.
        994    1    1    2    0    0 -0.11683606189E+02  0.17739271705E+02  0.42009816151E+01  0.17256383358E+03  0.17120000000E+03 0.  0.
        998    1    1    2    0    0 -0.77254692534E+00 -0.20648989326E+02  0.14663403305E+04  0.14665200109E+04  0.10000000000E+02 0. -1.
</event>
<event>
 5    1  0.1334136E-008  0.3859026E+03  0.7957747E-01  0.3425853E+00
         13   -1    0    0    0    0  0.00000000000E+00  0.00000000000E+00  0.14999999963E+04  0.15000000000E+04  0.10566000000E+00 0.  1.
        994   -1    0    0    0    0 -0.00000000000E+00 -0.00000000000E+00  0.11368683772E-12  0.17120000000E+03  0.17120000000E+03 0.  0.
         13    1    1    2    0    0  0.74051828289E+01 -0.77288650447E+01  0.48168515352E+02  0.49343582387E+02  0.10566000000E+00 0.  1.
        994    1    1    2    0    0 -0.23577495711E+01  0.11173466440E+02  0.16104058375E+01  0.17158799125E+03  0.17120000000E+03 0.  0.
        998    1    1    2    0    0 -0.50474332578E+01 -0.34446013952E+01  0.14502210751E+04  0.14502684264E+04  0.10000000000E+02 0.  1.
</event>
<event>
 5    1  0.1334136E-008  0.3857363E+03  0.7957747E-01  0.3426555E+00
         13   -1    0    0    0    0  0.00000000000E+00  0.00000000000E+00  0.14999999963E+04  0.15000000000E+04  0.10566000000E+00 0. -1.
        994   -1    0    0    0    0 -0.00000000000E+00 -0.00000000000E+00  0.11368683772E-12  0.17120000000E+03  0.17120000000E+03 0.  0.
         13    1    1    2    0    0  0.20760449526E+01 -0.16160859073E+02  0.91499271964E+02  0.92938750060E+02  0.10566000000E+00 0. -1.
        994    1    1    2    0    0 -0.39278775107E+02  0.25472347722E+02  0.84887201152E+01  0.17768838184E+03  0.17120000000E+03 0.  0.
        998    1    1    2    0    0  0.37202730154E+02 -0.93114886491E+01  0.14000120042E+04  0.14005728681E+04  0.10000000000E+02 0. -1.
</event>
<event>
 5    1  0.1334136E-008  0.3417723E+03  0.7957747E-01  0.3636610E+00
         13   -1    0    0    0    0  0.00000000000E+00  0.00000000000E+00  0.14999999963E+04  0.15000000000E+04  0.10566000000E+00 0.  1.
        994   -1    0    0    0    0 -0.00000000000E+00 -0.00000000000E+00  0.11368683772E-12  0.17120000000E+03  0.17120000000E+03 0.  0.
         13    1    1    2    0    0 -0.27363591142E+03 -0.31809835919E+02  0.71416128270E+03  0.76545073425E+03  0.10566000000E+00 0.  1.
        994    1    1    2    0    0  0.27700577138E+03  0.37839320446E+02  0.38897425744E+03  0.50869875614E+03  0.17120000000E+03 0.  0.
        998    1    1    2    0    0 -0.33698599565E+01 -0.60294845270E+01  0.39686445614E+03  0.39705050961E+03  0.10000000000E+02 0.  0.
</event>
<event>
 5    1  0.1334136E-008  0.3848516E+03  0.7957747E-01  0.3430302E+00
         13   -1    0    0    0    0  0.00000000000E+00  0.00000000000E+00  0.14999999963E+04  0.15000000000E+04  0.10566000000E+00 0. -1.
        994   -1    0    0    0    0 -0.00000000000E+00 -0.00000000000E+00  0.11368683772E-12  0.17120000000E+03  0.17120000000E+03 0.  0.
         13    1    1    2    0    0  0.19258887398E+02  0.64158446877E+01  0.10701375109E+03  0.10892209093E+03  0.10566000000E+00 0. -1.
        994    1    1    2    0    0 -0.28928988062E+02 -0.32724719154E+01  0.44976204889E+01  0.17371604420E+03  0.17120000000E+03 0.  0.
        998    1    1    2    0    0  0.96701006643E+01 -0.31433727724E+01  0.13884886247E+04  0.13885618649E+04  0.10000000000E+02 0. -1.
</event>
<event>
 5    1  0.1334136E-008  0.3825290E+03  0.7957747E-01  0.3440220E+00
         13   -1    0    0    0    0  0.00000000000E+00  0.00000000000E+00  0.14999999963E+04  0.15000000000E+04  0.10566000000E+00 0. -1.
        994   -1    0    0    0    0 -0.00000000000E+00 -0.00000000000E+00  0.11368683772E-12  0.17120000000E+03  0.17120000000E+03 0.  0.
         13    1    1    2    0    0 -0.79801667710E+01  0.14296065942E+02  0.44472103703E+02  0.47390291568E+02  0.10566000000E+00 0. -1.
        994    1    1    2    0    0  0.11424586079E+02 -0.14797263143E+02  0.40214022626E+01  0.17226459834E+03  0.17120000000E+03 0.  0.
        998    1    1    2    0    0 -0.34444193077E+01  0.50119720140E+00  0.14515064903E+04  0.14515451101E+04  0.10000000000E+02 0. -1.
</event>
<event>
 5    1  0.1334136E-008  0.3836944E+03  0.7957747E-01  0.3435228E+00
         13   -1    0    0    0    0  0.00000000000E+00  0.00000000000E+00  0.14999999963E+04  0.15000000000E+04  0.10566000000E+00 0. -1.
        994   -1    0    0    0    0 -0.00000000000E+00 -0.00000000000E+00  0.11368683772E-12  0.17120000000E+03  0.17120000000E+03 0.  0.
         13    1    1    2    0    0 -0.99893272396E+01 -0.15867866215E+02  0.73517578064E+02  0.75871083328E+02  0.10566000000E+00 0. -1.
        994    1    1    2    0    0  0.18048671639E+02  0.11362220225E+02  0.37834022838E+01  0.17256479574E+03  0.17120000000E+03 0.  0.
        998    1    1    2    0    0 -0.80593443993E+01  0.45056459899E+01  0.14226990159E+04  0.14227641209E+04  0.10000000000E+02 0. -1.
</event>
<event>
 5    1  0.1334136E-008  0.3831129E+03  0.7957747E-01  0.3437715E+00
         13   -1    0    0    0    0  0.00000000000E+00  0.00000000000E+00  0.14999999963E+04  0.15000000000E+04  0.10566000000E+00 0. -1.
        994   -1    0    0    0    0 -0.00000000000E+00 -0.00000000000E+00  0.11368683772E-12  0.17120000000E+03  0.17120000000E+03 0.  0.
         13    1    1    2    0    0  0.25533003041E+02 -0.20259473898E+01  0.11340992232E+03  0.11626633370E+03  0.10566000000E+00 0. -1.
        994    1    1    2    0    0 -0.31521821478E+02  0.17355712780E+02  0.68663044419E+01  0.17507550409E+03  0.17120000000E+03 0.  0.
        998    1    1    2    0    0  0.59888184375E+01 -0.15329765390E+02  0.13797237695E+04  0.13798581622E+04  0.10000000000E+02 0. -1.
</event>
<event>
 5    1  0.1334136E-008  0.3689324E+03  0.7957747E-01  0.3500812E+00
         13   -1    0    0    0    0  0.00000000000E+00  0.00000000000E+00  0.14999999963E+04  0.15000000000E+04  0.10566000000E+00 0.  1.
        994   -1    0    0    0    0 -0.00000000000E+00 -0.00000000000E+00  0.11368683772E-12  0.17120000000E+03  0.17120000000E+03 0.  0.
         13    1    1    2    0    0 -0.53136347211E+02 -0.60406925765E+02  0.39602300715E+03  0.40411223866E+03  0.10566000000E+00 0.  1.
        994    1    1    2    0    0  0.33853735160E+02 -0.87575091814E+01  0.14646275643E+02  0.17534743437E+03  0.17120000000E+03 0.  0.
        998    1    1    2    0    0  0.19282612051E+02  0.69164434946E+02  0.10893307135E+04  0.10917403270E+04  0.10000000000E+02 0.  1.
</event>
<event>
 5    1  0.1334136E-008  0.3840727E+03  0.7957747E-01  0.3433615E+00
         13   -1    0    0    0    0  0.00000000000E+00  0.00000000000E+00  0.14999999963E+04  0.15000000000E+04  0.10566000000E+00 0. -1.
        994   -1    0    0    0    0 -0.00000000000E+00 -0.00000000000E+00  0.11368683772E-12  0.17120000000E+03  0.17120000000E+03 0.  0.
         13    1    1    2    0    0 -0.13788165160E+02  0.81422302316E+01  0.61502656732E+02  0.63553106618E+02  0.10566000000E+00 0. -1.
        994    1    1    2    0    0  0.49747127639E+01 -0.86987197249E+01  0.24225432443E+01  0.17151012859E+03  0.17120000000E+03 0.  0.
        998    1    1    2    0    0  0.88134523965E+01  0.55648949329E+00  0.14360747963E+04  0.14361367648E+04  0.10000000000E+02 0. -1.
</event>
<event>
 5    1  0.1334136E-008  0.3751330E+03  0.7957747E-01  0.3472628E+00
         13   -1    0    0    0    0  0.00000000000E+00  0.00000000000E+00  0.14999999963E+04  0.15000000000E+04  0.10566000000E+00 0.  1.
        994   -1    0    0    0    0 -0.00000000000E+00 -0.00000000000E+00  0.11368683772E-12  0.17120000000E+03  0.17120000000E+03 0.  0.
         13    1    1    2    0    0  0.56451459014E+02  0.33208824376E+02  0.22612068763E+03  0.23541488861E+03  0.10566000000E+00 0.  1.
        994    1    1    2    0    0 -0.91290670632E+02 -0.32635503478E+02  0.39247466139E+02  0.20062120085E+03  0.17120000000E+03 0.  0.
        998    1    1    2    0    0  0.34839211618E+02 -0.57332089812E+00  0.12346318425E+04  0.12351639105E+04  0.10000000000E+02 0.  1.
</event>
<event>
 5    1  0.1334136E-008  0.3846767E+03  0.7957747E-01  0.3431044E+00
         13   -1    0    0    0    0  0.00000000000E+00  0.00000000000E+00  0.14999999963E+04  0.15000000000E+04  0.10566000000E+00 0. -1.
        994   -1    0    0    0    0 -0.00000000000E+00 -0.00000000000E+00  0.11368683772E-12  0.17120000000E+03  0.17120000000E+03 0.  0.
         13    1    1    2    0    0 -0.10860921102E+03 -0.22692951947E+02  0.34557779776E+03  0.36295310476E+03  0.10566000000E+00 0. -1.
        994    1    1    2    0    0  0.56308510697E+02 -0.10565294967E+02  0.31123252526E+02  0.18319489808E+03  0.17120000000E+03 0.  0.
        998    1    1    2    0    0  0.52300700327E+02  0.33258246914E+02  0.11232989460E+04  0.11250519972E+04  0.10000000000E+02 0. -1.
</event>
<event>
 5    1  0.1334136E-008  0.3784101E+03  0.7957747E-01  0.3458111E+00
         13   -1    0    0    0    0  0.00000000000E+00  0.00000000000E+00  0.14999999963E+04  0.15000000000E+04  0.10566000000E+00 0. -1.
        994   -1    0    0    0    0 -0.00000000000E+00 -0.00000000000E+00  0.11368683772E-12  0.17120000000E+03  0.17120000000E+03 0.  0.
         13    1    1    2    0    0 -0.37987582681E+02 -0.19961091895E+02  0.19922029328E+03  0.20378969073E+03  0.10566000000E+00 0. -1.
        994    1    1    2    0    0  0.40316660010E+01  0.23178021016E+02  0.68001065313E+01  0.17294263915E+03  0.17120000000E+03 0.  0.
        998    1    1    2    0    0  0.33955916680E+02 -0.32169291205E+01  0.12939795965E+04  0.12944676701E+04  0.10000000000E+02 0. -1.
</event>
<event>
 5    1  0.1334136E-008  0.3828515E+03  0.7957747E-01  0.3438836E+00
         13   -1    0    0    0    0  0.00000000000E+00  0.00000000000E+00  0.14999999963E+04  0.15000000000E+04  0.10566000000E+00 0. -1.
        994   -1    0    0    0    0 -0.00000000000E+00 -0.00000000000E+00  0.11368683772E-12  0.17120000000E+03  0.17120000000E+03 0.  0.
         13    1    1    2    0    0 -0.10997608763E+02 -0.14234206798E+02  0.61389286406E+02  0.63970428255E+02  0.10566000000E+00 0. -1.
        994    1    1    2    0    0 -0.53969795063E+01  0.92490095180E+01  0.30804720241E+01  0.17156223615E+03  0.17120000000E+03 0.  0.
        998    1    1    2    0    0  0.16394588269E+02  0.49851972803E+01  0.14355302378E+04  0.14356673356E+04  0.10000000000E+02 0. -1.
</event>
<event>
 5    1  0.1334136E-008  0.3846028E+03  0.7957747E-01  0.3431359E+00
         13   -1    0    0    0    0  0.00000000000E+00  0.00000000000E+00  0.14999999963E+04  0.15000000000E+04  0.10566000000E+00 0. -1.
        994   -1    0    0    0    0 -0.00000000000E+00 -0.00000000000E+00  0.11368683772E-12  0.17120000000E+03  0.17120000000E+03 0.  0.
         13    1    1    2    0    0 -0.56833400426E+01  0.21480489348E+02  0.13226544511E+03  0.13411886859E+03  0.10566000000E+00 0. -1.
        994    1    1    2    0    0 -0.40945909995E+01 -0.17780078450E+02  0.29244307395E+01  0.17219433545E+03  0.17120000000E+03 0.  0.
        998    1    1    2    0    0  0.97779310421E+01 -0.37004108986E+01  0.13648101204E+04  0.13648867960E+04  0.10000000000E+02 0. -1.
</event>
<event>
 5    1  0.1334136E-008  0.3758989E+03  0.7957747E-01  0.3469212E+00
         13   -1    0    0    0    0  0.00000000000E+00  0.00000000000E+00  0.14999999963E+04  0.15000000000E+04  0.10566000000E+00 0. -1.
        994   -1    0    0    0    0 -0.00000000000E+00 -0.00000000000E+00  0.11368683772E-12  0.17120000000E+03  0.17120000000E+03 0.  0.
         13    1    1    2    0    0 -0.23123538115E+02  0.11328479210E+02  0.49757759813E+02  0.56025693050E+02  0.10566000000E+00 0. -1.
        994    1    1    2    0    0  0.23085731579E+02 -0.72310946698E+01  0.82037174341E+01  0.17309529373E+03  0.17120000000E+03 0.  0.
        998    1    1    2    0    0  0.37806535058E-01 -0.40973845403E+01  0.14420385190E+04  0.14420790132E+04  0.10000000000E+02 0. -1.
</event>
<event>
 5    1  0.1334136E-008  0.3697247E+03  0.7957747E-01  0.3497157E+00
         13   -1    0    0    0    0  0.00000000000E+00  0.00000000000E+00  0.14999999963E+04  0.15000000000E+04  0.10566000000E+00 0.  1.
        994   -1    0    0    0    0 -0.00000000000E+00 -0.00000000000E+00  0.11368683772E-12  0.17120000000E+03  0.17120000000E+03 0.  0.
         13    1    1    2    0    0 -0.51672900994E+02  0.37468367646E+02  0.32710957357E+03  0.33327863952E+03  0.10566000000E+00 0.  1.
        994    1    1    2    0    0 -0.35378812627E+02  0.23866908307E+02  0.17181469185E+02  0.17727360937E+03  0.17120000000E+03 0.  0.
        998    1    1    2    0    0  0.87051713621E+02 -0.61335275952E+02  0.11557089535E+04  0.11606477511E+04  0.10000000000E+02 0.  1.
</event>
<event>
 5    1  0.1334136E-008  0.3859544E+03  0.7957747E-01  0.3425634E+00
         13   -1    0    0    0    0  0.00000000000E+00  0.00000000000E+00  0.14999999963E+04  0.15000000000E+04  0.10566000000E+00 0.  1.
        994   -1    0    0    0    0 -0.00000000000E+00 -0.00000000000E+00  0.11368683772E-12  0.17120000000E+03  0.17120000000E+03 0.  0.
         13    1    1    2    0    0 -0.13497630473E+02  0.50490299193E+01  0.79239773653E+02  0.80539627663E+02  0.10566000000E+00 0.  1.
        994    1    1    2    0    0  0.23299953870E+02 -0.12612757132E+02  0.34618051067E+01  0.17327259907E+03  0.17120000000E+03 0.  0.
        998    1    1    2    0    0 -0.98023233973E+01  0.75637272125E+01  0.14172984175E+04  0.14173877733E+04  0.10000000000E+02 0.  1.
</event>
<event>
 5    1  0.1334136E-008  0.3818074E+03  0.7957747E-01  0.3443326E+00
         13   -1    0    0    0    0  0.00000000000E+00  0.00000000000E+00  0.14999999963E+04  0.15000000000E+04  0.10566000000E+00 0. -1.
        994   -1    0    0    0    0 -0.00000000000E+00 -0.00000000000E+00  0.11368683772E-12  0.17120000000E+03  0.17120000000E+03 0.  0.
         13    1    1    2    0    0 -0.64863612173E+01 -0.13200154969E+02  0.32166113609E+02  0.35369294618E+02  0.10566000000E+00 0. -1.
        994    1    1    2    0    0  0.42574972394E+01  0.11011134026E+02  0.36868185135E+01  0.17164615925E+03  0.17120000000E+03 0.  0.
        998    1    1    2    0    0  0.22288639778E+01  0.21890209433E+01  0.14641470642E+04  0.14641845461E+04  0.10000000000E+02 0. -1.
</event>
<event>
 5    1  0.1334136E-008  0.3839240E+03  0.7957747E-01  0.3434249E+00
         13   -1    0    0    0    0  0.00000000000E+00  0.00000000000E+00  0.14999999963E+04  0.15000000000E+04  0.10566000000E+00 0.  1.
        994   -1    0    0    0    0 -0.00000000000E+00 -0.00000000000E+00  0.11368683772E-12  0.17120000000E+03  0.17120000000E+03 0.  0.
         13    1    1    2    0    0 -0.22595942473E+02  0.14725482206E+02  0.15271533844E+03  0.15507869680E+03  0.10566000000E+00 0.  1.
        994    1    1    2    0    0  0.32077010488E+02 -0.13433060612E+01  0.55743476105E+01  0.17427349892E+03  0.17120000000E+03 0.  0.
        998    1    1    2    0    0 -0.94810680154E+01 -0.13382176144E+02  0.13417103102E+04  0.13418478043E+04  0.10000000000E+02 0.  1.
</event>
<event>
 5    1  0.1334136E-008  0.3844495E+03  0.7957747E-01  0.3432010E+00
         13   -1    0    0    0    0  0.00000000000E+00  0.00000000000E+00  0.14999999963E+04  0.15000000000E+04  0.10566000000E+00 0.  1.
        994   -1    0    0    0    0 -0.00000000000E+00 -0.00000000000E+00  0.11368683772E-12  0.17120000000E+03  0.17120000000E+03 0.  0.
         13    1    1    2    0    0 -0.75793941095E+01 -0.13952836764E+02  0.68460705381E+02  0.70278077763E+02  0.10566000000E+00 0.  1.
        994    1    1    2    0    0  0.15293135087E+02 -0.31388626083E+01  0.27070753666E+01  0.17193167450E+03  0.17120000000E+03 0.  0.
        998    1    1    2    0    0 -0.77137409772E+01  0.17091699372E+02  0.14288322155E+04  0.14289902477E+04  0.10000000000E+02 0.  1.
</event>
<event>
 5    1  0.1334136E-008  0.3819627E+03  0.7957747E-01  0.3442657E+00
         13   -1    0    0    0    0  0.00000000000E+00  0.00000000000E+00  0.14999999963E+04  0.15000000000E+04  0.10566000000E+00 0. -1.
        994   -1    0    0    0    0 -0.00000000000E+00 -0.00000000000E+00  0.11368683772E-12  0.17120000000E+03  0.17120000000E+03 0.  0.
         13    1    1    2    0    0 -0.13112224761E+02  0.88637162852E+00  0.26169760797E+02  0.29284528971E+02  0.10566000000E+00 0. -1.
        994    1    1    2    0    0  0.10188287387E+02  0.27641987041E+00  0.34907712067E+01  0.17153863440E+03  0.17120000000E+03 0.  0.
        998    1    1    2    0    0  0.29239373741E+01 -0.11627914989E+01  0.14703394643E+04  0.14703768366E+04  0.10000000000E+02 0. -1.
</event>
<event>
 5    1  0.1334136E-008  0.4309996E+03  0.7957747E-01  0.3255302E+00
         13   -1    0    0    0    0  0.00000000000E+00  0.00000000000E+00  0.14999999963E+04  0.15000000000E+04  0.10566000000E+00 0.  1.
        994   -1    0    0    0    0 -0.00000000000E+00 -0.00000000000E+00  0.11368683772E-12  0.17120000000E+03  0.17120000000E+03 0.  0.
         13    1    1    2    0    0  0.80224179836E+02  0.94855732827E+02  0.15045457274E+03  0.19511565469E+03  0.10566000000E+00 0.  1.
        994    1    1    2    0    0 -0.72398112083E+02 -0.57006018796E+02  0.87158382535E+02  0.21306617859E+03  0.17120000000E+03 0.  0.
        998    1    1    2    0    0 -0.78260677530E+01 -0.37849714031E+02  0.12623870410E+04  0.12630181667E+04  0.10000000000E+02 0.  1.
</event>
<event>
 5    1  0.1334136E-008  0.3838930E+03  0.7957747E-01  0.3434381E+00
         13   -1    0    0    0    0  0.00000000000E+00  0.00000000000E+00  0.14999999963E+04  0.15000000000E+04  0.10566000000E+00 0. -1.
        994   -1    0    0    0    0 -0.00000000000E+00 -0.00000000000E+00  0.11368683772E-12  0.17120000000E+03  0.17120000000E+03 0.  0.
         13    1    1    2    0    0  0.19730674100E+02  0.19277757370E+02  0.16647563385E+03  0.16874560516E+03  0.10566000000E+00 0. -1.
        994    1    1    2    0    0 -0.65866369125E+01 -0.24346017480E+02  0.42830560241E+01  0.17310082877E+03  0.17120000000E+03 0.  0.
        998    1    1    2    0    0 -0.13144037187E+02  0.50682601095E+01  0.13292413064E+04  0.13293535661E+04  0.10000000000E+02 0. -1.
</event>
<event>
 5    1  0.1334136E-008  0.3807678E+03  0.7957747E-01  0.3447822E+00
         13   -1    0    0    0    0  0.00000000000E+00  0.00000000000E+00  0.14999999963E+04  0.15000000000E+04  0.10566000000E+00 0.  1.
        994   -1    0    0    0    0 -0.00000000000E+00 -0.00000000000E+00  0.11368683772E-12  0.17120000000E+03  0.17120000000E+03 0.  0.
         13    1    1    2    0    0  0.18048647129E+02 -0.71620897222E+01  0.51811085975E+02  0.55330362247E+02  0.10566000000E+00 0.  1.
        994    1    1    2    0    0 -0.35124509503E+01 -0.12848031417E+02  0.43378468641E+01  0.17177213435E+03  0.17120000000E+03 0.  0.
        998    1    1    2    0    0 -0.14536196179E+02  0.20010121139E+02  0.14438510634E+04  0.14440975034E+04  0.10000000000E+02 0.  1.
</event>
<event>
 5    1  0.1334136E-008  0.3780275E+03  0.7957747E-01  0.3459792E+00
         13   -1    0    0    0    0  0.00000000000E+00  0.00000000000E+00  0.14999999963E+04  0.15000000000E+04  0.10566000000E+00 0. -1.
        994   -1    0    0    0    0 -0.00000000000E+00 -0.00000000000E+00  0.11368683772E-12  0.17120000000E+03  0.17120000000E+03 0.  0.
         13    1    1    2    0    0 -0.19866951276E+02  0.16094057994E+02  0.61997945060E+02  0.67063185216E+02  0.10566000000E+00 0. -1.
        994    1    1    2    0    0  0.52066730693E+01 -0.18008298064E+02  0.63155037626E+01  0.17233900844E+03  0.17120000000E+03 0.  0.
        998    1    1    2    0    0  0.14660278207E+02  0.19142400701E+01  0.14316865475E+04  0.14317978063E+04  0.10000000000E+02 0. -1.
</event>
<event>
 5    1  0.1334136E-008  0.3841021E+03  0.7957747E-01  0.3433489E+00
         13   -1    0    0    0    0  0.00000000000E+00  0.00000000000E+00  0.14999999963E+04  0.15000000000E+04  0.10566000000E+00 0.  1.
        994   -1    0    0    0    0 -0.00000000000E+00 -0.00000000000E+00  0.11368683772E-12  0.17120000000E+03  0.17120000000E+03 0.  0.
         13    1    1    2    0    0  0.75877725586E+01  0.95919297572E+01  0.35665150953E+02  0.37704025851E+02  0.10566000000E+00 0.  1.
        994    1    1    2    0    0 -0.77073383233E+01 -0.31259724892E+01  0.23047775075E+01  0.17141740509E+03  0.17120000000E+03 0.  0.
        998    1    1    2    0    0  0.11956576472E+00 -0.64659572680E+01  0.14620300678E+04  0.14620785691E+04  0.10000000000E+02 0.  1.
</event>
<event>
 5    1  0.1334136E-008  0.3835627E+03  0.7957747E-01  0.3435791E+00
         13   -1    0    0    0    0  0.00000000000E+00  0.00000000000E+00  0.14999999963E+04  0.15000000000E+04  0.10566000000E+00 0.  1.
        994   -1    0    0    0    0 -0.00000000000E+00 -0.00000000000E+00  0.11368683772E-12  0.17120000000E+03  0.17120000000E+03 0.  0.
         13    1    1    2    0    0 -0.31608965946E+01 -0.26433701198E+02  0.15485292296E+03  0.15712469806E+03  0.10566000000E+00 0.  1.
        994    1    1    2    0    0 -0.71453931542E+01  0.13636838723E+02  0.31289216160E+01  0.17191931295E+03  0.17120000000E+03 0.  0.
        998    1    1    2    0    0  0.10306289749E+02  0.12796862476E+02  0.13420181517E+04  0.13421559890E+04  0.10000000000E+02 0.  1.
</event>
<event>
 5    1  0.1334136E-008  0.3822632E+03  0.7957747E-01  0.3441363E+00
         13   -1    0    0    0    0  0.00000000000E+00  0.00000000000E+00  0.14999999963E+04  0.15000000000E+04  0.10566000000E+00 0.  1.
        994   -1    0    0    0    0 -0.00000000000E+00 -0.00000000000E+00  0.11368683772E-12  0.17120000000E+03  0.17120000000E+03 0.  0.
         13    1    1    2    0    0  0.99463074743E+01  0.14041274317E+02  0.48006997553E+02  0.50997739116E+02  0.10566000000E+00 0.  1.
        994    1    1    2    0    0 -0.24377475692E+01 -0.14755957007E+02  0.37375726970E+01  0.17189267096E+03  0.17120000000E+03 0.  0.
        998    1    1    2    0    0 -0.75085599051E+01  0.71468269068E+00  0.14482554260E+04  0.14483095899E+04  0.10000000000E+02 0.  1.
</event>
<event>
 5    1  0.1334136E-008  0.3759809E+03  0.7957747E-01  0.3468847E+00
         13   -1    0    0    0    0  0.00000000000E+00  0.00000000000E+00  0.14999999963E+04  0.15000000000E+04  0.10566000000E+00 0. -1.
        994   -1    0    0    0    0 -0.00000000000E+00 -0.00000000000E+00  0.11368683772E-12  0.17120000000E+03  0.17120000000E+03 0.  0.
         13    1    1    2    0    0  0.18057972154E+02 -0.33717489678E+02  0.11836476621E+03  0.12439127185E+03  0.10566000000E+00 0. -1.
        994    1    1    2    0    0 -0.53330171703E+02 -0.49864873374E+01  0.15958548059E+02  0.18009188634E+03  0.17120000000E+03 0.  0.
        998    1    1    2    0    0  0.35272199549E+02  0.38703977016E+02  0.13656766820E+04  0.13667168418E+04  0.10000000000E+02 0. -1.
</event>
<event>
 5    1  0.1793047E-008  0.3857747E+03  0.7957747E-01  0.3426393E+00
         13   -1    0    0    0    0  0.00000000000E+00  0.00000000000E+00  0.14999999963E+04  0.15000000000E+04  0.10566000000E+00 0. -1.
        994   -1    0    0    0    0 -0.00000000000E+00 -0.00000000000E+00  0.11368683772E-12  0.17120000000E+03  0.17120000000E+03 0.  0.
         13    1    1    2    0    0  0.13169716875E+02 -0.28872112986E+01  0.74520860953E+02  0.75730755396E+02  0.10566000000E+00 0. -1.
        994    1    1    2    0    0 -0.61385640828E+01  0.57482682403E+01  0.14780380251E+01  0.17141280335E+03  0.17120000000E+03 0.  0.
        998    1    1    2    0    0 -0.70311527925E+01 -0.28610569416E+01  0.14240010973E+04  0.14240564413E+04  0.10000000000E+02 0. -1.
</event>
<event>
 5    1  0.1334136E-008  0.3859316E+03  0.7957747E-01  0.3425731E+00
         13   -1    0    0    0    0  0.00000000000E+00  0.00000000000E+00  0.14999999963E+04  0.15000000000E+04  0.10566000000E+00 0.  1.
        994   -1    0    0    0    0 -0.00000000000E+00 -0.00000000000E+00  0.11368683772E-12  0.17120000000E+03  0.17120000000E+03 0.  0.
         13    1    1    2    0    0  0.81518710372E+01  0.82319530178E+01  0.57060451225E+02  0.58224774023E+02  0.10566000000E+00 0.  1.
        994    1    1    2    0    0 -0.14547303205E+02 -0.22128362653E+00  0.18626576629E+01  0.17182718787E+03  0.17120000000E+03 0.  0.
        998    1    1    2    0    0  0.63954321674E+01 -0.80106693913E+01  0.14410768874E+04  0.14411480381E+04  0.10000000000E+02 0.  1.
</event>
<event>
 5    1  0.1334136E-008  0.3696070E+03  0.7957747E-01  0.3497699E+00
         13   -1    0    0    0    0  0.00000000000E+00  0.00000000000E+00  0.14999999963E+04  0.15000000000E+04  0.10566000000E+00 0. -1.
        994   -1    0    0    0    0 -0.00000000000E+00 -0.00000000000E+00  0.11368683772E-12  0.17120000000E+03  0.17120000000E+03 0.  0.
         13    1    1    2    0    0 -0.75420226867E+02 -0.40502621270E+02  0.29626397307E+03  0.30838454217E+03  0.10566000000E+00 0. -1.
        994    1    1    2    0    0  0.76949094384E+02  0.48021979786E+02  0.38525990335E+02  0.19753725117E+03  0.17120000000E+03 0.  0.
        998    1    1    2    0    0 -0.15288675174E+01 -0.75193585158E+01  0.11652100329E+04  0.11652782067E+04  0.10000000000E+02 0. -1.
</event>
<event>
 5    1  0.1334136E-008  0.3816016E+03  0.7957747E-01  0.3444214E+00
         13   -1    0    0    0    0  0.00000000000E+00  0.00000000000E+00  0.14999999963E+04  0.15000000000E+04  0.10566000000E+00 0. -1.
        994   -1    0    0    0    0 -0.00000000000E+00 -0.00000000000E+00  0.11368683772E-12  0.17120000000E+03  0.17120000000E+03 0.  0.
         13    1    1    2    0    0 -0.95766043612E+01  0.54199480901E+01  0.16968087595E+02  0.20224103170E+02  0.10566000000E+00 0. -1.
        994    1    1    2    0    0  0.77315349806E+01  0.38373114104E+01  0.35746353444E+01  0.17145471592E+03  0.17120000000E+03 0.  0.
        998    1    1    2    0    0  0.18450693807E+01 -0.92572595005E+01  0.14794572733E+04  0.14795211809E+04  0.10000000000E+02 0. -1.
</event>
<event>
 5    1  0.1334136E-008  0.3831842E+03  0.7957747E-01  0.3437410E+00
         13   -1    0    0    0    0  0.00000000000E+00  0.00000000000E+00  0.14999999963E+04  0.15000000000E+04  0.10566000000E+00 0.  1.
        994   -1    0    0    0    0 -0.00000000000E+00 -0.00000000000E+00  0.11368683772E-12  0.17120000000E+03  0.17120000000E+03 0.  0.
         13    1    1    2    0    0  0.15445437850E+02  0.53531425965E+02  0.10072696339E+03  0.11510911099E+03  0.10566000000E+00 0.  1.
        994    1    1    2    0    0  0.73162574456E+02  0.21102723696E+02  0.39668968332E+02  0.19152324741E+03  0.17120000000E+03 0.  0.
        998    1    1    2    0    0 -0.88608012306E+02 -0.74634149661E+02  0.13596040646E+04  0.13645676416E+04  0.10000000000E+02 0.  1.
</event>
<event>
 5    1  0.1334136E-008  0.3790297E+03  0.7957747E-01  0.3455394E+00
         13   -1    0    0    0    0  0.00000000000E+00  0.00000000000E+00  0.14999999963E+04  0.15000000000E+04  0.10566000000E+00 0.  1.
        994   -1    0    0    0    0 -0.00000000000E+00 -0.00000000000E+00  0.11368683772E-12  0.17120000000E+03  0.17120000000E+03 0.  0.
         13    1    1    2    0    0 -0.49573663494E+01  0.25360334519E+02  0.59804387355E+02  0.65148276716E+02  0.10566000000E+00 0.  1.
        994    1    1    2    0    0  0.12811489437E+02 -0.57533094020E+02  0.16364616628E+02  0.18180052763E+03  0.17120000000E+03 0.  0.
        998    1    1    2    0    0 -0.78541230875E+01  0.32172759501E+02  0.14238309923E+04  0.14242511957E+04  0.10000000000E+02 0.  1.
</event>
<event>
 5    1  0.1334136E-008  0.3721416E+03  0.7957747E-01  0.3486106E+00
         13   -1    0    0    0    0  0.00000000000E+00  0.00000000000E+00  0.14999999963E+04  0.15000000000E+04  0.10566000000E+00 0.  1.
        994   -1    0    0    0    0 -0.00000000000E+00 -0.00000000000E+00  0.11368683772E-12  0.17120000000E+03  0.17120000000E+03 0.  0.
         13    1    1    2    0    0  0.47009357384E+02 -0.94907476795E+02  0.52652976552E+03  0.53707626458E+03  0.10566000000E+00 0.  1.
        994    1    1    2    0    0  0.54752787365E+01  0.56506687433E+02  0.23516499577E+02  0.18189406300E+03  0.17120000000E+03 0.  0.
        998    1    1    2    0    0 -0.52484636120E+02  0.38400789363E+02  0.94995373118E+03  0.95222967242E+03  0.10000000000E+02 0.  1.
</event>
<event>
 5    1  0.1334136E-008  0.3740161E+03  0.7957747E-01  0.3477635E+00
         13   -1    0    0    0    0  0.00000000000E+00  0.00000000000E+00  0.14999999963E+04  0.15000000000E+04  0.10566000000E+00 0.  1.
        994   -1    0    0    0    0 -0.00000000000E+00 -0.00000000000E+00  0.11368683772E-12  0.17120000000E+03  0.17120000000E+03 0.  0.
         13    1    1    2    0    0  0.21888834927E+02  0.63690046091E+02  0.26280703763E+03  0.27129890021E+03  0.10566000000E+00 0.  1.
        994    1    1    2    0    0 -0.19204225942E+02 -0.62370702137E+02  0.21851856589E+02  0.18451517665E+03  0.17120000000E+03 0.  0.
        998    1    1    2    0    0 -0.26846089849E+01 -0.13193439543E+01  0.12153411021E+04  0.12153859231E+04  0.10000000000E+02 0.  1.
</event>
<event>
 5    1  0.1334136E-008  0.3690323E+03  0.7957747E-01  0.3500350E+00
         13   -1    0    0    0    0  0.00000000000E+00  0.00000000000E+00  0.14999999963E+04  0.15000000000E+04  0.10566000000E+00 0.  1.
        994   -1    0    0    0    0 -0.00000000000E+00 -0.00000000000E+00  0.11368683772E-12  0.17120000000E+03  0.17120000000E+03 0.  0.
         13    1    1    2    0    0 -0.16908970718E+02 -0.15151414516E+01  0.91077192858E+01  0.19265789862E+02  0.10566000000E+00 0.  1.
        994    1    1    2    0    0  0.14922688363E+02  0.34047014485E+01  0.11244685533E+02  0.17225028758E+03  0.17120000000E+03 0.  0.
        998    1    1    2    0    0  0.19862823553E+01 -0.18895599969E+01  0.14796475915E+04  0.14796839226E+04  0.10000000000E+02 0.  1.
</event>
<event>
 5    1  0.1334136E-008  0.3748072E+03  0.7957747E-01  0.3474085E+00
         13   -1    0    0    0    0  0.00000000000E+00  0.00000000000E+00  0.14999999963E+04  0.15000000000E+04  0.10566000000E+00 0. -1.
        994   -1    0    0    0    0 -0.00000000000E+00 -0.00000000000E+00  0.11368683772E-12  0.17120000000E+03  0.17120000000E+03 0.  0.
         13    1    1    2    0    0  0.24975164652E+02  0.29066985767E+02  0.11104181196E+03  0.11746890516E+03  0.10566000000E+00 0. -1.
        994    1    1    2    0    0 -0.24926318180E+02  0.43123250606E+01  0.89574269925E+01  0.17329048729E+03  0.17120000000E+03 0.  0.
        998    1    1    2    0    0 -0.48846472375E-01 -0.33379310827E+02  0.13800007573E+04  0.13804406076E+04  0.10000000000E+02 0. -1.
</event>
<event>
 5    1  0.1334136E-008  0.3815243E+03  0.7957747E-01  0.3444548E+00
         13   -1    0    0    0    0  0.00000000000E+00  0.00000000000E+00  0.14999999963E+04  0.15000000000E+04  0.10566000000E+00 0. -1.
        994   -1    0    0    0    0 -0.00000000000E+00 -0.00000000000E+00  0.11368683772E-12  0.17120000000E+03  0.17120000000E+03 0.  0.
         13    1    1    2    0    0 -0.19217498441E+02 -0.13410097302E+02  0.79895080177E+02  0.83260902929E+02  0.10566000000E+00 0. -1.
        994    1    1    2    0    0  0.56667271979E+01  0.20156539906E+02  0.48251915511E+01  0.17254309714E+03  0.17120000000E+03 0.  0.
        998    1    1    2    0    0  0.13550771243E+02 -0.67464426040E+01  0.14152797246E+04  0.14153959999E+04  0.10000000000E+02 0. -1.
</event>
<event>
 5    1  0.1334136E-008  0.3746154E+03  0.7957747E-01  0.3474945E+00
         13   -1    0    0    0    0  0.00000000000E+00  0.00000000000E+00  0.14999999963E+04  0.15000000000E+04  0.10566000000E+00 0.  1.
        994   -1    0    0    0    0 -0.00000000000E+00 -0.00000000000E+00  0.11368683772E-12  0.17120000000E+03  0.17120000000E+03 0.  0.
         13    1    1    2    0    0 -0.48448022496E+02  0.33301957578E+02  0.24389131941E+03  0.25087689832E+03  0.10566000000E+00 0.  1.
        994    1    1    2    0    0  0.16645211949E+02 -0.42445644132E+02  0.13984569561E+02  0.17771804628E+03  0.17120000000E+03 0.  0.
        998    1    1    2    0    0  0.31802810547E+02  0.91436865531E+01  0.12421241073E+04  0.12426050554E+04  0.10000000000E+02 0.  1.
</event>
<event>
 5    1  0.1334136E-008  0.3822866E+03  0.7957747E-01  0.3441262E+00
         13   -1    0    0    0    0  0.00000000000E+00  0.00000000000E+00  0.14999999963E+04  0.15000000000E+04  0.10566000000E+00 0.  1.
        994   -1    0    0    0    0 -0.00000000000E+00 -0.00000000000E+00  0.11368683772E-12  0.17120000000E+03  0.17120000000E+03 0.  0.
         13    1    1    2    0    0  0.59304237304E+01 -0.15008571490E+02  0.44006947993E+02  0.46872697592E+02  0.10566000000E+00 0.  1.
        994    1    1    2    0    0 -0.80500980242E+01 -0.14065825743E-01  0.31983760040E+01  0.17141900095E+03  0.17120000000E+03 0.  0.
        998    1    1    2    0    0  0.21196742938E+01  0.15022637316E+02  0.14527946723E+04  0.14529083015E+04  0.10000000000E+02 0.  1.
</event>
<event>
 5    1  0.1334136E-008  0.3831871E+03  0.7957747E-01  0.3437397E+00
         13   -1    0    0    0    0  0.00000000000E+00  0.00000000000E+00  0.14999999963E+04  0.15000000000E+04  0.10566000000E+00 0.  1.
        994   -1    0    0    0    0 -0.00000000000E+00 -0.00000000000E+00  0.11368683772E-12  0.17120000000E+03  0.17120000000E+03 0.  0.
         13    1    1    2    0    0  0.17954513297E+02 -0.18753176223E+02  0.15650493972E+03  0.15864379435E+03  0.10566000000E+00 0.  1.
        994    1    1    2    0    0  0.74110184517E+01  0.10329005676E+01  0.27181235444E+01  0.17138500014E+03  0.17120000000E+03 0.  0.
        998    1    1    2    0    0 -0.25365531749E+02  0.17720275656E+02  0.13407769330E+04  0.13411712055E+04  0.10000000000E+02 0.  1.
</event>
<event>
 5    1  0.1334136E-008  0.3767740E+03  0.7957747E-01  0.3465326E+00
         13   -1    0    0    0    0  0.00000000000E+00  0.00000000000E+00  0.14999999963E+04  0.15000000000E+04  0.10566000000E+00 0.  1.
        994   -1    0    0    0    0 -0.00000000000E+00 -0.00000000000E+00  0.11368683772E-12  0.17120000000E+03  0.17120000000E+03 0.  0.
         13    1    1    2    0    0  0.27731879420E+02 -0.26707486930E+02  0.11524636710E+03  0.12150754416E+03  0.10566000000E+00 0.  1.
        994    1    1    2    0    0 -0.35659844074E+02  0.24410377258E+02  0.12106899995E+02  0.17698448527E+03  0.17120000000E+03 0.  0.
        998    1    1    2    0    0  0.79279646536E+01  0.22971096723E+01  0.13726467292E+04  0.13727079706E+04  0.10000000000E+02 0.  1.
</event>
<event>
 5    1  0.1334136E-008  0.3739652E+03  0.7957747E-01  0.3477864E+00
         13   -1    0    0    0    0  0.00000000000E+00  0.00000000000E+00  0.14999999963E+04  0.15000000000E+04  0.10566000000E+00 0.  1.
        994   -1    0    0    0    0 -0.00000000000E+00 -0.00000000000E+00  0.11368683772E-12  0.17120000000E+03  0.17120000000E+03 0.  0.
         13    1    1    2    0    0 -0.29091211330E+02  0.39129678583E+02  0.22850802586E+03  0.23365221884E+03  0.10566000000E+00 0.  1.
        994    1    1    2    0    0 -0.21203442013E-01  0.28882475134E+02  0.10061882389E+02  0.17391054970E+03  0.17120000000E+03 0.  0.
        998    1    1    2    0    0  0.29112414772E+02 -0.68012153716E+02  0.12614300880E+04  0.12636372315E+04  0.10000000000E+02 0.  1.
</event>
<event>
 5    1  0.1334136E-008  0.3848189E+03  0.7957747E-01  0.3430441E+00
         13   -1    0    0    0    0  0.00000000000E+00  0.00000000000E+00  0.14999999963E+04  0.15000000000E+04  0.10566000000E+00 0.  1.
        994   -1    0    0    0    0 -0.00000000000E+00 -0.00000000000E+00  0.11368683772E-12  0.17120000000E+03  0.17120000000E+03 0.  0.
         13    1    1    2    0    0  0.12416396218E+02  0.97389720280E+01  0.79731032925E+02  0.81277692182E+02  0.10566000000E+00 0.  1.
        994    1    1    2    0    0  0.68473350676E+00  0.51511188895E+01  0.18089474882E+01  0.17128839767E+03  0.17120000000E+03 0.  0.
        998    1    1    2    0    0 -0.13101129724E+02 -0.14890090917E+02  0.14184600159E+04  0.14186339101E+04  0.10000000000E+02 0.  1.
</event>
<event>
 5    1  0.1334136E-008  0.3848000E+03  0.7957747E-01  0.3430521E+00
         13   -1    0    0    0    0  0.00000000000E+00  0.00000000000E+00  0.14999999963E+04  0.15000000000E+04  0.10566000000E+00 0. -1.
        994   -1    0    0    0    0 -0.00000000000E+00 -0.00000000000E+00  0.11368683772E-12  0.17120000000E+03  0.17120000000E+03 0.  0.
         13    1    1    2    0    0 -0.90567433512E+01 -0.86746488368E+01  0.45987526537E+02  0.47666947601E+02  0.10566000000E+00 0. -1.
        994    1    1    2    0    0  0.66923768878E+00  0.72788257988E+01  0.19053075784E+01  0.17136656436E+03  0.17120000000E+03 0.  0.
        998    1    1    2    0    0  0.83875056624E+01  0.13958230380E+01  0.14521071622E+04  0.14521664880E+04  0.10000000000E+02 0. -1.
</event>
<event>
 5    1  0.1334136E-008  0.3735481E+03  0.7957747E-01  0.3479742E+00
         13   -1    0    0    0    0  0.00000000000E+00  0.00000000000E+00  0.14999999963E+04  0.15000000000E+04  0.10566000000E+00 0.  1.
        994   -1    0    0    0    0 -0.00000000000E+00 -0.00000000000E+00  0.11368683772E-12  0.17120000000E+03  0.17120000000E+03 0.  0.
         13    1    1    2    0    0  0.58616185090E+02 -0.10914698970E+02  0.18662500149E+03  0.19591807000E+03  0.10566000000E+00 0.  1.
        994    1    1    2    0    0  0.30204627661E+02 -0.28657169099E+02  0.18989361763E+02  0.17721057737E+03  0.17120000000E+03 0.  0.
        998    1    1    2    0    0 -0.88820812750E+02  0.39571868069E+02  0.12943856330E+04  0.12980713526E+04  0.10000000000E+02 0.  1.
</event>
<event>
 5    1  0.1334136E-008  0.3845094E+03  0.7957747E-01  0.3431755E+00
         13   -1    0    0    0    0  0.00000000000E+00  0.00000000000E+00  0.14999999963E+04  0.15000000000E+04  0.10566000000E+00 0.  1.
        994   -1    0    0    0    0 -0.00000000000E+00 -0.00000000000E+00  0.11368683772E-12  0.17120000000E+03  0.17120000000E+03 0.  0.
         13    1    1    2    0    0 -0.14714032881E+02 -0.48411169926E+01  0.63065501704E+02  0.64940032696E+02  0.10566000000E+00 0.  1.
        994    1    1    2    0    0  0.87622278726E+01  0.12462379225E+02  0.26387265036E+01  0.17189674346E+03  0.17120000000E+03 0.  0.
        998    1    1    2    0    0  0.59518050083E+01 -0.76212622320E+01  0.14342957681E+04  0.14343632238E+04  0.10000000000E+02 0.  1.
</event>
<event>
 5    1  0.1334136E-008  0.3707268E+03  0.7957747E-01  0.3492557E+00
         13   -1    0    0    0    0  0.00000000000E+00  0.00000000000E+00  0.14999999963E+04  0.15000000000E+04  0.10566000000E+00 0. -1.
        994   -1    0    0    0    0 -0.00000000000E+00 -0.00000000000E+00  0.11368683772E-12  0.17120000000E+03  0.17120000000E+03 0.  0.
         13    1    1    2    0    0  0.51577184361E+02  0.63672725574E+01  0.13615807100E+03  0.14573873736E+03  0.10566000000E+00 0. -1.
        994    1    1    2    0    0  0.78898467236E+01  0.67719236621E+01  0.11702650821E+02  0.17191422474E+03  0.17120000000E+03 0.  0.
        998    1    1    2    0    0 -0.59467031085E+02 -0.13139196219E+02  0.13521392745E+04  0.13535470379E+04  0.10000000000E+02 0. -1.
</event>
<event>
 5    1  0.1334136E-008  0.3855580E+03  0.7957747E-01  0.3427309E+00
         13   -1    0    0    0    0  0.00000000000E+00  0.00000000000E+00  0.14999999963E+04  0.15000000000E+04  0.10566000000E+00 0.  1.
        994   -1    0    0    0    0 -0.00000000000E+00 -0.00000000000E+00  0.11368683772E-12  0.17120000000E+03  0.17120000000E+03 0.  0.
         13    1    1    2    0    0  0.38414945076E+01  0.94920180641E+01  0.37507108870E+02  0.38879941703E+02  0.10566000000E+00 0.  1.
        994    1    1    2    0    0 -0.43317899100E+01 -0.13026822893E+02  0.19722810002E+01  0.17176085820E+03  0.17120000000E+03 0.  0.
        998    1    1    2    0    0  0.49029540233E+00  0.35348048284E+01  0.14605206064E+04  0.14605592001E+04  0.10000000000E+02 0.  1.
</event>
<event>
 5    1  0.1334136E-008  0.3854171E+03  0.7957747E-01  0.3427905E+00
         13   -1    0    0    0    0  0.00000000000E+00  0.00000000000E+00  0.14999999963E+04  0.15000000000E+04  0.10566000000E+00 0. -1.
        994   -1    0    0    0    0 -0.00000000000E+00 -0.00000000000E+00  0.11368683772E-12  0.17120000000E+03  0.17120000000E+03 0.  0.
         13    1    1    2    0    0 -0.52063505065E+01 -0.13681934514E+02  0.73309117317E+02  0.74756533250E+02  0.10566000000E+00 0. -1.
        994    1    1    2    0    0  0.73833432546E+01  0.12116656696E+02  0.20846626485E+01  0.17179963023E+03  0.17120000000E+03 0.  0.
        998    1    1    2    0    0 -0.21769927481E+01  0.15652778180E+01  0.14246062163E+04  0.14246438365E+04  0.10000000000E+02 0. -1.
</event>
<event>
 5    1  0.1334136E-008  0.3831193E+03  0.7957747E-01  0.3437688E+00
         13   -1    0    0    0    0  0.00000000000E+00  0.00000000000E+00  0.14999999963E+04  0.15000000000E+04  0.10566000000E+00 0. -1.
        994   -1    0    0    0    0 -0.00000000000E+00 -0.00000000000E+00  0.11368683772E-12  0.17120000000E+03  0.17120000000E+03 0.  0.
         13    1    1    2    0    0 -0.13856327121E+02 -0.73866556736E+01  0.46108853380E+02  0.48709321565E+02  0.10566000000E+00 0. -1.
        994    1    1    2    0    0  0.17580734742E+02  0.12190793364E+01  0.35950227468E+01  0.17214218709E+03  0.17120000000E+03 0.  0.
        998    1    1    2    0    0 -0.37244076216E+01  0.61675763372E+01  0.14502961202E+04  0.14503484913E+04  0.10000000000E+02 0. -1.
</event>
<event>
 5    1  0.1334136E-008  0.3819138E+03  0.7957747E-01  0.3442868E+00
         13   -1    0    0    0    0  0.00000000000E+00  0.00000000000E+00  0.14999999963E+04  0.15000000000E+04  0.10566000000E+00 0. -1.
        994   -1    0    0    0    0 -0.00000000000E+00 -0.00000000000E+00  0.11368683772E-12  0.17120000000E+03  0.17120000000E+03 0.  0.
         13    1    1    2    0    0  0.13780959919E+02  0.28301998667E+02  0.14943833503E+03  0.15271786118E+03  0.10566000000E+00 0. -1.
        994    1    1    2    0    0 -0.12625711944E+02 -0.20573735465E+02  0.51082190632E+01  0.17296884429E+03  0.17120000000E+03 0.  0.
        998    1    1    2    0    0 -0.11552479757E+01 -0.77282632024E+01  0.13454534422E+04  0.13455132945E+04  0.10000000000E+02 0. -1.
</event>
<event>
 5    1  0.1334136E-008  0.3802299E+03  0.7957747E-01  0.3450158E+00
         13   -1    0    0    0    0  0.00000000000E+00  0.00000000000E+00  0.14999999963E+04  0.15000000000E+04  0.10566000000E+00 0. -1.
        994   -1    0    0    0    0 -0.00000000000E+00 -0.00000000000E+00  0.11368683772E-12  0.17120000000E+03  0.17120000000E+03 0.  0.
         13    1    1    2    0    0  0.34106675114E+02  0.59264391330E+02  0.36483036480E+03  0.37118289240E+03  0.10566000000E+00 0. -1.
        994    1    1    2    0    0 -0.35861023666E+02 -0.78634843249E+02  0.29385220796E+02  0.19401644980E+03  0.17120000000E+03 0.  0.
        998    1    1    2    0    0  0.17543485523E+01  0.19370451919E+02  0.11057844107E+04  0.11060006578E+04  0.10000000000E+02 0. -1.
</event>
<event>
 5    1  0.1334136E-008  0.3840207E+03  0.7957747E-01  0.3433836E+00
         13   -1    0    0    0    0  0.00000000000E+00  0.00000000000E+00  0.14999999963E+04  0.15000000000E+04  0.10566000000E+00 0. -1.
        994   -1    0    0    0    0 -0.00000000000E+00 -0.00000000000E+00  0.11368683772E-12  0.17120000000E+03  0.17120000000E+03 0.  0.
         13    1    1    2    0    0 -0.12968767932E+02  0.11661177057E+02  0.71771970672E+02  0.73860672419E+02  0.10566000000E+00 0. -1.
        994    1    1    2    0    0  0.25267378654E+02  0.11453360275E+02  0.46603355027E+01  0.17349575964E+03  0.17120000000E+03 0.  0.
        998    1    1    2    0    0 -0.12298610723E+02 -0.23114537333E+02  0.14235676901E+04  0.14238435679E+04  0.10000000000E+02 0. -1.
</event>
<event>
 5    1  0.1334136E-008  0.3797516E+03  0.7957747E-01  0.3452241E+00
         13   -1    0    0    0    0  0.00000000000E+00  0.00000000000E+00  0.14999999963E+04  0.15000000000E+04  0.10566000000E+00 0.  1.
        994   -1    0    0    0    0 -0.00000000000E+00 -0.00000000000E+00  0.11368683772E-12  0.17120000000E+03  0.17120000000E+03 0.  0.
         13    1    1    2    0    0 -0.21093689344E+01  0.19418743022E+02  0.43045288353E+02  0.47269916768E+02  0.10566000000E+00 0.  1.
        994    1    1    2    0    0  0.25085066511E+02 -0.11173774261E+02  0.67857085743E+01  0.17352117921E+03  0.17120000000E+03 0.  0.
        998    1    1    2    0    0 -0.22975697577E+02 -0.82449687616E+01  0.14501689994E+04  0.14504089040E+04  0.10000000000E+02 0.  1.
</event>
<event>
 5    1  0.1334136E-008  0.3715766E+03  0.7957747E-01  0.3488676E+00
         13   -1    0    0    0    0  0.00000000000E+00  0.00000000000E+00  0.14999999963E+04  0.15000000000E+04  0.10566000000E+00 0. -1.
        994   -1    0    0    0    0 -0.00000000000E+00 -0.00000000000E+00  0.11368683772E-12  0.17120000000E+03  0.17120000000E+03 0.  0.
         13    1    1    2    0    0 -0.81948650026E+02 -0.29933667091E+01  0.23517584144E+03  0.24906270103E+03  0.10566000000E+00 0. -1.
        994    1    1    2    0    0  0.83546690543E+02  0.20384866009E+01  0.36750163195E+02  0.19402118292E+03  0.17120000000E+03 0.  0.
        998    1    1    2    0    0 -0.15980405170E+01  0.95488010819E+00  0.12280739916E+04  0.12281161160E+04  0.10000000000E+02 0. -1.
</event>
<event>
 5    1  0.1334136E-008  0.3779095E+03  0.7957747E-01  0.3460312E+00
         13   -1    0    0    0    0  0.00000000000E+00  0.00000000000E+00  0.14999999963E+04  0.15000000000E+04  0.10566000000E+00 0. -1.
        994   -1    0    0    0    0 -0.00000000000E+00 -0.00000000000E+00  0.11368683772E-12  0.17120000000E+03  0.17120000000E+03 0.  0.
         13    1    1    2    0    0  0.41094838997E+02 -0.13925625617E+02  0.15976053364E+03  0.16554802359E+03  0.10566000000E+00 0. -1.
        994    1    1    2    0    0 -0.55270699644E+02 -0.18108033025E+02  0.16664910280E+02  0.18157618328E+03  0.17120000000E+03 0.  0.
        998    1    1    2    0    0  0.14175860648E+02  0.32033658642E+02  0.13235745524E+04  0.13240757931E+04  0.10000000000E+02 0. -1.
</event>
<event>
 5    1  0.1334136E-008  0.4030685E+03  0.7957747E-01  0.3356479E+00
         13   -1    0    0    0    0  0.00000000000E+00  0.00000000000E+00  0.14999999963E+04  0.15000000000E+04  0.10566000000E+00 0. -1.
        994   -1    0    0    0    0 -0.00000000000E+00 -0.00000000000E+00  0.11368683772E-12  0.17120000000E+03  0.17120000000E+03 0.  0.
         13    1    1    2    0    0 -0.11294339616E+03  0.68805794392E+02  0.38979828320E+03  0.41162259513E+03  0.10566000000E+00 0. -1.
        994    1    1    2    0    0  0.33251514891E+02  0.81823405226E+01  0.34287358109E+02  0.17792604325E+03  0.17120000000E+03 0.  0.
        998    1    1    2    0    0  0.79691881268E+02 -0.76988134915E+02  0.10759143550E+04  0.10816513616E+04  0.10000000000E+02 0. -1.
</event>
<event>
 5    1  0.1334136E-008  0.3845958E+03  0.7957747E-01  0.3431388E+00
         13   -1    0    0    0    0  0.00000000000E+00  0.00000000000E+00  0.14999999963E+04  0.15000000000E+04  0.10566000000E+00 0.  1.
        994   -1    0    0    0    0 -0.00000000000E+00 -0.00000000000E+00  0.11368683772E-12  0.17120000000E+03  0.17120000000E+03 0.  0.
         13    1    1    2    0    0 -0.21697319378E+02  0.12699959228E+01  0.12061843400E+03  0.12256102293E+03  0.10566000000E+00 0.  1.
        994    1    1    2    0    0  0.21968115295E+02  0.44380295424E+01  0.34867423566E+01  0.17269595122E+03  0.17120000000E+03 0.  0.
        998    1    1    2    0    0 -0.27079591722E+00 -0.57080254652E+01  0.13758948199E+04  0.13759430258E+04  0.10000000000E+02 0.  1.
</event>
<event>
 5    1  0.1334136E-008  0.3825179E+03  0.7957747E-01  0.3440268E+00
         13   -1    0    0    0    0  0.00000000000E+00  0.00000000000E+00  0.14999999963E+04  0.15000000000E+04  0.10566000000E+00 0. -1.
        994   -1    0    0    0    0 -0.00000000000E+00 -0.00000000000E+00  0.11368683772E-12  0.17120000000E+03  0.17120000000E+03 0.  0.
         13    1    1    2    0    0 -0.13486092058E+02 -0.55266226613E+00  0.30752702004E+02  0.33584519636E+02  0.10566000000E+00 0. -1.
        994    1    1    2    0    0  0.90916624515E+01  0.28375027044E+01  0.31682715710E+01  0.17149398734E+03  0.17120000000E+03 0.  0.
        998    1    1    2    0    0  0.43944296065E+01 -0.22848404383E+01  0.14660790227E+04  0.14661214930E+04  0.10000000000E+02 0. -1.
</event>
<event>
 5    1  0.1334136E-008  0.3793056E+03  0.7957747E-01  0.3454188E+00
         13   -1    0    0    0    0  0.00000000000E+00  0.00000000000E+00  0.14999999963E+04  0.15000000000E+04  0.10566000000E+00 0. -1.
        994   -1    0    0    0    0 -0.00000000000E+00 -0.00000000000E+00  0.11368683772E-12  0.17120000000E+03  0.17120000000E+03 0.  0.
         13    1    1    2    0    0 -0.15100649353E+02  0.16070387157E+02  0.50313828052E+02  0.54934319068E+02  0.10566000000E+00 0. -1.
        994    1    1    2    0    0  0.17985625300E+02 -0.19030795129E+02  0.67848258810E+01  0.17332376566E+03  0.17120000000E+03 0.  0.
        998    1    1    2    0    0 -0.28849759479E+01  0.29604079719E+01  0.14429013423E+04  0.14429419153E+04  0.10000000000E+02 0.  0.
</event>
<event>
 5    1  0.1334136E-008  0.3701967E+03  0.7957747E-01  0.3494987E+00
         13   -1    0    0    0    0  0.00000000000E+00  0.00000000000E+00  0.14999999963E+04  0.15000000000E+04  0.10566000000E+00 0. -1.
        994   -1    0    0    0    0 -0.00000000000E+00 -0.00000000000E+00  0.11368683772E-12  0.17120000000E+03  0.17120000000E+03 0.  0.
         13    1    1    2    0    0  0.79060877557E+02 -0.26996797683E+02  0.39814896930E+03  0.40681944689E+03  0.10566000000E+00 0. -1.
        994    1    1    2    0    0 -0.42088045828E+02  0.53515808109E+01  0.15411717047E+02  0.17705085157E+03  0.17120000000E+03 0.  0.
        998    1    1    2    0    0 -0.36972831729E+02  0.21645216873E+02  0.10864393099E+04  0.10873297015E+04  0.10000000000E+02 0. -1.
</event>
<event>
 5    1  0.1334136E-008  0.3807394E+03  0.7957747E-01  0.3447945E+00
         13   -1    0    0    0    0  0.00000000000E+00  0.00000000000E+00  0.14999999963E+04  0.15000000000E+04  0.10566000000E+00 0.  1.
        994   -1    0    0    0    0 -0.00000000000E+00 -0.00000000000E+00  0.11368683772E-12  0.17120000000E+03  0.17120000000E+03 0.  0.
         13    1    1    2    0    0  0.49672274261E+01  0.34200522942E+02  0.13072045107E+03  0.13521167335E+03  0.10566000000E+00 0.  1.
        994    1    1    2    0    0 -0.13470381441E+02 -0.50273995182E+02  0.12847336284E+02  0.17939737963E+03  0.17120000000E+03 0.  0.
        998    1    1    2    0    0  0.85031540154E+01  0.16073472240E+02  0.13564322089E+04  0.13565909470E+04  0.10000000000E+02 0.  1.
</event>
<event>
 5    1  0.1334136E-008  0.3814753E+03  0.7957747E-01  0.3444760E+00
         13   -1    0    0    0    0  0.00000000000E+00  0.00000000000E+00  0.14999999963E+04  0.15000000000E+04  0.10566000000E+00 0.  1.
        994   -1    0    0    0    0 -0.00000000000E+00 -0.00000000000E+00  0.11368683772E-12  0.17120000000E+03  0.17120000000E+03 0.  0.
         13    1    1    2    0    0  0.69551260257E+01  0.13761157794E+02  0.34046296849E+02  0.37375188763E+02  0.10566000000E+00 0.  1.
        994    1    1    2    0    0 -0.10850893152E+02 -0.38484855225E+01  0.38313364367E+01  0.17162946094E+03  0.17120000000E+03 0.  0.
        998    1    1    2    0    0  0.38957671264E+01 -0.99126722716E+01  0.14621223630E+04  0.14621953503E+04  0.10000000000E+02 0.  1.
</event>
<event>
 5    1  0.1334136E-008  0.3815475E+03  0.7957747E-01  0.3444448E+00
         13   -1    0    0    0    0  0.00000000000E+00  0.00000000000E+00  0.14999999963E+04  0.15000000000E+04  0.10566000000E+00 0. -1.
        994   -1    0    0    0    0 -0.00000000000E+00 -0.00000000000E+00  0.11368683772E-12  0.17120000000E+03  0.17120000000E+03 0.  0.
         13    1    1    2    0    0 -0.44025049977E+02  0.21619240843E+02  0.28968878410E+03  0.29381150317E+03  0.10566000000E+00 0. -1.
        994    1    1    2    0    0  0.46947579439E+02 -0.17109905772E+02  0.11703159849E+02  0.17872668531E+03  0.17120000000E+03 0.  0.
        998    1    1    2    0    0 -0.29225294619E+01 -0.45093350706E+01  0.11986080523E+04  0.11986618115E+04  0.10000000000E+02 0.  0.
</event>
<event>
 5    1  0.1334136E-008  0.3721173E+03  0.7957747E-01  0.3486217E+00
         13   -1    0    0    0    0  0.00000000000E+00  0.00000000000E+00  0.14999999963E+04  0.15000000000E+04  0.10566000000E+00 0. -1.
        994   -1    0    0    0    0 -0.00000000000E+00 -0.00000000000E+00  0.11368683772E-12  0.17120000000E+03  0.17120000000E+03 0.  0.
         13    1    1    2    0    0 -0.15856274777E+02  0.17493903217E+02  0.31221729425E+02  0.39144164979E+02  0.10566000000E+00 0. -1.
        994    1    1    2    0    0  0.26998526515E+01 -0.12094682998E+02  0.86938858107E+01  0.17186795574E+03  0.17120000000E+03 0.  0.
        998    1    1    2    0    0  0.13156422126E+02 -0.53992202185E+01  0.14600843810E+04  0.14601878793E+04  0.10000000000E+02 0. -1.
</event>
<event>
 5    1  0.1334136E-008  0.3705545E+03  0.7957747E-01  0.3493346E+00
         13   -1    0    0    0    0  0.00000000000E+00  0.00000000000E+00  0.14999999963E+04  0.15000000000E+04  0.10566000000E+00 0.  1.
        994   -1    0    0    0    0 -0.00000000000E+00 -0.00000000000E+00  0.11368683772E-12  0.17120000000E+03  0.17120000000E+03 0.  0.
         13    1    1    2    0    0 -0.19108546093E+02  0.12994379865E+02  0.25868558444E+02  0.34686941662E+02  0.10566000000E+00 0.  1.
        994    1    1    2    0    0  0.11361496312E+01 -0.29836849366E+02  0.12062412200E+02  0.17420238289E+03  0.17120000000E+03 0.  0.
        998    1    1    2    0    0  0.17972396462E+02  0.16842469501E+02  0.14620690256E+04  0.14623106754E+04  0.10000000000E+02 0.  1.
</event>
<event>
 5    1  0.1334136E-008  0.3695352E+03  0.7957747E-01  0.3498030E+00
         13   -1    0    0    0    0  0.00000000000E+00  0.00000000000E+00  0.14999999963E+04  0.15000000000E+04  0.10566000000E+00 0.  1.
        994   -1    0    0    0    0 -0.00000000000E+00 -0.00000000000E+00  0.11368683772E-12  0.17120000000E+03  0.17120000000E+03 0.  0.
         13    1    1    2    0    0  0.15722638212E+02  0.25825350814E+02  0.42788767442E+02  0.52393128177E+02  0.10566000000E+00 0.  1.
        994    1    1    2    0    0 -0.17227842511E+02 -0.28479968737E+02  0.13358774048E+02  0.17491656303E+03  0.17120000000E+03 0.  0.
        998    1    1    2    0    0  0.15052042991E+01  0.26546179236E+01  0.14438524548E+04  0.14438903088E+04  0.10000000000E+02 0.  1.
</event>
<event>
 5    1  0.1334136E-008  0.3821597E+03  0.7957747E-01  0.3441808E+00
         13   -1    0    0    0    0  0.00000000000E+00  0.00000000000E+00  0.14999999963E+04  0.15000000000E+04  0.10566000000E+00 0.  1.
        994   -1    0    0    0    0 -0.00000000000E+00 -0.00000000000E+00  0.11368683772E-12  0.17120000000E+03  0.17120000000E+03 0.  0.
         13    1    1    2    0    0 -0.19188467312E+02 -0.11092613914E+02  0.80787597032E+02  0.83772849775E+02  0.10566000000E+00 0.  1.
        994    1    1    2    0    0  0.12167289005E+02  0.14426354136E+01  0.35453658878E+01  0.17167449938E+03  0.17120000000E+03 0.  0.
        998    1    1    2    0    0  0.70211783072E+01  0.96499785005E+01  0.14156670334E+04  0.14157526508E+04  0.10000000000E+02 0.  1.
</event>
<event>
 5    1  0.1334136E-008  0.4003251E+03  0.7957747E-01  0.3367168E+00
         13   -1    0    0    0    0  0.00000000000E+00  0.00000000000E+00  0.14999999963E+04  0.15000000000E+04  0.10566000000E+00 0. -1.
        994   -1    0    0    0    0 -0.00000000000E+00 -0.00000000000E+00  0.11368683772E-12  0.17120000000E+03  0.17120000000E+03 0.  0.
         13    1    1    2    0    0 -0.11467935931E+03 -0.15914029959E+02  0.23960370636E+03  0.26611005066E+03  0.10566000000E+00 0. -1.
        994    1    1    2    0    0  0.61388681041E+02  0.45034143211E+02  0.51074016675E+02  0.19420257309E+03  0.17120000000E+03 0.  0.
        998    1    1    2    0    0  0.53290678266E+02 -0.29120113252E+02  0.12093222732E+04  0.12108873762E+04  0.10000000000E+02 0. -1.
</event>
<event>
 5    1  0.1334136E-008  0.3845464E+03  0.7957747E-01  0.3431598E+00
         13   -1    0    0    0    0  0.00000000000E+00  0.00000000000E+00  0.14999999963E+04  0.15000000000E+04  0.10566000000E+00 0. -1.
        994   -1    0    0    0    0 -0.00000000000E+00 -0.00000000000E+00  0.11368683772E-12  0.17120000000E+03  0.17120000000E+03 0.  0.
         13    1    1    2    0    0 -0.77658149792E+01  0.12256820172E+02  0.58795250512E+02  0.60559311173E+02  0.10566000000E+00 0. -1.
        994    1    1    2    0    0 -0.40662224410E+01 -0.57462708631E+01  0.20187143520E+01  0.17135655517E+03  0.17120000000E+03 0.  0.
        998    1    1    2    0    0  0.11832037420E+02 -0.65105493089E+01  0.14391860314E+04  0.14392841337E+04  0.10000000000E+02 0. -1.
</event>
<event>
 5    1  0.1334136E-008  0.3794216E+03  0.7957747E-01  0.3453681E+00
         13   -1    0    0    0    0  0.00000000000E+00  0.00000000000E+00  0.14999999963E+04  0.15000000000E+04  0.10566000000E+00 0.  1.
        994   -1    0    0    0    0 -0.00000000000E+00 -0.00000000000E+00  0.11368683772E-12  0.17120000000E+03  0.17120000000E+03 0.  0.
         13    1    1    2    0    0  0.13440158960E+02  0.12054324452E+03  0.39616246696E+03  0.41431391850E+03  0.10566000000E+00 0.  1.
        994    1    1    2    0    0 -0.20503950863E+02 -0.91772279638E+02  0.48725885408E+02  0.20131123968E+03  0.17120000000E+03 0.  0.
        998    1    1    2    0    0  0.70637919030E+01 -0.28770964878E+02  0.10551116439E+04  0.10555748418E+04  0.10000000000E+02 0.  1.
</event>
<event>
 5    1  0.1334136E-008  0.3781745E+03  0.7957747E-01  0.3459146E+00
         13   -1    0    0    0    0  0.00000000000E+00  0.00000000000E+00  0.14999999963E+04  0.15000000000E+04  0.10566000000E+00 0.  1.
        994   -1    0    0    0    0 -0.00000000000E+00 -0.00000000000E+00  0.11368683772E-12  0.17120000000E+03  0.17120000000E+03 0.  0.
         13    1    1    2    0    0 -0.97977430017E+01  0.26228240000E+02  0.76729669210E+02  0.81678452743E+02  0.10566000000E+00 0.  1.
        994    1    1    2    0    0 -0.47228699391E+01 -0.16910245931E+02  0.60949135495E+01  0.17220583582E+03  0.17120000000E+03 0.  0.
        998    1    1    2    0    0  0.14520612941E+02 -0.93179940690E+01  0.14171754135E+04  0.14173157114E+04  0.10000000000E+02 0.  1.
</event>
<event>
 5    1  0.1334136E-008  0.3823956E+03  0.7957747E-01  0.3440793E+00
         13   -1    0    0    0    0  0.00000000000E+00  0.00000000000E+00  0.14999999963E+04  0.15000000000E+04  0.10566000000E+00 0.  1.
        994   -1    0    0    0    0 -0.00000000000E+00 -0.00000000000E+00  0.11368683772E-12  0.17120000000E+03  0.17120000000E+03 0.  0.
         13    1    1    2    0    0 -0.97229643481E+01 -0.63737205479E+01  0.21998763413E+02  0.24882063923E+02  0.10566000000E+00 0.  1.
        994    1    1    2    0    0  0.28712356198E+01  0.93336943019E+01  0.32450730036E+01  0.17150898618E+03  0.17120000000E+03 0.  0.
        998    1    1    2    0    0  0.68517287283E+01 -0.29599737540E+01  0.14747561599E+04  0.14748089499E+04  0.10000000000E+02 0.  1.
</event>
<event>
 5    1  0.1334136E-008  0.3727151E+03  0.7957747E-01  0.3483505E+00
         13   -1    0    0    0    0  0.00000000000E+00  0.00000000000E+00  0.14999999963E+04  0.15000000000E+04  0.10566000000E+00 0.  1.
        994   -1    0    0    0    0 -0.00000000000E+00 -0.00000000000E+00  0.11368683772E-12  0.17120000000E+03  0.17120000000E+03 0.  0.
         13    1    1    2    0    0  0.22364516809E+02 -0.13682965518E+02  0.40407198816E+02  0.48167915023E+02  0.10566000000E+00 0.  1.
        994    1    1    2    0    0 -0.15834684105E+02  0.11543418530E+02  0.91732661810E+01  0.17256180500E+03  0.17120000000E+03 0.  0.
        998    1    1    2    0    0 -0.65298327037E+01  0.21395469888E+01  0.14504195313E+04  0.14504702800E+04  0.10000000000E+02 0.  1.
</event>
<event>
 5    1  0.1334136E-008  0.3767638E+03  0.7957747E-01  0.3465372E+00
         13   -1    0    0    0    0  0.00000000000E+00  0.00000000000E+00  0.14999999963E+04  0.15000000000E+04  0.10566000000E+00 0.  1.
        994   -1    0    0    0    0 -0.00000000000E+00 -0.00000000000E+00  0.11368683772E-12  0.17120000000E+03  0.17120000000E+03 0.  0.
         13    1    1    2    0    0 -0.16708326207E+02  0.59345597849E+01  0.24527331333E+02  0.30265298790E+02  0.10566000000E+00 0.  1.
        994    1    1    2    0    0  0.14443888672E+02 -0.85810223384E+01  0.67301203537E+01  0.17215398451E+03  0.17120000000E+03 0.  0.
        998    1    1    2    0    0  0.22644375350E+01  0.26464625535E+01  0.14687425446E+04  0.14687807167E+04  0.10000000000E+02 0.  1.
</event>
<event>
 5    1  0.1334136E-008  0.3807939E+03  0.7957747E-01  0.3447709E+00
         13   -1    0    0    0    0  0.00000000000E+00  0.00000000000E+00  0.14999999963E+04  0.15000000000E+04  0.10566000000E+00 0.  1.
        994   -1    0    0    0    0 -0.00000000000E+00 -0.00000000000E+00  0.11368683772E-12  0.17120000000E+03  0.17120000000E+03 0.  0.
         13    1    1    2    0    0  0.18147942176E+02  0.15255183511E+02  0.72565430153E+02  0.76340167976E+02  0.10566000000E+00 0.  1.
        994    1    1    2    0    0 -0.88063289170E+01 -0.19321694649E+02  0.52376702484E+01  0.17259128745E+03  0.17120000000E+03 0.  0.
        998    1    1    2    0    0 -0.93416132589E+01  0.40665111375E+01  0.14221968959E+04  0.14222685446E+04  0.10000000000E+02 0.  1.
</event>
<event>
 5    1  0.1334136E-008  0.3849030E+03  0.7957747E-01  0.3430084E+00
         13   -1    0    0    0    0  0.00000000000E+00  0.00000000000E+00  0.14999999963E+04  0.15000000000E+04  0.10566000000E+00 0.  1.
        994   -1    0    0    0    0 -0.00000000000E+00 -0.00000000000E+00  0.11368683772E-12  0.17120000000E+03  0.17120000000E+03 0.  0.
         13    1    1    2    0    0 -0.24049925758E+01 -0.15058761030E+02  0.67255169037E+02  0.68962447747E+02  0.10566000000E+00 0.  1.
        994    1    1    2    0    0 -0.40463419017E+01  0.15522836991E+02  0.25253113940E+01  0.17196845219E+03  0.17120000000E+03 0.  0.
        998    1    1    2    0    0  0.64513344775E+01 -0.46407596172E+00  0.14302195158E+04  0.14302691001E+04  0.10000000000E+02 0.  1.
</event>
<event>
 5    1  0.1334136E-008  0.3832347E+03  0.7957747E-01  0.3437194E+00
         13   -1    0    0    0    0  0.00000000000E+00  0.00000000000E+00  0.14999999963E+04  0.15000000000E+04  0.10566000000E+00 0. -1.
        994   -1    0    0    0    0 -0.00000000000E+00 -0.00000000000E+00  0.11368683772E-12  0.17120000000E+03  0.17120000000E+03 0.  0.
         13    1    1    2    0    0 -0.89538621308E+01  0.15627849916E+02  0.61924332695E+02  0.64490584458E+02  0.10566000000E+00 0. -1.
        994    1    1    2    0    0  0.36368268322E+02 -0.81290221801E+00  0.68984207377E+01  0.17515804281E+03  0.17120000000E+03 0.  0.
        998    1    1    2    0    0 -0.27414406191E+02 -0.14814947698E+02  0.14311772428E+04  0.14315513727E+04  0.10000000000E+02 0. -1.
</event>
<event>
 5    1  0.1334136E-008  0.3807853E+03  0.7957747E-01  0.3447746E+00
         13   -1    0    0    0    0  0.00000000000E+00  0.00000000000E+00  0.14999999963E+04  0.15000000000E+04  0.10566000000E+00 0.  1.
        994   -1    0    0    0    0 -0.00000000000E+00 -0.00000000000E+00  0.11368683772E-12  0.17120000000E+03  0.17120000000E+03 0.  0.
         13    1    1    2    0    0  0.25807666404E+03 -0.14991042213E+02  0.10293059286E+04  0.10612723504E+04  0.10566000000E+00 0.  1.
        994    1    1    2    0    0 -0.26774745134E+03  0.43378853447E+02  0.30971406860E+03  0.44587292687E+03  0.17120000000E+03 0.  0.
        998    1    1    2    0    0  0.96707872939E+01 -0.28387811234E+02  0.16097999909E+03  0.16405472276E+03  0.10000000000E+02 0. -1.
</event>
<event>
 5    1  0.1334136E-008  0.3752441E+03  0.7957747E-01  0.3472132E+00
         13   -1    0    0    0    0  0.00000000000E+00  0.00000000000E+00  0.14999999963E+04  0.15000000000E+04  0.10566000000E+00 0.  1.
        994   -1    0    0    0    0 -0.00000000000E+00 -0.00000000000E+00  0.11368683772E-12  0.17120000000E+03  0.17120000000E+03 0.  0.
         13    1    1    2    0    0  0.16811386215E+01  0.34430797493E+02  0.38645771492E+02  0.51786222698E+02  0.10566000000E+00 0.  1.
        994    1    1    2    0    0 -0.18515394752E+02 -0.15308774708E+02  0.15797237033E+02  0.17359772788E+03  0.17120000000E+03 0.  0.
        998    1    1    2    0    0  0.16834256131E+02 -0.19122022785E+02  0.14455569878E+04  0.14458160494E+04  0.10000000000E+02 0.  1.
</event>
<event>
 5    1  0.1334136E-008  0.3823954E+03  0.7957747E-01  0.3440794E+00
         13   -1    0    0    0    0  0.00000000000E+00  0.00000000000E+00  0.14999999963E+04  0.15000000000E+04  0.10566000000E+00 0.  1.
        994   -1    0    0    0    0 -0.00000000000E+00 -0.00000000000E+00  0.11368683772E-12  0.17120000000E+03  0.17120000000E+03 0.  0.
         13    1    1    2    0    0  0.14009529612E+02  0.41992525355E+01  0.36417020212E+02  0.39244250114E+02  0.10566000000E+00 0.  1.
        994    1    1    2    0    0 -0.42975539583E+01  0.35517886432E+01  0.30319043002E+01  0.17131758992E+03  0.17120000000E+03 0.  0.
        998    1    1    2    0    0 -0.97119756535E+01 -0.77510411787E+01  0.14605510718E+04  0.14606381600E+04  0.10000000000E+02 0.  1.
</event>
<event>
 5    1  0.1334136E-008  0.3799178E+03  0.7957747E-01  0.3451517E+00
         13   -1    0    0    0    0  0.00000000000E+00  0.00000000000E+00  0.14999999963E+04  0.15000000000E+04  0.10566000000E+00 0. -1.
        994   -1    0    0    0    0 -0.00000000000E+00 -0.00000000000E+00  0.11368683772E-12  0.17120000000E+03  0.17120000000E+03 0.  0.
         13    1    1    2    0    0  0.20717217213E+02  0.84719855660E+00  0.52129803932E+02  0.56102125241E+02  0.10566000000E+00 0. -1.
        994    1    1    2    0    0 -0.23881338721E+01  0.36249120998E+01  0.42376743175E+01  0.17130744600E+03  0.17120000000E+03 0.  0.
        998    1    1    2    0    0 -0.18329083341E+02 -0.44721106564E+01  0.14436325180E+04  0.14437904288E+04  0.10000000000E+02 0. -1.
</event>
<event>
 5    1  0.1334136E-008  0.3798162E+03  0.7957747E-01  0.3451959E+00
         13   -1    0    0    0    0  0.00000000000E+00  0.00000000000E+00  0.14999999963E+04  0.15000000000E+04  0.10566000000E+00 0.  1.
        994   -1    0    0    0    0 -0.00000000000E+00 -0.00000000000E+00  0.11368683772E-12  0.17120000000E+03  0.17120000000E+03 0.  0.
         13    1    1    2    0    0  0.22808068704E+02 -0.20117834651E+02  0.12502066461E+03  0.12866667405E+03  0.10566000000E+00 0.  1.
        994    1    1    2    0    0 -0.12471567966E+02 -0.23510138009E+02  0.65986628590E+01  0.17338180109E+03  0.17120000000E+03 0.  0.
        998    1    1    2    0    0 -0.10336500738E+02  0.43627972660E+02  0.13683806688E+04  0.13691515249E+04  0.10000000000E+02 0.  1.
</event>
<event>
 5    1  0.1334136E-008  0.3815250E+03  0.7957747E-01  0.3444545E+00
         13   -1    0    0    0    0  0.00000000000E+00  0.00000000000E+00  0.14999999963E+04  0.15000000000E+04  0.10566000000E+00 0. -1.
        994   -1    0    0    0    0 -0.00000000000E+00 -0.00000000000E+00  0.11368683772E-12  0.17120000000E+03  0.17120000000E+03 0.  0.
         13    1    1    2    0    0 -0.23554747219E+02  0.10559391399E+02  0.90775031300E+02  0.94373960046E+02  0.10566000000E+00 0. -1.
        994    1    1    2    0    0  0.31230001438E+02 -0.40264167308E+01  0.66702642416E+01  0.17419947602E+03  0.17120000000E+03 0.  0.
        998    1    1    2    0    0 -0.76752542198E+01 -0.65329746687E+01  0.14025547007E+04  0.14026265639E+04  0.10000000000E+02 0. -1.
</event>
<event>
 5    1  0.1334136E-008  0.3801136E+03  0.7957747E-01  0.3450664E+00
         13   -1    0    0    0    0  0.00000000000E+00  0.00000000000E+00  0.14999999963E+04  0.15000000000E+04  0.10566000000E+00 0.  1.
        994   -1    0    0    0    0 -0.00000000000E+00 -0.00000000000E+00  0.11368683772E-12  0.17120000000E+03  0.17120000000E+03 0.  0.
         13    1    1    2    0    0  0.68060579937E+00 -0.11790583245E+02  0.15170463978E+02  0.19225899689E+02  0.10566000000E+00 0.  1.
        994    1    1    2    0    0 -0.17380075550E+01  0.13477806306E+02  0.46931642682E+01  0.17180261268E+03  0.17120000000E+03 0.  0.
        998    1    1    2    0    0  0.10574017556E+01 -0.16872230611E+01  0.14801363680E+04  0.14801714876E+04  0.10000000000E+02 0.  1.
</event>
<event>
 5    1  0.1334136E-008  0.3776458E+03  0.7957747E-01  0.3461474E+00
         13   -1    0    0    0    0  0.00000000000E+00  0.00000000000E+00  0.14999999963E+04  0.15000000000E+04  0.10566000000E+00 0. -1.
        994   -1    0    0    0    0 -0.00000000000E+00 -0.00000000000E+00  0.11368683772E-12  0.17120000000E+03  0.17120000000E+03 0.  0.
         13    1    1    2    0    0 -0.18684382796E+02 -0.34918213748E+02  0.19786449565E+03  0.20178889369E+03  0.10566000000E+00 0. -1.
        994    1    1    2    0    0  0.19943764190E+01 -0.25159882929E+02  0.74754010376E+01  0.17321177462E+03  0.17120000000E+03 0.  0.
        998    1    1    2    0    0  0.16690006377E+02  0.60078096677E+02  0.12946600996E+04  0.12961993317E+04  0.10000000000E+02 0. -1.
</event>
<event>
 5    1  0.1334136E-008  0.3819810E+03  0.7957747E-01  0.3442578E+00
         13   -1    0    0    0    0  0.00000000000E+00  0.00000000000E+00  0.14999999963E+04  0.15000000000E+04  0.10566000000E+00 0. -1.
        994   -1    0    0    0    0 -0.00000000000E+00 -0.00000000000E+00  0.11368683772E-12  0.17120000000E+03  0.17120000000E+03 0.  0.
         13    1    1    2    0    0  0.18618215392E+02  0.29187061581E+02  0.17375746531E+03  0.17717276999E+03  0.10566000000E+00 0. -1.
        994    1    1    2    0    0 -0.33008351674E+02 -0.17475648945E+02  0.77832094709E+01  0.17539945250E+03  0.17120000000E+03 0.  0.
        998    1    1    2    0    0  0.14390136282E+02 -0.11711412636E+02  0.13184593215E+04  0.13186277775E+04  0.10000000000E+02 0. -1.
</event>
<event>
 5    1  0.1334136E-008  0.3815180E+03  0.7957747E-01  0.3444575E+00
         13   -1    0    0    0    0  0.00000000000E+00  0.00000000000E+00  0.14999999963E+04  0.15000000000E+04  0.10566000000E+00 0.  1.
        994   -1    0    0    0    0 -0.00000000000E+00 -0.00000000000E+00  0.11368683772E-12  0.17120000000E+03  0.17120000000E+03 0.  0.
         13    1    1    2    0    0 -0.48918355591E+02  0.22186834030E+02  0.32412654842E+03  0.32854724420E+03  0.10566000000E+00 0.  1.
        994    1    1    2    0    0  0.52571167281E+02 -0.23269170761E+02  0.14441688246E+02  0.18117169839E+03  0.17120000000E+03 0.  0.
        998    1    1    2    0    0 -0.36528116903E+01  0.10823367309E+01  0.11614317596E+04  0.11614810574E+04  0.10000000000E+02 0.  0.
</event>
<event>
 5    1  0.1334136E-008  0.3845229E+03  0.7957747E-01  0.3431698E+00
         13   -1    0    0    0    0  0.00000000000E+00  0.00000000000E+00  0.14999999963E+04  0.15000000000E+04  0.10566000000E+00 0. -1.
        994   -1    0    0    0    0 -0.00000000000E+00 -0.00000000000E+00  0.11368683772E-12  0.17120000000E+03  0.17120000000E+03 0.  0.
         13    1    1    2    0    0  0.93396477439E+01 -0.81688724274E+01  0.40286893758E+02  0.42154530829E+02  0.10566000000E+00 0. -1.
        994    1    1    2    0    0 -0.58216435537E+01  0.10930697865E+02  0.23725480747E+01  0.17166374304E+03  0.17120000000E+03 0.  0.
        998    1    1    2    0    0 -0.35180041902E+01 -0.27618254372E+01  0.14573405544E+04  0.14573817261E+04  0.10000000000E+02 0. -1.
</event>
<event>
 5    1  0.1334136E-008  0.3841303E+03  0.7957747E-01  0.3433369E+00
         13   -1    0    0    0    0  0.00000000000E+00  0.00000000000E+00  0.14999999963E+04  0.15000000000E+04  0.10566000000E+00 0.  1.
        994   -1    0    0    0    0 -0.00000000000E+00 -0.00000000000E+00  0.11368683772E-12  0.17120000000E+03  0.17120000000E+03 0.  0.
         13    1    1    2    0    0  0.11145659225E+02 -0.13268766929E+01  0.29820497690E+02  0.31863138073E+02  0.10566000000E+00 0.  1.
        994    1    1    2    0    0 -0.89859361131E+01  0.16410051383E+01  0.23377786230E+01  0.17145945630E+03  0.17120000000E+03 0.  0.
        998    1    1    2    0    0 -0.21597231122E+01 -0.31412844540E+00  0.14678417200E+04  0.14678774056E+04  0.10000000000E+02 0.  1.
</event>
<event>
 5    1  0.1334136E-008  0.3740800E+03  0.7957747E-01  0.3477348E+00
         13   -1    0    0    0    0  0.00000000000E+00  0.00000000000E+00  0.14999999963E+04  0.15000000000E+04  0.10566000000E+00 0. -1.
        994   -1    0    0    0    0 -0.00000000000E+00 -0.00000000000E+00  0.11368683772E-12  0.17120000000E+03  0.17120000000E+03 0.  0.
         13    1    1    2    0    0  0.49453151516E+02  0.14764991460E+02  0.16641302835E+03  0.17423239175E+03  0.10566000000E+00 0. -1.
        994    1    1    2    0    0 -0.48883581658E+02 -0.89605450955E+01  0.15620886696E+02  0.17895068602E+03  0.17120000000E+03 0.  0.
        998    1    1    2    0    0 -0.56956985833E+00 -0.58044463648E+01  0.13179660812E+04  0.13180169222E+04  0.10000000000E+02 0. -1.
</event>
<event>
 5    1  0.1334136E-008  0.3797782E+03  0.7957747E-01  0.3452125E+00
         13   -1    0    0    0    0  0.00000000000E+00  0.00000000000E+00  0.14999999963E+04  0.15000000000E+04  0.10566000000E+00 0. -1.
        994   -1    0    0    0    0 -0.00000000000E+00 -0.00000000000E+00  0.11368683772E-12  0.17120000000E+03  0.17120000000E+03 0.  0.
         13    1    1    2    0    0  0.72064435650E+01  0.99500852731E+01  0.16019589551E+02  0.20188497696E+02  0.10566000000E+00 0. -1.
        994    1    1    2    0    0 -0.37735354749E+01 -0.63226884881E+01  0.44265591456E+01  0.17141543217E+03  0.17120000000E+03 0.  0.
        998    1    1    2    0    0 -0.34329080901E+01 -0.36273967850E+01  0.14795538476E+04  0.14795960701E+04  0.10000000000E+02 0. -1.
</event>
<event>
 5    1  0.1334136E-008  0.4345061E+03  0.7957747E-01  0.3243502E+00
         13   -1    0    0    0    0  0.00000000000E+00  0.00000000000E+00  0.14999999963E+04  0.15000000000E+04  0.10566000000E+00 0. -1.
        994   -1    0    0    0    0 -0.00000000000E+00 -0.00000000000E+00  0.11368683772E-12  0.17120000000E+03  0.17120000000E+03 0.  0.
         13    1    1    2    0    0  0.51405876231E+02 -0.40728892689E+02  0.23836658092E+02  0.69782549708E+02  0.10566000000E+00 0. -1.
        994    1    1    2    0    0 -0.70617885086E+02  0.37341490170E+02  0.80128257581E+02  0.20521025863E+03  0.17120000000E+03 0.  0.
        998    1    1    2    0    0  0.19212008855E+02  0.33874025185E+01  0.13960350806E+04  0.13962071917E+04  0.10000000000E+02 0. -1.
</event>
<event>
 5    1  0.1334136E-008  0.3799191E+03  0.7957747E-01  0.3451511E+00
         13   -1    0    0    0    0  0.00000000000E+00  0.00000000000E+00  0.14999999963E+04  0.15000000000E+04  0.10566000000E+00 0.  1.
        994   -1    0    0    0    0 -0.00000000000E+00 -0.00000000000E+00  0.11368683772E-12  0.17120000000E+03  0.17120000000E+03 0.  0.
         13    1    1    2    0    0 -0.28115599661E+02  0.16405160937E+02  0.26305678362E+02  0.41852313291E+02  0.10566000000E+00 0.  1.
        994    1    1    2    0    0  0.45048721977E+02  0.50058401857E+02  0.32900892308E+02  0.18688804045E+03  0.17120000000E+03 0.  0.
        998    1    1    2    0    0 -0.16933122316E+02 -0.66463562794E+02  0.14407934256E+04  0.14424596463E+04  0.10000000000E+02 0.  1.
</event>
<event>
 5    1  0.1334136E-008  0.3825828E+03  0.7957747E-01  0.3439989E+00
         13   -1    0    0    0    0  0.00000000000E+00  0.00000000000E+00  0.14999999963E+04  0.15000000000E+04  0.10566000000E+00 0. -1.
        994   -1    0    0    0    0 -0.00000000000E+00 -0.00000000000E+00  0.11368683772E-12  0.17120000000E+03  0.17120000000E+03 0.  0.
         13    1    1    2    0    0  0.10981818897E+02  0.45067360784E+01  0.24029825221E+02  0.26802139477E+02  0.10566000000E+00 0. -1.
        994    1    1    2    0    0 -0.45806010462E+01 -0.27391477425E+01  0.29294428147E+01  0.17130822068E+03  0.17120000000E+03 0.  0.
        998    1    1    2    0    0 -0.64012178509E+01 -0.17675883359E+01  0.14730407282E+04  0.14730896398E+04  0.10000000000E+02 0. -1.
</event>
<event>
 5    1  0.1334136E-008  0.3804109E+03  0.7957747E-01  0.3449371E+00
         13   -1    0    0    0    0  0.00000000000E+00  0.00000000000E+00  0.14999999963E+04  0.15000000000E+04  0.10566000000E+00 0. -1.
        994   -1    0    0    0    0 -0.00000000000E+00 -0.00000000000E+00  0.11368683772E-12  0.17120000000E+03  0.17120000000E+03 0.  0.
         13    1    1    2    0    0 -0.46289096324E+01  0.12327246518E+02  0.20285244228E+02  0.24184501412E+02  0.10566000000E+00 0. -1.
        994    1    1    2    0    0  0.70900550040E+01 -0.10566968530E+02  0.44666199614E+01  0.17173037122E+03  0.17120000000E+03 0.  0.
        998    1    1    2    0    0 -0.24611453716E+01 -0.17602779877E+01  0.14752481321E+04  0.14752851274E+04  0.10000000000E+02 0. -1.
</event>
<event>
 5    1  0.1334136E-008  0.3753409E+03  0.7957747E-01  0.3471700E+00
         13   -1    0    0    0    0  0.00000000000E+00  0.00000000000E+00  0.14999999963E+04  0.15000000000E+04  0.10566000000E+00 0.  1.
        994   -1    0    0    0    0 -0.00000000000E+00 -0.00000000000E+00  0.11368683772E-12  0.17120000000E+03  0.17120000000E+03 0.  0.
         13    1    1    2    0    0 -0.29422797773E+02 -0.40635589942E+02  0.84847273829E+02  0.98569890124E+02  0.10566000000E+00 0.  1.
        994    1    1    2    0    0  0.23857934979E+02  0.31188152974E+02  0.19304670470E+02  0.17670317555E+03  0.17120000000E+03 0.  0.
        998    1    1    2    0    0  0.55648627939E+01  0.94474369680E+01  0.13958480520E+04  0.13959269343E+04  0.10000000000E+02 0.  1.
</event>
<event>
 5    1  0.1334136E-008  0.3845657E+03  0.7957747E-01  0.3431516E+00
         13   -1    0    0    0    0  0.00000000000E+00  0.00000000000E+00  0.14999999963E+04  0.15000000000E+04  0.10566000000E+00 0. -1.
        994   -1    0    0    0    0 -0.00000000000E+00 -0.00000000000E+00  0.11368683772E-12  0.17120000000E+03  0.17120000000E+03 0.  0.
         13    1    1    2    0    0  0.10358172336E+02  0.38036165954E+01  0.32350450255E+02  0.34180725988E+02  0.10566000000E+00 0. -1.
        994    1    1    2    0    0 -0.47742372059E+01 -0.14279678785E+02  0.25928761676E+01  0.17188038159E+03  0.17120000000E+03 0.  0.
        998    1    1    2    0    0 -0.55839351304E+01  0.10476062189E+02  0.14650566699E+04  0.14651388924E+04  0.10000000000E+02 0. -1.
</event>
<event>
 5    1  0.1334136E-008  0.3829833E+03  0.7957747E-01  0.3438270E+00
         13   -1    0    0    0    0  0.00000000000E+00  0.00000000000E+00  0.14999999963E+04  0.15000000000E+04  0.10566000000E+00 0.  1.
        994   -1    0    0    0    0 -0.00000000000E+00 -0.00000000000E+00  0.11368683772E-12  0.17120000000E+03  0.17120000000E+03 0.  0.
         13    1    1    2    0    0 -0.15635966002E+02 -0.54539509778E+01  0.51501222351E+02  0.54098207750E+02  0.10566000000E+00 0.  1.
        994    1    1    2    0    0  0.75346995380E+01  0.83080349586E+01  0.30512209761E+01  0.17159412895E+03  0.17120000000E+03 0.  0.
        998    1    1    2    0    0  0.81012664643E+01 -0.28540839809E+01  0.14454475530E+04  0.14455076633E+04  0.10000000000E+02 0.  1.
</event>
<event>
 5    1  0.1334136E-008  0.3826085E+03  0.7957747E-01  0.3439879E+00
         13   -1    0    0    0    0  0.00000000000E+00  0.00000000000E+00  0.14999999963E+04  0.15000000000E+04  0.10566000000E+00 0.  1.
        994   -1    0    0    0    0 -0.00000000000E+00 -0.00000000000E+00  0.11368683772E-12  0.17120000000E+03  0.17120000000E+03 0.  0.
         13    1    1    2    0    0 -0.30092994372E+02  0.23644363869E+01  0.14874724813E+03  0.15177922736E+03  0.10566000000E+00 0.  1.
        994    1    1    2    0    0  0.27811832243E+02 -0.73040060717E+01  0.55674433989E+01  0.17368731371E+03  0.17120000000E+03 0.  0.
        998    1    1    2    0    0  0.22811621296E+01  0.49395696849E+01  0.13456853048E+04  0.13457334589E+04  0.10000000000E+02 0.  1.
</event>
<event>
 5    1  0.1334136E-008  0.3767296E+03  0.7957747E-01  0.3465523E+00
         13   -1    0    0    0    0  0.00000000000E+00  0.00000000000E+00  0.14999999963E+04  0.15000000000E+04  0.10566000000E+00 0. -1.
        994   -1    0    0    0    0 -0.00000000000E+00 -0.00000000000E+00  0.11368683772E-12  0.17120000000E+03  0.17120000000E+03 0.  0.
         13    1    1    2    0    0  0.19814981349E+02  0.63171686983E+01  0.32550650880E+02  0.38627660335E+02  0.10566000000E+00 0. -1.
        994    1    1    2    0    0 -0.50546096715E+02  0.32176471080E+02  0.18024192024E+02  0.18227601236E+03  0.17120000000E+03 0.  0.
        998    1    1    2    0    0  0.30731115366E+02 -0.38493639778E+02  0.14494251534E+04  0.14502963273E+04  0.10000000000E+02 0. -1.
</event>
<event>
 5    1  0.1334136E-008  0.3841576E+03  0.7957747E-01  0.3433253E+00
         13   -1    0    0    0    0  0.00000000000E+00  0.00000000000E+00  0.14999999963E+04  0.15000000000E+04  0.10566000000E+00 0.  1.
        994   -1    0    0    0    0 -0.00000000000E+00 -0.00000000000E+00  0.11368683772E-12  0.17120000000E+03  0.17120000000E+03 0.  0.
         13    1    1    2    0    0 -0.13979782615E+02 -0.22308178910E+01  0.53379748044E+02  0.55225171215E+02  0.10566000000E+00 0.  1.
        994    1    1    2    0    0 -0.90158256099E+01  0.43714698634E+00  0.23176553460E+01  0.17145345647E+03  0.17120000000E+03 0.  0.
        998    1    1    2    0    0  0.22995608225E+02  0.17936709046E+01  0.14443025929E+04  0.14445213723E+04  0.10000000000E+02 0.  1.
</event>
<event>
 5    1  0.1334136E-008  0.3832814E+03  0.7957747E-01  0.3436994E+00
         13   -1    0    0    0    0  0.00000000000E+00  0.00000000000E+00  0.14999999963E+04  0.15000000000E+04  0.10566000000E+00 0.  1.
        994   -1    0    0    0    0 -0.00000000000E+00 -0.00000000000E+00  0.11368683772E-12  0.17120000000E+03  0.17120000000E+03 0.  0.
         13    1    1    2    0    0  0.16286209122E+02  0.10160336117E+02  0.18398484521E+01  0.19283911531E+02  0.10566000000E+00 0.  1.
        994    1    1    2    0    0 -0.25699886758E+02 -0.14899679185E+02  0.21384744006E+02  0.17506922030E+03  0.17120000000E+03 0.  0.
        998    1    1    2    0    0  0.94136776363E+01  0.47393430684E+01  0.14767754038E+04  0.14768468682E+04  0.10000000000E+02 0.  1.
</event>
<event>
 5    1  0.1334136E-008  0.3840150E+03  0.7957747E-01  0.3433861E+00
         13   -1    0    0    0    0  0.00000000000E+00  0.00000000000E+00  0.14999999963E+04  0.15000000000E+04  0.10566000000E+00 0.  1.
        994   -1    0    0    0    0 -0.00000000000E+00 -0.00000000000E+00  0.11368683772E-12  0.17120000000E+03  0.17120000000E+03 0.  0.
         13    1    1    2    0    0  0.24727322716E+01 -0.11807177123E+02  0.33101876495E+02  0.35231650941E+02  0.10566000000E+00 0.  1.
        994    1    1    2    0    0 -0.14154171206E+01  0.13015408154E+02  0.26856682399E+01  0.17172086964E+03  0.17120000000E+03 0.  0.
        998    1    1    2    0    0 -0.10573151509E+01 -0.12082310314E+01  0.14642124515E+04  0.14642474794E+04  0.10000000000E+02 0.  1.
</event>
<event>
 5    1  0.1334136E-008  0.3756671E+03  0.7957747E-01  0.3470245E+00
         13   -1    0    0    0    0  0.00000000000E+00  0.00000000000E+00  0.14999999963E+04  0.15000000000E+04  0.10566000000E+00 0.  1.
        994   -1    0    0    0    0 -0.00000000000E+00 -0.00000000000E+00  0.11368683772E-12  0.17120000000E+03  0.17120000000E+03 0.  0.
         13    1    1    2    0    0  0.10234040139E+02  0.76747930764E+01  0.10630210994E+02  0.16632816242E+02  0.10566000000E+00 0.  1.
        994    1    1    2    0    0  0.19068094890E+02 -0.28403391638E-01  0.75706586857E+01  0.17242490517E+03  0.17120000000E+03 0.  0.
        998    1    1    2    0    0 -0.29302135029E+02 -0.76463896848E+01  0.14817991266E+04  0.14821422786E+04  0.10000000000E+02 0.  1.
</event>
<event>
 5    1  0.1334136E-008  0.3835120E+03  0.7957747E-01  0.3436008E+00
         13   -1    0    0    0    0  0.00000000000E+00  0.00000000000E+00  0.14999999963E+04  0.15000000000E+04  0.10566000000E+00 0. -1.
        994   -1    0    0    0    0 -0.00000000000E+00 -0.00000000000E+00  0.11368683772E-12  0.17120000000E+03  0.17120000000E+03 0.  0.
         13    1    1    2    0    0 -0.23349806177E+02 -0.44162965726E+01  0.11403178749E+03  0.11648165884E+03  0.10566000000E+00 0. -1.
        994    1    1    2    0    0  0.20655519915E+02 -0.97470882663E+00  0.37850265616E+01  0.17248584576E+03  0.17120000000E+03 0.  0.
        998    1    1    2    0    0  0.26942862614E+01  0.53910053992E+01  0.13821831822E+04  0.13822324954E+04  0.10000000000E+02 0. -1.
</event>
<event>
 5    1  0.1334136E-008  0.3763597E+03  0.7957747E-01  0.3467164E+00
         13   -1    0    0    0    0  0.00000000000E+00  0.00000000000E+00  0.14999999963E+04  0.15000000000E+04  0.10566000000E+00 0. -1.
        994   -1    0    0    0    0 -0.00000000000E+00 -0.00000000000E+00  0.11368683772E-12  0.17120000000E+03  0.17120000000E+03 0.  0.
         13    1    1    2    0    0  0.22157706535E+02 -0.10848755734E+02  0.48373642250E+02  0.54301748484E+02  0.10566000000E+00 0. -1.
        994    1    1    2    0    0 -0.16762320294E+02  0.51091425264E+01  0.70218917073E+01  0.17223770111E+03  0.17120000000E+03 0.  0.
        998    1    1    2    0    0 -0.53953862408E+01  0.57396132080E+01  0.14446044623E+04  0.14446605504E+04  0.10000000000E+02 0. -1.
</event>
<event>
 5    1  0.1334136E-008  0.3807201E+03  0.7957747E-01  0.3448029E+00
         13   -1    0    0    0    0  0.00000000000E+00  0.00000000000E+00  0.14999999963E+04  0.15000000000E+04  0.10566000000E+00 0. -1.
        994   -1    0    0    0    0 -0.00000000000E+00 -0.00000000000E+00  0.11368683772E-12  0.17120000000E+03  0.17120000000E+03 0.  0.
         13    1    1    2    0    0  0.18730614342E+02  0.82610627022E+01  0.57047025507E+02  0.60609036899E+02  0.10566000000E+00 0. -1.
        994    1    1    2    0    0  0.15303487051E+01 -0.59063344131E+01  0.38942435761E+01  0.17135294537E+03  0.17120000000E+03 0.  0.
        998    1    1    2    0    0 -0.20260963048E+02 -0.23547282891E+01  0.14390587272E+04  0.14392380177E+04  0.10000000000E+02 0. -1.
</event>
<event>
 5    1  0.1334136E-008  0.3829518E+03  0.7957747E-01  0.3438405E+00
         13   -1    0    0    0    0  0.00000000000E+00  0.00000000000E+00  0.14999999963E+04  0.15000000000E+04  0.10566000000E+00 0. -1.
        994   -1    0    0    0    0 -0.00000000000E+00 -0.00000000000E+00  0.11368683772E-12  0.17120000000E+03  0.17120000000E+03 0.  0.
         13    1    1    2    0    0  0.50056296084E+00 -0.15803545960E+02  0.47122368702E+02  0.49704440690E+02  0.10566000000E+00 0. -1.
        994    1    1    2    0    0  0.46453805891E+01  0.68647567490E+01  0.28779305294E+01  0.17142469755E+03  0.17120000000E+03 0.  0.
        998    1    1    2    0    0 -0.51459435499E+01  0.89387892111E+01  0.14499996970E+04  0.14500708618E+04  0.10000000000E+02 0. -1.
</event>
<event>
 5    1  0.1334136E-008  0.3789566E+03  0.7957747E-01  0.3455714E+00
         13   -1    0    0    0    0  0.00000000000E+00  0.00000000000E+00  0.14999999963E+04  0.15000000000E+04  0.10566000000E+00 0. -1.
        994   -1    0    0    0    0 -0.00000000000E+00 -0.00000000000E+00  0.11368683772E-12  0.17120000000E+03  0.17120000000E+03 0.  0.
         13    1    1    2    0    0  0.75244520114E+02 -0.23534964473E+02  0.44581498053E+03  0.45273241588E+03  0.10566000000E+00 0. -1.
        994    1    1    2    0    0 -0.80839824203E+02  0.18307233814E+02  0.28063351616E+02  0.19226862378E+03  0.17120000000E+03 0.  0.
        998    1    1    2    0    0  0.55953040884E+01  0.52277306584E+01  0.10261216641E+04  0.10261989603E+04  0.10000000000E+02 0. -1.
</event>
<event>
 5    1  0.1334136E-008  0.3790887E+03  0.7957747E-01  0.3455136E+00
         13   -1    0    0    0    0  0.00000000000E+00  0.00000000000E+00  0.14999999963E+04  0.15000000000E+04  0.10566000000E+00 0. -1.
        994   -1    0    0    0    0 -0.00000000000E+00 -0.00000000000E+00  0.11368683772E-12  0.17120000000E+03  0.17120000000E+03 0.  0.
         13    1    1    2    0    0 -0.32566907490E+02  0.13779408595E+02  0.12208796676E+03  0.12710609095E+03  0.10566000000E+00 0. -1.
        994    1    1    2    0    0  0.29039153115E+02 -0.32499028941E+02  0.10989296150E+02  0.17700187549E+03  0.17120000000E+03 0.  0.
        998    1    1    2    0    0  0.35277543742E+01  0.18719620346E+02  0.13669227334E+04  0.13670920336E+04  0.10000000000E+02 0. -1.
</event>
<event>
 5    1  0.1334136E-008  0.3761409E+03  0.7957747E-01  0.3468136E+00
         13   -1    0    0    0    0  0.00000000000E+00  0.00000000000E+00  0.14999999963E+04  0.15000000000E+04  0.10566000000E+00 0. -1.
        994   -1    0    0    0    0 -0.00000000000E+00 -0.00000000000E+00  0.11368683772E-12  0.17120000000E+03  0.17120000000E+03 0.  0.
         13    1    1    2    0    0 -0.22705478162E+02 -0.94608583676E+01  0.46912774754E+02  0.52970427398E+02  0.10566000000E+00 0. -1.
        994    1    1    2    0    0  0.14675676623E+02  0.12975558880E+02  0.73944819246E+01  0.17247567648E+03  0.17120000000E+03 0.  0.
        998    1    1    2    0    0  0.80298015388E+01 -0.35147005127E+01  0.14456927396E+04  0.14457538961E+04  0.10000000000E+02 0. -1.
</event>
<event>
 5    1  0.1334136E-008  0.3837663E+03  0.7957747E-01  0.3434921E+00
         13   -1    0    0    0    0  0.00000000000E+00  0.00000000000E+00  0.14999999963E+04  0.15000000000E+04  0.10566000000E+00 0. -1.
        994   -1    0    0    0    0 -0.00000000000E+00 -0.00000000000E+00  0.11368683772E-12  0.17120000000E+03  0.17120000000E+03 0.  0.
         13    1    1    2    0    0  0.61049420319E+01  0.19833184959E+02  0.11348246035E+03  0.11536422978E+03  0.10566000000E+00 0. -1.
        994    1    1    2    0    0  0.11189113946E+02  0.71375642412E+01  0.28256790453E+01  0.17173690796E+03  0.17120000000E+03 0.  0.
        998    1    1    2    0    0 -0.17294055977E+02 -0.26970749200E+02  0.13836918569E+04  0.13840988623E+04  0.10000000000E+02 0. -1.
</event>
<event>
 5    1  0.1334136E-008  0.3818024E+03  0.7957747E-01  0.3443348E+00
         13   -1    0    0    0    0  0.00000000000E+00  0.00000000000E+00  0.14999999963E+04  0.15000000000E+04  0.10566000000E+00 0.  1.
        994   -1    0    0    0    0 -0.00000000000E+00 -0.00000000000E+00  0.11368683772E-12  0.17120000000E+03  0.17120000000E+03 0.  0.
         13    1    1    2    0    0  0.41204096818E+01 -0.22914906741E+02  0.87643510389E+02  0.90683332560E+02  0.10566000000E+00 0.  1.
        994    1    1    2    0    0  0.10350930147E+02  0.64212931380E+01  0.37192779912E+01  0.17167308406E+03  0.17120000000E+03 0.  0.
        998    1    1    2    0    0 -0.14471339829E+02  0.16493613603E+02  0.14086372079E+04  0.14088435834E+04  0.10000000000E+02 0.  1.
</event>
<event>
 5    1  0.1334136E-008  0.3821581E+03  0.7957747E-01  0.3441815E+00
         13   -1    0    0    0    0  0.00000000000E+00  0.00000000000E+00  0.14999999963E+04  0.15000000000E+04  0.10566000000E+00 0.  1.
        994   -1    0    0    0    0 -0.00000000000E+00 -0.00000000000E+00  0.11368683772E-12  0.17120000000E+03  0.17120000000E+03 0.  0.
         13    1    1    2    0    0  0.20638640266E+02  0.25798124869E+02  0.16123026839E+03  0.16458039776E+03  0.10566000000E+00 0.  1.
        994    1    1    2    0    0 -0.14224731753E+02 -0.30775415050E+02  0.68724783484E+01  0.17466007020E+03  0.17120000000E+03 0.  0.
        998    1    1    2    0    0 -0.64139085132E+01  0.49772901812E+01  0.13318972495E+04  0.13319595320E+04  0.10000000000E+02 0.  1.
</event>
<event>
 5    1  0.1334136E-008  0.3856742E+03  0.7957747E-01  0.3426818E+00
         13   -1    0    0    0    0  0.00000000000E+00  0.00000000000E+00  0.14999999963E+04  0.15000000000E+04  0.10566000000E+00 0.  1.
        994   -1    0    0    0    0 -0.00000000000E+00 -0.00000000000E+00  0.11368683772E-12  0.17120000000E+03  0.17120000000E+03 0.  0.
         13    1    1    2    0    0  0.69172123213E+01 -0.12255439205E+02  0.79166261045E+02  0.80407410531E+02  0.10566000000E+00 0.  1.
        994    1    1    2    0    0 -0.72808195127E+01  0.23986081607E+01  0.14886466372E+01  0.17137800245E+03  0.17120000000E+03 0.  0.
        998    1    1    2    0    0  0.36360719131E+00  0.98568310443E+01  0.14193450886E+04  0.14194145870E+04  0.10000000000E+02 0.  1.
</event>
<event>
 5    1  0.1334136E-008  0.3824378E+03  0.7957747E-01  0.3440612E+00
         13   -1    0    0    0    0  0.00000000000E+00  0.00000000000E+00  0.14999999963E+04  0.15000000000E+04  0.10566000000E+00 0. -1.
        994   -1    0    0    0    0 -0.00000000000E+00 -0.00000000000E+00  0.11368683772E-12  0.17120000000E+03  0.17120000000E+03 0.  0.
         13    1    1    2    0    0  0.78590059343E+01  0.73005740640E+01  0.19397515645E+02  0.22166125804E+02  0.10566000000E+00 0. -1.
        994    1    1    2    0    0  0.24360781653E+01  0.57969716770E+01  0.30387428633E+01  0.17134238622E+03  0.17120000000E+03 0.  0.
        998    1    1    2    0    0 -0.10295084100E+02 -0.13097545741E+02  0.14775637378E+04  0.14776914880E+04  0.10000000000E+02 0. -1.
</event>
<event>
 5    1  0.1334136E-008  0.3813805E+03  0.7957747E-01  0.3445169E+00
         13   -1    0    0    0    0  0.00000000000E+00  0.00000000000E+00  0.14999999963E+04  0.15000000000E+04  0.10566000000E+00 0. -1.
        994   -1    0    0    0    0 -0.00000000000E+00 -0.00000000000E+00  0.11368683772E-12  0.17120000000E+03  0.17120000000E+03 0.  0.
         13    1    1    2    0    0  0.47978099873E+01 -0.11288097384E+02  0.20386495210E+02  0.23792025434E+02  0.10566000000E+00 0. -1.
        994    1    1    2    0    0 -0.10503175105E+02  0.68660913717E+01  0.39620366154E+01  0.17170497265E+03  0.17120000000E+03 0.  0.
        998    1    1    2    0    0  0.57053651180E+01  0.44220060127E+01  0.14756514645E+04  0.14757030019E+04  0.10000000000E+02 0. -1.
</event>
<event>
 5    1  0.1334136E-008  0.3824101E+03  0.7957747E-01  0.3440731E+00
         13   -1    0    0    0    0  0.00000000000E+00  0.00000000000E+00  0.14999999963E+04  0.15000000000E+04  0.10566000000E+00 0. -1.
        994   -1    0    0    0    0 -0.00000000000E+00 -0.00000000000E+00  0.11368683772E-12  0.17120000000E+03  0.17120000000E+03 0.  0.
         13    1    1    2    0    0 -0.56436464875E+01  0.28612833101E+02  0.13052561079E+03  0.13374412585E+03  0.10566000000E+00 0. -1.
        994    1    1    2    0    0  0.50137424915E+01 -0.32298241119E+02  0.64726178270E+01  0.17441229537E+03  0.17120000000E+03 0.  0.
        998    1    1    2    0    0  0.62990399599E+00  0.36854080178E+01  0.13630017677E+04  0.13630435788E+04  0.10000000000E+02 0. -1.
</event>
<event>
 5    1  0.1334136E-008  0.3845844E+03  0.7957747E-01  0.3431437E+00
         13   -1    0    0    0    0  0.00000000000E+00  0.00000000000E+00  0.14999999963E+04  0.15000000000E+04  0.10566000000E+00 0. -1.
        994   -1    0    0    0    0 -0.00000000000E+00 -0.00000000000E+00  0.11368683772E-12  0.17120000000E+03  0.17120000000E+03 0.  0.
         13    1    1    2    0    0  0.30275765230E+01 -0.14534893012E+02  0.60031030701E+02  0.61839834618E+02  0.10566000000E+00 0. -1.
        994    1    1    2    0    0 -0.19098234781E+01  0.89350870835E+01  0.21115594959E+01  0.17145664726E+03  0.17120000000E+03 0.  0.
        998    1    1    2    0    0 -0.11177530449E+01  0.55998059283E+01  0.14378574061E+04  0.14379035181E+04  0.10000000000E+02 0. -1.
</event>
<event>
 5    1  0.1334136E-008  0.3851698E+03  0.7957747E-01  0.3428952E+00
         13   -1    0    0    0    0  0.00000000000E+00  0.00000000000E+00  0.14999999963E+04  0.15000000000E+04  0.10566000000E+00 0.  1.
        994   -1    0    0    0    0 -0.00000000000E+00 -0.00000000000E+00  0.11368683772E-12  0.17120000000E+03  0.17120000000E+03 0.  0.
         13    1    1    2    0    0 -0.10010057726E+02  0.70613214637E+01  0.46002277354E+02  0.47605506008E+02  0.10566000000E+00 0.  1.
        994    1    1    2    0    0  0.17093339067E+02 -0.72325304859E+01  0.26789780197E+01  0.17222400721E+03  0.17120000000E+03 0.  0.
        998    1    1    2    0    0 -0.70832813410E+01  0.17120902212E+00  0.14513187409E+04  0.14513704868E+04  0.10000000000E+02 0.  1.
</event>
<event>
 5    1  0.1334136E-008  0.3762521E+03  0.7957747E-01  0.3467642E+00
         13   -1    0    0    0    0  0.00000000000E+00  0.00000000000E+00  0.14999999963E+04  0.15000000000E+04  0.10566000000E+00 0.  1.
        994   -1    0    0    0    0 -0.00000000000E+00 -0.00000000000E+00  0.11368683772E-12  0.17120000000E+03  0.17120000000E+03 0.  0.
         13    1    1    2    0    0 -0.12005915840E+03 -0.42499073395E+02  0.66595725106E+03  0.67802613826E+03  0.10566000000E+00 0.  1.
        994    1    1    2    0    0  0.12666564005E+03  0.35851222188E+02  0.67151000938E+02  0.22615965916E+03  0.17120000000E+03 0.  0.
        998    1    1    2    0    0 -0.66064816495E+01  0.66478512072E+01  0.76689174428E+03  0.76701420259E+03  0.10000000000E+02 0.  1.
</event>
<event>
 5    1  0.1334136E-008  0.3699814E+03  0.7957747E-01  0.3495977E+00
         13   -1    0    0    0    0  0.00000000000E+00  0.00000000000E+00  0.14999999963E+04  0.15000000000E+04  0.10566000000E+00 0. -1.
        994   -1    0    0    0    0 -0.00000000000E+00 -0.00000000000E+00  0.11368683772E-12  0.17120000000E+03  0.17120000000E+03 0.  0.
         13    1    1    2    0    0  0.30856944428E+02  0.46901230597E+01  0.40499560700E+02  0.51130948110E+02  0.10566000000E+00 0. -1.
        994    1    1    2    0    0 -0.18229891040E+02 -0.86501988178E+01  0.12353532822E+02  0.17282709464E+03  0.17120000000E+03 0.  0.
        998    1    1    2    0    0 -0.12627053388E+02  0.39600757581E+01  0.14471469028E+04  0.14472419573E+04  0.10000000000E+02 0. -1.
</event>
<event>
 5    1  0.1334136E-008  0.3839349E+03  0.7957747E-01  0.3434202E+00
         13   -1    0    0    0    0  0.00000000000E+00  0.00000000000E+00  0.14999999963E+04  0.15000000000E+04  0.10566000000E+00 0. -1.
        994   -1    0    0    0    0 -0.00000000000E+00 -0.00000000000E+00  0.11368683772E-12  0.17120000000E+03  0.17120000000E+03 0.  0.
         13    1    1    2    0    0  0.65359225557E+01  0.10015075861E+02  0.36418687075E+02  0.38332127002E+02  0.10566000000E+00 0. -1.
        994    1    1    2    0    0  0.20380743309E+02  0.82192466668E+01  0.37551713336E+01  0.17264550972E+03  0.17120000000E+03 0.  0.
        998    1    1    2    0    0 -0.26916665865E+02 -0.18234322528E+02  0.14598261379E+04  0.14602223633E+04  0.10000000000E+02 0. -1.
</event>
<event>
 5    1  0.1334136E-008  0.3819350E+03  0.7957747E-01  0.3442776E+00
         13   -1    0    0    0    0  0.00000000000E+00  0.00000000000E+00  0.14999999963E+04  0.15000000000E+04  0.10566000000E+00 0. -1.
        994   -1    0    0    0    0 -0.00000000000E+00 -0.00000000000E+00  0.11368683772E-12  0.17120000000E+03  0.17120000000E+03 0.  0.
         13    1    1    2    0    0 -0.24122282154E+02 -0.60878952732E+01  0.91562036470E+02  0.94881845743E+02  0.10566000000E+00 0. -1.
        994    1    1    2    0    0  0.23021864891E+02  0.14095204026E+02  0.55837449217E+01  0.17340501506E+03  0.17120000000E+03 0.  0.
        998    1    1    2    0    0  0.11004172635E+01 -0.80073087523E+01  0.14028542149E+04  0.14029131392E+04  0.10000000000E+02 0. -1.
</event>
<event>
 5    1  0.1334136E-008  0.3784390E+03  0.7957747E-01  0.3457984E+00
         13   -1    0    0    0    0  0.00000000000E+00  0.00000000000E+00  0.14999999963E+04  0.15000000000E+04  0.10566000000E+00 0.  1.
        994   -1    0    0    0    0 -0.00000000000E+00 -0.00000000000E+00  0.11368683772E-12  0.17120000000E+03  0.17120000000E+03 0.  0.
         13    1    1    2    0    0 -0.18552475740E+01  0.13734546007E+02  0.17208397492E+02  0.22095696546E+02  0.10566000000E+00 0.  1.
        994    1    1    2    0    0  0.82853255322E+01 -0.13109163607E+02  0.57317559809E+01  0.17199648199E+03  0.17120000000E+03 0.  0.
        998    1    1    2    0    0 -0.64300779582E+01 -0.62538239999E+00  0.14770598428E+04  0.14771078215E+04  0.10000000000E+02 0.  1.
</event>
<event>
 5    1  0.1334136E-008  0.3856704E+03  0.7957747E-01  0.3426834E+00
         13   -1    0    0    0    0  0.00000000000E+00  0.00000000000E+00  0.14999999963E+04  0.15000000000E+04  0.10566000000E+00 0.  1.
        994   -1    0    0    0    0 -0.00000000000E+00 -0.00000000000E+00  0.11368683772E-12  0.17120000000E+03  0.17120000000E+03 0.  0.
         13    1    1    2    0    0 -0.73642495104E+01 -0.10764643288E+02  0.69908635375E+02  0.71114964530E+02  0.10566000000E+00 0.  1.
        994    1    1    2    0    0  0.83819691499E+01 -0.44896672266E+01  0.15944027495E+01  0.17147127059E+03  0.17120000000E+03 0.  0.
        998    1    1    2    0    0 -0.10177196395E+01  0.15254310515E+02  0.14284969582E+04  0.14286137649E+04  0.10000000000E+02 0.  1.
</event>
<event>
 5    1  0.1334136E-008  0.3770768E+03  0.7957747E-01  0.3463986E+00
         13   -1    0    0    0    0  0.00000000000E+00  0.00000000000E+00  0.14999999963E+04  0.15000000000E+04  0.10566000000E+00 0.  1.
        994   -1    0    0    0    0 -0.00000000000E+00 -0.00000000000E+00  0.11368683772E-12  0.17120000000E+03  0.17120000000E+03 0.  0.
         13    1    1    2    0    0 -0.28791578085E+02 -0.15946909604E+02  0.14387094243E+03  0.14758766254E+03  0.10566000000E+00 0.  1.
        994    1    1    2    0    0 -0.58453298115E+02 -0.22016474345E+01  0.17254522485E+02  0.18173825645E+03  0.17120000000E+03 0.  0.
        998    1    1    2    0    0  0.87244876200E+02  0.18148557039E+02  0.13388745314E+04  0.13418740810E+04  0.10000000000E+02 0.  1.
</event>
<event>
 5    1  0.1570008E-008  0.3860179E+03  0.7957747E-01  0.3425367E+00
         13   -1    0    0    0    0  0.00000000000E+00  0.00000000000E+00  0.14999999963E+04  0.15000000000E+04  0.10566000000E+00 0.  1.
        994   -1    0    0    0    0 -0.00000000000E+00 -0.00000000000E+00  0.11368683772E-12  0.17120000000E+03  0.17120000000E+03 0.  0.
         13    1    1    2    0    0 -0.80201356791E+01  0.10182364113E+02  0.72811127454E+02  0.73955896049E+02  0.10566000000E+00 0.  1.
        994    1    1    2    0    0  0.57736874957E+01 -0.12191120641E+02  0.17222617785E+01  0.17173923569E+03  0.17120000000E+03 0.  0.
        998    1    1    2    0    0  0.22464481833E+01  0.20087565277E+01  0.14254666070E+04  0.14255048683E+04  0.10000000000E+02 0.  1.
</event>
<event>
 5    1  0.1334136E-008  0.3736483E+03  0.7957747E-01  0.3479290E+00
         13   -1    0    0    0    0  0.00000000000E+00  0.00000000000E+00  0.14999999963E+04  0.15000000000E+04  0.10566000000E+00 0. -1.
        994   -1    0    0    0    0 -0.00000000000E+00 -0.00000000000E+00  0.11368683772E-12  0.17120000000E+03  0.17120000000E+03 0.  0.
         13    1    1    2    0    0 -0.24026824499E+02 -0.48778678117E+02  0.17281470169E+03  0.18116727083E+03  0.10566000000E+00 0. -1.
        994    1    1    2    0    0  0.19426399126E+02  0.54955649690E+02  0.19066351785E+02  0.18185289161E+03  0.17120000000E+03 0.  0.
        998    1    1    2    0    0  0.46004253736E+01 -0.61769715729E+01  0.13081189428E+04  0.13081798376E+04  0.10000000000E+02 0. -1.
</event>
<event>
 5    1  0.1334136E-008  0.3766975E+03  0.7957747E-01  0.3465666E+00
         13   -1    0    0    0    0  0.00000000000E+00  0.00000000000E+00  0.14999999963E+04  0.15000000000E+04  0.10566000000E+00 0. -1.
        994   -1    0    0    0    0 -0.00000000000E+00 -0.00000000000E+00  0.11368683772E-12  0.17120000000E+03  0.17120000000E+03 0.  0.
         13    1    1    2    0    0 -0.28434028246E+02 -0.49548829522E+00  0.62932416046E+02  0.69059681612E+02  0.10566000000E+00 0. -1.
        994    1    1    2    0    0  0.36902731804E+02  0.11001655231E+02  0.10837834617E+02  0.17581167962E+03  0.17120000000E+03 0.  0.
        998    1    1    2    0    0 -0.84687035579E+01 -0.10506166936E+02  0.14262297456E+04  0.14263286388E+04  0.10000000000E+02 0. -1.
</event>
<event>
 5    1  0.1334136E-008  0.3825048E+03  0.7957747E-01  0.3440324E+00
         13   -1    0    0    0    0  0.00000000000E+00  0.00000000000E+00  0.14999999963E+04  0.15000000000E+04  0.10566000000E+00 0. -1.
        994   -1    0    0    0    0 -0.00000000000E+00 -0.00000000000E+00  0.11368683772E-12  0.17120000000E+03  0.17120000000E+03 0.  0.
         13    1    1    2    0    0  0.70559321374E+01  0.72423943138E+01  0.16381055934E+02  0.19250678203E+02  0.10566000000E+00 0. -1.
        994    1    1    2    0    0 -0.10688914654E+02 -0.75070310333E+01  0.34398838839E+01  0.17173200404E+03  0.17120000000E+03 0.  0.
        998    1    1    2    0    0  0.36329825168E+01  0.26463671945E+00  0.14801790565E+04  0.14802173178E+04  0.10000000000E+02 0. -1.
</event>
<event>
 5    1  0.1334136E-008  0.3810739E+03  0.7957747E-01  0.3446496E+00
         13   -1    0    0    0    0  0.00000000000E+00  0.00000000000E+00  0.14999999963E+04  0.15000000000E+04  0.10566000000E+00 0.  1.
        994   -1    0    0    0    0 -0.00000000000E+00 -0.00000000000E+00  0.11368683772E-12  0.17120000000E+03  0.17120000000E+03 0.  0.
         13    1    1    2    0    0 -0.48934652519E+01 -0.20399298043E+02  0.59739313850E+02  0.63315670620E+02  0.10566000000E+00 0.  1.
        994    1    1    2    0    0  0.70600489046E+01  0.13200111738E+02  0.43388318370E+01  0.17190797742E+03  0.17120000000E+03 0.  0.
        998    1    1    2    0    0 -0.21665836528E+01  0.71991863046E+01  0.14359218506E+04  0.14359763520E+04  0.10000000000E+02 0.  1.
</event>
<event>
 5    1  0.1334136E-008  0.3745668E+03  0.7957747E-01  0.3475162E+00
         13   -1    0    0    0    0  0.00000000000E+00  0.00000000000E+00  0.14999999963E+04  0.15000000000E+04  0.10566000000E+00 0.  1.
        994   -1    0    0    0    0 -0.00000000000E+00 -0.00000000000E+00  0.11368683772E-12  0.17120000000E+03  0.17120000000E+03 0.  0.
         13    1    1    2    0    0 -0.20584090873E+02 -0.20560286294E+02  0.62811256413E+02  0.69222072099E+02  0.10566000000E+00 0.  1.
        994    1    1    2    0    0  0.21998598903E+02 -0.23346950975E+02  0.10412302601E+02  0.17449032787E+03  0.17120000000E+03 0.  0.
        998    1    1    2    0    0 -0.14145080296E+01  0.43907237269E+02  0.14267764373E+04  0.14274876000E+04  0.10000000000E+02 0.  1.
</event>
<event>
 5    1  0.1334136E-008  0.3798048E+03  0.7957747E-01  0.3452009E+00
         13   -1    0    0    0    0  0.00000000000E+00  0.00000000000E+00  0.14999999963E+04  0.15000000000E+04  0.10566000000E+00 0. -1.
        994   -1    0    0    0    0 -0.00000000000E+00 -0.00000000000E+00  0.11368683772E-12  0.17120000000E+03  0.17120000000E+03 0.  0.
         13    1    1    2    0    0 -0.23680389432E+02 -0.51970571689E+02  0.28896567243E+03  0.29455538049E+03  0.10566000000E+00 0. -1.
        994    1    1    2    0    0  0.25463843895E+02  0.60315704513E+02  0.18705875531E+02  0.18424370094E+03  0.17120000000E+03 0.  0.
        998    1    1    2    0    0 -0.17834544629E+01 -0.83451328245E+01  0.11923284483E+04  0.11924009186E+04  0.10000000000E+02 0. -1.
</event>
<event>
 5    1  0.1334136E-008  0.3841512E+03  0.7957747E-01  0.3433280E+00
         13   -1    0    0    0    0  0.00000000000E+00  0.00000000000E+00  0.14999999963E+04  0.15000000000E+04  0.10566000000E+00 0. -1.
        994   -1    0    0    0    0 -0.00000000000E+00 -0.00000000000E+00  0.11368683772E-12  0.17120000000E+03  0.17120000000E+03 0.  0.
         13    1    1    2    0    0  0.73530262543E+01 -0.10389914695E+02  0.38761198090E+02  0.40797781359E+02  0.10566000000E+00 0. -1.
        994    1    1    2    0    0 -0.57336320676E+01  0.81577918149E+01  0.23801030442E+01  0.17150664417E+03  0.17120000000E+03 0.  0.
        998    1    1    2    0    0 -0.16193941867E+01  0.22321228801E+01  0.14588586951E+04  0.14588955745E+04  0.10000000000E+02 0. -1.
</event>
<event>
 5    1  0.1334136E-008  0.3701727E+03  0.7957747E-01  0.3495098E+00
         13   -1    0    0    0    0  0.00000000000E+00  0.00000000000E+00  0.14999999963E+04  0.15000000000E+04  0.10566000000E+00 0.  1.
        994   -1    0    0    0    0 -0.00000000000E+00 -0.00000000000E+00  0.11368683772E-12  0.17120000000E+03  0.17120000000E+03 0.  0.
         13    1    1    2    0    0  0.15476932515E+02 -0.15133506738E+02  0.21730644029E+02  0.30672308687E+02  0.10566000000E+00 0.  1.
        994    1    1    2    0    0 -0.10986607860E+02  0.81453800750E+01  0.98254576038E+01  0.17202625493E+03  0.17120000000E+03 0.  0.
        998    1    1    2    0    0 -0.44903246545E+01  0.69881266630E+01  0.14684438946E+04  0.14685014364E+04  0.10000000000E+02 0.  1.
</event>
<event>
 5    1  0.1334136E-008  0.3803877E+03  0.7957747E-01  0.3449472E+00
         13   -1    0    0    0    0  0.00000000000E+00  0.00000000000E+00  0.14999999963E+04  0.15000000000E+04  0.10566000000E+00 0.  1.
        994   -1    0    0    0    0 -0.00000000000E+00 -0.00000000000E+00  0.11368683772E-12  0.17120000000E+03  0.17120000000E+03 0.  0.
         13    1    1    2    0    0  0.10129248200E+02  0.87217454923E+01  0.21076111428E+02  0.24957647135E+02  0.10566000000E+00 0.  1.
        994    1    1    2    0    0 -0.76388335573E+01 -0.52439453338E+01  0.42242198698E+01  0.17150257950E+03  0.17120000000E+03 0.  0.
        998    1    1    2    0    0 -0.24904146427E+01 -0.34778001585E+01  0.14746996650E+04  0.14747397734E+04  0.10000000000E+02 0.  1.
</event>
<event>
 5    1  0.1334136E-008  0.2774615E+03  0.7957747E-01  0.4071339E+00
         13   -1    0    0    0    0  0.00000000000E+00  0.00000000000E+00  0.14999999963E+04  0.15000000000E+04  0.10566000000E+00 0. -1.
        994   -1    0    0    0    0 -0.00000000000E+00 -0.00000000000E+00  0.11368683772E-12  0.17120000000E+03  0.17120000000E+03 0.  0.
         13    1    1    2    0    0 -0.11028573417E+03 -0.13091048297E+03  0.48805035770E+03  0.51719789301E+03  0.10566000000E+00 0. -1.
        994    1    1    2    0    0  0.11801666951E+03  0.13443681648E+03  0.14497715776E+03  0.28693031938E+03  0.17120000000E+03 0.  0.
        998    1    1    2    0    0 -0.77309353317E+01 -0.35263335108E+01  0.86697248081E+03  0.86707178761E+03  0.10000000000E+02 0. -1.
</event>
<event>
 5    1  0.1334136E-008  0.3825863E+03  0.7957747E-01  0.3439974E+00
         13   -1    0    0    0    0  0.00000000000E+00  0.00000000000E+00  0.14999999963E+04  0.15000000000E+04  0.10566000000E+00 0.  1.
        994   -1    0    0    0    0 -0.00000000000E+00 -0.00000000000E+00  0.11368683772E-12  0.17120000000E+03  0.17120000000E+03 0.  0.
         13    1    1    2    0    0  0.82459879382E+01  0.21253678047E+02  0.85541590861E+02  0.88527340854E+02  0.10566000000E+00 0.  1.
        994    1    1    2    0    0 -0.78759529219E+01 -0.23804684775E+02  0.49199043582E+01  0.17309632899E+03  0.17120000000E+03 0.  0.
        998    1    1    2    0    0 -0.37003501628E+00  0.25510067278E+01  0.14095385011E+04  0.14095763302E+04  0.10000000000E+02 0.  1.
</event>
<event>
 5    1  0.1334136E-008  0.3836572E+03  0.7957747E-01  0.3435387E+00
         13   -1    0    0    0    0  0.00000000000E+00  0.00000000000E+00  0.14999999963E+04  0.15000000000E+04  0.10566000000E+00 0.  1.
        994   -1    0    0    0    0 -0.00000000000E+00 -0.00000000000E+00  0.11368683772E-12  0.17120000000E+03  0.17120000000E+03 0.  0.
         13    1    1    2    0    0 -0.10293152978E+02 -0.11430421668E+02  0.54420671364E+02  0.56552844080E+02  0.10566000000E+00 0.  1.
        994    1    1    2    0    0 -0.50272103180E+01  0.25044714837E+00  0.23819671968E+01  0.17129054071E+03  0.17120000000E+03 0.  0.
        998    1    1    2    0    0  0.15320363296E+02  0.11179974520E+02  0.14431973577E+04  0.14433566152E+04  0.10000000000E+02 0.  1.
</event>
<event>
 5    1  0.1334136E-008  0.3805857E+03  0.7957747E-01  0.3448612E+00
         13   -1    0    0    0    0  0.00000000000E+00  0.00000000000E+00  0.14999999963E+04  0.15000000000E+04  0.10566000000E+00 0. -1.
        994   -1    0    0    0    0 -0.00000000000E+00 -0.00000000000E+00  0.11368683772E-12  0.17120000000E+03  0.17120000000E+03 0.  0.
         13    1    1    2    0    0  0.13130127902E+02 -0.50023049694E+02  0.29460458865E+03  0.29910964642E+03  0.10566000000E+00 0. -1.
        994    1    1    2    0    0 -0.13936828814E+02  0.45022681646E+02  0.11284797471E+02  0.17792713035E+03  0.17120000000E+03 0.  0.
        998    1    1    2    0    0  0.80670091150E+00  0.50003680481E+01  0.11941106102E+04  0.11941632232E+04  0.10000000000E+02 0. -1.
</event>
<event>
 5    1  0.1334136E-008  0.3854033E+03  0.7957747E-01  0.3427964E+00
         13   -1    0    0    0    0  0.00000000000E+00  0.00000000000E+00  0.14999999963E+04  0.15000000000E+04  0.10566000000E+00 0. -1.
        994   -1    0    0    0    0 -0.00000000000E+00 -0.00000000000E+00  0.11368683772E-12  0.17120000000E+03  0.17120000000E+03 0.  0.
         13    1    1    2    0    0 -0.17327160299E+01  0.10791821971E+02  0.42441024720E+02  0.43825990801E+02  0.10566000000E+00 0. -1.
        994    1    1    2    0    0 -0.17643820559E+01 -0.52003199687E+01  0.15291135501E+01  0.17129487605E+03  0.17120000000E+03 0.  0.
        998    1    1    2    0    0  0.34970980857E+01 -0.55915020026E+01  0.14560298580E+04  0.14560791332E+04  0.10000000000E+02 0. -1.
</event>
<event>
 5    1  0.1334136E-008  0.3700685E+03  0.7957747E-01  0.3495576E+00
         13   -1    0    0    0    0  0.00000000000E+00  0.00000000000E+00  0.14999999963E+04  0.15000000000E+04  0.10566000000E+00 0. -1.
        994   -1    0    0    0    0 -0.00000000000E+00 -0.00000000000E+00  0.11368683772E-12  0.17120000000E+03  0.17120000000E+03 0.  0.
         13    1    1    2    0    0 -0.89626579897E+01  0.17365423887E+02  0.16343665937E+02  0.25475748572E+02  0.10566000000E+00 0. -1.
        994    1    1    2    0    0  0.14267626882E+02 -0.18340154388E+02  0.11101932798E+02  0.17312602159E+03  0.17120000000E+03 0.  0.
        998    1    1    2    0    0 -0.53049688922E+01  0.97473050049E+00  0.14725543975E+04  0.14725982298E+04  0.10000000000E+02 0. -1.
</event>
<event>
 5    1  0.1334136E-008  0.3846382E+03  0.7957747E-01  0.3431208E+00
         13   -1    0    0    0    0  0.00000000000E+00  0.00000000000E+00  0.14999999963E+04  0.15000000000E+04  0.10566000000E+00 0. -1.
        994   -1    0    0    0    0 -0.00000000000E+00 -0.00000000000E+00  0.11368683772E-12  0.17120000000E+03  0.17120000000E+03 0.  0.
         13    1    1    2    0    0  0.11800552465E+02  0.69267293423E+01  0.51552829211E+02  0.53337960043E+02  0.10566000000E+00 0. -1.
        994    1    1    2    0    0 -0.11304025581E+02  0.14633079619E+01  0.22377392676E+01  0.17159361801E+03  0.17120000000E+03 0.  0.
        998    1    1    2    0    0 -0.49652688395E+00 -0.83900373041E+01  0.14462094278E+04  0.14462684219E+04  0.10000000000E+02 0. -1.
</event>
<event>
 5    1  0.1334136E-008  0.3817805E+03  0.7957747E-01  0.3443442E+00
         13   -1    0    0    0    0  0.00000000000E+00  0.00000000000E+00  0.14999999963E+04  0.15000000000E+04  0.10566000000E+00 0.  1.
        994   -1    0    0    0    0 -0.00000000000E+00 -0.00000000000E+00  0.11368683772E-12  0.17120000000E+03  0.17120000000E+03 0.  0.
         13    1    1    2    0    0  0.30702613252E+02 -0.23706482517E+02  0.20042085030E+03  0.20414008958E+03  0.10566000000E+00 0.  1.
        994    1    1    2    0    0 -0.33086927907E+02  0.22949812281E+02  0.86444770802E+01  0.17608408692E+03  0.17120000000E+03 0.  0.
        998    1    1    2    0    0  0.23843146547E+01  0.75667023518E+00  0.12909346689E+04  0.12909758235E+04  0.10000000000E+02 0.  0.
</event>
<event>
 5    1  0.1635460E-008  0.3859874E+03  0.7957747E-01  0.3425495E+00
         13   -1    0    0    0    0  0.00000000000E+00  0.00000000000E+00  0.14999999963E+04  0.15000000000E+04  0.10566000000E+00 0. -1.
        994   -1    0    0    0    0 -0.00000000000E+00 -0.00000000000E+00  0.11368683772E-12  0.17120000000E+03  0.17120000000E+03 0.  0.
         13    1    1    2    0    0 -0.94831272028E+01 -0.70877830458E+01  0.62358616065E+02  0.63472628208E+02  0.10566000000E+00 0. -1.
        994    1    1    2    0    0  0.43010673168E+01  0.67022592018E+01  0.13486461368E+01  0.17139042653E+03  0.17120000000E+03 0.  0.
        998    1    1    2    0    0  0.51820598860E+01  0.38552384401E+00  0.14362927341E+04  0.14363369453E+04  0.10000000000E+02 0. -1.
</event>
<event>
 5    1  0.1334136E-008  0.3789307E+03  0.7957747E-01  0.3455828E+00
         13   -1    0    0    0    0  0.00000000000E+00  0.00000000000E+00  0.14999999963E+04  0.15000000000E+04  0.10566000000E+00 0.  1.
        994   -1    0    0    0    0 -0.00000000000E+00 -0.00000000000E+00  0.11368683772E-12  0.17120000000E+03  0.17120000000E+03 0.  0.
         13    1    1    2    0    0 -0.32701754912E+02  0.19876813719E+02  0.15621433984E+03  0.16083352770E+03  0.10566000000E+00 0.  1.
        994    1    1    2    0    0  0.95752049765E+01 -0.25724347631E+02  0.72055630876E+01  0.17353612520E+03  0.17120000000E+03 0.  0.
        998    1    1    2    0    0  0.23126549936E+02  0.58475339120E+01  0.13365800934E+04  0.13368303471E+04  0.10000000000E+02 0.  1.
</event>
<event>
 5    1  0.1334136E-008  0.3821946E+03  0.7957747E-01  0.3441658E+00
         13   -1    0    0    0    0  0.00000000000E+00  0.00000000000E+00  0.14999999963E+04  0.15000000000E+04  0.10566000000E+00 0. -1.
        994   -1    0    0    0    0 -0.00000000000E+00 -0.00000000000E+00  0.11368683772E-12  0.17120000000E+03  0.17120000000E+03 0.  0.
         13    1    1    2    0    0  0.21656033290E+01 -0.10738220735E+02  0.18370360332E+02  0.21388794381E+02  0.10566000000E+00 0. -1.
        994    1    1    2    0    0 -0.64198091799E+01  0.11084189557E+02  0.35741384379E+01  0.17171571761E+03  0.17120000000E+03 0.  0.
        998    1    1    2    0    0  0.42542058509E+01 -0.34596882235E+00  0.14780554975E+04  0.14780954880E+04  0.10000000000E+02 0. -1.
</event>
<event>
 5    1  0.1334136E-008  0.3813670E+03  0.7957747E-01  0.3445228E+00
         13   -1    0    0    0    0  0.00000000000E+00  0.00000000000E+00  0.14999999963E+04  0.15000000000E+04  0.10566000000E+00 0.  1.
        994   -1    0    0    0    0 -0.00000000000E+00 -0.00000000000E+00  0.11368683772E-12  0.17120000000E+03  0.17120000000E+03 0.  0.
         13    1    1    2    0    0 -0.41677816119E+01  0.14361857014E+02  0.31283339465E+02  0.34674080126E+02  0.10566000000E+00 0.  1.
        994    1    1    2    0    0 -0.41126671530E+01 -0.10496260473E+02  0.38677220213E+01  0.17161434902E+03  0.17120000000E+03 0.  0.
        998    1    1    2    0    0  0.82804487648E+01 -0.38655965402E+01  0.14648489348E+04  0.14649115709E+04  0.10000000000E+02 0.  1.
</event>
<event>
 5    1  0.1334136E-008  0.3842886E+03  0.7957747E-01  0.3432695E+00
         13   -1    0    0    0    0  0.00000000000E+00  0.00000000000E+00  0.14999999963E+04  0.15000000000E+04  0.10566000000E+00 0. -1.
        994   -1    0    0    0    0 -0.00000000000E+00 -0.00000000000E+00  0.11368683772E-12  0.17120000000E+03  0.17120000000E+03 0.  0.
         13    1    1    2    0    0  0.61545810843E+01  0.27356860918E+02  0.13144034261E+03  0.13439810839E+03  0.10566000000E+00 0. -1.
        994    1    1    2    0    0  0.19409883895E+02 -0.78392208708E+02  0.23786604533E+02  0.19078082853E+03  0.17120000000E+03 0.  0.
        998    1    1    2    0    0 -0.25564464979E+02  0.51035347790E+02  0.13447730491E+04  0.13460210631E+04  0.10000000000E+02 0. -1.
</event>
<event>
 5    1  0.1334136E-008  0.3807227E+03  0.7957747E-01  0.3448018E+00
         13   -1    0    0    0    0  0.00000000000E+00  0.00000000000E+00  0.14999999963E+04  0.15000000000E+04  0.10566000000E+00 0.  1.
        994   -1    0    0    0    0 -0.00000000000E+00 -0.00000000000E+00  0.11368683772E-12  0.17120000000E+03  0.17120000000E+03 0.  0.
         13    1    1    2    0    0 -0.23712879381E+02 -0.27984959509E+01  0.71138715400E+02  0.75039057970E+02  0.10566000000E+00 0.  1.
        994    1    1    2    0    0  0.24573031947E+02  0.23858284115E+01  0.58041449851E+01  0.17306835117E+03  0.17120000000E+03 0.  0.
        998    1    1    2    0    0 -0.86015256685E+00  0.41266753941E+00  0.14230571359E+04  0.14230925909E+04  0.10000000000E+02 0.  1.
</event>
<event>
 5    1  0.1334136E-008  0.3810500E+03  0.7957747E-01  0.3446599E+00
         13   -1    0    0    0    0  0.00000000000E+00  0.00000000000E+00  0.14999999963E+04  0.15000000000E+04  0.10566000000E+00 0. -1.
        994   -1    0    0    0    0 -0.00000000000E+00 -0.00000000000E+00  0.11368683772E-12  0.17120000000E+03  0.17120000000E+03 0.  0.
         13    1    1    2    0    0 -0.29226053964E+02  0.49111300955E+01  0.10503460195E+03  0.10913551301E+03  0.10566000000E+00 0. -1.
        994    1    1    2    0    0  0.41324706417E+02 -0.14378955123E+02  0.10008348788E+02  0.17698613719E+03  0.17120000000E+03 0.  0.
        998    1    1    2    0    0 -0.12098652453E+02  0.94678250278E+01  0.13849570455E+04  0.13850783498E+04  0.10000000000E+02 0.  1.
</event>
<event>
 5    1  0.1334136E-008  0.3787917E+03  0.7957747E-01  0.3456437E+00
         13   -1    0    0    0    0  0.00000000000E+00  0.00000000000E+00  0.14999999963E+04  0.15000000000E+04  0.10566000000E+00 0.  1.
        994   -1    0    0    0    0 -0.00000000000E+00 -0.00000000000E+00  0.11368683772E-12  0.17120000000E+03  0.17120000000E+03 0.  0.
         13    1    1    2    0    0 -0.22359334737E+02 -0.15152206530E+02  0.78128497689E+02  0.82665606680E+02  0.10566000000E+00 0.  1.
        994    1    1    2    0    0  0.64639468927E+01  0.46548183164E+01  0.49573186307E+01  0.17145688948E+03  0.17120000000E+03 0.  0.
        998    1    1    2    0    0  0.15895387844E+02  0.10497388213E+02  0.14169141800E+04  0.14170775038E+04  0.10000000000E+02 0.  1.
</event>
<event>
 5    1  0.1334136E-008  0.3857199E+03  0.7957747E-01  0.3426625E+00
         13   -1    0    0    0    0  0.00000000000E+00  0.00000000000E+00  0.14999999963E+04  0.15000000000E+04  0.10566000000E+00 0. -1.
        994   -1    0    0    0    0 -0.00000000000E+00 -0.00000000000E+00  0.11368683772E-12  0.17120000000E+03  0.17120000000E+03 0.  0.
         13    1    1    2    0    0  0.11810109654E+02  0.72715567823E+00  0.54514929602E+02  0.55784371996E+02  0.10566000000E+00 0. -1.
        994    1    1    2    0    0 -0.10588760857E+02  0.25488826563E+01  0.16624399851E+01  0.17155413829E+03  0.17120000000E+03 0.  0.
        998    1    1    2    0    0 -0.12213487969E+01 -0.32760383345E+01  0.14438226267E+04  0.14438614897E+04  0.10000000000E+02 0. -1.
</event>
<event>
 5    1  0.1334136E-008  0.3796493E+03  0.7957747E-01  0.3452687E+00
         13   -1    0    0    0    0  0.00000000000E+00  0.00000000000E+00  0.14999999963E+04  0.15000000000E+04  0.10566000000E+00 0.  1.
        994   -1    0    0    0    0 -0.00000000000E+00 -0.00000000000E+00  0.11368683772E-12  0.17120000000E+03  0.17120000000E+03 0.  0.
         13    1    1    2    0    0  0.28175408179E+02  0.15037321182E+02  0.12134895980E+03  0.12548129686E+03  0.10566000000E+00 0.  1.
        994    1    1    2    0    0 -0.19595286766E+02  0.98475145917E+01  0.59215717959E+01  0.17270047429E+03  0.17120000000E+03 0.  0.
        998    1    1    2    0    0 -0.85801214131E+01 -0.24884835774E+02  0.13727294647E+04  0.13730182288E+04  0.10000000000E+02 0.  1.
</event>
<event>
 5    1  0.1334136E-008  0.3784957E+03  0.7957747E-01  0.3457735E+00
         13   -1    0    0    0    0  0.00000000000E+00  0.00000000000E+00  0.14999999963E+04  0.15000000000E+04  0.10566000000E+00 0. -1.
        994   -1    0    0    0    0 -0.00000000000E+00 -0.00000000000E+00  0.11368683772E-12  0.17120000000E+03  0.17120000000E+03 0.  0.
         13    1    1    2    0    0  0.23721432794E+02  0.38864235117E+02  0.19147551552E+03  0.19681468277E+03  0.10566000000E+00 0. -1.
        994    1    1    2    0    0 -0.11834522603E+02 -0.40260039393E+02  0.10833359834E+02  0.17660047673E+03  0.17120000000E+03 0.  0.
        998    1    1    2    0    0 -0.11886910191E+02  0.13958042760E+01  0.12976911209E+04  0.12977848405E+04  0.10000000000E+02 0. -1.
</event>
<event>
 5    1  0.1334136E-008  0.3729086E+03  0.7957747E-01  0.3482630E+00
         13   -1    0    0    0    0  0.00000000000E+00  0.00000000000E+00  0.14999999963E+04  0.15000000000E+04  0.10566000000E+00 0.  1.
        994   -1    0    0    0    0 -0.00000000000E+00 -0.00000000000E+00  0.11368683772E-12  0.17120000000E+03  0.17120000000E+03 0.  0.
         13    1    1    2    0    0 -0.72936229229E+02  0.11988261473E+01  0.26919478364E+03  0.27890316137E+03  0.10566000000E+00 0.  1.
        994    1    1    2    0    0  0.78341350355E+02  0.13975063470E+01  0.29075101276E+02  0.19051016171E+03  0.17120000000E+03 0.  0.
        998    1    1    2    0    0 -0.54051211262E+01 -0.25963324943E+01  0.12017301114E+04  0.12017866769E+04  0.10000000000E+02 0.  1.
</event>
<event>
 5    1  0.1334136E-008  0.3823596E+03  0.7957747E-01  0.3440948E+00
         13   -1    0    0    0    0  0.00000000000E+00  0.00000000000E+00  0.14999999963E+04  0.15000000000E+04  0.10566000000E+00 0.  1.
        994   -1    0    0    0    0 -0.00000000000E+00 -0.00000000000E+00  0.11368683772E-12  0.17120000000E+03  0.17120000000E+03 0.  0.
         13    1    1    2    0    0  0.49389523697E+01  0.11974069394E+02  0.27152312276E+02  0.30083730060E+02  0.10566000000E+00 0.  1.
        994    1    1    2    0    0 -0.10899320447E+02 -0.79218715676E+01  0.35492056491E+01  0.17176608541E+03  0.17120000000E+03 0.  0.
        998    1    1    2    0    0  0.59603680772E+01 -0.40521978260E+01  0.14692984784E+04  0.14693501845E+04  0.10000000000E+02 0.  1.
</event>
<event>
 5    1  0.1334136E-008  0.3717043E+03  0.7957747E-01  0.3488095E+00
         13   -1    0    0    0    0  0.00000000000E+00  0.00000000000E+00  0.14999999963E+04  0.15000000000E+04  0.10566000000E+00 0.  1.
        994   -1    0    0    0    0 -0.00000000000E+00 -0.00000000000E+00  0.11368683772E-12  0.17120000000E+03  0.17120000000E+03 0.  0.
         13    1    1    2    0    0  0.34064254901E+02  0.21717678573E+02  0.67645227655E+02  0.78790348476E+02  0.10566000000E+00 0.  1.
        994    1    1    2    0    0 -0.72085116700E+00 -0.19669487910E+02  0.13206512413E+02  0.17283304184E+03  0.17120000000E+03 0.  0.
        998    1    1    2    0    0 -0.33343403734E+02 -0.20481906626E+01  0.14191482562E+04  0.14195766097E+04  0.10000000000E+02 0.  1.
</event>
<event>
 5    1  0.1334136E-008  0.4083629E+03  0.7957747E-01  0.3336254E+00
         13   -1    0    0    0    0  0.00000000000E+00  0.00000000000E+00  0.14999999963E+04  0.15000000000E+04  0.10566000000E+00 0.  1.
        994   -1    0    0    0    0 -0.00000000000E+00 -0.00000000000E+00  0.11368683772E-12  0.17120000000E+03  0.17120000000E+03 0.  0.
         13    1    1    2    0    0  0.77523451217E+02 -0.66634640449E+01  0.80423004401E+02  0.11190244878E+03  0.10566000000E+00 0.  1.
        994    1    1    2    0    0 -0.65416477840E+02  0.67994722985E+01  0.50627599505E+02  0.19025809373E+03  0.17120000000E+03 0.  0.
        998    1    1    2    0    0 -0.12106973378E+02 -0.13600825354E+00  0.13689493924E+04  0.13690394575E+04  0.10000000000E+02 0.  1.
</event>
<event>
 5    1  0.1334136E-008  0.3817339E+03  0.7957747E-01  0.3443643E+00
         13   -1    0    0    0    0  0.00000000000E+00  0.00000000000E+00  0.14999999963E+04  0.15000000000E+04  0.10566000000E+00 0.  1.
        994   -1    0    0    0    0 -0.00000000000E+00 -0.00000000000E+00  0.11368683772E-12  0.17120000000E+03  0.17120000000E+03 0.  0.
         13    1    1    2    0    0  0.24166720022E+02 -0.29148527136E+02  0.21351942361E+03  0.21685069152E+03  0.10566000000E+00 0.  1.
        994    1    1    2    0    0 -0.13695137721E+02  0.20773147013E+02  0.53208790356E+01  0.17308042116E+03  0.17120000000E+03 0.  0.
        998    1    1    2    0    0 -0.10471582301E+02  0.83753801225E+01  0.12811596936E+04  0.12812688873E+04  0.10000000000E+02 0.  1.
</event>
<event>
 5    1  0.1334136E-008  0.3860000E+03  0.7957747E-01  0.3425442E+00
         13   -1    0    0    0    0  0.00000000000E+00  0.00000000000E+00  0.14999999963E+04  0.15000000000E+04  0.10566000000E+00 0.  1.
        994   -1    0    0    0    0 -0.00000000000E+00 -0.00000000000E+00  0.11368683772E-12  0.17120000000E+03  0.17120000000E+03 0.  0.
         13    1    1    2    0    0  0.28596293096E+01  0.11963466899E+02  0.71667336196E+02  0.72715337182E+02  0.10566000000E+00 0.  1.
        994    1    1    2    0    0  0.56513828087E+01 -0.20514899744E+01  0.12529510392E+01  0.17131011828E+03  0.17120000000E+03 0.  0.
        998    1    1    2    0    0 -0.85110121183E+01 -0.99119769246E+01  0.14270797090E+04  0.14271745445E+04  0.10000000000E+02 0.  1.
</event>
<event>
 5    1  0.1334136E-008  0.3853037E+03  0.7957747E-01  0.3428385E+00
         13   -1    0    0    0    0  0.00000000000E+00  0.00000000000E+00  0.14999999963E+04  0.15000000000E+04  0.10566000000E+00 0. -1.
        994   -1    0    0    0    0 -0.00000000000E+00 -0.00000000000E+00  0.11368683772E-12  0.17120000000E+03  0.17120000000E+03 0.  0.
         13    1    1    2    0    0  0.87231251374E+01  0.65451778474E+01  0.39789231716E+02  0.41256834462E+02  0.10566000000E+00 0. -1.
        994    1    1    2    0    0 -0.84857041096E+01 -0.43257554312E+01  0.17775501915E+01  0.17147396018E+03  0.17120000000E+03 0.  0.
        998    1    1    2    0    0 -0.23742102772E+00 -0.22194224162E+01  0.14584332144E+04  0.14584692054E+04  0.10000000000E+02 0. -1.
</event>
<event>
 5    1  0.1334136E-008  0.3715290E+03  0.7957747E-01  0.3488893E+00
         13   -1    0    0    0    0  0.00000000000E+00  0.00000000000E+00  0.14999999963E+04  0.15000000000E+04  0.10566000000E+00 0.  1.
        994   -1    0    0    0    0 -0.00000000000E+00 -0.00000000000E+00  0.11368683772E-12  0.17120000000E+03  0.17120000000E+03 0.  0.
         13    1    1    2    0    0  0.23095841169E+02 -0.49130329629E+01  0.28602931279E+02  0.37090357426E+02  0.10566000000E+00 0.  1.
        994    1    1    2    0    0 -0.25491818604E+02  0.11462325374E+02  0.11163766392E+02  0.17382545095E+03  0.17120000000E+03 0.  0.
        998    1    1    2    0    0  0.23959774344E+01 -0.65492924115E+01  0.14602332986E+04  0.14602841916E+04  0.10000000000E+02 0.  1.
</event>
<event>
 5    1  0.2089477E-008  0.3863359E+03  0.7957747E-01  0.3424026E+00
         13   -1    0    0    0    0  0.00000000000E+00  0.00000000000E+00  0.14999999963E+04  0.15000000000E+04  0.10566000000E+00 0. -1.
        994   -1    0    0    0    0 -0.00000000000E+00 -0.00000000000E+00  0.11368683772E-12  0.17120000000E+03  0.17120000000E+03 0.  0.
         13    1    1    2    0    0 -0.12227116451E+01 -0.10141483553E+02  0.54559819624E+02  0.55507925505E+02  0.10566000000E+00 0. -1.
        994    1    1    2    0    0  0.93140414120E+00  0.75617148884E+01  0.11584156605E+01  0.17137336133E+03  0.17120000000E+03 0.  0.
        998    1    1    2    0    0  0.29130750387E+00  0.25797686649E+01  0.14442817610E+04  0.14443187132E+04  0.10000000000E+02 0. -1.
</event>
<event>
 5    1  0.1334136E-008  0.4181782E+03  0.7957747E-01  0.3300096E+00
         13   -1    0    0    0    0  0.00000000000E+00  0.00000000000E+00  0.14999999963E+04  0.15000000000E+04  0.10566000000E+00 0.  1.
        994   -1    0    0    0    0 -0.00000000000E+00 -0.00000000000E+00  0.11368683772E-12  0.17120000000E+03  0.17120000000E+03 0.  0.
         13    1    1    2    0    0  0.62960350469E+02  0.10324265335E+03  0.17849953557E+03  0.21560414320E+03  0.10566000000E+00 0.  1.
        994    1    1    2    0    0 -0.82346988341E+02 -0.45092644824E+02  0.77540576145E+02  0.21008653944E+03  0.17120000000E+03 0.  0.
        998    1    1    2    0    0  0.19386637872E+02 -0.58150008527E+02  0.12439598846E+04  0.12455093174E+04  0.10000000000E+02 0.  1.
</event>
<event>
 5    1  0.1334136E-008  0.3705054E+03  0.7957747E-01  0.3493571E+00
         13   -1    0    0    0    0  0.00000000000E+00  0.00000000000E+00  0.14999999963E+04  0.15000000000E+04  0.10566000000E+00 0.  1.
        994   -1    0    0    0    0 -0.00000000000E+00 -0.00000000000E+00  0.11368683772E-12  0.17120000000E+03  0.17120000000E+03 0.  0.
         13    1    1    2    0    0 -0.35113734155E+02  0.35056964846E+02  0.11234013390E+03  0.12280994243E+03  0.10566000000E+00 0.  1.
        994    1    1    2    0    0  0.20692390821E+02 -0.13697216747E+01  0.12713820972E+02  0.17291943910E+03  0.17120000000E+03 0.  0.
        998    1    1    2    0    0  0.14421343334E+02 -0.33687243172E+02  0.13749460414E+04  0.13754706185E+04  0.10000000000E+02 0.  1.
</event>
<event>
 5    1  0.1334136E-008  0.4027542E+03  0.7957747E-01  0.3357696E+00
         13   -1    0    0    0    0  0.00000000000E+00  0.00000000000E+00  0.14999999963E+04  0.15000000000E+04  0.10566000000E+00 0. -1.
        994   -1    0    0    0    0 -0.00000000000E+00 -0.00000000000E+00  0.11368683772E-12  0.17120000000E+03  0.17120000000E+03 0.  0.
         13    1    1    2    0    0 -0.41680178786E+02 -0.24926695485E+02  0.28278880701E+02  0.56198609495E+02  0.10566000000E+00 0. -1.
        994    1    1    2    0    0  0.42086486178E+02  0.27471385477E+02  0.39502158482E+02  0.18274520476E+03  0.17120000000E+03 0.  0.
        998    1    1    2    0    0 -0.40630739139E+00 -0.25446899918E+01  0.14322189571E+04  0.14322561857E+04  0.10000000000E+02 0. -1.
</event>
<event>
 5    1  0.1334136E-008  0.3737539E+03  0.7957747E-01  0.3478815E+00
         13   -1    0    0    0    0  0.00000000000E+00  0.00000000000E+00  0.14999999963E+04  0.15000000000E+04  0.10566000000E+00 0.  1.
        994   -1    0    0    0    0 -0.00000000000E+00 -0.00000000000E+00  0.11368683772E-12  0.17120000000E+03  0.17120000000E+03 0.  0.
         13    1    1    2    0    0  0.18179050914E+01 -0.43197429436E+02  0.12210743437E+03  0.12953593857E+03  0.10566000000E+00 0.  1.
        994    1    1    2    0    0  0.19608446311E+02  0.32696271781E+02  0.12297952033E+02  0.17582439245E+03  0.17120000000E+03 0.  0.
        998    1    1    2    0    0 -0.21426351403E+02  0.10501157654E+02  0.13655946099E+04  0.13658396690E+04  0.10000000000E+02 0.  1.
</event>
<event>
 5    1  0.1334136E-008  0.3852170E+03  0.7957747E-01  0.3428752E+00
         13   -1    0    0    0    0  0.00000000000E+00  0.00000000000E+00  0.14999999963E+04  0.15000000000E+04  0.10566000000E+00 0.  1.
        994   -1    0    0    0    0 -0.00000000000E+00 -0.00000000000E+00  0.11368683772E-12  0.17120000000E+03  0.17120000000E+03 0.  0.
         13    1    1    2    0    0 -0.72861326163E+01 -0.13636559075E+02  0.81409260643E+02  0.82864481863E+02  0.10566000000E+00 0.  1.
        994    1    1    2    0    0  0.70789666839E+01  0.24613290589E+01  0.17070611518E+01  0.17137247144E+03  0.17120000000E+03 0.  0.
        998    1    1    2    0    0  0.20716593243E+00  0.11175230016E+02  0.14168836745E+04  0.14169630467E+04  0.10000000000E+02 0.  1.
</event>
<event>
 5    1  0.1334136E-008  0.3808296E+03  0.7957747E-01  0.3447554E+00
         13   -1    0    0    0    0  0.00000000000E+00  0.00000000000E+00  0.14999999963E+04  0.15000000000E+04  0.10566000000E+00 0. -1.
        994   -1    0    0    0    0 -0.00000000000E+00 -0.00000000000E+00  0.11368683772E-12  0.17120000000E+03  0.17120000000E+03 0.  0.
         13    1    1    2    0    0  0.51772179822E+01 -0.13371642655E+02  0.26182319081E+02  0.29851790731E+02  0.10566000000E+00 0. -1.
        994    1    1    2    0    0 -0.11071444062E+02  0.65447026541E+01  0.42665867345E+01  0.17173541792E+03  0.17120000000E+03 0.  0.
        998    1    1    2    0    0  0.58942260795E+01  0.68269400008E+01  0.14695510905E+04  0.14696127913E+04  0.10000000000E+02 0. -1.
</event>
<event>
 5    1  0.1334136E-008  0.3862043E+03  0.7957747E-01  0.3424581E+00
         13   -1    0    0    0    0  0.00000000000E+00  0.00000000000E+00  0.14999999963E+04  0.15000000000E+04  0.10566000000E+00 0. -1.
        994   -1    0    0    0    0 -0.00000000000E+00 -0.00000000000E+00  0.11368683772E-12  0.17120000000E+03  0.17120000000E+03 0.  0.
         13    1    1    2    0    0 -0.86151530669E+01 -0.81192501184E+01  0.67913250295E+02  0.68937390540E+02  0.10566000000E+00 0. -1.
        994    1    1    2    0    0  0.13078516941E+02  0.24253021216E+00  0.15941367946E+01  0.17170639970E+03  0.17120000000E+03 0.  0.
        998    1    1    2    0    0 -0.44633638737E+01  0.78767199063E+01  0.14304926092E+04  0.14305562098E+04  0.10000000000E+02 0. -1.
</event>
<event>
 5    1  0.1334136E-008  0.3777095E+03  0.7957747E-01  0.3461193E+00
         13   -1    0    0    0    0  0.00000000000E+00  0.00000000000E+00  0.14999999963E+04  0.15000000000E+04  0.10566000000E+00 0.  1.
        994   -1    0    0    0    0 -0.00000000000E+00 -0.00000000000E+00  0.11368683772E-12  0.17120000000E+03  0.17120000000E+03 0.  0.
         13    1    1    2    0    0 -0.10693265776E+02  0.34410664560E+02  0.11177886170E+03  0.11744345387E+03  0.10566000000E+00 0.  1.
        994    1    1    2    0    0  0.13599056319E+02 -0.35166563513E+02  0.10097478539E+02  0.17559333870E+03  0.17120000000E+03 0.  0.
        998    1    1    2    0    0 -0.29057905431E+01  0.75589895318E+00  0.13781236560E+04  0.13781632074E+04  0.10000000000E+02 0.  1.
</event>
<event>
 5    1  0.1334136E-008  0.3794809E+03  0.7957747E-01  0.3453422E+00
         13   -1    0    0    0    0  0.00000000000E+00  0.00000000000E+00  0.14999999963E+04  0.15000000000E+04  0.10566000000E+00 0.  1.
        994   -1    0    0    0    0 -0.00000000000E+00 -0.00000000000E+00  0.11368683772E-12  0.17120000000E+03  0.17120000000E+03 0.  0.
         13    1    1    2    0    0  0.33201418318E+02  0.25117265320E+02  0.15806117148E+03  0.16345199996E+03  0.10566000000E+00 0.  1.
        994    1    1    2    0    0 -0.10718647584E+03  0.29922008945E+02  0.47049319422E+02  0.20954079718E+03  0.17120000000E+03 0.  0.
        998    1    1    2    0    0  0.73985057525E+02 -0.55039274266E+02  0.12948895054E+04  0.12982072029E+04  0.10000000000E+02 0.  1.
</event>
<event>
 5    1  0.1334136E-008  0.3818868E+03  0.7957747E-01  0.3442984E+00
         13   -1    0    0    0    0  0.00000000000E+00  0.00000000000E+00  0.14999999963E+04  0.15000000000E+04  0.10566000000E+00 0.  1.
        994   -1    0    0    0    0 -0.00000000000E+00 -0.00000000000E+00  0.11368683772E-12  0.17120000000E+03  0.17120000000E+03 0.  0.
         13    1    1    2    0    0 -0.29419911889E+02 -0.11659007928E+02  0.18889048761E+03  0.19152308257E+03  0.10566000000E+00 0.  1.
        994    1    1    2    0    0 -0.57288458727E+00 -0.94083104160E+01  0.34789593616E+01  0.17149457035E+03  0.17120000000E+03 0.  0.
        998    1    1    2    0    0  0.29992796476E+02  0.21067318344E+02  0.13076305493E+04  0.13081823471E+04  0.10000000000E+02 0.  1.
</event>
<event>
 5    1  0.1334136E-008  0.3747029E+03  0.7957747E-01  0.3474552E+00
         13   -1    0    0    0    0  0.00000000000E+00  0.00000000000E+00  0.14999999963E+04  0.15000000000E+04  0.10566000000E+00 0.  1.
        994   -1    0    0    0    0 -0.00000000000E+00 -0.00000000000E+00  0.11368683772E-12  0.17120000000E+03  0.17120000000E+03 0.  0.
         13    1    1    2    0    0 -0.75004676514E+01 -0.12586510587E+02  0.12528374811E+02  0.19278189831E+02  0.10566000000E+00 0.  1.
        994    1    1    2    0    0 -0.15665477760E+01  0.19378502569E+02  0.81185240997E+01  0.17249153854E+03  0.17120000000E+03 0.  0.
        998    1    1    2    0    0  0.90670154273E+01 -0.67919919825E+01  0.14793530974E+04  0.14794302716E+04  0.10000000000E+02 0.  1.
</event>
<event>
 5    1  0.1334136E-008  0.3859247E+03  0.7957747E-01  0.3425760E+00
         13   -1    0    0    0    0  0.00000000000E+00  0.00000000000E+00  0.14999999963E+04  0.15000000000E+04  0.10566000000E+00 0.  1.
        994   -1    0    0    0    0 -0.00000000000E+00 -0.00000000000E+00  0.11368683772E-12  0.17120000000E+03  0.17120000000E+03 0.  0.
         13    1    1    2    0    0  0.78620529924E+01  0.82107107679E+01  0.54828477193E+02  0.55994649065E+02  0.10566000000E+00 0.  1.
        994    1    1    2    0    0 -0.56338254830E+01 -0.84806421792E+01  0.15116907555E+01  0.17150914404E+03  0.17120000000E+03 0.  0.
        998    1    1    2    0    0 -0.22282275095E+01  0.26993141133E+00  0.14436598283E+04  0.14436962069E+04  0.10000000000E+02 0.  1.
</event>
<event>
 5    1  0.1334136E-008  0.3684574E+03  0.7957747E-01  0.3503011E+00
         13   -1    0    0    0    0  0.00000000000E+00  0.00000000000E+00  0.14999999963E+04  0.15000000000E+04  0.10566000000E+00 0.  1.
        994   -1    0    0    0    0 -0.00000000000E+00 -0.00000000000E+00  0.11368683772E-12  0.17120000000E+03  0.17120000000E+03 0.  0.
         13    1    1    2    0    0 -0.43752791002E+02  0.21404981170E+02  0.10468257767E+03  0.11545966036E+03  0.10566000000E+00 0.  1.
        994    1    1    2    0    0  0.49681601397E+02 -0.21121705243E+02  0.20277909694E+02  0.18065165809E+03  0.17120000000E+03 0.  0.
        998    1    1    2    0    0 -0.59288103949E+01 -0.28327592709E+00  0.13750395089E+04  0.13750886815E+04  0.10000000000E+02 0.  1.
</event>
<event>
 5    1  0.1334136E-008  0.3847185E+03  0.7957747E-01  0.3430867E+00
         13   -1    0    0    0    0  0.00000000000E+00  0.00000000000E+00  0.14999999963E+04  0.15000000000E+04  0.10566000000E+00 0.  1.
        994   -1    0    0    0    0 -0.00000000000E+00 -0.00000000000E+00  0.11368683772E-12  0.17120000000E+03  0.17120000000E+03 0.  0.
         13    1    1    2    0    0  0.21480412796E+03 -0.17726560623E+02  0.11832039432E+04  0.12026747802E+04  0.10566000000E+00 0.  1.
        994    1    1    2    0    0 -0.21768164559E+03  0.15919963859E+02  0.17858290101E+03  0.32990913387E+03  0.17120000000E+03 0.  0.
        998    1    1    2    0    0  0.28775176312E+01  0.18065967640E+01  0.13821315203E+03  0.13861608598E+03  0.10000000000E+02 0.  0.
</event>
<event>
 5    1  0.1334136E-008  0.3803254E+03  0.7957747E-01  0.3449743E+00
         13   -1    0    0    0    0  0.00000000000E+00  0.00000000000E+00  0.14999999963E+04  0.15000000000E+04  0.10566000000E+00 0. -1.
        994   -1    0    0    0    0 -0.00000000000E+00 -0.00000000000E+00  0.11368683772E-12  0.17120000000E+03  0.17120000000E+03 0.  0.
         13    1    1    2    0    0  0.25788783020E+00  0.18620919035E+02  0.30172133022E+01  0.18865838756E+02  0.10566000000E+00 0. -1.
        994    1    1    2    0    0 -0.86278507645E+01 -0.21271449320E+02  0.18419892972E+02  0.17371138944E+03  0.17120000000E+03 0.  0.
        998    1    1    2    0    0  0.83699629343E+01  0.26505302851E+01  0.14785628900E+04  0.14786227718E+04  0.10000000000E+02 0. -1.
</event>
<event>
 5    1  0.1334136E-008  0.3835651E+03  0.7957747E-01  0.3435781E+00
         13   -1    0    0    0    0  0.00000000000E+00  0.00000000000E+00  0.14999999963E+04  0.15000000000E+04  0.10566000000E+00 0. -1.
        994   -1    0    0    0    0 -0.00000000000E+00 -0.00000000000E+00  0.11368683772E-12  0.17120000000E+03  0.17120000000E+03 0.  0.
         13    1    1    2    0    0 -0.70387296075E+01  0.89659034777E+01  0.28289284882E+02  0.30499605618E+02  0.10566000000E+00 0. -1.
        994    1    1    2    0    0 -0.43908285811E+01  0.30343046672E+01  0.24383338921E+01  0.17130053080E+03  0.17120000000E+03 0.  0.
        998    1    1    2    0    0  0.11429558189E+02 -0.12000208145E+02  0.14692723775E+04  0.14693998636E+04  0.10000000000E+02 0. -1.
</event>
<event>
 5    1  0.1334136E-008  0.3841716E+03  0.7957747E-01  0.3433193E+00
         13   -1    0    0    0    0  0.00000000000E+00  0.00000000000E+00  0.14999999963E+04  0.15000000000E+04  0.10566000000E+00 0. -1.
        994   -1    0    0    0    0 -0.00000000000E+00 -0.00000000000E+00  0.11368683772E-12  0.17120000000E+03  0.17120000000E+03 0.  0.
         13    1    1    2    0    0  0.12246932446E+02 -0.45847246502E+01  0.40996013785E+02  0.43031283560E+02  0.10566000000E+00 0. -1.
        994    1    1    2    0    0 -0.87678532547E+01  0.81063625332E+01  0.25123281836E+01  0.17163432103E+03  0.17120000000E+03 0.  0.
        998    1    1    2    0    0 -0.34790791917E+01 -0.35216378830E+01  0.14564916543E+04  0.14565343954E+04  0.10000000000E+02 0. -1.
</event>
<event>
 5    1  0.1334136E-008  0.3803902E+03  0.7957747E-01  0.3449461E+00
         13   -1    0    0    0    0  0.00000000000E+00  0.00000000000E+00  0.14999999963E+04  0.15000000000E+04  0.10566000000E+00 0.  1.
        994   -1    0    0    0    0 -0.00000000000E+00 -0.00000000000E+00  0.11368683772E-12  0.17120000000E+03  0.17120000000E+03 0.  0.
         13    1    1    2    0    0  0.68034767229E+01  0.25272802579E+02  0.95985700005E+02  0.99490037768E+02  0.10566000000E+00 0.  1.
        994    1    1    2    0    0  0.27101345178E+01  0.51379638118E+01  0.40489849473E+01  0.17134636786E+03  0.17120000000E+03 0.  0.
        998    1    1    2    0    0 -0.95136112407E+01 -0.30410766391E+02  0.13999653113E+04  0.14003635944E+04  0.10000000000E+02 0.  1.
</event>
<event>
 5    1  0.1334136E-008  0.3832306E+03  0.7957747E-01  0.3437211E+00
         13   -1    0    0    0    0  0.00000000000E+00  0.00000000000E+00  0.14999999963E+04  0.15000000000E+04  0.10566000000E+00 0. -1.
        994   -1    0    0    0    0 -0.00000000000E+00 -0.00000000000E+00  0.11368683772E-12  0.17120000000E+03  0.17120000000E+03 0.  0.
         13    1    1    2    0    0  0.32556576289E+02 -0.28957416853E+01  0.19736526906E+03  0.20005343430E+03  0.10566000000E+00 0. -1.
        994    1    1    2    0    0 -0.27400430780E+02 -0.31080931952E+01  0.50304779228E+01  0.17347965171E+03  0.17120000000E+03 0.  0.
        998    1    1    2    0    0 -0.51561455083E+01  0.60038348805E+01  0.12976042493E+04  0.12976669140E+04  0.10000000000E+02 0. -1.
</event>
<event>
 5    1  0.1334136E-008  0.3842617E+03  0.7957747E-01  0.3432809E+00
         13   -1    0    0    0    0  0.00000000000E+00  0.00000000000E+00  0.14999999963E+04  0.15000000000E+04  0.10566000000E+00 0.  1.
        994   -1    0    0    0    0 -0.00000000000E+00 -0.00000000000E+00  0.11368683772E-12  0.17120000000E+03  0.17120000000E+03 0.  0.
         13    1    1    2    0    0  0.11683941992E+01  0.11504957067E+02  0.33402039672E+02  0.35347370488E+02  0.10566000000E+00 0.  1.
        994    1    1    2    0    0 -0.49601132840E+01 -0.45637575598E+01  0.21469092025E+01  0.17134608203E+03  0.17120000000E+03 0.  0.
        998    1    1    2    0    0  0.37917190847E+01 -0.69411995071E+01  0.14644510474E+04  0.14645065475E+04  0.10000000000E+02 0.  1.
</event>
<event>
 5    1  0.1334136E-008  0.3695741E+03  0.7957747E-01  0.3497850E+00
         13   -1    0    0    0    0  0.00000000000E+00  0.00000000000E+00  0.14999999963E+04  0.15000000000E+04  0.10566000000E+00 0. -1.
        994   -1    0    0    0    0 -0.00000000000E+00 -0.00000000000E+00  0.11368683772E-12  0.17120000000E+03  0.17120000000E+03 0.  0.
         13    1    1    2    0    0  0.16801404727E+02  0.27040998822E+02  0.53269179917E+02  0.62057388852E+02  0.10566000000E+00 0. -1.
        994    1    1    2    0    0  0.77830808752E+01 -0.19759579732E+01  0.97151667240E+01  0.17166334851E+03  0.17120000000E+03 0.  0.
        998    1    1    2    0    0 -0.24584485602E+02 -0.25065040848E+02  0.14370156496E+04  0.14374792626E+04  0.10000000000E+02 0. -1.
</event>
<event>
 5    1  0.1334136E-008  0.4035699E+03  0.7957747E-01  0.3354541E+00
         13   -1    0    0    0    0  0.00000000000E+00  0.00000000000E+00  0.14999999963E+04  0.15000000000E+04  0.10566000000E+00 0. -1.
        994   -1    0    0    0    0 -0.00000000000E+00 -0.00000000000E+00  0.11368683772E-12  0.17120000000E+03  0.17120000000E+03 0.  0.
         13    1    1    2    0    0 -0.75980939869E+01  0.53044032529E+02  0.36085710520E+02  0.64603328760E+02  0.10566000000E+00 0. -1.
        994    1    1    2    0    0  0.60347728028E+01 -0.54156925818E+02  0.41820222609E+02  0.18446615439E+03  0.17120000000E+03 0.  0.
        998    1    1    2    0    0  0.15633211840E+01  0.11128932896E+01  0.14220940632E+04  0.14221305168E+04  0.10000000000E+02 0. -1.
</event>
<event>
 5    1  0.1334136E-008  0.3701864E+03  0.7957747E-01  0.3495035E+00
         13   -1    0    0    0    0  0.00000000000E+00  0.00000000000E+00  0.14999999963E+04  0.15000000000E+04  0.10566000000E+00 0.  1.
        994   -1    0    0    0    0 -0.00000000000E+00 -0.00000000000E+00  0.11368683772E-12  0.17120000000E+03  0.17120000000E+03 0.  0.
         13    1    1    2    0    0  0.75140605380E+02  0.16396169286E+02  0.43482111872E+03  0.44157033573E+03  0.10566000000E+00 0.  1.
        994    1    1    2    0    0 -0.83462426744E+01 -0.56459949976E+01  0.95225921010E+01  0.17176046340E+03  0.17120000000E+03 0.  0.
        998    1    1    2    0    0 -0.66794362706E+02 -0.10750174288E+02  0.10556562855E+04  0.10578692009E+04  0.10000000000E+02 0.  1.
</event>
<event>
 5    1  0.1334136E-008  0.3808290E+03  0.7957747E-01  0.3447557E+00
         13   -1    0    0    0    0  0.00000000000E+00  0.00000000000E+00  0.14999999963E+04  0.15000000000E+04  0.10566000000E+00 0.  1.
        994   -1    0    0    0    0 -0.00000000000E+00 -0.00000000000E+00  0.11368683772E-12  0.17120000000E+03  0.17120000000E+03 0.  0.
         13    1    1    2    0    0 -0.19943428641E+02 -0.30704242918E+02  0.21814597842E+03  0.22119712915E+03  0.10566000000E+00 0.  1.
        994    1    1    2    0    0  0.15866759132E+01 -0.35146006464E+01  0.37648203704E+01  0.17128480327E+03  0.17120000000E+03 0.  0.
        998    1    1    2    0    0  0.18356752728E+02  0.34218843564E+02  0.12780891975E+04  0.12787180676E+04  0.10000000000E+02 0.  1.
</event>
<event>
 5    1  0.1334136E-008  0.3805459E+03  0.7957747E-01  0.3448785E+00
         13   -1    0    0    0    0  0.00000000000E+00  0.00000000000E+00  0.14999999963E+04  0.15000000000E+04  0.10566000000E+00 0. -1.
        994   -1    0    0    0    0 -0.00000000000E+00 -0.00000000000E+00  0.11368683772E-12  0.17120000000E+03  0.17120000000E+03 0.  0.
         13    1    1    2    0    0  0.12281249051E+02 -0.35077238827E+02  0.19987911433E+03  0.20330497601E+03  0.10566000000E+00 0. -1.
        994    1    1    2    0    0 -0.18871422417E+00  0.67638966991E+01  0.40106363072E+01  0.17138060309E+03  0.17120000000E+03 0.  0.
        998    1    1    2    0    0 -0.12092534827E+02  0.28313342128E+02  0.12961102456E+04  0.12965144209E+04  0.10000000000E+02 0. -1.
</event>
<event>
 5    1  0.1334136E-008  0.3846848E+03  0.7957747E-01  0.3431010E+00
         13   -1    0    0    0    0  0.00000000000E+00  0.00000000000E+00  0.14999999963E+04  0.15000000000E+04  0.10566000000E+00 0. -1.
        994   -1    0    0    0    0 -0.00000000000E+00 -0.00000000000E+00  0.11368683772E-12  0.17120000000E+03  0.17120000000E+03 0.  0.
         13    1    1    2    0    0  0.74070624641E+01  0.10615549195E+02  0.46216208558E+02  0.47994828436E+02  0.10566000000E+00 0. -1.
        994    1    1    2    0    0 -0.34018397227E+01 -0.10514684139E+02  0.21888733013E+01  0.17157028374E+03  0.17120000000E+03 0.  0.
        998    1    1    2    0    0 -0.40052227414E+01 -0.10086505538E+00  0.14515949144E+04  0.14516348878E+04  0.10000000000E+02 0. -1.
</event>
<event>
 5    1  0.1334136E-008  0.3843369E+03  0.7957747E-01  0.3432489E+00
         13   -1    0    0    0    0  0.00000000000E+00  0.00000000000E+00  0.14999999963E+04  0.15000000000E+04  0.10566000000E+00 0. -1.
        994   -1    0    0    0    0 -0.00000000000E+00 -0.00000000000E+00  0.11368683772E-12  0.17120000000E+03  0.17120000000E+03 0.  0.
         13    1    1    2    0    0  0.14110825146E+02  0.33017544036E+01  0.54430409348E+02  0.56326704096E+02  0.10566000000E+00 0. -1.
        994    1    1    2    0    0 -0.95238274004E+01  0.15320843222E+02  0.30329762006E+01  0.17217453491E+03  0.17120000000E+03 0.  0.
        998    1    1    2    0    0 -0.45869977454E+01 -0.18622597626E+02  0.14425366107E+04  0.14426987610E+04  0.10000000000E+02 0. -1.
</event>
<event>
 5    1  0.1334136E-008  0.3810590E+03  0.7957747E-01  0.3446560E+00
         13   -1    0    0    0    0  0.00000000000E+00  0.00000000000E+00  0.14999999963E+04  0.15000000000E+04  0.10566000000E+00 0.  1.
        994   -1    0    0    0    0 -0.00000000000E+00 -0.00000000000E+00  0.11368683772E-12  0.17120000000E+03  0.17120000000E+03 0.  0.
         13    1    1    2    0    0 -0.50917724010E+01 -0.16680849036E+02  0.40233893696E+02  0.43851502104E+02  0.10566000000E+00 0.  1.
        994    1    1    2    0    0  0.40349046849E+01  0.15808959457E+02  0.44868341003E+01  0.17203422722E+03  0.17120000000E+03 0.  0.
        998    1    1    2    0    0  0.10568677161E+01  0.87188957957E+00  0.14552792685E+04  0.14553142707E+04  0.10000000000E+02 0.  1.
</event>
<event>
 5    1  0.1334136E-008  0.3841045E+03  0.7957747E-01  0.3433479E+00
         13   -1    0    0    0    0  0.00000000000E+00  0.00000000000E+00  0.14999999963E+04  0.15000000000E+04  0.10566000000E+00 0.  1.
        994   -1    0    0    0    0 -0.00000000000E+00 -0.00000000000E+00  0.11368683772E-12  0.17120000000E+03  0.17120000000E+03 0.  0.
         13    1    1    2    0    0 -0.68257241413E+01 -0.76663936540E+01  0.24784505999E+02  0.26826237219E+02  0.10566000000E+00 0.  1.
        994    1    1    2    0    0  0.56426722669E+01  0.43354062272E+01  0.22424060435E+01  0.17136249264E+03  0.17120000000E+03 0.  0.
        998    1    1    2    0    0  0.11830518744E+01  0.33309874268E+01  0.14729730842E+04  0.14730112701E+04  0.10000000000E+02 0.  1.
</event>
<event>
 5    1  0.1334136E-008  0.2223934E+03  0.7957747E-01  0.4675019E+00
         13   -1    0    0    0    0  0.00000000000E+00  0.00000000000E+00  0.14999999963E+04  0.15000000000E+04  0.10566000000E+00 0.  1.
        994   -1    0    0    0    0 -0.00000000000E+00 -0.00000000000E+00  0.11368683772E-12  0.17120000000E+03  0.17120000000E+03 0.  0.
         13    1    1    2    0    0 -0.34486981797E+02  0.13968782961E+03  0.14329040849E+03  0.20306204467E+03  0.10566000000E+00 0.  1.
        994    1    1    2    0    0  0.72980151941E+02 -0.12016989155E+03  0.16655383518E+03  0.27715794311E+03  0.17120000000E+03 0.  0.
        998    1    1    2    0    0 -0.38493170144E+02 -0.19517938063E+02  0.11901557526E+04  0.11909800122E+04  0.10000000000E+02 0.  1.
</event>
<event>
 5    1  0.1334136E-008  0.3782791E+03  0.7957747E-01  0.3458686E+00
         13   -1    0    0    0    0  0.00000000000E+00  0.00000000000E+00  0.14999999963E+04  0.15000000000E+04  0.10566000000E+00 0.  1.
        994   -1    0    0    0    0 -0.00000000000E+00 -0.00000000000E+00  0.11368683772E-12  0.17120000000E+03  0.17120000000E+03 0.  0.
         13    1    1    2    0    0  0.24748684963E+02  0.62690034682E+02  0.29961579299E+03  0.30710286945E+03  0.10566000000E+00 0.  1.
        994    1    1    2    0    0 -0.47711695743E+02 -0.77782752219E+02  0.33529623262E+02  0.19687619991E+03  0.17120000000E+03 0.  0.
        998    1    1    2    0    0  0.22963010780E+02  0.15092717537E+02  0.11668545800E+04  0.11672209306E+04  0.10000000000E+02 0.  1.
</event>
<event>
 5    1  0.1334136E-008  0.3855373E+03  0.7957747E-01  0.3427397E+00
         13   -1    0    0    0    0  0.00000000000E+00  0.00000000000E+00  0.14999999963E+04  0.15000000000E+04  0.10566000000E+00 0. -1.
        994   -1    0    0    0    0 -0.00000000000E+00 -0.00000000000E+00  0.11368683772E-12  0.17120000000E+03  0.17120000000E+03 0.  0.
         13    1    1    2    0    0  0.31506326558E+01 -0.12742389021E+02  0.64003502745E+02  0.65335706101E+02  0.10566000000E+00 0. -1.
        994    1    1    2    0    0 -0.51407385242E+01  0.65853460385E+01  0.15927678542E+01  0.17141111657E+03  0.17120000000E+03 0.  0.
        998    1    1    2    0    0  0.19901058685E+01  0.61570429821E+01  0.14344037257E+04  0.14344531773E+04  0.10000000000E+02 0. -1.
</event>
<event>
 5    1  0.1334136E-008  0.3856916E+03  0.7957747E-01  0.3426744E+00
         13   -1    0    0    0    0  0.00000000000E+00  0.00000000000E+00  0.14999999963E+04  0.15000000000E+04  0.10566000000E+00 0.  1.
        994   -1    0    0    0    0 -0.00000000000E+00 -0.00000000000E+00  0.11368683772E-12  0.17120000000E+03  0.17120000000E+03 0.  0.
         13    1    1    2    0    0 -0.11256332644E+02  0.43332363529E+01  0.56392093819E+02  0.57667680474E+02  0.10566000000E+00 0.  1.
        994    1    1    2    0    0  0.90248133706E+01 -0.29516661902E+01  0.15830665756E+01  0.17147042220E+03  0.17120000000E+03 0.  0.
        998    1    1    2    0    0  0.22315192730E+01 -0.13815701626E+01  0.14420248359E+04  0.14420618973E+04  0.10000000000E+02 0.  0.
</event>
<event>
 5    1  0.1334136E-008  0.3764804E+03  0.7957747E-01  0.3466628E+00
         13   -1    0    0    0    0  0.00000000000E+00  0.00000000000E+00  0.14999999963E+04  0.15000000000E+04  0.10566000000E+00 0. -1.
        994   -1    0    0    0    0 -0.00000000000E+00 -0.00000000000E+00  0.11368683772E-12  0.17120000000E+03  0.17120000000E+03 0.  0.
         13    1    1    2    0    0  0.89627674777E+01 -0.32694594524E+02  0.92203276053E+02  0.98238093380E+02  0.10566000000E+00 0. -1.
        994    1    1    2    0    0 -0.11974911923E+02  0.25443295090E+02  0.85996721976E+01  0.17370709295E+03  0.17120000000E+03 0.  0.
        998    1    1    2    0    0  0.30121444452E+01  0.72512994347E+01  0.13991970480E+04  0.13992548137E+04  0.10000000000E+02 0. -1.
</event>
<event>
 5    1  0.1334136E-008  0.3859422E+03  0.7957747E-01  0.3425686E+00
         13   -1    0    0    0    0  0.00000000000E+00  0.00000000000E+00  0.14999999963E+04  0.15000000000E+04  0.10566000000E+00 0.  1.
        994   -1    0    0    0    0 -0.00000000000E+00 -0.00000000000E+00  0.11368683772E-12  0.17120000000E+03  0.17120000000E+03 0.  0.
         13    1    1    2    0    0 -0.96777254318E+01 -0.56882200230E+01  0.54178797575E+02  0.55329625764E+02  0.10566000000E+00 0.  1.
        994    1    1    2    0    0  0.63760855668E+01  0.71532386136E+01  0.14641750043E+01  0.17147421701E+03  0.17120000000E+03 0.  0.
        998    1    1    2    0    0  0.33016398650E+01 -0.14650185906E+01  0.14443570237E+04  0.14443961572E+04  0.10000000000E+02 0.  1.
</event>
<event>
 5    1  0.1334136E-008  0.3688367E+03  0.7957747E-01  0.3501254E+00
         13   -1    0    0    0    0  0.00000000000E+00  0.00000000000E+00  0.14999999963E+04  0.15000000000E+04  0.10566000000E+00 0. -1.
        994   -1    0    0    0    0 -0.00000000000E+00 -0.00000000000E+00  0.11368683772E-12  0.17120000000E+03  0.17120000000E+03 0.  0.
         13    1    1    2    0    0 -0.50282898910E+02  0.30390864101E+02  0.21119776491E+03  0.21921788615E+03  0.10566000000E+00 0. -1.
        994    1    1    2    0    0 -0.10342252852E+02 -0.96203690097E+01  0.10571294279E+02  0.17210667029E+03  0.17120000000E+03 0.  0.
        998    1    1    2    0    0  0.60625151762E+02 -0.20770495091E+02  0.12782309371E+04  0.12798754436E+04  0.10000000000E+02 0. -1.
</event>
<event>
 5    1  0.1334136E-008  0.3821531E+03  0.7957747E-01  0.3441837E+00
         13   -1    0    0    0    0  0.00000000000E+00  0.00000000000E+00  0.14999999963E+04  0.15000000000E+04  0.10566000000E+00 0. -1.
        994   -1    0    0    0    0 -0.00000000000E+00 -0.00000000000E+00  0.11368683772E-12  0.17120000000E+03  0.17120000000E+03 0.  0.
         13    1    1    2    0    0  0.68700341544E+01  0.13005437088E+02  0.33669715915E+02  0.36742342018E+02  0.10566000000E+00 0. -1.
        994    1    1    2    0    0 -0.94273154585E+01 -0.12804665013E+02  0.38898883045E+01  0.17198082729E+03  0.17120000000E+03 0.  0.
        998    1    1    2    0    0  0.25572813041E+01 -0.20077207534E+00  0.14624403921E+04  0.14624768307E+04  0.10000000000E+02 0. -1.
</event>
<event>
 5    1  0.1334136E-008  0.3758092E+03  0.7957747E-01  0.3469612E+00
         13   -1    0    0    0    0  0.00000000000E+00  0.00000000000E+00  0.14999999963E+04  0.15000000000E+04  0.10566000000E+00 0.  1.
        994   -1    0    0    0    0 -0.00000000000E+00 -0.00000000000E+00  0.11368683772E-12  0.17120000000E+03  0.17120000000E+03 0.  0.
         13    1    1    2    0    0 -0.54724348899E+02 -0.15657337025E+02  0.25123338105E+03  0.25760071716E+03  0.10566000000E+00 0.  1.
        994    1    1    2    0    0  0.35486285815E+02  0.55389458107E+01  0.10649184468E+02  0.17525068197E+03  0.17120000000E+03 0.  0.
        998    1    1    2    0    0  0.19238063084E+02  0.10118391214E+02  0.12381174308E+04  0.12383486009E+04  0.10000000000E+02 0.  1.
</event>
<event>
 5    1  0.1334136E-008  0.3736247E+03  0.7957747E-01  0.3479397E+00
         13   -1    0    0    0    0  0.00000000000E+00  0.00000000000E+00  0.14999999963E+04  0.15000000000E+04  0.10566000000E+00 0.  1.
        994   -1    0    0    0    0 -0.00000000000E+00 -0.00000000000E+00  0.11368683772E-12  0.17120000000E+03  0.17120000000E+03 0.  0.
         13    1    1    2    0    0  0.79931788855E+01 -0.81515699409E+01  0.53306960453E+01  0.12600257361E+02  0.10566000000E+00 0.  1.
        994    1    1    2    0    0 -0.12226534697E+02  0.92420568090E+01  0.81892777309E+01  0.17207965607E+03  0.17120000000E+03 0.  0.
        998    1    1    2    0    0  0.42333558117E+01 -0.10904868681E+01  0.14864800225E+04  0.14865200866E+04  0.10000000000E+02 0.  1.
</event>
<event>
 5    1  0.1334136E-008  0.3843659E+03  0.7957747E-01  0.3432366E+00
         13   -1    0    0    0    0  0.00000000000E+00  0.00000000000E+00  0.14999999963E+04  0.15000000000E+04  0.10566000000E+00 0. -1.
        994   -1    0    0    0    0 -0.00000000000E+00 -0.00000000000E+00  0.11368683772E-12  0.17120000000E+03  0.17120000000E+03 0.  0.
         13    1    1    2    0    0  0.12861715203E+02 -0.36254451428E+01  0.47893486305E+02  0.49722879693E+02  0.10566000000E+00 0. -1.
        994    1    1    2    0    0 -0.87991101361E+00 -0.65163319959E+01  0.20877878259E+01  0.17133894970E+03  0.17120000000E+03 0.  0.
        998    1    1    2    0    0 -0.11981804189E+02  0.10141777139E+02  0.14500187221E+04  0.14501381706E+04  0.10000000000E+02 0. -1.
</event>
<event>
 5    1  0.1334136E-008  0.3857879E+03  0.7957747E-01  0.3426337E+00
         13   -1    0    0    0    0  0.00000000000E+00  0.00000000000E+00  0.14999999963E+04  0.15000000000E+04  0.10566000000E+00 0. -1.
        994   -1    0    0    0    0 -0.00000000000E+00 -0.00000000000E+00  0.11368683772E-12  0.17120000000E+03  0.17120000000E+03 0.  0.
         13    1    1    2    0    0  0.10245262064E+02 -0.16599088145E+01  0.47793303025E+02  0.48907378484E+02  0.10566000000E+00 0. -1.
        994    1    1    2    0    0  0.78891485702E+01  0.63822006850E+01  0.15772900875E+01  0.17150772284E+03  0.17120000000E+03 0.  0.
        998    1    1    2    0    0 -0.18134410634E+02 -0.47222918705E+01  0.14506294032E+04  0.14507848987E+04  0.10000000000E+02 0. -1.
</event>
<event>
 5    1  0.1334136E-008  0.3819497E+03  0.7957747E-01  0.3442713E+00
         13   -1    0    0    0    0  0.00000000000E+00  0.00000000000E+00  0.14999999963E+04  0.15000000000E+04  0.10566000000E+00 0. -1.
        994   -1    0    0    0    0 -0.00000000000E+00 -0.00000000000E+00  0.11368683772E-12  0.17120000000E+03  0.17120000000E+03 0.  0.
         13    1    1    2    0    0 -0.72336298505E+01 -0.10022270759E+02  0.23317293915E+02  0.26390882356E+02  0.10566000000E+00 0. -1.
        994    1    1    2    0    0  0.44516501866E+01  0.21049609935E+01  0.32327242005E+01  0.17130130927E+03  0.17120000000E+03 0.  0.
        998    1    1    2    0    0  0.27819796638E+01  0.79173097652E+01  0.14734499782E+04  0.14735078084E+04  0.10000000000E+02 0. -1.
</event>
<event>
 5    1  0.1334136E-008  0.3827210E+03  0.7957747E-01  0.3439396E+00
         13   -1    0    0    0    0  0.00000000000E+00  0.00000000000E+00  0.14999999963E+04  0.15000000000E+04  0.10566000000E+00 0.  1.
        994   -1    0    0    0    0 -0.00000000000E+00 -0.00000000000E+00  0.11368683772E-12  0.17120000000E+03  0.17120000000E+03 0.  0.
         13    1    1    2    0    0 -0.10842846467E+02  0.10131691426E+02  0.38340872165E+02  0.41112676063E+02  0.10566000000E+00 0.  1.
        994    1    1    2    0    0  0.12668046792E+02 -0.64084395691E+01  0.34339241961E+01  0.17182194081E+03  0.17120000000E+03 0.  0.
        998    1    1    2    0    0 -0.18252003250E+01 -0.37232518567E+01  0.14582251999E+04  0.14582653831E+04  0.10000000000E+02 0.  1.
</event>
<event>
 5    1  0.1334136E-008  0.3862899E+03  0.7957747E-01  0.3424220E+00
         13   -1    0    0    0    0  0.00000000000E+00  0.00000000000E+00  0.14999999963E+04  0.15000000000E+04  0.10566000000E+00 0.  1.
        994   -1    0    0    0    0 -0.00000000000E+00 -0.00000000000E+00  0.11368683772E-12  0.17120000000E+03  0.17120000000E+03 0.  0.
         13    1    1    2    0    0 -0.55096302066E+01 -0.10596305021E+02  0.65880203875E+02  0.66954089732E+02  0.10566000000E+00 0.  1.
        994    1    1    2    0    0  0.67072909284E+00  0.23693762835E+02  0.28332502191E+01  0.17285633220E+03  0.17120000000E+03 0.  0.
        998    1    1    2    0    0  0.48389011137E+01 -0.13097457813E+02  0.14312865422E+04  0.14313895781E+04  0.10000000000E+02 0.  1.
</event>
<event>
 5    1  0.1334136E-008  0.3797270E+03  0.7957747E-01  0.3452348E+00
         13   -1    0    0    0    0  0.00000000000E+00  0.00000000000E+00  0.14999999963E+04  0.15000000000E+04  0.10566000000E+00 0.  1.
        994   -1    0    0    0    0 -0.00000000000E+00 -0.00000000000E+00  0.11368683772E-12  0.17120000000E+03  0.17120000000E+03 0.  0.
         13    1    1    2    0    0  0.21885883339E+02 -0.44983592142E+01  0.57275846722E+02  0.61479760140E+02  0.10566000000E+00 0.  1.
        994    1    1    2    0    0 -0.12049125968E+02  0.37978954868E+01  0.48052429134E+01  0.17173274529E+03  0.17120000000E+03 0.  0.
        998    1    1    2    0    0 -0.98367573714E+01  0.70046372741E+00  0.14379189066E+04  0.14379874946E+04  0.10000000000E+02 0.  1.
</event>
<event>
 5    1  0.1334136E-008  0.3824119E+03  0.7957747E-01  0.3440724E+00
         13   -1    0    0    0    0  0.00000000000E+00  0.00000000000E+00  0.14999999963E+04  0.15000000000E+04  0.10566000000E+00 0. -1.
        994   -1    0    0    0    0 -0.00000000000E+00 -0.00000000000E+00  0.11368683772E-12  0.17120000000E+03  0.17120000000E+03 0.  0.
         13    1    1    2    0    0  0.12116499675E+02  0.23242579769E+02  0.11344164255E+03  0.11643042775E+03  0.10566000000E+00 0. -1.
        994    1    1    2    0    0 -0.12369383691E+02 -0.16570883888E+02  0.43399811051E+01  0.17249890226E+03  0.17120000000E+03 0.  0.
        998    1    1    2    0    0  0.25288401634E+00 -0.66716958807E+01  0.13822183726E+04  0.13822706700E+04  0.10000000000E+02 0. -1.
</event>
<event>
 5    1  0.1334136E-008  0.3730334E+03  0.7957747E-01  0.3482065E+00
         13   -1    0    0    0    0  0.00000000000E+00  0.00000000000E+00  0.14999999963E+04  0.15000000000E+04  0.10566000000E+00 0. -1.
        994   -1    0    0    0    0 -0.00000000000E+00 -0.00000000000E+00  0.11368683772E-12  0.17120000000E+03  0.17120000000E+03 0.  0.
         13    1    1    2    0    0  0.41144405190E+02 -0.11841611782E+03  0.41680497675E+03  0.43524893894E+03  0.10566000000E+00 0. -1.
        994    1    1    2    0    0 -0.45014007828E+02  0.12222161666E+03  0.75180935888E+02  0.22787276625E+03  0.17120000000E+03 0.  0.
        998    1    1    2    0    0  0.38696026381E+01 -0.38054988368E+01  0.10080140836E+04  0.10080782948E+04  0.10000000000E+02 0. -1.
</event>
<event>
 5    1  0.1334136E-008  0.3816334E+03  0.7957747E-01  0.3444077E+00
         13   -1    0    0    0    0  0.00000000000E+00  0.00000000000E+00  0.14999999963E+04  0.15000000000E+04  0.10566000000E+00 0. -1.
        994   -1    0    0    0    0 -0.00000000000E+00 -0.00000000000E+00  0.11368683772E-12  0.17120000000E+03  0.17120000000E+03 0.  0.
         13    1    1    2    0    0  0.14481380475E+03  0.62015139238E+02  0.90871090274E+03  0.92226483803E+03  0.10566000000E+00 0. -1.
        994    1    1    2    0    0 -0.15424238831E+03 -0.71946833407E+02  0.10650680555E+03  0.26385640189E+03  0.17120000000E+03 0.  0.
        998    1    1    2    0    0  0.94285835618E+01  0.99316941691E+01  0.48478228799E+03  0.48507876008E+03  0.10000000000E+02 0.  1.
</event>
<event>
 5    1  0.1334136E-008  0.3804288E+03  0.7957747E-01  0.3449293E+00
         13   -1    0    0    0    0  0.00000000000E+00  0.00000000000E+00  0.14999999963E+04  0.15000000000E+04  0.10566000000E+00 0. -1.
        994   -1    0    0    0    0 -0.00000000000E+00 -0.00000000000E+00  0.11368683772E-12  0.17120000000E+03  0.17120000000E+03 0.  0.
         13    1    1    2    0    0  0.30430619195E+02 -0.20949283840E+02  0.35902142949E+02  0.51515726825E+02  0.10566000000E+00 0. -1.
        994    1    1    2    0    0 -0.15996013617E+02  0.87842480519E+00  0.17495019469E+02  0.17283564386E+03  0.17120000000E+03 0.  0.
        998    1    1    2    0    0 -0.14434605579E+02  0.20070859034E+02  0.14466028339E+04  0.14468486293E+04  0.10000000000E+02 0. -1.
</event>
<event>
 5    1  0.1334136E-008  0.3846577E+03  0.7957747E-01  0.3431125E+00
         13   -1    0    0    0    0  0.00000000000E+00  0.00000000000E+00  0.14999999963E+04  0.15000000000E+04  0.10566000000E+00 0. -1.
        994   -1    0    0    0    0 -0.00000000000E+00 -0.00000000000E+00  0.11368683772E-12  0.17120000000E+03  0.17120000000E+03 0.  0.
         13    1    1    2    0    0 -0.11282834889E+02  0.18857101337E+02  0.12773948530E+03  0.12961589371E+03  0.10566000000E+00 0. -1.
        994    1    1    2    0    0  0.15096263083E+02 -0.13466090504E+02  0.31486463063E+01  0.17241979795E+03  0.17120000000E+03 0.  0.
        998    1    1    2    0    0 -0.38134281939E+01 -0.53910108336E+01  0.13691118647E+04  0.13691643083E+04  0.10000000000E+02 0. -1.
</event>
<event>
 5    1  0.1334136E-008  0.4265250E+03  0.7957747E-01  0.3270636E+00
         13   -1    0    0    0    0  0.00000000000E+00  0.00000000000E+00  0.14999999963E+04  0.15000000000E+04  0.10566000000E+00 0. -1.
        994   -1    0    0    0    0 -0.00000000000E+00 -0.00000000000E+00  0.11368683772E-12  0.17120000000E+03  0.17120000000E+03 0.  0.
         13    1    1    2    0    0  0.10185260610E+02 -0.77633408661E+02  0.44672652234E+02  0.90146229515E+02  0.10566000000E+00 0. -1.
        994    1    1    2    0    0 -0.47087957854E+02  0.11705654322E+03  0.11919997332E+03  0.24379824389E+03  0.17120000000E+03 0.  0.
        998    1    1    2    0    0  0.36902697244E+02 -0.39423134558E+02  0.13361273707E+04  0.13372555266E+04  0.10000000000E+02 0. -1.
</event>
<event>
 5    1  0.1334136E-008  0.3822676E+03  0.7957747E-01  0.3441344E+00
         13   -1    0    0    0    0  0.00000000000E+00  0.00000000000E+00  0.14999999963E+04  0.15000000000E+04  0.10566000000E+00 0.  1.
        994   -1    0    0    0    0 -0.00000000000E+00 -0.00000000000E+00  0.11368683772E-12  0.17120000000E+03  0.17120000000E+03 0.  0.
         13    1    1    2    0    0 -0.16178658450E+02  0.24582767418E+01  0.43513779250E+02  0.46489270401E+02  0.10566000000E+00 0.  1.
        994    1    1    2    0    0  0.11467244996E+02 -0.49140462362E+01  0.35094547554E+01  0.17168984196E+03  0.17120000000E+03 0.  0.
        998    1    1    2    0    0  0.47114134530E+01  0.24557694945E+01  0.14529767623E+04  0.14530208876E+04  0.10000000000E+02 0.  1.
</event>
<event>
 5    1  0.1334136E-008  0.3771195E+03  0.7957747E-01  0.3463798E+00
         13   -1    0    0    0    0  0.00000000000E+00  0.00000000000E+00  0.14999999963E+04  0.15000000000E+04  0.10566000000E+00 0. -1.
        994   -1    0    0    0    0 -0.00000000000E+00 -0.00000000000E+00  0.11368683772E-12  0.17120000000E+03  0.17120000000E+03 0.  0.
         13    1    1    2    0    0  0.11394658319E+02 -0.21465877982E+02  0.52105929034E+02  0.57494879427E+02  0.10566000000E+00 0. -1.
        994    1    1    2    0    0 -0.17833253264E+01  0.74831785171E+01  0.57940969256E+01  0.17147066737E+03  0.17120000000E+03 0.  0.
        998    1    1    2    0    0 -0.96113329923E+01  0.13982699465E+02  0.14420999703E+04  0.14422344532E+04  0.10000000000E+02 0. -1.
</event>
<event>
 5    1  0.1334136E-008  0.3726419E+03  0.7957747E-01  0.3483837E+00
         13   -1    0    0    0    0  0.00000000000E+00  0.00000000000E+00  0.14999999963E+04  0.15000000000E+04  0.10566000000E+00 0.  1.
        994   -1    0    0    0    0 -0.00000000000E+00 -0.00000000000E+00  0.11368683772E-12  0.17120000000E+03  0.17120000000E+03 0.  0.
         13    1    1    2    0    0  0.20163337484E+02 -0.62186295584E+02  0.28416156874E+03  0.29158447121E+03  0.10566000000E+00 0.  1.
        994    1    1    2    0    0 -0.47225130816E+02  0.17372466791E+02  0.16620815864E+02  0.17921413756E+03  0.17120000000E+03 0.  0.
        998    1    1    2    0    0  0.27061793332E+02  0.44813828793E+02  0.11992176117E+04  0.12004013912E+04  0.10000000000E+02 0.  1.
</event>
<event>
 5    1  0.1334136E-008  0.3780936E+03  0.7957747E-01  0.3459502E+00
         13   -1    0    0    0    0  0.00000000000E+00  0.00000000000E+00  0.14999999963E+04  0.15000000000E+04  0.10566000000E+00 0. -1.
        994   -1    0    0    0    0 -0.00000000000E+00 -0.00000000000E+00  0.11368683772E-12  0.17120000000E+03  0.17120000000E+03 0.  0.
         13    1    1    2    0    0 -0.12469458961E+02  0.25082553834E+02  0.79564183777E+02  0.84351007212E+02  0.10566000000E+00 0. -1.
        994    1    1    2    0    0  0.20728769561E+02  0.57418805206E+01  0.66565484120E+01  0.17267426188E+03  0.17120000000E+03 0.  0.
        998    1    1    2    0    0 -0.82593106000E+01 -0.30824434354E+02  0.14137792641E+04  0.14141747309E+04  0.10000000000E+02 0. -1.
</event>
<event>
 5    1  0.1334136E-008  0.3695356E+03  0.7957747E-01  0.3498028E+00
         13   -1    0    0    0    0  0.00000000000E+00  0.00000000000E+00  0.14999999963E+04  0.15000000000E+04  0.10566000000E+00 0. -1.
        994   -1    0    0    0    0 -0.00000000000E+00 -0.00000000000E+00  0.11368683772E-12  0.17120000000E+03  0.17120000000E+03 0.  0.
         13    1    1    2    0    0  0.48007261011E+02  0.22890756937E+02  0.14043940034E+03  0.15017296759E+03  0.10566000000E+00 0. -1.
        994    1    1    2    0    0 -0.30815628411E+02 -0.29540990457E+02  0.15849441440E+02  0.17715224488E+03  0.17120000000E+03 0.  0.
        998    1    1    2    0    0 -0.17191632600E+02  0.66502335199E+01  0.13437111545E+04  0.13438747875E+04  0.10000000000E+02 0. -1.
</event>
<event>
 5    1  0.1334136E-008  0.3858697E+03  0.7957747E-01  0.3425992E+00
         13   -1    0    0    0    0  0.00000000000E+00  0.00000000000E+00  0.14999999963E+04  0.15000000000E+04  0.10566000000E+00 0.  1.
        994   -1    0    0    0    0 -0.00000000000E+00 -0.00000000000E+00  0.11368683772E-12  0.17120000000E+03  0.17120000000E+03 0.  0.
         13    1    1    2    0    0  0.60555653366E+00  0.10364629082E+02  0.47371730174E+02  0.48496228910E+02  0.10566000000E+00 0.  1.
        994    1    1    2    0    0 -0.68477816973E+01  0.16258327680E+00  0.13528650690E+01  0.17134231466E+03  0.17120000000E+03 0.  0.
        998    1    1    2    0    0  0.62422251636E+01 -0.10527212359E+02  0.14512754010E+04  0.14513614564E+04  0.10000000000E+02 0.  1.
</event>
<event>
 5    1  0.1334136E-008  0.3828854E+03  0.7957747E-01  0.3438690E+00
         13   -1    0    0    0    0  0.00000000000E+00  0.00000000000E+00  0.14999999963E+04  0.15000000000E+04  0.10566000000E+00 0.  1.
        994   -1    0    0    0    0 -0.00000000000E+00 -0.00000000000E+00  0.11368683772E-12  0.17120000000E+03  0.17120000000E+03 0.  0.
         13    1    1    2    0    0 -0.30783838253E+01  0.22269338977E+02  0.90927449836E+02  0.93665426937E+02  0.10566000000E+00 0.  1.
        994    1    1    2    0    0 -0.54246521633E+01 -0.19519147210E+02  0.40439034633E+01  0.17244192389E+03  0.17120000000E+03 0.  0.
        998    1    1    2    0    0  0.85030359886E+01 -0.27501917662E+01  0.14050286430E+04  0.14050926492E+04  0.10000000000E+02 0.  1.
</event>
<event>
 5    1  0.1334136E-008  0.3831885E+03  0.7957747E-01  0.3437391E+00
         13   -1    0    0    0    0  0.00000000000E+00  0.00000000000E+00  0.14999999963E+04  0.15000000000E+04  0.10566000000E+00 0. -1.
        994   -1    0    0    0    0 -0.00000000000E+00 -0.00000000000E+00  0.11368683772E-12  0.17120000000E+03  0.17120000000E+03 0.  0.
         13    1    1    2    0    0  0.50056220822E+01 -0.10259108997E+02  0.24460872524E+02  0.26993536606E+02  0.10566000000E+00 0. -1.
        994    1    1    2    0    0 -0.56124249530E+01  0.11255945549E+02  0.30556710134E+01  0.17168859237E+03  0.17120000000E+03 0.  0.
        998    1    1    2    0    0  0.60680287083E+00 -0.99683655288E+00  0.14724834527E+04  0.14725178710E+04  0.10000000000E+02 0. -1.
</event>
<event>
 5    1  0.1334136E-008  0.3812673E+03  0.7957747E-01  0.3445659E+00
         13   -1    0    0    0    0  0.00000000000E+00  0.00000000000E+00  0.14999999963E+04  0.15000000000E+04  0.10566000000E+00 0. -1.
        994   -1    0    0    0    0 -0.00000000000E+00 -0.00000000000E+00  0.11368683772E-12  0.17120000000E+03  0.17120000000E+03 0.  0.
         13    1    1    2    0    0  0.13536806712E+03  0.15059403310E+02  0.60311893392E+03  0.61830717192E+03  0.10566000000E+00 0. -1.
        994    1    1    2    0    0 -0.19359902640E+03 -0.90381634282E+01  0.14072208975E+03  0.29440519351E+03  0.17120000000E+03 0.  0.
        998    1    1    2    0    0  0.58230959275E+02 -0.60212398821E+01  0.75615897261E+03  0.75848763458E+03  0.10000000000E+02 0.  1.
</event>
<event>
 5    1  0.1334136E-008  0.3769920E+03  0.7957747E-01  0.3464362E+00
         13   -1    0    0    0    0  0.00000000000E+00  0.00000000000E+00  0.14999999963E+04  0.15000000000E+04  0.10566000000E+00 0.  1.
        994   -1    0    0    0    0 -0.00000000000E+00 -0.00000000000E+00  0.11368683772E-12  0.17120000000E+03  0.17120000000E+03 0.  0.
         13    1    1    2    0    0  0.62247226258E+02 -0.16083522942E+02  0.30990395355E+03  0.31650255683E+03  0.10566000000E+00 0.  1.
        994    1    1    2    0    0 -0.47747822877E+02  0.47874590565E+02  0.21255336959E+02  0.18529182486E+03  0.17120000000E+03 0.  0.
        998    1    1    2    0    0 -0.14499403381E+02 -0.31791067622E+02  0.11688407058E+04  0.11694056183E+04  0.10000000000E+02 0.  1.
</event>
<event>
 5    1  0.1334136E-008  0.3768270E+03  0.7957747E-01  0.3465092E+00
         13   -1    0    0    0    0  0.00000000000E+00  0.00000000000E+00  0.14999999963E+04  0.15000000000E+04  0.10566000000E+00 0. -1.
        994   -1    0    0    0    0 -0.00000000000E+00 -0.00000000000E+00  0.11368683772E-12  0.17120000000E+03  0.17120000000E+03 0.  0.
         13    1    1    2    0    0 -0.11673682173E+02  0.32477865098E+02  0.10546719566E+03  0.11097038840E+03  0.10566000000E+00 0. -1.
        994    1    1    2    0    0  0.20974121256E+02 -0.64746234594E+01  0.73729956598E+01  0.17275889435E+03  0.17120000000E+03 0.  0.
        998    1    1    2    0    0 -0.93004390832E+01 -0.26003241639E+02  0.13871598050E+04  0.13874707173E+04  0.10000000000E+02 0. -1.
</event>
<event>
 5    1  0.1334136E-008  0.3763324E+03  0.7957747E-01  0.3467285E+00
         13   -1    0    0    0    0  0.00000000000E+00  0.00000000000E+00  0.14999999963E+04  0.15000000000E+04  0.10566000000E+00 0.  1.
        994   -1    0    0    0    0 -0.00000000000E+00 -0.00000000000E+00  0.11368683772E-12  0.17120000000E+03  0.17120000000E+03 0.  0.
         13    1    1    2    0    0 -0.25572140533E+01  0.11132490483E+03  0.55281415852E+03  0.56391779437E+03  0.10566000000E+00 0.  1.
        994    1    1    2    0    0 -0.63533534463E+01 -0.12225001887E+03  0.58519395526E+02  0.21844768680E+03  0.17120000000E+03 0.  0.
        998    1    1    2    0    0  0.89105674996E+01  0.10925114043E+02  0.88866644223E+03  0.88883451884E+03  0.10000000000E+02 0.  0.
</event>
<event>
 5    1  0.1334136E-008  0.3784225E+03  0.7957747E-01  0.3458056E+00
         13   -1    0    0    0    0  0.00000000000E+00  0.00000000000E+00  0.14999999963E+04  0.15000000000E+04  0.10566000000E+00 0. -1.
        994   -1    0    0    0    0 -0.00000000000E+00 -0.00000000000E+00  0.11368683772E-12  0.17120000000E+03  0.17120000000E+03 0.  0.
         13    1    1    2    0    0 -0.36850706998E+02  0.13362676980E+02  0.19945110964E+03  0.20326655417E+03  0.10566000000E+00 0. -1.
        994    1    1    2    0    0 -0.60555273819E+01  0.21335703858E+02  0.65862891293E+01  0.17275618911E+03  0.17120000000E+03 0.  0.
        998    1    1    2    0    0  0.42906234380E+02 -0.34698380838E+02  0.12939625975E+04  0.12951772567E+04  0.10000000000E+02 0. -1.
</event>
<event>
 5    1  0.1334136E-008  0.3849024E+03  0.7957747E-01  0.3430086E+00
         13   -1    0    0    0    0  0.00000000000E+00  0.00000000000E+00  0.14999999963E+04  0.15000000000E+04  0.10566000000E+00 0.  1.
        994   -1    0    0    0    0 -0.00000000000E+00 -0.00000000000E+00  0.11368683772E-12  0.17120000000E+03  0.17120000000E+03 0.  0.
         13    1    1    2    0    0 -0.89983394684E+01 -0.12433874551E+02  0.75813536036E+02  0.77351630621E+02  0.10566000000E+00 0.  1.
        994    1    1    2    0    0 -0.83985818743E+01  0.45915558475E+01  0.19800638209E+01  0.17147880107E+03  0.17120000000E+03 0.  0.
        998    1    1    2    0    0  0.17396921343E+02  0.78423187039E+01  0.14222063964E+04  0.14223695683E+04  0.10000000000E+02 0.  1.
</event>
<event>
 5    1  0.1334136E-008  0.3813302E+03  0.7957747E-01  0.3445387E+00
         13   -1    0    0    0    0  0.00000000000E+00  0.00000000000E+00  0.14999999963E+04  0.15000000000E+04  0.10566000000E+00 0. -1.
        994   -1    0    0    0    0 -0.00000000000E+00 -0.00000000000E+00  0.11368683772E-12  0.17120000000E+03  0.17120000000E+03 0.  0.
         13    1    1    2    0    0  0.59929522587E+01  0.16013160486E+02  0.39874671775E+02  0.43385912445E+02  0.10566000000E+00 0. -1.
        994    1    1    2    0    0 -0.38823263135E+01 -0.18424502260E+02  0.46440442121E+01  0.17229492705E+03  0.17120000000E+03 0.  0.
        998    1    1    2    0    0 -0.21106259452E+01  0.24113417740E+01  0.14554812803E+04  0.14555191605E+04  0.10000000000E+02 0. -1.
</event>
<event>
 5    1  0.1334136E-008  0.3809014E+03  0.7957747E-01  0.3447243E+00
         13   -1    0    0    0    0  0.00000000000E+00  0.00000000000E+00  0.14999999963E+04  0.15000000000E+04  0.10566000000E+00 0. -1.
        994   -1    0    0    0    0 -0.00000000000E+00 -0.00000000000E+00  0.11368683772E-12  0.17120000000E+03  0.17120000000E+03 0.  0.
         13    1    1    2    0    0 -0.16155866777E+02  0.14594749440E+02  0.59198993436E+02  0.63075753903E+02  0.10566000000E+00 0. -1.
        994    1    1    2    0    0  0.17281058833E+02 -0.24445059421E+02  0.66715799920E+01  0.17392569075E+03  0.17120000000E+03 0.  0.
        998    1    1    2    0    0 -0.11251920558E+01  0.98503099810E+01  0.14341294229E+04  0.14341985553E+04  0.10000000000E+02 0. -1.
</event>
<event>
 5    1  0.1334136E-008  0.3817346E+03  0.7957747E-01  0.3443640E+00
         13   -1    0    0    0    0  0.00000000000E+00  0.00000000000E+00  0.14999999963E+04  0.15000000000E+04  0.10566000000E+00 0.  1.
        994   -1    0    0    0    0 -0.00000000000E+00 -0.00000000000E+00  0.11368683772E-12  0.17120000000E+03  0.17120000000E+03 0.  0.
         13    1    1    2    0    0  0.21285719008E+01 -0.10610527876E+02  0.16737336528E+02  0.19931475565E+02  0.10566000000E+00 0.  1.
        994    1    1    2    0    0 -0.19380704535E+01  0.49623447585E+01  0.33544230249E+01  0.17131571188E+03  0.17120000000E+03 0.  0.
        998    1    1    2    0    0 -0.19050144726E+00  0.56481831170E+01  0.14799082367E+04  0.14799528126E+04  0.10000000000E+02 0.  1.
</event>
<event>
 5    1  0.1334136E-008  0.3841881E+03  0.7957747E-01  0.3433123E+00
         13   -1    0    0    0    0  0.00000000000E+00  0.00000000000E+00  0.14999999963E+04  0.15000000000E+04  0.10566000000E+00 0. -1.
        994   -1    0    0    0    0 -0.00000000000E+00 -0.00000000000E+00  0.11368683772E-12  0.17120000000E+03  0.17120000000E+03 0.  0.
         13    1    1    2    0    0 -0.17587316169E+02  0.75998841494E+01  0.93387232942E+02  0.95332357412E+02  0.10566000000E+00 0. -1.
        994    1    1    2    0    0  0.80462077049E+01  0.18143945507E+01  0.22581419807E+01  0.17141345540E+03  0.17120000000E+03 0.  0.
        998    1    1    2    0    0  0.95411084638E+01 -0.94142787001E+01  0.14043546214E+04  0.14044541872E+04  0.10000000000E+02 0. -1.
</event>
<event>
 5    1  0.1334136E-008  0.3803320E+03  0.7957747E-01  0.3449714E+00
         13   -1    0    0    0    0  0.00000000000E+00  0.00000000000E+00  0.14999999963E+04  0.15000000000E+04  0.10566000000E+00 0.  1.
        994   -1    0    0    0    0 -0.00000000000E+00 -0.00000000000E+00  0.11368683772E-12  0.17120000000E+03  0.17120000000E+03 0.  0.
         13    1    1    2    0    0 -0.25363117634E+02  0.11293858789E+02  0.10622562817E+03  0.10979405370E+03  0.10566000000E+00 0.  1.
        994    1    1    2    0    0 -0.65411407257E+01 -0.10343894747E+02  0.44659887493E+01  0.17169498460E+03  0.17120000000E+03 0.  0.
        998    1    1    2    0    0  0.31904258360E+02 -0.94996404190E+00  0.13893083794E+04  0.13897109617E+04  0.10000000000E+02 0. -1.
</event>
<event>
 5    1  0.1334136E-008  0.3803354E+03  0.7957747E-01  0.3449700E+00
         13   -1    0    0    0    0  0.00000000000E+00  0.00000000000E+00  0.14999999963E+04  0.15000000000E+04  0.10566000000E+00 0. -1.
        994   -1    0    0    0    0 -0.00000000000E+00 -0.00000000000E+00  0.11368683772E-12  0.17120000000E+03  0.17120000000E+03 0.  0.
         13    1    1    2    0    0  0.18408419754E+02  0.10689613284E+02  0.66117062008E+02  0.69459447180E+02  0.10566000000E+00 0. -1.
        994    1    1    2    0    0  0.21650780116E+02  0.13110947132E+02  0.61061663707E+01  0.17316864174E+03  0.17120000000E+03 0.  0.
        998    1    1    2    0    0 -0.40059199870E+02 -0.23800560416E+02  0.14277767679E+04  0.14285719111E+04  0.10000000000E+02 0. -1.
</event>
<event>
 5    1  0.1334136E-008  0.4149456E+03  0.7957747E-01  0.3311818E+00
         13   -1    0    0    0    0  0.00000000000E+00  0.00000000000E+00  0.14999999963E+04  0.15000000000E+04  0.10566000000E+00 0.  1.
        994   -1    0    0    0    0 -0.00000000000E+00 -0.00000000000E+00  0.11368683772E-12  0.17120000000E+03  0.17120000000E+03 0.  0.
         13    1    1    2    0    0  0.14064104581E+02 -0.85340861044E+02  0.83643364234E+02  0.12032075941E+03  0.10566000000E+00 0.  1.
        994    1    1    2    0    0 -0.15213573338E+02  0.89828783492E+02  0.72599285086E+02  0.20707669920E+03  0.17120000000E+03 0.  0.
        998    1    1    2    0    0  0.11494687570E+01 -0.44879224482E+01  0.13437573470E+04  0.13438025414E+04  0.10000000000E+02 0.  1.
</event>
<event>
 5    1  0.1334136E-008  0.3847532E+03  0.7957747E-01  0.3430720E+00
         13   -1    0    0    0    0  0.00000000000E+00  0.00000000000E+00  0.14999999963E+04  0.15000000000E+04  0.10566000000E+00 0. -1.
        994   -1    0    0    0    0 -0.00000000000E+00 -0.00000000000E+00  0.11368683772E-12  0.17120000000E+03  0.17120000000E+03 0.  0.
         13    1    1    2    0    0 -0.13452239097E+02 -0.56664567690E+01  0.57333646429E+02  0.59162738662E+02  0.10566000000E+00 0. -1.
        994    1    1    2    0    0  0.18404114853E+02  0.65743551138E+01  0.30107720942E+01  0.17233815114E+03  0.17120000000E+03 0.  0.
        998    1    1    2    0    0 -0.49518757564E+01 -0.90789834482E+00  0.14396555778E+04  0.14396991102E+04  0.10000000000E+02 0. -1.
</event>
<event>
 5    1  0.1334136E-008  0.3762972E+03  0.7957747E-01  0.3467441E+00
         13   -1    0    0    0    0  0.00000000000E+00  0.00000000000E+00  0.14999999963E+04  0.15000000000E+04  0.10566000000E+00 0. -1.
        994   -1    0    0    0    0 -0.00000000000E+00 -0.00000000000E+00  0.11368683772E-12  0.17120000000E+03  0.17120000000E+03 0.  0.
         13    1    1    2    0    0 -0.31720599851E+02  0.10157345468E+02  0.84472918190E+02  0.90802275265E+02  0.10566000000E+00 0. -1.
        994    1    1    2    0    0  0.35372006898E+02 -0.87800965481E+01  0.10522678458E+02  0.17535231886E+03  0.17120000000E+03 0.  0.
        998    1    1    2    0    0 -0.36514070465E+01 -0.13772489197E+01  0.14050043996E+04  0.14050454059E+04  0.10000000000E+02 0. -1.
</event>
<event>
 5    1  0.1334136E-008  0.3751600E+03  0.7957747E-01  0.3472508E+00
         13   -1    0    0    0    0  0.00000000000E+00  0.00000000000E+00  0.14999999963E+04  0.15000000000E+04  0.10566000000E+00 0. -1.
        994   -1    0    0    0    0 -0.00000000000E+00 -0.00000000000E+00  0.11368683772E-12  0.17120000000E+03  0.17120000000E+03 0.  0.
         13    1    1    2    0    0  0.76787741957E+01 -0.68987448630E+02  0.29197495523E+03  0.30011267432E+03  0.10566000000E+00 0. -1.
        994    1    1    2    0    0 -0.15525006325E+02  0.68503132215E+02  0.23547203062E+02  0.18654119040E+03  0.17120000000E+03 0.  0.
        998    1    1    2    0    0  0.78462321295E+01  0.48431641475E+00  0.11844778380E+04  0.11845461353E+04  0.10000000000E+02 0. -1.
</event>
<event>
 5    1  0.1334136E-008  0.3825960E+03  0.7957747E-01  0.3439932E+00
         13   -1    0    0    0    0  0.00000000000E+00  0.00000000000E+00  0.14999999963E+04  0.15000000000E+04  0.10566000000E+00 0. -1.
        994   -1    0    0    0    0 -0.00000000000E+00 -0.00000000000E+00  0.11368683772E-12  0.17120000000E+03  0.17120000000E+03 0.  0.
         13    1    1    2    0    0  0.12873809990E+02  0.19890631576E+02  0.97448582731E+02  0.10028763457E+03  0.10566000000E+00 0. -1.
        994    1    1    2    0    0 -0.41799236677E+01 -0.16677974487E+02  0.38088830716E+01  0.17210338226E+03  0.17120000000E+03 0.  0.
        998    1    1    2    0    0 -0.86938863225E+01 -0.32126570887E+01  0.13987425305E+04  0.13988089832E+04  0.10000000000E+02 0. -1.
</event>
<event>
 5    1  0.1334136E-008  0.3769526E+03  0.7957747E-01  0.3464536E+00
         13   -1    0    0    0    0  0.00000000000E+00  0.00000000000E+00  0.14999999963E+04  0.15000000000E+04  0.10566000000E+00 0.  1.
        994   -1    0    0    0    0 -0.00000000000E+00 -0.00000000000E+00  0.11368683772E-12  0.17120000000E+03  0.17120000000E+03 0.  0.
         13    1    1    2    0    0 -0.12353449906E+01  0.26950575867E+02  0.61842238454E+02  0.67470980709E+02  0.10566000000E+00 0.  1.
        994    1    1    2    0    0 -0.33070579725E+01 -0.17873861951E+02  0.67960205356E+01  0.17229636522E+03  0.17120000000E+03 0.  0.
        998    1    1    2    0    0  0.45424029631E+01 -0.90767139160E+01  0.14313617373E+04  0.14314326541E+04  0.10000000000E+02 0.  1.
</event>
<event>
 5    1  0.1334136E-008  0.3857223E+03  0.7957747E-01  0.3426615E+00
         13   -1    0    0    0    0  0.00000000000E+00  0.00000000000E+00  0.14999999963E+04  0.15000000000E+04  0.10566000000E+00 0. -1.
        994   -1    0    0    0    0 -0.00000000000E+00 -0.00000000000E+00  0.11368683772E-12  0.17120000000E+03  0.17120000000E+03 0.  0.
         13    1    1    2    0    0 -0.37596469711E+01  0.12834789808E+02  0.65159167317E+02  0.66517629424E+02  0.10566000000E+00 0. -1.
        994    1    1    2    0    0  0.92865007246E+01 -0.18956196066E+02  0.27352272671E+01  0.17251810900E+03  0.17120000000E+03 0.  0.
        998    1    1    2    0    0 -0.55268537535E+01  0.61214062579E+01  0.14321056017E+04  0.14321642616E+04  0.10000000000E+02 0. -1.
</event>
<event>
 5    1  0.1334136E-008  0.3777223E+03  0.7957747E-01  0.3461136E+00
         13   -1    0    0    0    0  0.00000000000E+00  0.00000000000E+00  0.14999999963E+04  0.15000000000E+04  0.10566000000E+00 0. -1.
        994   -1    0    0    0    0 -0.00000000000E+00 -0.00000000000E+00  0.11368683772E-12  0.17120000000E+03  0.17120000000E+03 0.  0.
         13    1    1    2    0    0  0.38636591557E+01 -0.15877337098E+02  0.23044714557E+02  0.28250446518E+02  0.10566000000E+00 0. -1.
        994    1    1    2    0    0 -0.65306871967E+01  0.99009466869E+01  0.57613209632E+01  0.17170705122E+03  0.17120000000E+03 0.  0.
        998    1    1    2    0    0  0.26670280410E+01  0.59763904114E+01  0.14711939608E+04  0.14712425023E+04  0.10000000000E+02 0. -1.
</event>
<event>
 5    1  0.1334136E-008  0.3842934E+03  0.7957747E-01  0.3432675E+00
         13   -1    0    0    0    0  0.00000000000E+00  0.00000000000E+00  0.14999999963E+04  0.15000000000E+04  0.10566000000E+00 0.  1.
        994   -1    0    0    0    0 -0.00000000000E+00 -0.00000000000E+00  0.11368683772E-12  0.17120000000E+03  0.17120000000E+03 0.  0.
         13    1    1    2    0    0 -0.30165373406E+01  0.22639740402E+02  0.11993302160E+03  0.12208848503E+03  0.10566000000E+00 0.  1.
        994    1    1    2    0    0  0.82778939724E+00 -0.25928268483E+02  0.42027343972E+01  0.17320526354E+03  0.17120000000E+03 0.  0.
        998    1    1    2    0    0  0.21887479433E+01  0.32885280805E+01  0.13758642403E+04  0.13759062514E+04  0.10000000000E+02 0.  0.
</event>
<event>
 5    1  0.1334136E-008  0.3845838E+03  0.7957747E-01  0.3431439E+00
         13   -1    0    0    0    0  0.00000000000E+00  0.00000000000E+00  0.14999999963E+04  0.15000000000E+04  0.10566000000E+00 0. -1.
        994   -1    0    0    0    0 -0.00000000000E+00 -0.00000000000E+00  0.11368683772E-12  0.17120000000E+03  0.17120000000E+03 0.  0.
         13    1    1    2    0    0  0.87486217361E+01  0.15560622086E+02  0.75845393516E+02  0.77917945453E+02  0.10566000000E+00 0. -1.
        994    1    1    2    0    0 -0.27910453049E+02 -0.21769245169E+02  0.59737309421E+01  0.17492289412E+03  0.17120000000E+03 0.  0.
        998    1    1    2    0    0  0.19161831313E+02  0.62086230830E+01  0.14181808718E+04  0.14183591604E+04  0.10000000000E+02 0. -1.
</event>
<event>
 5    1  0.1334136E-008  0.3795361E+03  0.7957747E-01  0.3453181E+00
         13   -1    0    0    0    0  0.00000000000E+00  0.00000000000E+00  0.14999999963E+04  0.15000000000E+04  0.10566000000E+00 0.  1.
        994   -1    0    0    0    0 -0.00000000000E+00 -0.00000000000E+00  0.11368683772E-12  0.17120000000E+03  0.17120000000E+03 0.  0.
         13    1    1    2    0    0  0.25856118923E+02  0.92087242678E-01  0.79414963634E+02  0.83518231416E+02  0.10566000000E+00 0.  1.
        994    1    1    2    0    0 -0.34540784266E+01 -0.80174241539E+01  0.46226968327E+01  0.17148474881E+03  0.17120000000E+03 0.  0.
        998    1    1    2    0    0 -0.22402040497E+02  0.79253369112E+01  0.14159623358E+04  0.14161970198E+04  0.10000000000E+02 0.  1.
</event>
<event>
 5    1  0.1334136E-008  0.3852939E+03  0.7957747E-01  0.3428427E+00
         13   -1    0    0    0    0  0.00000000000E+00  0.00000000000E+00  0.14999999963E+04  0.15000000000E+04  0.10566000000E+00 0. -1.
        994   -1    0    0    0    0 -0.00000000000E+00 -0.00000000000E+00  0.11368683772E-12  0.17120000000E+03  0.17120000000E+03 0.  0.
         13    1    1    2    0    0  0.13818147480E+02  0.31181461001E+02  0.20530416112E+03  0.20811783789E+03  0.10566000000E+00 0. -1.
        994    1    1    2    0    0 -0.15543345719E+02 -0.82788205139E+02  0.25154390708E+02  0.19245172350E+03  0.17120000000E+03 0.  0.
        998    1    1    2    0    0  0.17251982398E+01  0.51606744138E+02  0.12695414444E+04  0.12706304386E+04  0.10000000000E+02 0. -1.
</event>
<event>
 5    1  0.1334136E-008  0.3747856E+03  0.7957747E-01  0.3474182E+00
         13   -1    0    0    0    0  0.00000000000E+00  0.00000000000E+00  0.14999999963E+04  0.15000000000E+04  0.10566000000E+00 0.  1.
        994   -1    0    0    0    0 -0.00000000000E+00 -0.00000000000E+00  0.11368683772E-12  0.17120000000E+03  0.17120000000E+03 0.  0.
         13    1    1    2    0    0 -0.72435071435E+01  0.15115887297E+02  0.42707818071E+01  0.17297664171E+02  0.10566000000E+00 0.  1.
        994    1    1    2    0    0  0.11092809167E+02 -0.12949979847E+02  0.14526451090E+02  0.17265923136E+03  0.17120000000E+03 0.  0.
        998    1    1    2    0    0 -0.38493020234E+01 -0.21659074500E+01  0.14812027634E+04  0.14812431045E+04  0.10000000000E+02 0.  1.
</event>
<event>
 5    1  0.1334136E-008  0.3770329E+03  0.7957747E-01  0.3464181E+00
         13   -1    0    0    0    0  0.00000000000E+00  0.00000000000E+00  0.14999999963E+04  0.15000000000E+04  0.10566000000E+00 0.  1.
        994   -1    0    0    0    0 -0.00000000000E+00 -0.00000000000E+00  0.11368683772E-12  0.17120000000E+03  0.17120000000E+03 0.  0.
         13    1    1    2    0    0  0.13272251093E+02 -0.39987589645E+02  0.14750478500E+03  0.15340414837E+03  0.10566000000E+00 0.  1.
        994    1    1    2    0    0 -0.43189278534E+01  0.34955742426E+02  0.98381111408E+01  0.17506223321E+03  0.17120000000E+03 0.  0.
        998    1    1    2    0    0 -0.89533232392E+01  0.50318472193E+01  0.13426571001E+04  0.13427336184E+04  0.10000000000E+02 0.  1.
</event>
<event>
 5    1  0.1334136E-008  0.3933508E+03  0.7957747E-01  0.3395010E+00
         13   -1    0    0    0    0  0.00000000000E+00  0.00000000000E+00  0.14999999963E+04  0.15000000000E+04  0.10566000000E+00 0.  1.
        994   -1    0    0    0    0 -0.00000000000E+00 -0.00000000000E+00  0.11368683772E-12  0.17120000000E+03  0.17120000000E+03 0.  0.
         13    1    1    2    0    0  0.60729512043E+02  0.57869730765E+02  0.16323337330E+03  0.18352690455E+03  0.10566000000E+00 0.  1.
        994    1    1    2    0    0  0.33476073499E+02 -0.52914605622E+02  0.38965021760E+02  0.18640900168E+03  0.17120000000E+03 0.  0.
        998    1    1    2    0    0 -0.94205585542E+02 -0.49551251426E+01  0.12978016012E+04  0.13012640938E+04  0.10000000000E+02 0.  1.
</event>
<event>
 5    1  0.1334136E-008  0.3724934E+03  0.7957747E-01  0.3484510E+00
         13   -1    0    0    0    0  0.00000000000E+00  0.00000000000E+00  0.14999999963E+04  0.15000000000E+04  0.10566000000E+00 0.  1.
        994   -1    0    0    0    0 -0.00000000000E+00 -0.00000000000E+00  0.11368683772E-12  0.17120000000E+03  0.17120000000E+03 0.  0.
         13    1    1    2    0    0  0.14936845115E+02 -0.40219439187E+02  0.10766509079E+03  0.11589864352E+03  0.10566000000E+00 0.  1.
        994    1    1    2    0    0 -0.12400250365E+02  0.35355962978E+02  0.12799438331E+02  0.17571874103E+03  0.17120000000E+03 0.  0.
        998    1    1    2    0    0 -0.25365947501E+01  0.48634762081E+01  0.13795354672E+04  0.13795826154E+04  0.10000000000E+02 0.  1.
</event>
<event>
 5    1  0.1334136E-008  0.3747775E+03  0.7957747E-01  0.3474218E+00
         13   -1    0    0    0    0  0.00000000000E+00  0.00000000000E+00  0.14999999963E+04  0.15000000000E+04  0.10566000000E+00 0.  1.
        994   -1    0    0    0    0 -0.00000000000E+00 -0.00000000000E+00  0.11368683772E-12  0.17120000000E+03  0.17120000000E+03 0.  0.
         13    1    1    2    0    0  0.90683850544E+01  0.10771965946E+02  0.11650844228E+02  0.18276328764E+02  0.10566000000E+00 0.  1.
        994    1    1    2    0    0 -0.39717764661E+01 -0.59104094643E+01  0.69655289995E+01  0.17148955228E+03  0.17120000000E+03 0.  0.
        998    1    1    2    0    0 -0.50966085883E+01 -0.48615564817E+01  0.14813836231E+04  0.14814341190E+04  0.10000000000E+02 0.  1.
</event>
<event>
 5    1  0.1334136E-008  0.3803081E+03  0.7957747E-01  0.3449818E+00
         13   -1    0    0    0    0  0.00000000000E+00  0.00000000000E+00  0.14999999963E+04  0.15000000000E+04  0.10566000000E+00 0. -1.
        994   -1    0    0    0    0 -0.00000000000E+00 -0.00000000000E+00  0.11368683772E-12  0.17120000000E+03  0.17120000000E+03 0.  0.
         13    1    1    2    0    0  0.30314598755E+02 -0.30429830234E+02  0.22255446502E+03  0.22666153298E+03  0.10566000000E+00 0. -1.
        994    1    1    2    0    0 -0.13283714254E+02  0.28101346914E+02  0.72108778538E+01  0.17414815394E+03  0.17120000000E+03 0.  0.
        998    1    1    2    0    0 -0.17030884501E+02  0.23284833201E+01  0.12702346534E+04  0.12703903131E+04  0.10000000000E+02 0. -1.
</event>
<event>
 5    1  0.1334136E-008  0.3832041E+03  0.7957747E-01  0.3437325E+00
         13   -1    0    0    0    0  0.00000000000E+00  0.00000000000E+00  0.14999999963E+04  0.15000000000E+04  0.10566000000E+00 0.  1.
        994   -1    0    0    0    0 -0.00000000000E+00 -0.00000000000E+00  0.11368683772E-12  0.17120000000E+03  0.17120000000E+03 0.  0.
         13    1    1    2    0    0  0.77566038424E+02  0.16750260320E+03  0.10350535814E+04  0.10513845823E+04  0.10566000000E+00 0.  1.
        994    1    1    2    0    0 -0.88715156805E+02 -0.17437908217E+03  0.14157809277E+03  0.29602743066E+03  0.17120000000E+03 0.  0.
        998    1    1    2    0    0  0.11149118382E+02  0.68764789706E+01  0.32336832215E+03  0.32378798708E+03  0.10000000000E+02 0.  1.
</event>
<event>
 5    1  0.1334136E-008  0.3802435E+03  0.7957747E-01  0.3450099E+00
         13   -1    0    0    0    0  0.00000000000E+00  0.00000000000E+00  0.14999999963E+04  0.15000000000E+04  0.10566000000E+00 0.  1.
        994   -1    0    0    0    0 -0.00000000000E+00 -0.00000000000E+00  0.11368683772E-12  0.17120000000E+03  0.17120000000E+03 0.  0.
         13    1    1    2    0    0 -0.12431222313E+03 -0.90334981178E+02  0.89839740937E+03  0.91144492646E+03  0.10566000000E+00 0.  1.
        994    1    1    2    0    0  0.12219106013E+03  0.10411486051E+03  0.95525616816E+02  0.25338733754E+03  0.17120000000E+03 0.  0.
        998    1    1    2    0    0  0.21211629964E+01 -0.13779879331E+02  0.50607697009E+03  0.50636773600E+03  0.10000000000E+02 0.  1.
</event>
<event>
 5    1  0.1334136E-008  0.3807182E+03  0.7957747E-01  0.3448037E+00
         13   -1    0    0    0    0  0.00000000000E+00  0.00000000000E+00  0.14999999963E+04  0.15000000000E+04  0.10566000000E+00 0.  1.
        994   -1    0    0    0    0 -0.00000000000E+00 -0.00000000000E+00  0.11368683772E-12  0.17120000000E+03  0.17120000000E+03 0.  0.
         13    1    1    2    0    0 -0.21006220070E+01  0.54072137724E+02  0.29005052118E+03  0.29505512145E+03  0.10566000000E+00 0.  1.
        994    1    1    2    0    0  0.12393001505E+02 -0.62274692397E+02  0.17335863253E+02  0.18341672757E+03  0.17120000000E+03 0.  0.
        998    1    1    2    0    0 -0.10292379498E+02  0.82025546731E+01  0.11926136118E+04  0.11927281510E+04  0.10000000000E+02 0.  1.
</event>
<event>
 5    1  0.1334136E-008  0.3833859E+03  0.7957747E-01  0.3436547E+00
         13   -1    0    0    0    0  0.00000000000E+00  0.00000000000E+00  0.14999999963E+04  0.15000000000E+04  0.10566000000E+00 0. -1.
        994   -1    0    0    0    0 -0.00000000000E+00 -0.00000000000E+00  0.11368683772E-12  0.17120000000E+03  0.17120000000E+03 0.  0.
         13    1    1    2    0    0 -0.84414940513E+01  0.20970736625E+02  0.11206430153E+03  0.11432169286E+03  0.10566000000E+00 0. -1.
        994    1    1    2    0    0 -0.56765806276E+01 -0.64606562516E+01  0.26782071768E+01  0.17143680013E+03  0.17120000000E+03 0.  0.
        998    1    1    2    0    0  0.14118074679E+02 -0.14510080374E+02  0.13852574876E+04  0.13854415070E+04  0.10000000000E+02 0. -1.
</event>
<event>
 5    1  0.1334136E-008  0.3753936E+03  0.7957747E-01  0.3471464E+00
         13   -1    0    0    0    0  0.00000000000E+00  0.00000000000E+00  0.14999999963E+04  0.15000000000E+04  0.10566000000E+00 0.  1.
        994   -1    0    0    0    0 -0.00000000000E+00 -0.00000000000E+00  0.11368683772E-12  0.17120000000E+03  0.17120000000E+03 0.  0.
         13    1    1    2    0    0  0.25863019522E+02  0.47742260909E+02  0.17629363875E+03  0.18446592499E+03  0.10566000000E+00 0.  1.
        994    1    1    2    0    0 -0.50326958530E+02 -0.59478856877E+02  0.27371550669E+02  0.19007677122E+03  0.17120000000E+03 0.  0.
        998    1    1    2    0    0  0.24463939008E+02  0.11736595968E+02  0.12963348069E+04  0.12966573038E+04  0.10000000000E+02 0.  1.
</event>
<event>
 5    1  0.1334136E-008  0.3710055E+03  0.7957747E-01  0.3491282E+00
         13   -1    0    0    0    0  0.00000000000E+00  0.00000000000E+00  0.14999999963E+04  0.15000000000E+04  0.10566000000E+00 0.  1.
        994   -1    0    0    0    0 -0.00000000000E+00 -0.00000000000E+00  0.11368683772E-12  0.17120000000E+03  0.17120000000E+03 0.  0.
         13    1    1    2    0    0 -0.10728422487E+03  0.37613008350E+02  0.49606266173E+03  0.50892319541E+03  0.10566000000E+00 0.  1.
        994    1    1    2    0    0  0.10334687270E+03 -0.37770827134E+02  0.51695073123E+02  0.20997388424E+03  0.17120000000E+03 0.  0.
        998    1    1    2    0    0  0.39373521670E+01  0.15781878363E+00  0.95224226143E+03  0.95230292035E+03  0.10000000000E+02 0.  0.
</event>
<event>
 5    1  0.1334136E-008  0.3801725E+03  0.7957747E-01  0.3450408E+00
         13   -1    0    0    0    0  0.00000000000E+00  0.00000000000E+00  0.14999999963E+04  0.15000000000E+04  0.10566000000E+00 0. -1.
        994   -1    0    0    0    0 -0.00000000000E+00 -0.00000000000E+00  0.11368683772E-12  0.17120000000E+03  0.17120000000E+03 0.  0.
         13    1    1    2    0    0  0.18842149493E+02  0.38272099035E+02  0.20961146818E+03  0.21390829558E+03  0.10566000000E+00 0. -1.
        994    1    1    2    0    0 -0.12406916732E+02 -0.30694482282E+02  0.77167924207E+01  0.17454246392E+03  0.17120000000E+03 0.  0.
        998    1    1    2    0    0 -0.64352327612E+01 -0.75776167530E+01  0.12826717357E+04  0.12827492405E+04  0.10000000000E+02 0. -1.
</event>
<event>
 5    1  0.1334136E-008  0.3799833E+03  0.7957747E-01  0.3451231E+00
         13   -1    0    0    0    0  0.00000000000E+00  0.00000000000E+00  0.14999999963E+04  0.15000000000E+04  0.10566000000E+00 0.  1.
        994   -1    0    0    0    0 -0.00000000000E+00 -0.00000000000E+00  0.11368683772E-12  0.17120000000E+03  0.17120000000E+03 0.  0.
         13    1    1    2    0    0  0.35702291124E+02  0.11966934208E+02  0.20054885788E+03  0.20405322018E+03  0.10566000000E+00 0.  1.
        994    1    1    2    0    0  0.24799635102E+01 -0.75588282689E+01  0.43531795265E+01  0.17144000780E+03  0.17120000000E+03 0.  0.
        998    1    1    2    0    0 -0.38182254634E+02 -0.44081059390E+01  0.12950979589E+04  0.12957067720E+04  0.10000000000E+02 0.  1.
</event>
<event>
 5    1  0.1334136E-008  0.3839066E+03  0.7957747E-01  0.3434323E+00
         13   -1    0    0    0    0  0.00000000000E+00  0.00000000000E+00  0.14999999963E+04  0.15000000000E+04  0.10566000000E+00 0.  1.
        994   -1    0    0    0    0 -0.00000000000E+00 -0.00000000000E+00  0.11368683772E-12  0.17120000000E+03  0.17120000000E+03 0.  0.
         13    1    1    2    0    0 -0.16334883462E+02  0.29528057885E+01  0.69024369046E+02  0.70992409214E+02  0.10566000000E+00 0.  1.
        994    1    1    2    0    0 -0.43770113181E+01  0.49005193310E+01  0.23164419497E+01  0.17134170310E+03  0.17120000000E+03 0.  0.
        998    1    1    2    0    0  0.20711894780E+02 -0.78533251196E+01  0.14286591853E+04  0.14288658877E+04  0.10000000000E+02 0.  1.
</event>
<event>
 5    1  0.1334136E-008  0.3843587E+03  0.7957747E-01  0.3432397E+00
         13   -1    0    0    0    0  0.00000000000E+00  0.00000000000E+00  0.14999999963E+04  0.15000000000E+04  0.10566000000E+00 0. -1.
        994   -1    0    0    0    0 -0.00000000000E+00 -0.00000000000E+00  0.11368683772E-12  0.17120000000E+03  0.17120000000E+03 0.  0.
         13    1    1    2    0    0  0.62742757530E+01  0.89686852761E+01  0.30349892132E+02  0.32263461815E+02  0.10566000000E+00 0. -1.
        994    1    1    2    0    0 -0.59592524970E+01 -0.41493372680E+01  0.21226613143E+01  0.17136707788E+03  0.17120000000E+03 0.  0.
        998    1    1    2    0    0 -0.31502325600E+00 -0.48193480080E+01  0.14675274428E+04  0.14675694603E+04  0.10000000000E+02 0. -1.
</event>
<event>
 5    1  0.1334136E-008  0.3860502E+03  0.7957747E-01  0.3425230E+00
         13   -1    0    0    0    0  0.00000000000E+00  0.00000000000E+00  0.14999999963E+04  0.15000000000E+04  0.10566000000E+00 0. -1.
        994   -1    0    0    0    0 -0.00000000000E+00 -0.00000000000E+00  0.11368683772E-12  0.17120000000E+03  0.17120000000E+03 0.  0.
         13    1    1    2    0    0  0.78348631375E+01 -0.72692281564E+01  0.49278780268E+02  0.50424558571E+02  0.10566000000E+00 0. -1.
        994    1    1    2    0    0 -0.96872492632E+01  0.12685063440E+02  0.19450070247E+01  0.17195341429E+03  0.17120000000E+03 0.  0.
        998    1    1    2    0    0  0.18523861256E+01 -0.54158352837E+01  0.14487762090E+04  0.14488220271E+04  0.10000000000E+02 0. -1.
</event>
<event>
 5    1  0.1334136E-008  0.3818302E+03  0.7957747E-01  0.3443228E+00
         13   -1    0    0    0    0  0.00000000000E+00  0.00000000000E+00  0.14999999963E+04  0.15000000000E+04  0.10566000000E+00 0.  1.
        994   -1    0    0    0    0 -0.00000000000E+00 -0.00000000000E+00  0.11368683772E-12  0.17120000000E+03  0.17120000000E+03 0.  0.
         13    1    1    2    0    0 -0.11005369977E+02  0.38319576681E+01  0.19782678046E+02  0.22960130283E+02  0.10566000000E+00 0.  1.
        994    1    1    2    0    0  0.78970752811E+01 -0.62699775709E+01  0.35500263957E+01  0.17153343436E+03  0.17120000000E+03 0.  0.
        998    1    1    2    0    0  0.31082946959E+01  0.24380199028E+01  0.14766672918E+04  0.14767064354E+04  0.10000000000E+02 0.  1.
</event>
<event>
 5    1  0.1334136E-008  0.3745696E+03  0.7957747E-01  0.3475150E+00
         13   -1    0    0    0    0  0.00000000000E+00  0.00000000000E+00  0.14999999963E+04  0.15000000000E+04  0.10566000000E+00 0. -1.
        994   -1    0    0    0    0 -0.00000000000E+00 -0.00000000000E+00  0.11368683772E-12  0.17120000000E+03  0.17120000000E+03 0.  0.
         13    1    1    2    0    0  0.68691231181E+02  0.48313997877E+01  0.33533256700E+03  0.34232991297E+03  0.10566000000E+00 0. -1.
        994    1    1    2    0    0 -0.41000494174E+02 -0.10274752814E+02  0.13006171355E+02  0.17681971485E+03  0.17120000000E+03 0.  0.
        998    1    1    2    0    0 -0.27690737007E+02  0.54433530267E+01  0.11516612579E+04  0.11520503722E+04  0.10000000000E+02 0. -1.
</event>
<event>
 5    1  0.1334136E-008  0.3812182E+03  0.7957747E-01  0.3445871E+00
         13   -1    0    0    0    0  0.00000000000E+00  0.00000000000E+00  0.14999999963E+04  0.15000000000E+04  0.10566000000E+00 0. -1.
        994   -1    0    0    0    0 -0.00000000000E+00 -0.00000000000E+00  0.11368683772E-12  0.17120000000E+03  0.17120000000E+03 0.  0.
         13    1    1    2    0    0 -0.33989031336E+02  0.27321738776E+01  0.18215210569E+03  0.18531626964E+03  0.10566000000E+00 0. -1.
        994    1    1    2    0    0  0.59585370398E+01 -0.44854195693E+01  0.37046922646E+01  0.17140241509E+03  0.17120000000E+03 0.  0.
        998    1    1    2    0    0  0.28030494296E+02  0.17532456917E+01  0.13141431983E+04  0.13144813153E+04  0.10000000000E+02 0. -1.
</event>
<event>
 5    1  0.1334136E-008  0.3857574E+03  0.7957747E-01  0.3426466E+00
         13   -1    0    0    0    0  0.00000000000E+00  0.00000000000E+00  0.14999999963E+04  0.15000000000E+04  0.10566000000E+00 0. -1.
        994   -1    0    0    0    0 -0.00000000000E+00 -0.00000000000E+00  0.11368683772E-12  0.17120000000E+03  0.17120000000E+03 0.  0.
         13    1    1    2    0    0 -0.63697512271E+01 -0.14231504121E+02  0.84247746623E+02  0.85678488638E+02  0.10566000000E+00 0. -1.
        994    1    1    2    0    0  0.21174501629E+02  0.22133729240E+02  0.43386977029E+01  0.17397277312E+03  0.17120000000E+03 0.  0.
        998    1    1    2    0    0 -0.14804750402E+02 -0.79022251187E+01  0.14114135520E+04  0.14115487382E+04  0.10000000000E+02 0. -1.
</event>
<event>
 5    1  0.1334136E-008  0.3838631E+03  0.7957747E-01  0.3434508E+00
         13   -1    0    0    0    0  0.00000000000E+00  0.00000000000E+00  0.14999999963E+04  0.15000000000E+04  0.10566000000E+00 0. -1.
        994   -1    0    0    0    0 -0.00000000000E+00 -0.00000000000E+00  0.11368683772E-12  0.17120000000E+03  0.17120000000E+03 0.  0.
         13    1    1    2    0    0  0.13218488044E+02 -0.65577562633E+01  0.47285357009E+02  0.49534318860E+02  0.10566000000E+00 0. -1.
        994    1    1    2    0    0 -0.14982283141E+02  0.93760545142E+01  0.32274279371E+01  0.17214016236E+03  0.17120000000E+03 0.  0.
        998    1    1    2    0    0  0.17637950979E+01 -0.28182982509E+01  0.14494872113E+04  0.14495255188E+04  0.10000000000E+02 0. -1.
</event>
<event>
 5    1  0.1334136E-008  0.3698520E+03  0.7957747E-01  0.3496571E+00
         13   -1    0    0    0    0  0.00000000000E+00  0.00000000000E+00  0.14999999963E+04  0.15000000000E+04  0.10566000000E+00 0. -1.
        994   -1    0    0    0    0 -0.00000000000E+00 -0.00000000000E+00  0.11368683772E-12  0.17120000000E+03  0.17120000000E+03 0.  0.
         13    1    1    2    0    0  0.46986411535E+02 -0.65761604618E+01  0.11318025856E+03  0.12272225082E+03  0.10566000000E+00 0. -1.
        994    1    1    2    0    0 -0.38186920424E+02  0.25904571915E+01  0.14431321045E+02  0.17601890349E+03  0.17120000000E+03 0.  0.
        998    1    1    2    0    0 -0.87994911114E+01  0.39857032703E+01  0.13723884167E+04  0.13724588457E+04  0.10000000000E+02 0. -1.
</event>
<event>
 5    1  0.1334136E-008  0.3784550E+03  0.7957747E-01  0.3457913E+00
         13   -1    0    0    0    0  0.00000000000E+00  0.00000000000E+00  0.14999999963E+04  0.15000000000E+04  0.10566000000E+00 0.  1.
        994   -1    0    0    0    0 -0.00000000000E+00 -0.00000000000E+00  0.11368683772E-12  0.17120000000E+03  0.17120000000E+03 0.  0.
         13    1    1    2    0    0 -0.18543268419E+02  0.26719382753E+01  0.33413744312E+02  0.38307721556E+02  0.10566000000E+00 0.  1.
        994    1    1    2    0    0  0.16711472665E+02  0.49183081152E+01  0.59354032667E+01  0.17218632955E+03  0.17120000000E+03 0.  0.
        998    1    1    2    0    0  0.18317957533E+01 -0.75902463905E+01  0.14606508487E+04  0.14607059489E+04  0.10000000000E+02 0.  1.
</event>
<event>
 5    1  0.1334136E-008  0.3764350E+03  0.7957747E-01  0.3466830E+00
         13   -1    0    0    0    0  0.00000000000E+00  0.00000000000E+00  0.14999999963E+04  0.15000000000E+04  0.10566000000E+00 0.  1.
        994   -1    0    0    0    0 -0.00000000000E+00 -0.00000000000E+00  0.11368683772E-12  0.17120000000E+03  0.17120000000E+03 0.  0.
         13    1    1    2    0    0  0.19831035498E+02  0.12128648581E+02  0.45186344522E+02  0.50815263265E+02  0.10566000000E+00 0.  1.
        994    1    1    2    0    0 -0.56227616023E+01  0.80883126893E+01  0.62720027404E+01  0.17159782711E+03  0.17120000000E+03 0.  0.
        998    1    1    2    0    0 -0.14208273896E+02 -0.20216961271E+02  0.14485416490E+04  0.14487869096E+04  0.10000000000E+02 0.  1.
</event>
<event>
 5    1  0.1334136E-008  0.3729770E+03  0.7957747E-01  0.3482320E+00
         13   -1    0    0    0    0  0.00000000000E+00  0.00000000000E+00  0.14999999963E+04  0.15000000000E+04  0.10566000000E+00 0. -1.
        994   -1    0    0    0    0 -0.00000000000E+00 -0.00000000000E+00  0.11368683772E-12  0.17120000000E+03  0.17120000000E+03 0.  0.
         13    1    1    2    0    0 -0.56726884866E+02  0.31886460694E+02  0.32736185460E+03  0.33376710571E+03  0.10566000000E+00 0. -1.
        994    1    1    2    0    0  0.48665782544E+01 -0.18685131032E+02  0.89982611583E+01  0.17252022029E+03  0.17120000000E+03 0.  0.
        998    1    1    2    0    0  0.51860306612E+02 -0.13201329662E+02  0.11636398805E+04  0.11649126740E+04  0.10000000000E+02 0. -1.
</event>
<event>
 5    1  0.1334136E-008  0.3791858E+03  0.7957747E-01  0.3454712E+00
         13   -1    0    0    0    0  0.00000000000E+00  0.00000000000E+00  0.14999999963E+04  0.15000000000E+04  0.10566000000E+00 0.  1.
        994   -1    0    0    0    0 -0.00000000000E+00 -0.00000000000E+00  0.11368683772E-12  0.17120000000E+03  0.17120000000E+03 0.  0.
         13    1    1    2    0    0  0.15824926943E+01  0.18687489587E+02  0.36715733130E+02  0.41228421913E+02  0.10566000000E+00 0.  1.
        994    1    1    2    0    0  0.83984054916E+01 -0.14988033969E+02  0.55347574610E+01  0.17214891204E+03  0.17120000000E+03 0.  0.
        998    1    1    2    0    0 -0.99808981859E+01 -0.36994556171E+01  0.14577495057E+04  0.14578226660E+04  0.10000000000E+02 0.  1.
</event>
<event>
 5    1  0.1334136E-008  0.3765985E+03  0.7957747E-01  0.3466105E+00
         13   -1    0    0    0    0  0.00000000000E+00  0.00000000000E+00  0.14999999963E+04  0.15000000000E+04  0.10566000000E+00 0.  1.
        994   -1    0    0    0    0 -0.00000000000E+00 -0.00000000000E+00  0.11368683772E-12  0.17120000000E+03  0.17120000000E+03 0.  0.
         13    1    1    2    0    0 -0.41220810353E-01 -0.10668627094E+02  0.71003974894E+01  0.12815931951E+02  0.10566000000E+00 0.  1.
        994    1    1    2    0    0 -0.23822005163E+02  0.31206788091E+01  0.78142038152E+01  0.17305411971E+03  0.17120000000E+03 0.  0.
        998    1    1    2    0    0  0.23863225973E+02  0.75479482850E+01  0.14850853950E+04  0.14853299483E+04  0.10000000000E+02 0.  1.
</event>
<event>
 5    1  0.1334136E-008  0.3725683E+03  0.7957747E-01  0.3484170E+00
         13   -1    0    0    0    0  0.00000000000E+00  0.00000000000E+00  0.14999999963E+04  0.15000000000E+04  0.10566000000E+00 0. -1.
        994   -1    0    0    0    0 -0.00000000000E+00 -0.00000000000E+00  0.11368683772E-12  0.17120000000E+03  0.17120000000E+03 0.  0.
         13    1    1    2    0    0 -0.26420381369E+02 -0.42173305630E+01  0.41057311778E+02  0.49005473605E+02  0.10566000000E+00 0. -1.
        994    1    1    2    0    0  0.26448116916E+02 -0.21724623435E+01  0.10350184324E+02  0.17355341770E+03  0.17120000000E+03 0.  0.
        998    1    1    2    0    0 -0.27735546891E-01  0.63897929065E+01  0.14485925002E+04  0.14486411087E+04  0.10000000000E+02 0. -1.
</event>
<event>
 5    1  0.1487070E-008  0.3838047E+03  0.7957747E-01  0.3434758E+00
         13   -1    0    0    0    0  0.00000000000E+00  0.00000000000E+00  0.14999999963E+04  0.15000000000E+04  0.10566000000E+00 0.  1.
        994   -1    0    0    0    0 -0.00000000000E+00 -0.00000000000E+00  0.11368683772E-12  0.17120000000E+03  0.17120000000E+03 0.  0.
         13    1    1    2    0    0  0.91974036723E+01  0.58200771505E+01  0.25504132308E+02  0.27729721621E+02  0.10566000000E+00 0.  1.
        994    1    1    2    0    0 -0.10679528294E+02 -0.58097718601E+01  0.27128758725E+01  0.17165257199E+03  0.17120000000E+03 0.  0.
        998    1    1    2    0    0  0.14821246214E+01 -0.10305290432E-01  0.14717829881E+04  0.14718177064E+04  0.10000000000E+02 0.  1.
</event>
<event>
 5    1  0.1334136E-008  0.3822037E+03  0.7957747E-01  0.3441619E+00
         13   -1    0    0    0    0  0.00000000000E+00  0.00000000000E+00  0.14999999963E+04  0.15000000000E+04  0.10566000000E+00 0. -1.
        994   -1    0    0    0    0 -0.00000000000E+00 -0.00000000000E+00  0.11368683772E-12  0.17120000000E+03  0.17120000000E+03 0.  0.
         13    1    1    2    0    0  0.94958966104E+01  0.64594978486E+01  0.20108210641E+02  0.23157039191E+02  0.10566000000E+00 0. -1.
        994    1    1    2    0    0 -0.15326163801E+02 -0.69131102262E+01  0.39635518006E+01  0.17206926551E+03  0.17120000000E+03 0.  0.
        998    1    1    2    0    0  0.58302671908E+01  0.45361237764E+00  0.14759282338E+04  0.14759736953E+04  0.10000000000E+02 0. -1.
</event>
<event>
 5    1  0.1334136E-008  0.4060902E+03  0.7957747E-01  0.3344872E+00
         13   -1    0    0    0    0  0.00000000000E+00  0.00000000000E+00  0.14999999963E+04  0.15000000000E+04  0.10566000000E+00 0.  1.
        994   -1    0    0    0    0 -0.00000000000E+00 -0.00000000000E+00  0.11368683772E-12  0.17120000000E+03  0.17120000000E+03 0.  0.
         13    1    1    2    0    0 -0.51577953453E+02  0.13286426360E+03  0.30427534360E+03  0.33600103231E+03  0.10566000000E+00 0.  1.
        994    1    1    2    0    0 -0.50646326072E+02 -0.12536791334E+03  0.10948309667E+03  0.24408636278E+03  0.17120000000E+03 0.  0.
        998    1    1    2    0    0  0.10222427953E+03 -0.74963502560E+01  0.10862415560E+04  0.10911126049E+04  0.10000000000E+02 0.  1.
</event>
<event>
 5    1  0.1334136E-008  0.3823560E+03  0.7957747E-01  0.3440964E+00
         13   -1    0    0    0    0  0.00000000000E+00  0.00000000000E+00  0.14999999963E+04  0.15000000000E+04  0.10566000000E+00 0. -1.
        994   -1    0    0    0    0 -0.00000000000E+00 -0.00000000000E+00  0.11368683772E-12  0.17120000000E+03  0.17120000000E+03 0.  0.
         13    1    1    2    0    0 -0.19053147042E+02 -0.68567702780E+01  0.71327944053E+02  0.74146641715E+02  0.10566000000E+00 0. -1.
        994    1    1    2    0    0  0.81721716804E+01 -0.69770065042E+01  0.33316677672E+01  0.17156923681E+03  0.17120000000E+03 0.  0.
        998    1    1    2    0    0  0.10880975362E+02  0.13833776782E+02  0.14253403845E+04  0.14254841215E+04  0.10000000000E+02 0.  1.
</event>
<event>
 5    1  0.1334136E-008  0.3821145E+03  0.7957747E-01  0.3442003E+00
         13   -1    0    0    0    0  0.00000000000E+00  0.00000000000E+00  0.14999999963E+04  0.15000000000E+04  0.10566000000E+00 0.  1.
        994   -1    0    0    0    0 -0.00000000000E+00 -0.00000000000E+00  0.11368683772E-12  0.17120000000E+03  0.17120000000E+03 0.  0.
         13    1    1    2    0    0  0.22480982125E+02 -0.24755628706E+02  0.18690502909E+03  0.18987294903E+03  0.10566000000E+00 0.  1.
        994    1    1    2    0    0 -0.73347529408E+01  0.14613886574E+02  0.39576120131E+01  0.17202461154E+03  0.17120000000E+03 0.  0.
        998    1    1    2    0    0 -0.15146229184E+02  0.10141742132E+02  0.13091373552E+04  0.13093024394E+04  0.10000000000E+02 0.  1.
</event>
<event>
 5    1  0.1334136E-008  0.3754539E+03  0.7957747E-01  0.3471195E+00
         13   -1    0    0    0    0  0.00000000000E+00  0.00000000000E+00  0.14999999963E+04  0.15000000000E+04  0.10566000000E+00 0. -1.
        994   -1    0    0    0    0 -0.00000000000E+00 -0.00000000000E+00  0.11368683772E-12  0.17120000000E+03  0.17120000000E+03 0.  0.
         13    1    1    2    0    0  0.37426341516E+01 -0.97264949158E+01  0.54850854582E+01  0.11777492953E+02  0.10566000000E+00 0. -1.
        994    1    1    2    0    0 -0.10563472542E+02  0.15436506745E+01  0.68327160319E+01  0.17166856386E+03  0.17120000000E+03 0.  0.
        998    1    1    2    0    0  0.68208383901E+01  0.81828442413E+01  0.14876821948E+04  0.14877539432E+04  0.10000000000E+02 0. -1.
</event>
<event>
 5    1  0.1334136E-008  0.3816312E+03  0.7957747E-01  0.3444086E+00
         13   -1    0    0    0    0  0.00000000000E+00  0.00000000000E+00  0.14999999963E+04  0.15000000000E+04  0.10566000000E+00 0.  1.
        994   -1    0    0    0    0 -0.00000000000E+00 -0.00000000000E+00  0.11368683772E-12  0.17120000000E+03  0.17120000000E+03 0.  0.
         13    1    1    2    0    0 -0.96792011314E+01 -0.11008010120E+02  0.30101003755E+02  0.33480513921E+02  0.10566000000E+00 0.  1.
        994    1    1    2    0    0  0.11565136832E+02  0.17402703034E+02  0.47650349946E+01  0.17253623394E+03  0.17120000000E+03 0.  0.
        998    1    1    2    0    0 -0.18859357003E+01 -0.63946929140E+01  0.14651339575E+04  0.14651832521E+04  0.10000000000E+02 0.  1.
</event>
<event>
 5    1  0.1334136E-008  0.3813297E+03  0.7957747E-01  0.3445389E+00
         13   -1    0    0    0    0  0.00000000000E+00  0.00000000000E+00  0.14999999963E+04  0.15000000000E+04  0.10566000000E+00 0. -1.
        994   -1    0    0    0    0 -0.00000000000E+00 -0.00000000000E+00  0.11368683772E-12  0.17120000000E+03  0.17120000000E+03 0.  0.
         13    1    1    2    0    0 -0.32930462003E+02 -0.17327811131E+01  0.13926797693E+03  0.14311882622E+03  0.10566000000E+00 0. -1.
        994    1    1    2    0    0  0.36600436407E+02  0.67320410269E+01  0.80865902031E+01  0.17538456392E+03  0.17120000000E+03 0.  0.
        998    1    1    2    0    0 -0.36699744048E+01 -0.49992599138E+01  0.13526454291E+04  0.13526966099E+04  0.10000000000E+02 0. -1.
</event>
<event>
 5    1  0.1334136E-008  0.3834950E+03  0.7957747E-01  0.3436080E+00
         13   -1    0    0    0    0  0.00000000000E+00  0.00000000000E+00  0.14999999963E+04  0.15000000000E+04  0.10566000000E+00 0. -1.
        994   -1    0    0    0    0 -0.00000000000E+00 -0.00000000000E+00  0.11368683772E-12  0.17120000000E+03  0.17120000000E+03 0.  0.
         13    1    1    2    0    0  0.53556642031E+02 -0.27095121526E+02  0.88775530882E+02  0.10716139960E+03  0.10566000000E+00 0. -1.
        994    1    1    2    0    0 -0.56274973978E+02  0.10113590034E+02  0.30360126130E+02  0.18303096639E+03  0.17120000000E+03 0.  0.
        998    1    1    2    0    0  0.27183319471E+01  0.16981531492E+02  0.13808643393E+04  0.13810076340E+04  0.10000000000E+02 0. -1.
</event>
<event>
 5    1  0.1334136E-008  0.3854109E+03  0.7957747E-01  0.3427932E+00
         13   -1    0    0    0    0  0.00000000000E+00  0.00000000000E+00  0.14999999963E+04  0.15000000000E+04  0.10566000000E+00 0.  1.
        994   -1    0    0    0    0 -0.00000000000E+00 -0.00000000000E+00  0.11368683772E-12  0.17120000000E+03  0.17120000000E+03 0.  0.
         13    1    1    2    0    0  0.72706175152E+01 -0.71557347872E+01  0.35655641787E+02  0.37086417658E+02  0.10566000000E+00 0.  1.
        994    1    1    2    0    0 -0.11511782398E+02  0.48636567187E+01  0.19393796260E+01  0.17166647164E+03  0.17120000000E+03 0.  0.
        998    1    1    2    0    0  0.42411648825E+01  0.22920780685E+01  0.14624049749E+04  0.14624471107E+04  0.10000000000E+02 0.  1.
</event>
<event>
 5    1  0.1334136E-008  0.3793856E+03  0.7957747E-01  0.3453838E+00
         13   -1    0    0    0    0  0.00000000000E+00  0.00000000000E+00  0.14999999963E+04  0.15000000000E+04  0.10566000000E+00 0.  1.
        994   -1    0    0    0    0 -0.00000000000E+00 -0.00000000000E+00  0.11368683772E-12  0.17120000000E+03  0.17120000000E+03 0.  0.
         13    1    1    2    0    0  0.61375540551E+02  0.73103212368E+02  0.35953745766E+03  0.37199224623E+03  0.10566000000E+00 0.  1.
        994    1    1    2    0    0 -0.32462281649E+02  0.58474809003E+01  0.19933678964E+02  0.17548442757E+03  0.17120000000E+03 0.  0.
        998    1    1    2    0    0 -0.28913258902E+02 -0.78950693268E+02  0.11205288597E+04  0.11237233262E+04  0.10000000000E+02 0. -1.
</event>
<event>
 5    1  0.1334136E-008  0.3853896E+03  0.7957747E-01  0.3428022E+00
         13   -1    0    0    0    0  0.00000000000E+00  0.00000000000E+00  0.14999999963E+04  0.15000000000E+04  0.10566000000E+00 0.  1.
        994   -1    0    0    0    0 -0.00000000000E+00 -0.00000000000E+00  0.11368683772E-12  0.17120000000E+03  0.17120000000E+03 0.  0.
         13    1    1    2    0    0  0.12016189261E+02 -0.11982775546E+01  0.49117250070E+02  0.50580036496E+02  0.10566000000E+00 0.  1.
        994    1    1    2    0    0 -0.14246864322E+02  0.46609382139E+00  0.21044910261E+01  0.17180529465E+03  0.17120000000E+03 0.  0.
        998    1    1    2    0    0  0.22306750612E+01  0.73218373324E+00  0.14487782552E+04  0.14488146689E+04  0.10000000000E+02 0.  1.
</event>
<event>
 5    1  0.1334136E-008  0.3700248E+03  0.7957747E-01  0.3495777E+00
         13   -1    0    0    0    0  0.00000000000E+00  0.00000000000E+00  0.14999999963E+04  0.15000000000E+04  0.10566000000E+00 0.  1.
        994   -1    0    0    0    0 -0.00000000000E+00 -0.00000000000E+00  0.11368683772E-12  0.17120000000E+03  0.17120000000E+03 0.  0.
         13    1    1    2    0    0 -0.27066763247E+02 -0.67300674113E+01  0.43487016256E+02  0.51662706345E+02  0.10566000000E+00 0.  1.
        994    1    1    2    0    0 -0.27408428503E+02 -0.43152941451E+01  0.11922333649E+02  0.17384310673E+03  0.17120000000E+03 0.  0.
        998    1    1    2    0    0  0.54475191750E+02  0.11045361556E+02  0.14445906464E+04  0.14456941869E+04  0.10000000000E+02 0.  1.
</event>
<event>
 5    1  0.1334136E-008  0.3781813E+03  0.7957747E-01  0.3459116E+00
         13   -1    0    0    0    0  0.00000000000E+00  0.00000000000E+00  0.14999999963E+04  0.15000000000E+04  0.10566000000E+00 0. -1.
        994   -1    0    0    0    0 -0.00000000000E+00 -0.00000000000E+00  0.11368683772E-12  0.17120000000E+03  0.17120000000E+03 0.  0.
         13    1    1    2    0    0 -0.27828040996E+02 -0.61542797116E+01  0.86741754893E+02  0.91303988031E+02  0.10566000000E+00 0. -1.
        994    1    1    2    0    0 -0.34490231008E+01 -0.56587407237E+01  0.52017667232E+01  0.17140716287E+03  0.17120000000E+03 0.  0.
        998    1    1    2    0    0  0.31277064097E+02  0.11813020435E+02  0.14080564747E+04  0.14084888491E+04  0.10000000000E+02 0.  0.
</event>
<event>
 5    1  0.1334136E-008  0.3740736E+03  0.7957747E-01  0.3477376E+00
         13   -1    0    0    0    0  0.00000000000E+00  0.00000000000E+00  0.14999999963E+04  0.15000000000E+04  0.10566000000E+00 0. -1.
        994   -1    0    0    0    0 -0.00000000000E+00 -0.00000000000E+00  0.11368683772E-12  0.17120000000E+03  0.17120000000E+03 0.  0.
         13    1    1    2    0    0  0.13957955372E+02  0.43823156978E+01  0.20971786689E+01  0.14779666148E+02  0.10566000000E+00 0. -1.
        994    1    1    2    0    0 -0.15257941030E+02 -0.95072232608E+01  0.14256240322E+02  0.17273063552E+03  0.17120000000E+03 0.  0.
        998    1    1    2    0    0  0.12999856581E+01  0.51249075630E+01  0.14836465773E+04  0.14836896983E+04  0.10000000000E+02 0. -1.
</event>
<event>
 5    1  0.1334136E-008  0.3813520E+03  0.7957747E-01  0.3445293E+00
         13   -1    0    0    0    0  0.00000000000E+00  0.00000000000E+00  0.14999999963E+04  0.15000000000E+04  0.10566000000E+00 0.  1.
        994   -1    0    0    0    0 -0.00000000000E+00 -0.00000000000E+00  0.11368683772E-12  0.17120000000E+03  0.17120000000E+03 0.  0.
         13    1    1    2    0    0 -0.28524503110E+02 -0.13628441958E+02  0.12685030249E+03  0.13073022647E+03  0.10566000000E+00 0.  1.
        994    1    1    2    0    0  0.38462796508E+02  0.99872911726E+01  0.87255331091E+01  0.17596791647E+03  0.17120000000E+03 0.  0.
        998    1    1    2    0    0 -0.99382933976E+01  0.36411507856E+01  0.13644241607E+04  0.13645018571E+04  0.10000000000E+02 0.  1.
</event>
<event>
 5    1  0.1334136E-008  0.3704801E+03  0.7957747E-01  0.3493687E+00
         13   -1    0    0    0    0  0.00000000000E+00  0.00000000000E+00  0.14999999963E+04  0.15000000000E+04  0.10566000000E+00 0.  1.
        994   -1    0    0    0    0 -0.00000000000E+00 -0.00000000000E+00  0.11368683772E-12  0.17120000000E+03  0.17120000000E+03 0.  0.
         13    1    1    2    0    0 -0.44441972220E+02  0.47522771242E+02  0.20493082857E+03  0.21501199581E+03  0.10566000000E+00 0.  1.
        994    1    1    2    0    0  0.40048451872E+02 -0.46615307548E+02  0.22170967227E+02  0.18324261836E+03  0.17120000000E+03 0.  0.
        998    1    1    2    0    0  0.43935203473E+01 -0.90746369462E+00  0.12728982005E+04  0.12729453858E+04  0.10000000000E+02 0.  1.
</event>
<event>
 5    1  0.1334136E-008  0.3822555E+03  0.7957747E-01  0.3441396E+00
         13   -1    0    0    0    0  0.00000000000E+00  0.00000000000E+00  0.14999999963E+04  0.15000000000E+04  0.10566000000E+00 0. -1.
        994   -1    0    0    0    0 -0.00000000000E+00 -0.00000000000E+00  0.11368683772E-12  0.17120000000E+03  0.17120000000E+03 0.  0.
         13    1    1    2    0    0 -0.81342526086E+01  0.30137236907E+02  0.15064858744E+03  0.15384871523E+03  0.10566000000E+00 0. -1.
        994    1    1    2    0    0  0.13540663769E+02 -0.25487077055E+02  0.57676496674E+01  0.17371138839E+03  0.17120000000E+03 0.  0.
        998    1    1    2    0    0 -0.54064111608E+01 -0.46501598522E+01  0.13435837592E+04  0.13436398964E+04  0.10000000000E+02 0. -1.
</event>
<event>
 5    1  0.1334136E-008  0.3712594E+03  0.7957747E-01  0.3490123E+00
         13   -1    0    0    0    0  0.00000000000E+00  0.00000000000E+00  0.14999999963E+04  0.15000000000E+04  0.10566000000E+00 0.  1.
        994   -1    0    0    0    0 -0.00000000000E+00 -0.00000000000E+00  0.11368683772E-12  0.17120000000E+03  0.17120000000E+03 0.  0.
         13    1    1    2    0    0 -0.46401870176E+01  0.38901421815E+02  0.83014777620E+02  0.91794969482E+02  0.10566000000E+00 0.  1.
        994    1    1    2    0    0  0.49167560722E+00 -0.34935634750E+02  0.12826556623E+02  0.17519903218E+03  0.17120000000E+03 0.  0.
        998    1    1    2    0    0  0.41485114104E+01 -0.39657870656E+01  0.14041586620E+04  0.14042059983E+04  0.10000000000E+02 0.  1.
</event>
<event>
 5    1  0.1334136E-008  0.3854203E+03  0.7957747E-01  0.3427892E+00
         13   -1    0    0    0    0  0.00000000000E+00  0.00000000000E+00  0.14999999963E+04  0.15000000000E+04  0.10566000000E+00 0.  1.
        994   -1    0    0    0    0 -0.00000000000E+00 -0.00000000000E+00  0.11368683772E-12  0.17120000000E+03  0.17120000000E+03 0.  0.
         13    1    1    2    0    0 -0.39352951429E+01 -0.10609605262E+02  0.46119085631E+02  0.47487171901E+02  0.10566000000E+00 0.  1.
        994    1    1    2    0    0  0.62852871270E+01  0.19419370666E+01  0.15637550051E+01  0.17133347975E+03  0.17120000000E+03 0.  0.
        998    1    1    2    0    0 -0.23499919841E+01  0.86676681954E+01  0.14523171556E+04  0.14523793483E+04  0.10000000000E+02 0.  1.
</event>
<event>
 5    1  0.1334136E-008  0.3797554E+03  0.7957747E-01  0.3452224E+00
         13   -1    0    0    0    0  0.00000000000E+00  0.00000000000E+00  0.14999999963E+04  0.15000000000E+04  0.10566000000E+00 0.  1.
        994   -1    0    0    0    0 -0.00000000000E+00 -0.00000000000E+00  0.11368683772E-12  0.17120000000E+03  0.17120000000E+03 0.  0.
         13    1    1    2    0    0 -0.25963855917E+02 -0.20837898782E+02  0.15006401027E+03  0.15371258303E+03  0.10566000000E+00 0.  1.
        994    1    1    2    0    0  0.17998521601E+01 -0.89464820316E+01  0.45353129079E+01  0.17150302642E+03  0.17120000000E+03 0.  0.
        998    1    1    2    0    0  0.24164003757E+02  0.29784380813E+02  0.13454006731E+04  0.13459843905E+04  0.10000000000E+02 0.  1.
</event>
<event>
 5    1  0.1334136E-008  0.3860692E+03  0.7957747E-01  0.3425150E+00
         13   -1    0    0    0    0  0.00000000000E+00  0.00000000000E+00  0.14999999963E+04  0.15000000000E+04  0.10566000000E+00 0. -1.
        994   -1    0    0    0    0 -0.00000000000E+00 -0.00000000000E+00  0.11368683772E-12  0.17120000000E+03  0.17120000000E+03 0.  0.
         13    1    1    2    0    0  0.11773338964E+02 -0.62882664213E+01  0.80490124088E+02  0.81589368454E+02  0.10566000000E+00 0. -1.
        994    1    1    2    0    0 -0.49438694998E+01  0.14305753564E+02  0.18513886755E+01  0.17187775909E+03  0.17120000000E+03 0.  0.
        998    1    1    2    0    0 -0.68294694640E+01 -0.80174871426E+01  0.14176584835E+04  0.14177328725E+04  0.10000000000E+02 0. -1.
</event>
<event>
 5    1  0.1334136E-008  0.3857016E+03  0.7957747E-01  0.3426702E+00
         13   -1    0    0    0    0  0.00000000000E+00  0.00000000000E+00  0.14999999963E+04  0.15000000000E+04  0.10566000000E+00 0. -1.
        994   -1    0    0    0    0 -0.00000000000E+00 -0.00000000000E+00  0.11368683772E-12  0.17120000000E+03  0.17120000000E+03 0.  0.
         13    1    1    2    0    0 -0.15137275100E+02 -0.17993011333E+01  0.92108704758E+02  0.93361658288E+02  0.10566000000E+00 0. -1.
        994    1    1    2    0    0  0.85975666370E+01  0.20833762068E+01  0.15390509383E+01  0.17143531517E+03  0.17120000000E+03 0.  0.
        998    1    1    2    0    0  0.65397084628E+01 -0.28407507345E+00  0.14063522406E+04  0.14064030265E+04  0.10000000000E+02 0. -1.
</event>
<event>
 5    1  0.1334136E-008  0.3771047E+03  0.7957747E-01  0.3463863E+00
         13   -1    0    0    0    0  0.00000000000E+00  0.00000000000E+00  0.14999999963E+04  0.15000000000E+04  0.10566000000E+00 0. -1.
        994   -1    0    0    0    0 -0.00000000000E+00 -0.00000000000E+00  0.11368683772E-12  0.17120000000E+03  0.17120000000E+03 0.  0.
         13    1    1    2    0    0 -0.51153819449E+02 -0.12193097215E+02  0.21105847904E+03  0.21751109765E+03  0.10566000000E+00 0. -1.
        994    1    1    2    0    0  0.50938049680E+02  0.15441817581E+02  0.15224821692E+02  0.17992879100E+03  0.17120000000E+03 0.  0.
        998    1    1    2    0    0  0.21576976899E+00 -0.32487203660E+01  0.12737166956E+04  0.12737601114E+04  0.10000000000E+02 0. -1.
</event>
<event>
 5    1  0.1334136E-008  0.3797426E+03  0.7957747E-01  0.3452280E+00
         13   -1    0    0    0    0  0.00000000000E+00  0.00000000000E+00  0.14999999963E+04  0.15000000000E+04  0.10566000000E+00 0.  1.
        994   -1    0    0    0    0 -0.00000000000E+00 -0.00000000000E+00  0.11368683772E-12  0.17120000000E+03  0.17120000000E+03 0.  0.
         13    1    1    2    0    0 -0.66161593098E+01 -0.14512617648E+03  0.87758168644E+03  0.88952515884E+03  0.10566000000E+00 0.  1.
        994    1    1    2    0    0  0.14479932667E+02  0.14713587772E+03  0.81249784694E+02  0.24035307877E+03  0.17120000000E+03 0.  0.
        998    1    1    2    0    0 -0.78637733576E+01 -0.20097012468E+01  0.54116852514E+03  0.54132176239E+03  0.10000000000E+02 0.  0.
</event>
<event>
 5    1  0.1334136E-008  0.3855875E+03  0.7957747E-01  0.3427184E+00
         13   -1    0    0    0    0  0.00000000000E+00  0.00000000000E+00  0.14999999963E+04  0.15000000000E+04  0.10566000000E+00 0. -1.
        994   -1    0    0    0    0 -0.00000000000E+00 -0.00000000000E+00  0.11368683772E-12  0.17120000000E+03  0.17120000000E+03 0.  0.
         13    1    1    2    0    0 -0.10638608090E+02  0.44357327365E+01  0.48102156972E+02  0.49463970488E+02  0.10566000000E+00 0. -1.
        994    1    1    2    0    0  0.16440936241E+02  0.31514215403E+01  0.22590992985E+01  0.17203133253E+03  0.17120000000E+03 0.  0.
        998    1    1    2    0    0 -0.58023281505E+01 -0.75871542768E+01  0.14496387400E+04  0.14497046970E+04  0.10000000000E+02 0. -1.
</event>
<event>
 5    1  0.1334136E-008  0.3830560E+03  0.7957747E-01  0.3437959E+00
         13   -1    0    0    0    0  0.00000000000E+00  0.00000000000E+00  0.14999999963E+04  0.15000000000E+04  0.10566000000E+00 0.  1.
        994   -1    0    0    0    0 -0.00000000000E+00 -0.00000000000E+00  0.11368683772E-12  0.17120000000E+03  0.17120000000E+03 0.  0.
         13    1    1    2    0    0 -0.13673319347E+02 -0.12695320323E+01  0.35207477028E+02  0.37790858369E+02  0.10566000000E+00 0.  1.
        994    1    1    2    0    0  0.11363494288E+02 -0.28279188930E+01  0.30523126670E+01  0.17162716201E+03  0.17120000000E+03 0.  0.
        998    1    1    2    0    0  0.23098250590E+01  0.40974509252E+01  0.14617402066E+04  0.14617819796E+04  0.10000000000E+02 0.  1.
</event>
<event>
 5    1  0.1334136E-008  0.3817081E+03  0.7957747E-01  0.3443755E+00
         13   -1    0    0    0    0  0.00000000000E+00  0.00000000000E+00  0.14999999963E+04  0.15000000000E+04  0.10566000000E+00 0. -1.
        994   -1    0    0    0    0 -0.00000000000E+00 -0.00000000000E+00  0.11368683772E-12  0.17120000000E+03  0.17120000000E+03 0.  0.
         13    1    1    2    0    0  0.62191204817E+02  0.46621114521E+02  0.15485481652E+03  0.17326655661E+03  0.10566000000E+00 0. -1.
        994    1    1    2    0    0 -0.60815746652E+02 -0.41700796339E+02  0.37375356927E+02  0.19011540906E+03  0.17120000000E+03 0.  0.
        998    1    1    2    0    0 -0.13754581647E+01 -0.49203181819E+01  0.13077698228E+04  0.13078180343E+04  0.10000000000E+02 0. -1.
</event>
<event>
 5    1  0.1334136E-008  0.3857740E+03  0.7957747E-01  0.3426396E+00
         13   -1    0    0    0    0  0.00000000000E+00  0.00000000000E+00  0.14999999963E+04  0.15000000000E+04  0.10566000000E+00 0.  1.
        994   -1    0    0    0    0 -0.00000000000E+00 -0.00000000000E+00  0.11368683772E-12  0.17120000000E+03  0.17120000000E+03 0.  0.
         13    1    1    2    0    0  0.11828285784E+02 -0.12906579721E+01  0.56059336401E+02  0.57308241156E+02  0.10566000000E+00 0.  1.
        994    1    1    2    0    0 -0.11534592064E+02 -0.25725996315E+01  0.17046548809E+01  0.17161588193E+03  0.17120000000E+03 0.  0.
        998    1    1    2    0    0 -0.29369372024E+00  0.38632576036E+01  0.14422360050E+04  0.14422758769E+04  0.10000000000E+02 0.  1.
</event>
<event>
 5    1  0.1334136E-008  0.3807130E+03  0.7957747E-01  0.3448060E+00
         13   -1    0    0    0    0  0.00000000000E+00  0.00000000000E+00  0.14999999963E+04  0.15000000000E+04  0.10566000000E+00 0. -1.
        994   -1    0    0    0    0 -0.00000000000E+00 -0.00000000000E+00  0.11368683772E-12  0.17120000000E+03  0.17120000000E+03 0.  0.
         13    1    1    2    0    0 -0.46966111104E+01  0.54112906130E+02  0.83577653372E+02  0.99676978650E+02  0.10566000000E+00 0. -1.
        994    1    1    2    0    0 -0.10328972706E+03 -0.37247230725E+02  0.61949213866E+02  0.21261060418E+03  0.17120000000E+03 0.  0.
        998    1    1    2    0    0  0.10798633817E+03 -0.16865675404E+02  0.13544731290E+04  0.13589124172E+04  0.10000000000E+02 0. -1.
</event>
<event>
 5    1  0.1334136E-008  0.3902129E+03  0.7957747E-01  0.3407860E+00
         13   -1    0    0    0    0  0.00000000000E+00  0.00000000000E+00  0.14999999963E+04  0.15000000000E+04  0.10566000000E+00 0.  1.
        994   -1    0    0    0    0 -0.00000000000E+00 -0.00000000000E+00  0.11368683772E-12  0.17120000000E+03  0.17120000000E+03 0.  0.
         13    1    1    2    0    0 -0.35902660889E+01 -0.40062393002E+02  0.26652553543E+02  0.48251996001E+02  0.10566000000E+00 0.  1.
        994    1    1    2    0    0 -0.23670573270E+02  0.52979139626E+02  0.34844656229E+02  0.18409420236E+03  0.17120000000E+03 0.  0.
        998    1    1    2    0    0  0.27260839359E+02 -0.12916746624E+02  0.14385027865E+04  0.14388538016E+04  0.10000000000E+02 0.  1.
</event>
<event>
 5    1  0.1334136E-008  0.3750442E+03  0.7957747E-01  0.3473025E+00
         13   -1    0    0    0    0  0.00000000000E+00  0.00000000000E+00  0.14999999963E+04  0.15000000000E+04  0.10566000000E+00 0.  1.
        994   -1    0    0    0    0 -0.00000000000E+00 -0.00000000000E+00  0.11368683772E-12  0.17120000000E+03  0.17120000000E+03 0.  0.
         13    1    1    2    0    0  0.19395290103E+02  0.29518925368E+02  0.90838675670E+02  0.97463944075E+02  0.10566000000E+00 0.  1.
        994    1    1    2    0    0 -0.13738947687E+02 -0.18687907121E+02  0.84866830780E+01  0.17297242655E+03  0.17120000000E+03 0.  0.
        998    1    1    2    0    0 -0.56563424163E+01 -0.10831018246E+02  0.14006746375E+04  0.14007636294E+04  0.10000000000E+02 0.  1.
</event>
<event>
 5    1  0.1334136E-008  0.3786987E+03  0.7957747E-01  0.3456844E+00
         13   -1    0    0    0    0  0.00000000000E+00  0.00000000000E+00  0.14999999963E+04  0.15000000000E+04  0.10566000000E+00 0.  1.
        994   -1    0    0    0    0 -0.00000000000E+00 -0.00000000000E+00  0.11368683772E-12  0.17120000000E+03  0.17120000000E+03 0.  0.
         13    1    1    2    0    0  0.10205654349E+02  0.30515491783E+02  0.11596535538E+03  0.12034668850E+03  0.10566000000E+00 0.  1.
        994    1    1    2    0    0  0.46539119640E+00 -0.32579134907E+01  0.48278438142E+01  0.17129967503E+03  0.17120000000E+03 0.  0.
        998    1    1    2    0    0 -0.10671045546E+02 -0.27257578292E+02  0.13792067971E+04  0.13795536365E+04  0.10000000000E+02 0.  1.
</event>
<event>
 5    1  0.1334136E-008  0.3856959E+03  0.7957747E-01  0.3426726E+00
         13   -1    0    0    0    0  0.00000000000E+00  0.00000000000E+00  0.14999999963E+04  0.15000000000E+04  0.10566000000E+00 0. -1.
        994   -1    0    0    0    0 -0.00000000000E+00 -0.00000000000E+00  0.11368683772E-12  0.17120000000E+03  0.17120000000E+03 0.  0.
         13    1    1    2    0    0 -0.38672842764E+01 -0.12727376221E+02  0.66645207997E+02  0.67959818321E+02  0.10566000000E+00 0. -1.
        994    1    1    2    0    0  0.20625315251E+01  0.14432733072E+02  0.19827982320E+01  0.17183110693E+03  0.17120000000E+03 0.  0.
        998    1    1    2    0    0  0.18047527514E+01 -0.17053568506E+01  0.14313719900E+04  0.14314090747E+04  0.10000000000E+02 0. -1.
</event>
<event>
 5    1  0.1334136E-008  0.3839428E+03  0.7957747E-01  0.3434168E+00
         13   -1    0    0    0    0  0.00000000000E+00  0.00000000000E+00  0.14999999963E+04  0.15000000000E+04  0.10566000000E+00 0. -1.
        994   -1    0    0    0    0 -0.00000000000E+00 -0.00000000000E+00  0.11368683772E-12  0.17120000000E+03  0.17120000000E+03 0.  0.
         13    1    1    2    0    0  0.11740551020E+02 -0.91264996655E+01  0.55627402793E+02  0.57580835701E+02  0.10566000000E+00 0. -1.
        994    1    1    2    0    0  0.23474604844E+01 -0.91202223117E+01  0.24486717050E+01  0.17147631037E+03  0.17120000000E+03 0.  0.
        998    1    1    2    0    0 -0.14088011505E+02  0.18246721977E+02  0.14419239218E+04  0.14421428539E+04  0.10000000000E+02 0. -1.
</event>
<event>
 5    1  0.1334136E-008  0.3840155E+03  0.7957747E-01  0.3433858E+00
         13   -1    0    0    0    0  0.00000000000E+00  0.00000000000E+00  0.14999999963E+04  0.15000000000E+04  0.10566000000E+00 0. -1.
        994   -1    0    0    0    0 -0.00000000000E+00 -0.00000000000E+00  0.11368683772E-12  0.17120000000E+03  0.17120000000E+03 0.  0.
         13    1    1    2    0    0 -0.19087918921E+02  0.55080416889E+01  0.96688811890E+02  0.98708787252E+02  0.10566000000E+00 0. -1.
        994    1    1    2    0    0  0.10921789179E+02  0.13519439196E+02  0.31169168189E+01  0.17210815171E+03  0.17120000000E+03 0.  0.
        998    1    1    2    0    0  0.81661297423E+01 -0.19027480885E+02  0.14001942676E+04  0.14003830610E+04  0.10000000000E+02 0. -1.
</event>
<event>
 5    1  0.1334136E-008  0.3830458E+03  0.7957747E-01  0.3438003E+00
         13   -1    0    0    0    0  0.00000000000E+00  0.00000000000E+00  0.14999999963E+04  0.15000000000E+04  0.10566000000E+00 0. -1.
        994   -1    0    0    0    0 -0.00000000000E+00 -0.00000000000E+00  0.11368683772E-12  0.17120000000E+03  0.17120000000E+03 0.  0.
         13    1    1    2    0    0  0.10273422102E+02 -0.88506308734E+01  0.33871851479E+02  0.36485481431E+02  0.10566000000E+00 0. -1.
        994    1    1    2    0    0 -0.11393485454E+02  0.78444626365E+01  0.32370114513E+01  0.17178843194E+03  0.17120000000E+03 0.  0.
        998    1    1    2    0    0  0.11200633520E+01  0.10061682369E+01  0.14628911333E+04  0.14629260866E+04  0.10000000000E+02 0. -1.
</event>
<event>
 5    1  0.1334136E-008  0.3842509E+03  0.7957747E-01  0.3432856E+00
         13   -1    0    0    0    0  0.00000000000E+00  0.00000000000E+00  0.14999999963E+04  0.15000000000E+04  0.10566000000E+00 0. -1.
        994   -1    0    0    0    0 -0.00000000000E+00 -0.00000000000E+00  0.11368683772E-12  0.17120000000E+03  0.17120000000E+03 0.  0.
         13    1    1    2    0    0  0.16776041314E+01  0.18127468291E+02  0.97356733750E+00  0.18231249536E+02  0.10566000000E+00 0. -1.
        994    1    1    2    0    0 -0.20436981532E+02  0.26934038063E+02  0.22901197897E+02  0.17600289056E+03  0.17120000000E+03 0.  0.
        998    1    1    2    0    0  0.18759377401E+02 -0.45061506354E+02  0.14761252310E+04  0.14769658599E+04  0.10000000000E+02 0. -1.
</event>
<event>
 5    1  0.1334136E-008  0.3861123E+03  0.7957747E-01  0.3424969E+00
         13   -1    0    0    0    0  0.00000000000E+00  0.00000000000E+00  0.14999999963E+04  0.15000000000E+04  0.10566000000E+00 0.  1.
        994   -1    0    0    0    0 -0.00000000000E+00 -0.00000000000E+00  0.11368683772E-12  0.17120000000E+03  0.17120000000E+03 0.  0.
         13    1    1    2    0    0 -0.12434313501E+02  0.18485944345E+01  0.69127731021E+02  0.70261538652E+02  0.10566000000E+00 0.  1.
        994    1    1    2    0    0  0.14709365814E+02 -0.24986996223E+02  0.38386512259E+01  0.17368042684E+03  0.17120000000E+03 0.  0.
        998    1    1    2    0    0 -0.22750523124E+01  0.23138401788E+02  0.14270336140E+04  0.14272580345E+04  0.10000000000E+02 0.  1.
</event>
<event>
 5    1  0.1334136E-008  0.3720251E+03  0.7957747E-01  0.3486636E+00
         13   -1    0    0    0    0  0.00000000000E+00  0.00000000000E+00  0.14999999963E+04  0.15000000000E+04  0.10566000000E+00 0.  1.
        994   -1    0    0    0    0 -0.00000000000E+00 -0.00000000000E+00  0.11368683772E-12  0.17120000000E+03  0.17120000000E+03 0.  0.
         13    1    1    2    0    0  0.11178482691E+03  0.20370954060E+02  0.44384945312E+03  0.45816282204E+03  0.10566000000E+00 0.  1.
        994    1    1    2    0    0 -0.89404421760E+02 -0.15365379176E+02  0.41582896915E+02  0.19816110320E+03  0.17120000000E+03 0.  0.
        998    1    1    2    0    0 -0.22380405152E+02 -0.50055748838E+01  0.10145676462E+04  0.10148760748E+04  0.10000000000E+02 0.  1.
</event>
<event>
 5    1  0.1334136E-008  0.3740023E+03  0.7957747E-01  0.3477697E+00
         13   -1    0    0    0    0  0.00000000000E+00  0.00000000000E+00  0.14999999963E+04  0.15000000000E+04  0.10566000000E+00 0. -1.
        994   -1    0    0    0    0 -0.00000000000E+00 -0.00000000000E+00  0.11368683772E-12  0.17120000000E+03  0.17120000000E+03 0.  0.
         13    1    1    2    0    0 -0.15456303818E+02 -0.28313020414E+02  0.65172960753E+02  0.72718982598E+02  0.10566000000E+00 0. -1.
        994    1    1    2    0    0  0.21838522642E+02  0.33662426141E+02  0.12703299690E+02  0.17629774198E+03  0.17120000000E+03 0.  0.
        998    1    1    2    0    0 -0.63822188243E+01 -0.53494057266E+01  0.14221237358E+04  0.14221832754E+04  0.10000000000E+02 0. -1.
</event>
<event>
 5    1  0.1334136E-008  0.3824282E+03  0.7957747E-01  0.3440653E+00
         13   -1    0    0    0    0  0.00000000000E+00  0.00000000000E+00  0.14999999963E+04  0.15000000000E+04  0.10566000000E+00 0. -1.
        994   -1    0    0    0    0 -0.00000000000E+00 -0.00000000000E+00  0.11368683772E-12  0.17120000000E+03  0.17120000000E+03 0.  0.
         13    1    1    2    0    0 -0.52005698878E+01  0.13159009613E+02  0.33900066262E+02  0.36734603819E+02  0.10566000000E+00 0. -1.
        994    1    1    2    0    0 -0.14880461679E+01 -0.61021485623E+01  0.30432217600E+01  0.17134220641E+03  0.17120000000E+03 0.  0.
        998    1    1    2    0    0  0.66886160557E+01 -0.70568610507E+01  0.14630567083E+04  0.14631231898E+04  0.10000000000E+02 0. -1.
</event>
<event>
 5    1  0.1334136E-008  0.3840691E+03  0.7957747E-01  0.3433630E+00
         13   -1    0    0    0    0  0.00000000000E+00  0.00000000000E+00  0.14999999963E+04  0.15000000000E+04  0.10566000000E+00 0.  1.
        994   -1    0    0    0    0 -0.00000000000E+00 -0.00000000000E+00  0.11368683772E-12  0.17120000000E+03  0.17120000000E+03 0.  0.
         13    1    1    2    0    0  0.13665072492E+02  0.14267692281E+03  0.50461237090E+03  0.52457324993E+03  0.10566000000E+00 0.  1.
        994    1    1    2    0    0 -0.10163868078E+02 -0.96001713091E+02  0.53731625116E+02  0.20375514881E+03  0.17120000000E+03 0.  0.
        998    1    1    2    0    0 -0.35012044143E+01 -0.46675209715E+02  0.94165600026E+03  0.94287160126E+03  0.10000000000E+02 0.  1.
</event>
<event>
 5    1  0.1334136E-008  0.3855132E+03  0.7957747E-01  0.3427499E+00
         13   -1    0    0    0    0  0.00000000000E+00  0.00000000000E+00  0.14999999963E+04  0.15000000000E+04  0.10566000000E+00 0. -1.
        994   -1    0    0    0    0 -0.00000000000E+00 -0.00000000000E+00  0.11368683772E-12  0.17120000000E+03  0.17120000000E+03 0.  0.
         13    1    1    2    0    0 -0.10606841872E+02 -0.10381898814E+02  0.81481807387E+02  0.82822611747E+02  0.10566000000E+00 0. -1.
        994    1    1    2    0    0  0.39534363436E+01  0.75577272042E+01  0.16144624314E+01  0.17141993871E+03  0.17120000000E+03 0.  0.
        998    1    1    2    0    0  0.66534055283E+01  0.28241716100E+01  0.14169037265E+04  0.14169574495E+04  0.10000000000E+02 0. -1.
</event>
<event>
 5    1  0.1334136E-008  0.3814727E+03  0.7957747E-01  0.3444771E+00
         13   -1    0    0    0    0  0.00000000000E+00  0.00000000000E+00  0.14999999963E+04  0.15000000000E+04  0.10566000000E+00 0. -1.
        994   -1    0    0    0    0 -0.00000000000E+00 -0.00000000000E+00  0.11368683772E-12  0.17120000000E+03  0.17120000000E+03 0.  0.
         13    1    1    2    0    0  0.11746195585E+02 -0.19092167354E+01  0.20490695549E+02  0.23695948755E+02  0.10566000000E+00 0. -1.
        994    1    1    2    0    0  0.67447306159E+01 -0.13628456844E+02  0.41611633891E+01  0.17192434821E+03  0.17120000000E+03 0.  0.
        998    1    1    2    0    0 -0.18490926201E+02  0.15537673579E+02  0.14753481373E+04  0.14755797030E+04  0.10000000000E+02 0. -1.
</event>
<event>
 5    1  0.1334136E-008  0.3840259E+03  0.7957747E-01  0.3433814E+00
         13   -1    0    0    0    0  0.00000000000E+00  0.00000000000E+00  0.14999999963E+04  0.15000000000E+04  0.10566000000E+00 0.  1.
        994   -1    0    0    0    0 -0.00000000000E+00 -0.00000000000E+00  0.11368683772E-12  0.17120000000E+03  0.17120000000E+03 0.  0.
         13    1    1    2    0    0  0.18766979044E+02  0.11155166688E+02  0.12440108975E+03  0.12630233387E+03  0.10566000000E+00 0.  1.
        994    1    1    2    0    0 -0.11596669651E+02  0.16940890418E+02  0.35062314690E+01  0.17246219926E+03  0.17120000000E+03 0.  0.
        998    1    1    2    0    0 -0.71703093934E+01 -0.28096057105E+02  0.13720926751E+04  0.13724354669E+04  0.10000000000E+02 0.  1.
</event>
<event>
 5    1  0.1334136E-008  0.3692007E+03  0.7957747E-01  0.3499572E+00
         13   -1    0    0    0    0  0.00000000000E+00  0.00000000000E+00  0.14999999963E+04  0.15000000000E+04  0.10566000000E+00 0. -1.
        994   -1    0    0    0    0 -0.00000000000E+00 -0.00000000000E+00  0.11368683772E-12  0.17120000000E+03  0.17120000000E+03 0.  0.
         13    1    1    2    0    0 -0.42103112607E+01 -0.18034821922E+02  0.13316298835E+02  0.22810447198E+02  0.10566000000E+00 0. -1.
        994    1    1    2    0    0  0.23568129635E+01  0.17878222997E+02  0.10815731880E+02  0.17248653710E+03  0.17120000000E+03 0.  0.
        998    1    1    2    0    0  0.18534982972E+01  0.15659892528E+00  0.14758679656E+04  0.14759030157E+04  0.10000000000E+02 0. -1.
</event>
<event>
 5    1  0.1334136E-008  0.3858244E+03  0.7957747E-01  0.3426183E+00
         13   -1    0    0    0    0  0.00000000000E+00  0.00000000000E+00  0.14999999963E+04  0.15000000000E+04  0.10566000000E+00 0.  1.
        994   -1    0    0    0    0 -0.00000000000E+00 -0.00000000000E+00  0.11368683772E-12  0.17120000000E+03  0.17120000000E+03 0.  0.
         13    1    1    2    0    0 -0.16862316560E+01  0.11879026153E+02  0.56087080727E+02  0.57356136795E+02  0.10566000000E+00 0.  1.
        994    1    1    2    0    0 -0.21984693592E+00 -0.16985424198E+02  0.21683715751E+01  0.17205433678E+03  0.17120000000E+03 0.  0.
        998    1    1    2    0    0  0.19060785919E+01  0.51063980446E+01  0.14417445440E+04  0.14417895264E+04  0.10000000000E+02 0.  1.
</event>
<event>
 5    1  0.1334136E-008  0.3722987E+03  0.7957747E-01  0.3485393E+00
         13   -1    0    0    0    0  0.00000000000E+00  0.00000000000E+00  0.14999999963E+04  0.15000000000E+04  0.10566000000E+00 0. -1.
        994   -1    0    0    0    0 -0.00000000000E+00 -0.00000000000E+00  0.11368683772E-12  0.17120000000E+03  0.17120000000E+03 0.  0.
         13    1    1    2    0    0 -0.14509010830E+02 -0.42783379079E+02  0.11386143357E+03  0.12249639235E+03  0.10566000000E+00 0. -1.
        994    1    1    2    0    0  0.15137168849E+02  0.44830885278E+02  0.15792445375E+02  0.17831933010E+03  0.17120000000E+03 0.  0.
        998    1    1    2    0    0 -0.62815801910E+00 -0.20475061987E+01  0.13703461173E+04  0.13703842776E+04  0.10000000000E+02 0.  1.
</event>
<event>
 5    1  0.1334136E-008  0.3805325E+03  0.7957747E-01  0.3448843E+00
         13   -1    0    0    0    0  0.00000000000E+00  0.00000000000E+00  0.14999999963E+04  0.15000000000E+04  0.10566000000E+00 0. -1.
        994   -1    0    0    0    0 -0.00000000000E+00 -0.00000000000E+00  0.11368683772E-12  0.17120000000E+03  0.17120000000E+03 0.  0.
         13    1    1    2    0    0  0.70625521571E+01 -0.24963129680E+02  0.91641149231E+02  0.95242579148E+02  0.10566000000E+00 0. -1.
        994    1    1    2    0    0 -0.44829103935E+01  0.18799721037E+01  0.39434722983E+01  0.17131439448E+03  0.17120000000E+03 0.  0.
        998    1    1    2    0    0 -0.25796417636E+01  0.23083157576E+02  0.14044153747E+04  0.14046430264E+04  0.10000000000E+02 0. -1.
</event>
<event>
 5    1  0.1334136E-008  0.3784740E+03  0.7957747E-01  0.3457830E+00
         13   -1    0    0    0    0  0.00000000000E+00  0.00000000000E+00  0.14999999963E+04  0.15000000000E+04  0.10566000000E+00 0. -1.
        994   -1    0    0    0    0 -0.00000000000E+00 -0.00000000000E+00  0.11368683772E-12  0.17120000000E+03  0.17120000000E+03 0.  0.
         13    1    1    2    0    0  0.96264132805E+01 -0.11298760201E+02  0.20700431454E+02  0.25472511481E+02  0.10566000000E+00 0. -1.
        994    1    1    2    0    0 -0.14700849635E+02 -0.67533418827E+01  0.57852836576E+01  0.17205996662E+03  0.17120000000E+03 0.  0.
        998    1    1    2    0    0  0.50744363542E+01  0.18052102084E+02  0.14735142812E+04  0.14736675219E+04  0.10000000000E+02 0. -1.
</event>
<event>
 5    1  0.1334136E-008  0.3795487E+03  0.7957747E-01  0.3453126E+00
         13   -1    0    0    0    0  0.00000000000E+00  0.00000000000E+00  0.14999999963E+04  0.15000000000E+04  0.10566000000E+00 0.  1.
        994   -1    0    0    0    0 -0.00000000000E+00 -0.00000000000E+00  0.11368683772E-12  0.17120000000E+03  0.17120000000E+03 0.  0.
         13    1    1    2    0    0 -0.80940873573E+01  0.10705068245E+02  0.19843409562E+02  0.23955892873E+02  0.10566000000E+00 0.  1.
        994    1    1    2    0    0  0.35471309486E+01  0.16369714464E+02  0.53009451433E+01  0.17209906946E+03  0.17120000000E+03 0.  0.
        998    1    1    2    0    0  0.45469564087E+01 -0.27074782709E+02  0.14748556416E+04  0.14751450377E+04  0.10000000000E+02 0.  1.
</event>
<event>
 5    1  0.1334136E-008  0.3753171E+03  0.7957747E-01  0.3471806E+00
         13   -1    0    0    0    0  0.00000000000E+00  0.00000000000E+00  0.14999999963E+04  0.15000000000E+04  0.10566000000E+00 0. -1.
        994   -1    0    0    0    0 -0.00000000000E+00 -0.00000000000E+00  0.11368683772E-12  0.17120000000E+03  0.17120000000E+03 0.  0.
         13    1    1    2    0    0  0.21324813808E+02  0.15402004857E+02  0.48470930879E+02  0.55148995837E+02  0.10566000000E+00 0. -1.
        994    1    1    2    0    0 -0.28937823939E+02 -0.12253439547E+02  0.98765548702E+01  0.17434027295E+03  0.17120000000E+03 0.  0.
        998    1    1    2    0    0  0.76130101310E+01 -0.31485653105E+01  0.14416525105E+04  0.14417107312E+04  0.10000000000E+02 0. -1.
</event>
<event>
 5    1  0.1334136E-008  0.3754069E+03  0.7957747E-01  0.3471405E+00
         13   -1    0    0    0    0  0.00000000000E+00  0.00000000000E+00  0.14999999963E+04  0.15000000000E+04  0.10566000000E+00 0. -1.
        994   -1    0    0    0    0 -0.00000000000E+00 -0.00000000000E+00  0.11368683772E-12  0.17120000000E+03  0.17120000000E+03 0.  0.
         13    1    1    2    0    0  0.80146992357E+01  0.16169054308E+03  0.87884281548E+03  0.89362899047E+03  0.10566000000E+00 0. -1.
        994    1    1    2    0    0 -0.13274044991E+02 -0.15257965987E+03  0.90781733699E+02  0.24699699603E+03  0.17120000000E+03 0.  0.
        998    1    1    2    0    0  0.52593457557E+01 -0.91108832077E+01  0.53037544710E+03  0.53057401350E+03  0.10000000000E+02 0. -1.
</event>
<event>
 5    1  0.1334136E-008  0.3798758E+03  0.7957747E-01  0.3451699E+00
         13   -1    0    0    0    0  0.00000000000E+00  0.00000000000E+00  0.14999999963E+04  0.15000000000E+04  0.10566000000E+00 0.  1.
        994   -1    0    0    0    0 -0.00000000000E+00 -0.00000000000E+00  0.11368683772E-12  0.17120000000E+03  0.17120000000E+03 0.  0.
         13    1    1    2    0    0  0.25218539903E+02  0.24534495580E+02  0.12749361549E+03  0.13225940187E+03  0.10566000000E+00 0.  1.
        994    1    1    2    0    0 -0.30779586098E+02 -0.32697917706E+02  0.10969392033E+02  0.17733105849E+03  0.17120000000E+03 0.  0.
        998    1    1    2    0    0  0.55610461948E+01  0.81634221252E+01  0.13615369888E+04  0.13616095396E+04  0.10000000000E+02 0.  1.
</event>
<event>
 5    1  0.1334136E-008  0.3851079E+03  0.7957747E-01  0.3429215E+00
         13   -1    0    0    0    0  0.00000000000E+00  0.00000000000E+00  0.14999999963E+04  0.15000000000E+04  0.10566000000E+00 0.  1.
        994   -1    0    0    0    0 -0.00000000000E+00 -0.00000000000E+00  0.11368683772E-12  0.17120000000E+03  0.17120000000E+03 0.  0.
         13    1    1    2    0    0  0.10547625729E+02  0.47975977729E+01  0.39272601658E+02  0.40946523148E+02  0.10566000000E+00 0.  1.
        994    1    1    2    0    0 -0.27773887529E+02  0.34758432007E+01  0.41564674130E+01  0.17352287035E+03  0.17120000000E+03 0.  0.
        998    1    1    2    0    0  0.17226261800E+02 -0.82734409736E+01  0.14565709272E+04  0.14567306065E+04  0.10000000000E+02 0.  1.
</event>
<event>
 5    1  0.1334136E-008  0.3846775E+03  0.7957747E-01  0.3431041E+00
         13   -1    0    0    0    0  0.00000000000E+00  0.00000000000E+00  0.14999999963E+04  0.15000000000E+04  0.10566000000E+00 0. -1.
        994   -1    0    0    0    0 -0.00000000000E+00 -0.00000000000E+00  0.11368683772E-12  0.17120000000E+03  0.17120000000E+03 0.  0.
         13    1    1    2    0    0  0.17599203868E+02  0.14332269810E+01  0.87074275540E+02  0.88846647327E+02  0.10566000000E+00 0. -1.
        994    1    1    2    0    0 -0.10284584071E+02 -0.13953353078E+02  0.27801293770E+01  0.17209775667E+03  0.17120000000E+03 0.  0.
        998    1    1    2    0    0 -0.73146197969E+01  0.12520126097E+02  0.14101455914E+04  0.14102555960E+04  0.10000000000E+02 0. -1.
</event>
<event>
 5    1  0.1334136E-008  0.3849484E+03  0.7957747E-01  0.3429891E+00
         13   -1    0    0    0    0  0.00000000000E+00  0.00000000000E+00  0.14999999963E+04  0.15000000000E+04  0.10566000000E+00 0.  1.
        994   -1    0    0    0    0 -0.00000000000E+00 -0.00000000000E+00  0.11368683772E-12  0.17120000000E+03  0.17120000000E+03 0.  0.
         13    1    1    2    0    0  0.41022709403E+01 -0.14955996824E+02  0.81737371787E+02  0.83195670432E+02  0.10566000000E+00 0.  1.
        994    1    1    2    0    0 -0.23222681224E+00 -0.65586511383E+01  0.17974292008E+01  0.17133517031E+03  0.17120000000E+03 0.  0.
        998    1    1    2    0    0 -0.38700441280E+01  0.21514647963E+02  0.14164651953E+04  0.14166691593E+04  0.10000000000E+02 0.  1.
</event>
<event>
 5    1  0.1334136E-008  0.3832873E+03  0.7957747E-01  0.3436969E+00
         13   -1    0    0    0    0  0.00000000000E+00  0.00000000000E+00  0.14999999963E+04  0.15000000000E+04  0.10566000000E+00 0. -1.
        994   -1    0    0    0    0 -0.00000000000E+00 -0.00000000000E+00  0.11368683772E-12  0.17120000000E+03  0.17120000000E+03 0.  0.
         13    1    1    2    0    0  0.26895949140E+01 -0.16438355030E+02  0.52718569547E+02  0.55287540875E+02  0.10566000000E+00 0. -1.
        994    1    1    2    0    0 -0.43705823261E+01  0.20181737098E+02  0.38942508366E+01  0.17248481003E+03  0.17120000000E+03 0.  0.
        998    1    1    2    0    0  0.16809874121E+01 -0.37433820679E+01  0.14433871759E+04  0.14434276491E+04  0.10000000000E+02 0. -1.
</event>
<event>
 5    1  0.1334136E-008  0.3758958E+03  0.7957747E-01  0.3469226E+00
         13   -1    0    0    0    0  0.00000000000E+00  0.00000000000E+00  0.14999999963E+04  0.15000000000E+04  0.10566000000E+00 0.  1.
        994   -1    0    0    0    0 -0.00000000000E+00 -0.00000000000E+00  0.11368683772E-12  0.17120000000E+03  0.17120000000E+03 0.  0.
         13    1    1    2    0    0  0.15006292018E+02 -0.61956719483E+01  0.24321269302E+02  0.29242271723E+02  0.10566000000E+00 0.  1.
        994    1    1    2    0    0  0.78339131525E+02 -0.74922011899E+02  0.47142395341E+02  0.20804368011E+03  0.17120000000E+03 0.  0.
        998    1    1    2    0    0 -0.93345423542E+02  0.81117683848E+02  0.14285363316E+04  0.14339140482E+04  0.10000000000E+02 0.  1.
</event>
<event>
 5    1  0.1334136E-008  0.3767921E+03  0.7957747E-01  0.3465247E+00
         13   -1    0    0    0    0  0.00000000000E+00  0.00000000000E+00  0.14999999963E+04  0.15000000000E+04  0.10566000000E+00 0. -1.
        994   -1    0    0    0    0 -0.00000000000E+00 -0.00000000000E+00  0.11368683772E-12  0.17120000000E+03  0.17120000000E+03 0.  0.
         13    1    1    2    0    0  0.85598806568E+02  0.89942800938E+02  0.64350340451E+03  0.65537279918E+03  0.10566000000E+00 0. -1.
        994    1    1    2    0    0 -0.92843723487E+02 -0.94245990287E+02  0.67389995048E+02  0.22661225719E+03  0.17120000000E+03 0.  0.
        998    1    1    2    0    0  0.72449169189E+01  0.43031893485E+01  0.78910659672E+03  0.78921494363E+03  0.10000000000E+02 0. -1.
</event>
<event>
 5    1  0.1334136E-008  0.3758643E+03  0.7957747E-01  0.3469367E+00
         13   -1    0    0    0    0  0.00000000000E+00  0.00000000000E+00  0.14999999963E+04  0.15000000000E+04  0.10566000000E+00 0.  1.
        994   -1    0    0    0    0 -0.00000000000E+00 -0.00000000000E+00  0.11368683772E-12  0.17120000000E+03  0.17120000000E+03 0.  0.
         13    1    1    2    0    0  0.17091942461E+02  0.18175305513E+01  0.20929634610E+02  0.27083180820E+02  0.10566000000E+00 0.  1.
        994    1    1    2    0    0 -0.13071192190E+02 -0.96945556675E+01  0.71337183017E+01  0.17211963982E+03  0.17120000000E+03 0.  0.
        998    1    1    2    0    0 -0.40207502711E+01  0.78770251162E+01  0.14719366434E+04  0.14719971794E+04  0.10000000000E+02 0.  1.
</event>
<event>
 5    1  0.1334136E-008  0.3856881E+03  0.7957747E-01  0.3426759E+00
         13   -1    0    0    0    0  0.00000000000E+00  0.00000000000E+00  0.14999999963E+04  0.15000000000E+04  0.10566000000E+00 0.  1.
        994   -1    0    0    0    0 -0.00000000000E+00 -0.00000000000E+00  0.11368683772E-12  0.17120000000E+03  0.17120000000E+03 0.  0.
         13    1    1    2    0    0 -0.10427370097E+02 -0.34498840301E+01  0.44277663674E+02  0.45619671321E+02  0.10566000000E+00 0.  1.
        994    1    1    2    0    0  0.15756258131E+02  0.98805084713E+01  0.24246861482E+01  0.17222428174E+03  0.17120000000E+03 0.  0.
        998    1    1    2    0    0 -0.53288880338E+01 -0.64306244412E+01  0.14532976465E+04  0.14533560469E+04  0.10000000000E+02 0.  1.
</event>
<event>
 5    1  0.1334136E-008  0.3763068E+03  0.7957747E-01  0.3467399E+00
         13   -1    0    0    0    0  0.00000000000E+00  0.00000000000E+00  0.14999999963E+04  0.15000000000E+04  0.10566000000E+00 0. -1.
        994   -1    0    0    0    0 -0.00000000000E+00 -0.00000000000E+00  0.11368683772E-12  0.17120000000E+03  0.17120000000E+03 0.  0.
         13    1    1    2    0    0 -0.21066017324E+02  0.19144568627E+02  0.58845856867E+02  0.65369240689E+02  0.10566000000E+00 0. -1.
        994    1    1    2    0    0  0.36028439951E+02 -0.30638159517E+02  0.13616738771E+02  0.17813366015E+03  0.17120000000E+03 0.  0.
        998    1    1    2    0    0 -0.14962422626E+02  0.11493590890E+02  0.14275374006E+04  0.14276970992E+04  0.10000000000E+02 0. -1.
</event>
<event>
 5    1  0.1334136E-008  0.3766878E+03  0.7957747E-01  0.3465709E+00
         13   -1    0    0    0    0  0.00000000000E+00  0.00000000000E+00  0.14999999963E+04  0.15000000000E+04  0.10566000000E+00 0. -1.
        994   -1    0    0    0    0 -0.00000000000E+00 -0.00000000000E+00  0.11368683772E-12  0.17120000000E+03  0.17120000000E+03 0.  0.
         13    1    1    2    0    0 -0.31539864392E+02  0.35228323678E+02  0.21903028548E+03  0.22407604726E+03  0.10566000000E+00 0. -1.
        994    1    1    2    0    0  0.29995748321E+02  0.15975017265E+02  0.97281590525E+01  0.17481139314E+03  0.17120000000E+03 0.  0.
        998    1    1    2    0    0  0.15441160713E+01 -0.51203340943E+02  0.12712415517E+04  0.12723125596E+04  0.10000000000E+02 0. -1.
</event>
<event>
 5    1  0.1334136E-008  0.3741473E+03  0.7957747E-01  0.3477045E+00
         13   -1    0    0    0    0  0.00000000000E+00  0.00000000000E+00  0.14999999963E+04  0.15000000000E+04  0.10566000000E+00 0.  1.
        994   -1    0    0    0    0 -0.00000000000E+00 -0.00000000000E+00  0.11368683772E-12  0.17120000000E+03  0.17120000000E+03 0.  0.
         13    1    1    2    0    0  0.78713179722E+01 -0.62553515947E+01  0.37347617793E+01  0.10725981530E+02  0.10566000000E+00 0.  1.
        994    1    1    2    0    0 -0.11759033035E+02  0.59174543734E+01  0.77082135106E+01  0.17187829322E+03  0.17120000000E+03 0.  0.
        998    1    1    2    0    0  0.38877150627E+01  0.33789722135E+00  0.14885570210E+04  0.14885957253E+04  0.10000000000E+02 0.  1.
</event>
<event>
 5    1  0.2707295E-008  0.3860846E+03  0.7957747E-01  0.3425085E+00
         13   -1    0    0    0    0  0.00000000000E+00  0.00000000000E+00  0.14999999963E+04  0.15000000000E+04  0.10566000000E+00 0. -1.
        994   -1    0    0    0    0 -0.00000000000E+00 -0.00000000000E+00  0.11368683772E-12  0.17120000000E+03  0.17120000000E+03 0.  0.
         13    1    1    2    0    0  0.12729750184E+02 -0.29122072023E+01  0.78883331495E+02  0.79956979947E+02  0.10566000000E+00 0. -1.
        994    1    1    2    0    0 -0.90960713427E+01 -0.18617337242E+00  0.13638910296E+01  0.17144699873E+03  0.17120000000E+03 0.  0.
        998    1    1    2    0    0 -0.36336788414E+01  0.30983805747E+01  0.14197527738E+04  0.14197960213E+04  0.10000000000E+02 0. -1.
</event>
<event>
 5    1  0.1334136E-008  0.3816507E+03  0.7957747E-01  0.3444002E+00
         13   -1    0    0    0    0  0.00000000000E+00  0.00000000000E+00  0.14999999963E+04  0.15000000000E+04  0.10566000000E+00 0. -1.
        994   -1    0    0    0    0 -0.00000000000E+00 -0.00000000000E+00  0.11368683772E-12  0.17120000000E+03  0.17120000000E+03 0.  0.
         13    1    1    2    0    0 -0.27760809845E+02  0.23976659228E+02  0.20550048205E+03  0.20874865757E+03  0.10566000000E+00 0. -1.
        994    1    1    2    0    0  0.92661974480E+01 -0.19382715067E+02  0.48382708657E+01  0.17261054696E+03  0.17120000000E+03 0.  0.
        998    1    1    2    0    0  0.18494612397E+02 -0.45939441611E+01  0.12896612434E+04  0.12898407955E+04  0.10000000000E+02 0. -1.
</event>
<event>
 5    1  0.1334136E-008  0.3856095E+03  0.7957747E-01  0.3427091E+00
         13   -1    0    0    0    0  0.00000000000E+00  0.00000000000E+00  0.14999999963E+04  0.15000000000E+04  0.10566000000E+00 0. -1.
        994   -1    0    0    0    0 -0.00000000000E+00 -0.00000000000E+00  0.11368683772E-12  0.17120000000E+03  0.17120000000E+03 0.  0.
         13    1    1    2    0    0 -0.34175183642E+01  0.15766477205E+02  0.86859173657E+02  0.88344713750E+02  0.10566000000E+00 0. -1.
        994    1    1    2    0    0  0.50393941271E+01 -0.26022951281E+02  0.36372393284E+01  0.17327798186E+03  0.17120000000E+03 0.  0.
        998    1    1    2    0    0 -0.16218757629E+01  0.10256474076E+02  0.14095035833E+04  0.14095773044E+04  0.10000000000E+02 0. -1.
</event>
<event>
 5    1  0.3143768E-008  0.3860306E+03  0.7957747E-01  0.3425313E+00
         13   -1    0    0    0    0  0.00000000000E+00  0.00000000000E+00  0.14999999963E+04  0.15000000000E+04  0.10566000000E+00 0. -1.
        994   -1    0    0    0    0 -0.00000000000E+00 -0.00000000000E+00  0.11368683772E-12  0.17120000000E+03  0.17120000000E+03 0.  0.
         13    1    1    2    0    0 -0.13154606122E+01  0.10846069544E+02  0.53492001097E+02  0.54596455989E+02  0.10566000000E+00 0. -1.
        994    1    1    2    0    0  0.25710365958E+01 -0.84105846250E+01  0.13728958618E+01  0.17143124863E+03  0.17120000000E+03 0.  0.
        998    1    1    2    0    0 -0.12555759836E+01 -0.24354849188E+01  0.14451350993E+04  0.14451722954E+04  0.10000000000E+02 0. -1.
</event>
<event>
 5    1  0.1334136E-008  0.3844369E+03  0.7957747E-01  0.3432064E+00
         13   -1    0    0    0    0  0.00000000000E+00  0.00000000000E+00  0.14999999963E+04  0.15000000000E+04  0.10566000000E+00 0. -1.
        994   -1    0    0    0    0 -0.00000000000E+00 -0.00000000000E+00  0.11368683772E-12  0.17120000000E+03  0.17120000000E+03 0.  0.
         13    1    1    2    0    0 -0.75722373771E+01  0.12744358661E+02  0.59100423187E+02  0.60931343670E+02  0.10566000000E+00 0. -1.
        994    1    1    2    0    0 -0.47190764639E+00 -0.51314835748E+01  0.19974720761E+01  0.17128918447E+03  0.17120000000E+03 0.  0.
        998    1    1    2    0    0  0.80441450235E+01 -0.76128750861E+01  0.14389021010E+04  0.14389794719E+04  0.10000000000E+02 0. -1.
</event>
<event>
 5    1  0.1334136E-008  0.3753985E+03  0.7957747E-01  0.3471443E+00
         13   -1    0    0    0    0  0.00000000000E+00  0.00000000000E+00  0.14999999963E+04  0.15000000000E+04  0.10566000000E+00 0.  1.
        994   -1    0    0    0    0 -0.00000000000E+00 -0.00000000000E+00  0.11368683772E-12  0.17120000000E+03  0.17120000000E+03 0.  0.
         13    1    1    2    0    0 -0.94957481273E+02 -0.31897264352E+02  0.53879171693E+03  0.54802452876E+03  0.10566000000E+00 0.  1.
        994    1    1    2    0    0  0.86930813288E+02  0.28871139716E+02  0.35512124133E+02  0.19738556170E+03  0.17120000000E+03 0.  0.
        998    1    1    2    0    0  0.80266679845E+01  0.30261246359E+01  0.92569615521E+03  0.92578990954E+03  0.10000000000E+02 0.  1.
</event>
<event>
 5    1  0.1334136E-008  0.3789454E+03  0.7957747E-01  0.3455763E+00
         13   -1    0    0    0    0  0.00000000000E+00  0.00000000000E+00  0.14999999963E+04  0.15000000000E+04  0.10566000000E+00 0. -1.
        994   -1    0    0    0    0 -0.00000000000E+00 -0.00000000000E+00  0.11368683772E-12  0.17120000000E+03  0.17120000000E+03 0.  0.
         13    1    1    2    0    0 -0.25877823258E+02 -0.27252558910E+02  0.13382201073E+03  0.13899894037E+03  0.10566000000E+00 0. -1.
        994    1    1    2    0    0  0.25665770851E+02  0.34089809095E+02  0.10799019936E+02  0.17676794310E+03  0.17120000000E+03 0.  0.
        998    1    1    2    0    0  0.21205240679E+00 -0.68372501855E+01  0.13553789656E+04  0.13554331165E+04  0.10000000000E+02 0. -1.
</event>
<event>
 5    1  0.1334136E-008  0.3737927E+03  0.7957747E-01  0.3478640E+00
         13   -1    0    0    0    0  0.00000000000E+00  0.00000000000E+00  0.14999999963E+04  0.15000000000E+04  0.10566000000E+00 0.  1.
        994   -1    0    0    0    0 -0.00000000000E+00 -0.00000000000E+00  0.11368683772E-12  0.17120000000E+03  0.17120000000E+03 0.  0.
         13    1    1    2    0    0 -0.56506076276E+01 -0.17728668103E+02  0.75581832665E+01  0.20084131487E+02  0.10566000000E+00 0.  1.
        994    1    1    2    0    0  0.83070574882E+01  0.14141426513E+02  0.13912066599E+02  0.17254556716E+03  0.17120000000E+03 0.  0.
        998    1    1    2    0    0 -0.26564498606E+01  0.35872415900E+01  0.14785297464E+04  0.14785703014E+04  0.10000000000E+02 0.  1.
</event>
<event>
 5    1  0.1334136E-008  0.3857612E+03  0.7957747E-01  0.3426450E+00
         13   -1    0    0    0    0  0.00000000000E+00  0.00000000000E+00  0.14999999963E+04  0.15000000000E+04  0.10566000000E+00 0.  1.
        994   -1    0    0    0    0 -0.00000000000E+00 -0.00000000000E+00  0.11368683772E-12  0.17120000000E+03  0.17120000000E+03 0.  0.
         13    1    1    2    0    0  0.29961213357E+01  0.10438093639E+02  0.46806357669E+02  0.48049732821E+02  0.10566000000E+00 0.  1.
        994    1    1    2    0    0 -0.79702995562E+01 -0.76333634902E+01  0.16523442786E+01  0.17156329489E+03  0.17120000000E+03 0.  0.
        998    1    1    2    0    0  0.49741782205E+01 -0.28047301492E+01  0.14515412943E+04  0.14515869723E+04  0.10000000000E+02 0.  1.
</event>
<event>
 5    1  0.1334136E-008  0.3824173E+03  0.7957747E-01  0.3440700E+00
         13   -1    0    0    0    0  0.00000000000E+00  0.00000000000E+00  0.14999999963E+04  0.15000000000E+04  0.10566000000E+00 0.  1.
        994   -1    0    0    0    0 -0.00000000000E+00 -0.00000000000E+00  0.11368683772E-12  0.17120000000E+03  0.17120000000E+03 0.  0.
         13    1    1    2    0    0 -0.27780403506E+01 -0.13156418882E+02  0.29690858076E+02  0.32593973114E+02  0.10566000000E+00 0.  1.
        994    1    1    2    0    0  0.48265447985E+01  0.10797189159E+02  0.33818697956E+01  0.17164134663E+03  0.17120000000E+03 0.  0.
        998    1    1    2    0    0 -0.20485044478E+01  0.23592297221E+01  0.14669272684E+04  0.14669646803E+04  0.10000000000E+02 0.  1.
</event>
<event>
 5    1  0.1334136E-008  0.3834723E+03  0.7957747E-01  0.3436177E+00
         13   -1    0    0    0    0  0.00000000000E+00  0.00000000000E+00  0.14999999963E+04  0.15000000000E+04  0.10566000000E+00 0.  1.
        994   -1    0    0    0    0 -0.00000000000E+00 -0.00000000000E+00  0.11368683772E-12  0.17120000000E+03  0.17120000000E+03 0.  0.
         13    1    1    2    0    0 -0.26253799941E+02 -0.43030969446E+01  0.14799923523E+03  0.15037141832E+03  0.10566000000E+00 0.  1.
        994    1    1    2    0    0  0.14939600579E+02  0.46476303029E+01  0.31999673265E+01  0.17194322297E+03  0.17120000000E+03 0.  0.
        998    1    1    2    0    0  0.11314199362E+02 -0.34453335829E+00  0.13488007937E+04  0.13488853587E+04  0.10000000000E+02 0.  1.
</event>
<event>
 5    1  0.1334136E-008  0.3769458E+03  0.7957747E-01  0.3464566E+00
         13   -1    0    0    0    0  0.00000000000E+00  0.00000000000E+00  0.14999999963E+04  0.15000000000E+04  0.10566000000E+00 0.  1.
        994   -1    0    0    0    0 -0.00000000000E+00 -0.00000000000E+00  0.11368683772E-12  0.17120000000E+03  0.17120000000E+03 0.  0.
         13    1    1    2    0    0  0.15915917842E+02 -0.52991119366E+01  0.22064874006E+02  0.27717627190E+02  0.10566000000E+00 0.  1.
        994    1    1    2    0    0 -0.15238290847E+02  0.75249929012E+01  0.66588711580E+01  0.17217029823E+03  0.17120000000E+03 0.  0.
        998    1    1    2    0    0 -0.67762699548E+00 -0.22258809646E+01  0.14712762511E+04  0.14713120746E+04  0.10000000000E+02 0.  1.
</event>
<event>
 5    1  0.1334136E-008  0.3828220E+03  0.7957747E-01  0.3438962E+00
         13   -1    0    0    0    0  0.00000000000E+00  0.00000000000E+00  0.14999999963E+04  0.15000000000E+04  0.10566000000E+00 0.  1.
        994   -1    0    0    0    0 -0.00000000000E+00 -0.00000000000E+00  0.11368683772E-12  0.17120000000E+03  0.17120000000E+03 0.  0.
         13    1    1    2    0    0 -0.16534138046E+02 -0.14464454529E+02  0.83581878401E+02  0.86420713529E+02  0.10566000000E+00 0.  1.
        994    1    1    2    0    0  0.14881693758E+02  0.18054559350E+02  0.45305727629E+01  0.17285079697E+03  0.17120000000E+03 0.  0.
        998    1    1    2    0    0  0.16524442879E+01 -0.35901048218E+01  0.14118875451E+04  0.14119284895E+04  0.10000000000E+02 0.  1.
</event>
<event>
 5    1  0.1334136E-008  0.3832737E+03  0.7957747E-01  0.3437027E+00
         13   -1    0    0    0    0  0.00000000000E+00  0.00000000000E+00  0.14999999963E+04  0.15000000000E+04  0.10566000000E+00 0. -1.
        994   -1    0    0    0    0 -0.00000000000E+00 -0.00000000000E+00  0.11368683772E-12  0.17120000000E+03  0.17120000000E+03 0.  0.
         13    1    1    2    0    0  0.13884883124E+02  0.23737206937E+01  0.41614753621E+02  0.43934307918E+02  0.10566000000E+00 0. -1.
        994    1    1    2    0    0  0.53920492708E+01 -0.12791206453E+01  0.25911925521E+01  0.17130926602E+03  0.17120000000E+03 0.  0.
        998    1    1    2    0    0 -0.19276932395E+02 -0.10946000484E+01  0.14557940501E+04  0.14559564261E+04  0.10000000000E+02 0. -1.
</event>
<event>
 5    1  0.1334136E-008  0.3851234E+03  0.7957747E-01  0.3429149E+00
         13   -1    0    0    0    0  0.00000000000E+00  0.00000000000E+00  0.14999999963E+04  0.15000000000E+04  0.10566000000E+00 0.  1.
        994   -1    0    0    0    0 -0.00000000000E+00 -0.00000000000E+00  0.11368683772E-12  0.17120000000E+03  0.17120000000E+03 0.  0.
         13    1    1    2    0    0  0.25471872352E+01 -0.12678865418E+02  0.53812633031E+02  0.55344850067E+02  0.10566000000E+00 0.  1.
        994    1    1    2    0    0  0.56832043811E+01  0.84323989021E+01  0.19088801037E+01  0.17151235520E+03  0.17120000000E+03 0.  0.
        998    1    1    2    0    0 -0.82303916163E+01  0.42464665160E+01  0.14442784831E+04  0.14443427947E+04  0.10000000000E+02 0.  1.
</event>
<event>
 5    1  0.1334136E-008  0.3833024E+03  0.7957747E-01  0.3436904E+00
         13   -1    0    0    0    0  0.00000000000E+00  0.00000000000E+00  0.14999999963E+04  0.15000000000E+04  0.10566000000E+00 0. -1.
        994   -1    0    0    0    0 -0.00000000000E+00 -0.00000000000E+00  0.11368683772E-12  0.17120000000E+03  0.17120000000E+03 0.  0.
         13    1    1    2    0    0 -0.17140580369E+02 -0.87412785688E-01  0.91744299644E+02  0.93331853178E+02  0.10566000000E+00 0. -1.
        994    1    1    2    0    0 -0.54602573808E+02 -0.18991627588E+02  0.13606765525E+02  0.18120901482E+03  0.17120000000E+03 0.  0.
        998    1    1    2    0    0  0.71743154176E+02  0.19079040374E+02  0.13946489311E+04  0.13966591320E+04  0.10000000000E+02 0. -1.
</event>
<event>
 5    1  0.1334136E-008  0.3829676E+03  0.7957747E-01  0.3438338E+00
         13   -1    0    0    0    0  0.00000000000E+00  0.00000000000E+00  0.14999999963E+04  0.15000000000E+04  0.10566000000E+00 0.  1.
        994   -1    0    0    0    0 -0.00000000000E+00 -0.00000000000E+00  0.11368683772E-12  0.17120000000E+03  0.17120000000E+03 0.  0.
         13    1    1    2    0    0 -0.10079615110E+02 -0.12055614403E+02  0.47041515191E+02  0.49596892997E+02  0.10566000000E+00 0.  1.
        994    1    1    2    0    0  0.33657931541E+01  0.35585166442E+01  0.27219658239E+01  0.17129168311E+03  0.17120000000E+03 0.  0.
        998    1    1    2    0    0  0.67138219562E+01  0.84970977586E+01  0.14502365153E+04  0.14503114239E+04  0.10000000000E+02 0.  1.
</event>
<event>
 5    1  0.1334136E-008  0.3699301E+03  0.7957747E-01  0.3496212E+00
         13   -1    0    0    0    0  0.00000000000E+00  0.00000000000E+00  0.14999999963E+04  0.15000000000E+04  0.10566000000E+00 0. -1.
        994   -1    0    0    0    0 -0.00000000000E+00 -0.00000000000E+00  0.11368683772E-12  0.17120000000E+03  0.17120000000E+03 0.  0.
         13    1    1    2    0    0 -0.91775823175E+01 -0.11122090717E+02  0.68761744205E+01  0.15975664550E+02  0.10566000000E+00 0. -1.
        994    1    1    2    0    0  0.52124726119E+01  0.15156026337E+02  0.10194514814E+02  0.17225052435E+03  0.17120000000E+03 0.  0.
        998    1    1    2    0    0  0.39651097056E+01 -0.40339356192E+01  0.14829293070E+04  0.14829738111E+04  0.10000000000E+02 0. -1.
</event>
<event>
 5    1  0.1334136E-008  0.3849694E+03  0.7957747E-01  0.3429802E+00
         13   -1    0    0    0    0  0.00000000000E+00  0.00000000000E+00  0.14999999963E+04  0.15000000000E+04  0.10566000000E+00 0.  1.
        994   -1    0    0    0    0 -0.00000000000E+00 -0.00000000000E+00  0.11368683772E-12  0.17120000000E+03  0.17120000000E+03 0.  0.
         13    1    1    2    0    0  0.26035070525E+01  0.12777257587E+02  0.52563954929E+02  0.54157336365E+02  0.10566000000E+00 0.  1.
        994    1    1    2    0    0 -0.79671441952E+01 -0.40421955038E+01  0.19078697572E+01  0.17144356126E+03  0.17120000000E+03 0.  0.
        998    1    1    2    0    0  0.53636371427E+01 -0.87350620828E+01  0.14455281716E+04  0.14455991024E+04  0.10000000000E+02 0.  1.
</event>
<event>
 5    1  0.1334136E-008  0.3794265E+03  0.7957747E-01  0.3453659E+00
         13   -1    0    0    0    0  0.00000000000E+00  0.00000000000E+00  0.14999999963E+04  0.15000000000E+04  0.10566000000E+00 0. -1.
        994   -1    0    0    0    0 -0.00000000000E+00 -0.00000000000E+00  0.11368683772E-12  0.17120000000E+03  0.17120000000E+03 0.  0.
         13    1    1    2    0    0 -0.54532554345E+02  0.27557050204E+02  0.10349154623E+03  0.12018195290E+03  0.10566000000E+00 0. -1.
        994    1    1    2    0    0  0.56024284396E+02 -0.27754101306E+02  0.30286357251E+02  0.18475852894E+03  0.17120000000E+03 0.  0.
        998    1    1    2    0    0 -0.14917300505E+01  0.19705110203E+00  0.13662220928E+04  0.13662595182E+04  0.10000000000E+02 0. -1.
</event>
<event>
 5    1  0.1334136E-008  0.3836167E+03  0.7957747E-01  0.3435560E+00
         13   -1    0    0    0    0  0.00000000000E+00  0.00000000000E+00  0.14999999963E+04  0.15000000000E+04  0.10566000000E+00 0.  1.
        994   -1    0    0    0    0 -0.00000000000E+00 -0.00000000000E+00  0.11368683772E-12  0.17120000000E+03  0.17120000000E+03 0.  0.
         13    1    1    2    0    0  0.24225791294E+02  0.29943017935E+02  0.18384462523E+03  0.18783591423E+03  0.10566000000E+00 0.  1.
        994    1    1    2    0    0 -0.88853314823E+02 -0.45774887043E+02  0.36051326826E+02  0.20149290311E+03  0.17120000000E+03 0.  0.
        998    1    1    2    0    0  0.64627523528E+02  0.15831869109E+02  0.12801040442E+04  0.12818711827E+04  0.10000000000E+02 0.  1.
</event>
<event>
 5    1  0.1334136E-008  0.3795533E+03  0.7957747E-01  0.3453106E+00
         13   -1    0    0    0    0  0.00000000000E+00  0.00000000000E+00  0.14999999963E+04  0.15000000000E+04  0.10566000000E+00 0.  1.
        994   -1    0    0    0    0 -0.00000000000E+00 -0.00000000000E+00  0.11368683772E-12  0.17120000000E+03  0.17120000000E+03 0.  0.
         13    1    1    2    0    0 -0.42977704912E+02  0.10668361748E+01  0.19273532340E+03  0.19747186460E+03  0.10566000000E+00 0.  1.
        994    1    1    2    0    0  0.37392726806E+02 -0.52062274206E+01  0.91453651291E+01  0.17555169759E+03  0.17120000000E+03 0.  0.
        998    1    1    2    0    0  0.55849781061E+01  0.41393912459E+01  0.12981193077E+04  0.12981764378E+04  0.10000000000E+02 0.  1.
</event>
<event>
 5    1  0.1334136E-008  0.3861838E+03  0.7957747E-01  0.3424667E+00
         13   -1    0    0    0    0  0.00000000000E+00  0.00000000000E+00  0.14999999963E+04  0.15000000000E+04  0.10566000000E+00 0.  1.
        994   -1    0    0    0    0 -0.00000000000E+00 -0.00000000000E+00  0.11368683772E-12  0.17120000000E+03  0.17120000000E+03 0.  0.
         13    1    1    2    0    0  0.93073713732E+01 -0.40539959725E+01  0.58200866566E+02  0.59079726458E+02  0.10566000000E+00 0.  1.
        994    1    1    2    0    0  0.44551158330E+01 -0.20314471007E+02  0.24618025700E+01  0.17247616143E+03  0.17120000000E+03 0.  0.
        998    1    1    2    0    0 -0.13762487206E+02  0.24368466979E+02  0.14393373271E+04  0.14396441121E+04  0.10000000000E+02 0.  1.
</event>
<event>
 5    1  0.1334136E-008  0.3780667E+03  0.7957747E-01  0.3459620E+00
         13   -1    0    0    0    0  0.00000000000E+00  0.00000000000E+00  0.14999999963E+04  0.15000000000E+04  0.10566000000E+00 0. -1.
        994   -1    0    0    0    0 -0.00000000000E+00 -0.00000000000E+00  0.11368683772E-12  0.17120000000E+03  0.17120000000E+03 0.  0.
         13    1    1    2    0    0  0.32590463659E+02 -0.87938591142E+01  0.11987380966E+03  0.12453598550E+03  0.10566000000E+00 0. -1.
        994    1    1    2    0    0 -0.32874551657E+01 -0.13165954754E+00  0.51487024843E+01  0.17130900103E+03  0.17120000000E+03 0.  0.
        998    1    1    2    0    0 -0.29303008493E+02  0.89255186618E+01  0.13749774841E+04  0.13753550135E+04  0.10000000000E+02 0. -1.
</event>
<event>
 5    1  0.1334136E-008  0.3792545E+03  0.7957747E-01  0.3454411E+00
         13   -1    0    0    0    0  0.00000000000E+00  0.00000000000E+00  0.14999999963E+04  0.15000000000E+04  0.10566000000E+00 0. -1.
        994   -1    0    0    0    0 -0.00000000000E+00 -0.00000000000E+00  0.11368683772E-12  0.17120000000E+03  0.17120000000E+03 0.  0.
         13    1    1    2    0    0  0.35894473050E+02 -0.22437758568E+00  0.13405259110E+03  0.13877525675E+03  0.10566000000E+00 0. -1.
        994    1    1    2    0    0 -0.30476067840E+02  0.25484604701E+01  0.76505734847E+01  0.17407830605E+03  0.17120000000E+03 0.  0.
        998    1    1    2    0    0 -0.54184052103E+01 -0.23240828844E+01  0.13582968317E+04  0.13583464372E+04  0.10000000000E+02 0. -1.
</event>
<event>
 5    1  0.1334136E-008  0.3954884E+03  0.7957747E-01  0.3386372E+00
         13   -1    0    0    0    0  0.00000000000E+00  0.00000000000E+00  0.14999999963E+04  0.15000000000E+04  0.10566000000E+00 0.  1.
        994   -1    0    0    0    0 -0.00000000000E+00 -0.00000000000E+00  0.11368683772E-12  0.17120000000E+03  0.17120000000E+03 0.  0.
         13    1    1    2    0    0  0.19761514717E+02 -0.34707664401E+02  0.21750590788E+02  0.45477893484E+02  0.10566000000E+00 0.  1.
        994    1    1    2    0    0 -0.14478496214E+02  0.32282297942E+02  0.29935717896E+02  0.17736223053E+03  0.17120000000E+03 0.  0.
        998    1    1    2    0    0 -0.52830185033E+01  0.24253664598E+01  0.14483136876E+04  0.14483598760E+04  0.10000000000E+02 0.  1.
</event>
<event>
 5    1  0.1334136E-008  0.3806090E+03  0.7957747E-01  0.3448511E+00
         13   -1    0    0    0    0  0.00000000000E+00  0.00000000000E+00  0.14999999963E+04  0.15000000000E+04  0.10566000000E+00 0.  1.
        994   -1    0    0    0    0 -0.00000000000E+00 -0.00000000000E+00  0.11368683772E-12  0.17120000000E+03  0.17120000000E+03 0.  0.
         13    1    1    2    0    0  0.15947156285E+02  0.48895509969E+02  0.30288582290E+03  0.30722128111E+03  0.10566000000E+00 0.  1.
        994    1    1    2    0    0 -0.85791460792E+01 -0.42190828608E+02  0.10035127901E+02  0.17681575597E+03  0.17120000000E+03 0.  0.
        998    1    1    2    0    0 -0.73680102058E+01 -0.67046813607E+01  0.11870790455E+04  0.11871629629E+04  0.10000000000E+02 0.  0.
</event>
<event>
 5    1  0.1334136E-008  0.3835686E+03  0.7957747E-01  0.3435766E+00
         13   -1    0    0    0    0  0.00000000000E+00  0.00000000000E+00  0.14999999963E+04  0.15000000000E+04  0.10566000000E+00 0. -1.
        994   -1    0    0    0    0 -0.00000000000E+00 -0.00000000000E+00  0.11368683772E-12  0.17120000000E+03  0.17120000000E+03 0.  0.
         13    1    1    2    0    0 -0.94829468035E+00  0.13950627178E+02  0.42296328399E+02  0.44547837451E+02  0.10566000000E+00 0. -1.
        994    1    1    2    0    0 -0.13690249213E+02 -0.38159841489E+01  0.30100917922E+01  0.17181526507E+03  0.17120000000E+03 0.  0.
        998    1    1    2    0    0  0.14638543894E+02 -0.10134643029E+02  0.14546935761E+04  0.14548368975E+04  0.10000000000E+02 0. -1.
</event>
<event>
 5    1  0.1334136E-008  0.3848538E+03  0.7957747E-01  0.3430293E+00
         13   -1    0    0    0    0  0.00000000000E+00  0.00000000000E+00  0.14999999963E+04  0.15000000000E+04  0.10566000000E+00 0.  1.
        994   -1    0    0    0    0 -0.00000000000E+00 -0.00000000000E+00  0.11368683772E-12  0.17120000000E+03  0.17120000000E+03 0.  0.
         13    1    1    2    0    0  0.70978436753E+01 -0.79534162157E+01  0.31849504947E+02  0.33586282077E+02  0.10566000000E+00 0.  1.
        994    1    1    2    0    0 -0.68503171572E+01  0.15348943013E+02  0.26328471323E+01  0.17204327590E+03  0.17120000000E+03 0.  0.
        998    1    1    2    0    0 -0.24752651812E+00 -0.73955267977E+01  0.14655176442E+04  0.14655704420E+04  0.10000000000E+02 0.  1.
</event>
<event>
 5    1  0.1334136E-008  0.3857609E+03  0.7957747E-01  0.3426452E+00
         13   -1    0    0    0    0  0.00000000000E+00  0.00000000000E+00  0.14999999963E+04  0.15000000000E+04  0.10566000000E+00 0. -1.
        994   -1    0    0    0    0 -0.00000000000E+00 -0.00000000000E+00  0.11368683772E-12  0.17120000000E+03  0.17120000000E+03 0.  0.
         13    1    1    2    0    0 -0.62403201991E+01 -0.87983097448E+01  0.51700387005E+02  0.52813757971E+02  0.10566000000E+00 0. -1.
        994    1    1    2    0    0 -0.68797916561E+01 -0.48992024265E+01  0.14869023109E+01  0.17141465689E+03  0.17120000000E+03 0.  0.
        998    1    1    2    0    0  0.13120111855E+02  0.13697512171E+02  0.14468127070E+04  0.14469715851E+04  0.10000000000E+02 0. -1.
</event>
<event>
 5    1  0.1334136E-008  0.3815523E+03  0.7957747E-01  0.3444427E+00
         13   -1    0    0    0    0  0.00000000000E+00  0.00000000000E+00  0.14999999963E+04  0.15000000000E+04  0.10566000000E+00 0. -1.
        994   -1    0    0    0    0 -0.00000000000E+00 -0.00000000000E+00  0.11368683772E-12  0.17120000000E+03  0.17120000000E+03 0.  0.
         13    1    1    2    0    0  0.50952676007E+01 -0.26749104287E+02  0.11746010853E+03  0.12057514086E+03  0.10566000000E+00 0. -1.
        994    1    1    2    0    0 -0.13704390166E+01  0.49908592567E+01  0.34407096961E+01  0.17131277028E+03  0.17120000000E+03 0.  0.
        998    1    1    2    0    0 -0.37248285841E+01  0.21758245031E+02  0.13790991780E+04  0.13793120889E+04  0.10000000000E+02 0. -1.
</event>
<event>
 5    1  0.1334136E-008  0.3788982E+03  0.7957747E-01  0.3455970E+00
         13   -1    0    0    0    0  0.00000000000E+00  0.00000000000E+00  0.14999999963E+04  0.15000000000E+04  0.10566000000E+00 0.  1.
        994   -1    0    0    0    0 -0.00000000000E+00 -0.00000000000E+00  0.11368683772E-12  0.17120000000E+03  0.17120000000E+03 0.  0.
         13    1    1    2    0    0  0.18543087382E+02 -0.65826123909E+00  0.35099938938E+02  0.39702597837E+02  0.10566000000E+00 0.  1.
        994    1    1    2    0    0 -0.10096672928E+02  0.74660075895E+00  0.50343122099E+01  0.17157297140E+03  0.17120000000E+03 0.  0.
        998    1    1    2    0    0 -0.84464144542E+01 -0.88339519853E-01  0.14598657451E+04  0.14599244308E+04  0.10000000000E+02 0.  1.
</event>
<event>
 5    1  0.1334136E-008  0.3788011E+03  0.7957747E-01  0.3456395E+00
         13   -1    0    0    0    0  0.00000000000E+00  0.00000000000E+00  0.14999999963E+04  0.15000000000E+04  0.10566000000E+00 0.  1.
        994   -1    0    0    0    0 -0.00000000000E+00 -0.00000000000E+00  0.11368683772E-12  0.17120000000E+03  0.17120000000E+03 0.  0.
         13    1    1    2    0    0 -0.14365557456E+02  0.18261484307E+01  0.19819965766E+02  0.24546817841E+02  0.10566000000E+00 0.  1.
        994    1    1    2    0    0  0.14590528901E+02 -0.11341555901E+02  0.58866004203E+01  0.17229511452E+03  0.17120000000E+03 0.  0.
        998    1    1    2    0    0 -0.22497144525E+00  0.95154074704E+01  0.14742934301E+04  0.14743580676E+04  0.10000000000E+02 0.  1.
</event>
<event>
 5    1  0.1334136E-008  0.3801561E+03  0.7957747E-01  0.3450479E+00
         13   -1    0    0    0    0  0.00000000000E+00  0.00000000000E+00  0.14999999963E+04  0.15000000000E+04  0.10566000000E+00 0. -1.
        994   -1    0    0    0    0 -0.00000000000E+00 -0.00000000000E+00  0.11368683772E-12  0.17120000000E+03  0.17120000000E+03 0.  0.
         13    1    1    2    0    0  0.22011789458E+02  0.32811018856E+02  0.18483444736E+03  0.18901022705E+03  0.10566000000E+00 0. -1.
        994    1    1    2    0    0 -0.28826039796E+02 -0.14349849601E+02  0.75264788854E+01  0.17436440760E+03  0.17120000000E+03 0.  0.
        998    1    1    2    0    0  0.68142503379E+01 -0.18461169255E+02  0.13076390700E+04  0.13078253653E+04  0.10000000000E+02 0. -1.
</event>
<event>
 5    1  0.1334136E-008  0.3762029E+03  0.7957747E-01  0.3467860E+00
         13   -1    0    0    0    0  0.00000000000E+00  0.00000000000E+00  0.14999999963E+04  0.15000000000E+04  0.10566000000E+00 0.  1.
        994   -1    0    0    0    0 -0.00000000000E+00 -0.00000000000E+00  0.11368683772E-12  0.17120000000E+03  0.17120000000E+03 0.  0.
         13    1    1    2    0    0  0.32390761225E+02  0.63459070326E+02  0.37280068366E+03  0.37954785722E+03  0.10566000000E+00 0.  1.
        994    1    1    2    0    0 -0.15289118430E+02 -0.52048158219E+02  0.16090752386E+02  0.18030840310E+03  0.17120000000E+03 0.  0.
        998    1    1    2    0    0 -0.17101642796E+02 -0.11410912107E+02  0.11111085602E+04  0.11113437397E+04  0.10000000000E+02 0.  1.
</event>
<event>
 5    1  0.1334136E-008  0.3846753E+03  0.7957747E-01  0.3431050E+00
         13   -1    0    0    0    0  0.00000000000E+00  0.00000000000E+00  0.14999999963E+04  0.15000000000E+04  0.10566000000E+00 0.  1.
        994   -1    0    0    0    0 -0.00000000000E+00 -0.00000000000E+00  0.11368683772E-12  0.17120000000E+03  0.17120000000E+03 0.  0.
         13    1    1    2    0    0 -0.12639030423E+02 -0.13247971903E+02  0.98218181568E+02  0.99910340827E+02  0.10566000000E+00 0.  1.
        994    1    1    2    0    0  0.59262274103E+01  0.13507121526E+01  0.19130674985E+01  0.17131854664E+03  0.17120000000E+03 0.  0.
        998    1    1    2    0    0  0.67128030126E+01  0.11897259750E+02  0.13998687472E+04  0.13999711125E+04  0.10000000000E+02 0.  1.
</event>
<event>
 5    1  0.1334136E-008  0.2738237E+03  0.7957747E-01  0.4102650E+00
         13   -1    0    0    0    0  0.00000000000E+00  0.00000000000E+00  0.14999999963E+04  0.15000000000E+04  0.10566000000E+00 0.  1.
        994   -1    0    0    0    0 -0.00000000000E+00 -0.00000000000E+00  0.11368683772E-12  0.17120000000E+03  0.17120000000E+03 0.  0.
         13    1    1    2    0    0  0.26970971517E+02 -0.21048317524E+03  0.38186371590E+03  0.43686440579E+03  0.10566000000E+00 0.  1.
        994    1    1    2    0    0 -0.63757272676E+02  0.18592843297E+03  0.23780894938E+03  0.35284119432E+03  0.17120000000E+03 0.  0.
        998    1    1    2    0    0  0.36786301159E+02  0.24554742275E+02  0.88032733100E+03  0.88149439988E+03  0.10000000000E+02 0.  1.
</event>
<event>
 5    1  0.1334136E-008  0.3832892E+03  0.7957747E-01  0.3436960E+00
         13   -1    0    0    0    0  0.00000000000E+00  0.00000000000E+00  0.14999999963E+04  0.15000000000E+04  0.10566000000E+00 0. -1.
        994   -1    0    0    0    0 -0.00000000000E+00 -0.00000000000E+00  0.11368683772E-12  0.17120000000E+03  0.17120000000E+03 0.  0.
         13    1    1    2    0    0  0.48647881198E+01 -0.17815842065E+02  0.76433819595E+02  0.78633391977E+02  0.10566000000E+00 0. -1.
        994    1    1    2    0    0  0.36508360015E+02  0.27214848293E+01  0.69268058341E+01  0.17520755540E+03  0.17120000000E+03 0.  0.
        998    1    1    2    0    0 -0.41373148135E+02  0.15094357235E+02  0.14166393708E+04  0.14173590526E+04  0.10000000000E+02 0. -1.
</event>
<event>
 5    1  0.1334136E-008  0.3844411E+03  0.7957747E-01  0.3432046E+00
         13   -1    0    0    0    0  0.00000000000E+00  0.00000000000E+00  0.14999999963E+04  0.15000000000E+04  0.10566000000E+00 0.  1.
        994   -1    0    0    0    0 -0.00000000000E+00 -0.00000000000E+00  0.11368683772E-12  0.17120000000E+03  0.17120000000E+03 0.  0.
         13    1    1    2    0    0 -0.21747924401E+01  0.10487314699E+02  0.30152820019E+02  0.31998706394E+02  0.10566000000E+00 0.  1.
        994    1    1    2    0    0  0.46776261957E+01 -0.20904435115E+01  0.19943545395E+01  0.17128825877E+03  0.17120000000E+03 0.  0.
        998    1    1    2    0    0 -0.25028337556E+01 -0.83968711878E+01  0.14678528217E+04  0.14679130348E+04  0.10000000000E+02 0.  1.
</event>
<event>
 5    1  0.1334136E-008  0.3839862E+03  0.7957747E-01  0.3433983E+00
         13   -1    0    0    0    0  0.00000000000E+00  0.00000000000E+00  0.14999999963E+04  0.15000000000E+04  0.10566000000E+00 0. -1.
        994   -1    0    0    0    0 -0.00000000000E+00 -0.00000000000E+00  0.11368683772E-12  0.17120000000E+03  0.17120000000E+03 0.  0.
         13    1    1    2    0    0 -0.22633629126E+02  0.28867106824E+01  0.12282568027E+03  0.12492707138E+03  0.10566000000E+00 0. -1.
        994    1    1    2    0    0  0.13028787709E+02  0.18897871195E+01  0.27063967646E+01  0.17172677481E+03  0.17120000000E+03 0.  0.
        998    1    1    2    0    0  0.96048414167E+01 -0.47764978020E+01  0.13744679192E+04  0.13745461538E+04  0.10000000000E+02 0. -1.
</event>
<event>
 5    1  0.1334136E-008  0.3853662E+03  0.7957747E-01  0.3428121E+00
         13   -1    0    0    0    0  0.00000000000E+00  0.00000000000E+00  0.14999999963E+04  0.15000000000E+04  0.10566000000E+00 0. -1.
        994   -1    0    0    0    0 -0.00000000000E+00 -0.00000000000E+00  0.11368683772E-12  0.17120000000E+03  0.17120000000E+03 0.  0.
         13    1    1    2    0    0 -0.13026826895E+02  0.79733793584E+01  0.86169166357E+02  0.87512338513E+02  0.10566000000E+00 0. -1.
        994    1    1    2    0    0  0.40545791933E+01  0.32039109390E+01  0.15361613644E+01  0.17128486346E+03  0.17120000000E+03 0.  0.
        998    1    1    2    0    0  0.89722477021E+01 -0.11177290297E+02  0.14122946686E+04  0.14124027980E+04  0.10000000000E+02 0. -1.
</event>
<event>
 5    1  0.1334136E-008  0.3841435E+03  0.7957747E-01  0.3433313E+00
         13   -1    0    0    0    0  0.00000000000E+00  0.00000000000E+00  0.14999999963E+04  0.15000000000E+04  0.10566000000E+00 0.  1.
        994   -1    0    0    0    0 -0.00000000000E+00 -0.00000000000E+00  0.11368683772E-12  0.17120000000E+03  0.17120000000E+03 0.  0.
         13    1    1    2    0    0  0.17001710303E+02 -0.18928210865E+01  0.66463233325E+02  0.68629537905E+02  0.10566000000E+00 0.  1.
        994    1    1    2    0    0 -0.22609698180E+02 -0.22025253266E+01  0.37596294932E+01  0.17274149584E+03  0.17120000000E+03 0.  0.
        998    1    1    2    0    0  0.56079878773E+01  0.40953464130E+01  0.14297771335E+04  0.14298289663E+04  0.10000000000E+02 0.  1.
</event>
<event>
 5    1  0.1334136E-008  0.3769467E+03  0.7957747E-01  0.3464562E+00
         13   -1    0    0    0    0  0.00000000000E+00  0.00000000000E+00  0.14999999963E+04  0.15000000000E+04  0.10566000000E+00 0.  1.
        994   -1    0    0    0    0 -0.00000000000E+00 -0.00000000000E+00  0.11368683772E-12  0.17120000000E+03  0.17120000000E+03 0.  0.
         13    1    1    2    0    0  0.22791147214E+02  0.90177938333E+01  0.51996826520E+02  0.57484242442E+02  0.10566000000E+00 0.  1.
        994    1    1    2    0    0  0.42334710891E+01 -0.33613677904E+02  0.95683683637E+01  0.17478213665E+03  0.17120000000E+03 0.  0.
        998    1    1    2    0    0 -0.27024618303E+02  0.24595884070E+02  0.14384348014E+04  0.14389336209E+04  0.10000000000E+02 0.  1.
</event>
<event>
 5    1  0.1334136E-008  0.3834394E+03  0.7957747E-01  0.3436318E+00
         13   -1    0    0    0    0  0.00000000000E+00  0.00000000000E+00  0.14999999963E+04  0.15000000000E+04  0.10566000000E+00 0.  1.
        994   -1    0    0    0    0 -0.00000000000E+00 -0.00000000000E+00  0.11368683772E-12  0.17120000000E+03  0.17120000000E+03 0.  0.
         13    1    1    2    0    0  0.13084175075E+02  0.15835340583E+02  0.10171146500E+03  0.10376505638E+03  0.10566000000E+00 0.  1.
        994    1    1    2    0    0  0.28798403447E+02 -0.12377756072E+02  0.56614375887E+01  0.17413801642E+03  0.17120000000E+03 0.  0.
        998    1    1    2    0    0 -0.41882578523E+02 -0.34575845108E+01  0.13926270937E+04  0.13932969272E+04  0.10000000000E+02 0.  1.
</event>
<event>
 5    1  0.1334136E-008  0.3773238E+03  0.7957747E-01  0.3462895E+00
         13   -1    0    0    0    0  0.00000000000E+00  0.00000000000E+00  0.14999999963E+04  0.15000000000E+04  0.10566000000E+00 0.  1.
        994   -1    0    0    0    0 -0.00000000000E+00 -0.00000000000E+00  0.11368683772E-12  0.17120000000E+03  0.17120000000E+03 0.  0.
         13    1    1    2    0    0  0.29800148955E+01  0.25466523612E+02  0.53657014950E+02  0.59468569270E+02  0.10566000000E+00 0.  1.
        994    1    1    2    0    0  0.20598419402E+00 -0.38104281372E+02  0.10403105536E+02  0.17569759046E+03  0.17120000000E+03 0.  0.
        998    1    1    2    0    0 -0.31859990895E+01  0.12637757760E+02  0.14359398758E+04  0.14360338403E+04  0.10000000000E+02 0.  1.
</event>
<event>
 5    1  0.1334136E-008  0.3858356E+03  0.7957747E-01  0.3426136E+00
         13   -1    0    0    0    0  0.00000000000E+00  0.00000000000E+00  0.14999999963E+04  0.15000000000E+04  0.10566000000E+00 0. -1.
        994   -1    0    0    0    0 -0.00000000000E+00 -0.00000000000E+00  0.11368683772E-12  0.17120000000E+03  0.17120000000E+03 0.  0.
         13    1    1    2    0    0 -0.11425101310E+02  0.54819275560E+01  0.66216659206E+02  0.67418406909E+02  0.10566000000E+00 0. -1.
        994    1    1    2    0    0  0.73988165393E+01 -0.61079201963E+01  0.15177909917E+01  0.17147534186E+03  0.17120000000E+03 0.  0.
        998    1    1    2    0    0  0.40262847704E+01  0.62599264027E+00  0.14322655461E+04  0.14323062512E+04  0.10000000000E+02 0. -1.
</event>
<event>
 5    1  0.1334136E-008  0.3816432E+03  0.7957747E-01  0.3444035E+00
         13   -1    0    0    0    0  0.00000000000E+00  0.00000000000E+00  0.14999999963E+04  0.15000000000E+04  0.10566000000E+00 0. -1.
        994   -1    0    0    0    0 -0.00000000000E+00 -0.00000000000E+00  0.11368683772E-12  0.17120000000E+03  0.17120000000E+03 0.  0.
         13    1    1    2    0    0 -0.75693596689E+01  0.66008119761E+01  0.14002474148E+02  0.17232131930E+02  0.10566000000E+00 0. -1.
        994    1    1    2    0    0  0.48149214341E+01  0.29889661483E+00  0.33833624359E+01  0.17130137171E+03  0.17120000000E+03 0.  0.
        998    1    1    2    0    0  0.27544382348E+01 -0.68997085910E+01  0.14826141597E+04  0.14826664964E+04  0.10000000000E+02 0. -1.
</event>
<event>
 5    1  0.1334136E-008  0.3862077E+03  0.7957747E-01  0.3424566E+00
         13   -1    0    0    0    0  0.00000000000E+00  0.00000000000E+00  0.14999999963E+04  0.15000000000E+04  0.10566000000E+00 0.  1.
        994   -1    0    0    0    0 -0.00000000000E+00 -0.00000000000E+00  0.11368683772E-12  0.17120000000E+03  0.17120000000E+03 0.  0.
         13    1    1    2    0    0 -0.91431908079E+01 -0.63382815225E+01  0.57641095942E+02  0.58705015597E+02  0.10566000000E+00 0.  1.
        994    1    1    2    0    0  0.17786075678E+02  0.83651584763E+00  0.20709846757E+01  0.17213591498E+03  0.17120000000E+03 0.  0.
        998    1    1    2    0    0 -0.86428848699E+01  0.55017656748E+01  0.14402879157E+04  0.14403590694E+04  0.10000000000E+02 0.  1.
</event>
<event>
 5    1  0.1334136E-008  0.3833918E+03  0.7957747E-01  0.3436521E+00
         13   -1    0    0    0    0  0.00000000000E+00  0.00000000000E+00  0.14999999963E+04  0.15000000000E+04  0.10566000000E+00 0.  1.
        994   -1    0    0    0    0 -0.00000000000E+00 -0.00000000000E+00  0.11368683772E-12  0.17120000000E+03  0.17120000000E+03 0.  0.
         13    1    1    2    0    0 -0.46377555564E+01 -0.16131941751E+02  0.56286473615E+02  0.58736075774E+02  0.10566000000E+00 0.  1.
        994    1    1    2    0    0  0.17429370308E+01  0.14723985055E+02  0.31577523048E+01  0.17186984891E+03  0.17120000000E+03 0.  0.
        998    1    1    2    0    0  0.28948185256E+01  0.14079566966E+01  0.14405557704E+04  0.14405940753E+04  0.10000000000E+02 0.  1.
</event>
<event>
 5    1  0.1334136E-008  0.3719717E+03  0.7957747E-01  0.3486878E+00
         13   -1    0    0    0    0  0.00000000000E+00  0.00000000000E+00  0.14999999963E+04  0.15000000000E+04  0.10566000000E+00 0. -1.
        994   -1    0    0    0    0 -0.00000000000E+00 -0.00000000000E+00  0.11368683772E-12  0.17120000000E+03  0.17120000000E+03 0.  0.
         13    1    1    2    0    0 -0.57049633123E+02  0.38295709585E+01  0.12548150821E+03  0.13789469286E+03  0.10566000000E+00 0. -1.
        994    1    1    2    0    0  0.49354931233E+02 -0.99253349193E+01  0.20961054976E+02  0.17967533870E+03  0.17120000000E+03 0.  0.
        998    1    1    2    0    0  0.76947018898E+01  0.60957639607E+01  0.13535574331E+04  0.13536299684E+04  0.10000000000E+02 0. -1.
</event>
<event>
 5    1  0.1334136E-008  0.3694628E+03  0.7957747E-01  0.3498363E+00
         13   -1    0    0    0    0  0.00000000000E+00  0.00000000000E+00  0.14999999963E+04  0.15000000000E+04  0.10566000000E+00 0. -1.
        994   -1    0    0    0    0 -0.00000000000E+00 -0.00000000000E+00  0.11368683772E-12  0.17120000000E+03  0.17120000000E+03 0.  0.
         13    1    1    2    0    0  0.28030976099E+02 -0.10383739076E+02  0.44271767192E+02  0.53418706393E+02  0.10566000000E+00 0. -1.
        994    1    1    2    0    0 -0.12323242469E+02 -0.47282247230E+01  0.10153861877E+02  0.17200802111E+03  0.17120000000E+03 0.  0.
        998    1    1    2    0    0 -0.15707733630E+02  0.15111963799E+02  0.14455743672E+04  0.14457732725E+04  0.10000000000E+02 0. -1.
</event>
<event>
 5    1  0.1334136E-008  0.3780292E+03  0.7957747E-01  0.3459785E+00
         13   -1    0    0    0    0  0.00000000000E+00  0.00000000000E+00  0.14999999963E+04  0.15000000000E+04  0.10566000000E+00 0.  1.
        994   -1    0    0    0    0 -0.00000000000E+00 -0.00000000000E+00  0.11368683772E-12  0.17120000000E+03  0.17120000000E+03 0.  0.
         13    1    1    2    0    0 -0.32211943295E+02  0.14239839437E+02  0.11958919691E+03  0.12466743560E+03  0.10566000000E+00 0.  1.
        994    1    1    2    0    0  0.10236949581E+02 -0.27807363043E+02  0.80914204541E+01  0.17393376803E+03  0.17120000000E+03 0.  0.
        998    1    1    2    0    0  0.21974993714E+02  0.13567523606E+02  0.13723193789E+04  0.13725987964E+04  0.10000000000E+02 0.  1.
</event>
<event>
 5    1  0.1334136E-008  0.3763099E+03  0.7957747E-01  0.3467385E+00
         13   -1    0    0    0    0  0.00000000000E+00  0.00000000000E+00  0.14999999963E+04  0.15000000000E+04  0.10566000000E+00 0. -1.
        994   -1    0    0    0    0 -0.00000000000E+00 -0.00000000000E+00  0.11368683772E-12  0.17120000000E+03  0.17120000000E+03 0.  0.
         13    1    1    2    0    0 -0.34096580016E+02  0.19915716749E+02  0.11780858681E+03  0.12425009792E+03  0.10566000000E+00 0. -1.
        994    1    1    2    0    0  0.39186692367E+02 -0.13670253428E+02  0.11859185578E+02  0.17655750613E+03  0.17120000000E+03 0.  0.
        998    1    1    2    0    0 -0.50901123512E+01 -0.62454633212E+01  0.13703322239E+04  0.13703923960E+04  0.10000000000E+02 0. -1.
</event>
<event>
 5    1  0.1334136E-008  0.3822990E+03  0.7957747E-01  0.3441209E+00
         13   -1    0    0    0    0  0.00000000000E+00  0.00000000000E+00  0.14999999963E+04  0.15000000000E+04  0.10566000000E+00 0. -1.
        994   -1    0    0    0    0 -0.00000000000E+00 -0.00000000000E+00  0.11368683772E-12  0.17120000000E+03  0.17120000000E+03 0.  0.
         13    1    1    2    0    0  0.11638930092E+02  0.25233761269E+02  0.12964067082E+03  0.13258552748E+03  0.10566000000E+00 0. -1.
        994    1    1    2    0    0 -0.14539385227E+02 -0.10687166751E+02  0.40581184580E+01  0.17219616018E+03  0.17120000000E+03 0.  0.
        998    1    1    2    0    0  0.29004551354E+01 -0.14546594518E+02  0.13663012070E+04  0.13664183123E+04  0.10000000000E+02 0. -1.
</event>
<event>
 5    1  0.1334136E-008  0.3855434E+03  0.7957747E-01  0.3427371E+00
         13   -1    0    0    0    0  0.00000000000E+00  0.00000000000E+00  0.14999999963E+04  0.15000000000E+04  0.10566000000E+00 0. -1.
        994   -1    0    0    0    0 -0.00000000000E+00 -0.00000000000E+00  0.11368683772E-12  0.17120000000E+03  0.17120000000E+03 0.  0.
         13    1    1    2    0    0 -0.11183071227E+02 -0.77505316163E+01  0.78934615342E+02  0.80098792036E+02  0.10566000000E+00 0. -1.
        994    1    1    2    0    0 -0.61586592960E+01 -0.74363801767E+01  0.16667304252E+01  0.17148016452E+03  0.17120000000E+03 0.  0.
        998    1    1    2    0    0  0.17341730523E+02  0.15186911793E+02  0.14193986505E+04  0.14196210434E+04  0.10000000000E+02 0. -1.
</event>
<event>
 5    1  0.1334136E-008  0.3697455E+03  0.7957747E-01  0.3497061E+00
         13   -1    0    0    0    0  0.00000000000E+00  0.00000000000E+00  0.14999999963E+04  0.15000000000E+04  0.10566000000E+00 0. -1.
        994   -1    0    0    0    0 -0.00000000000E+00 -0.00000000000E+00  0.11368683772E-12  0.17120000000E+03  0.17120000000E+03 0.  0.
         13    1    1    2    0    0  0.58996187946E+01  0.90305564382E+01  0.20011284648E+01  0.10971423366E+02  0.10566000000E+00 0. -1.
        994    1    1    2    0    0  0.15791428138E+02  0.72780875337E+01  0.10449113353E+02  0.17239769062E+03  0.17120000000E+03 0.  0.
        998    1    1    2    0    0 -0.21691046933E+02 -0.16308643972E+02  0.14875497545E+04  0.14878308860E+04  0.10000000000E+02 0. -1.
</event>
<event>
 5    1  0.1334136E-008  0.3828965E+03  0.7957747E-01  0.3438643E+00
         13   -1    0    0    0    0  0.00000000000E+00  0.00000000000E+00  0.14999999963E+04  0.15000000000E+04  0.10566000000E+00 0. -1.
        994   -1    0    0    0    0 -0.00000000000E+00 -0.00000000000E+00  0.11368683772E-12  0.17120000000E+03  0.17120000000E+03 0.  0.
         13    1    1    2    0    0 -0.21457297773E+02 -0.52095459161E+01  0.84573726429E+02  0.87408703013E+02  0.10566000000E+00 0. -1.
        994    1    1    2    0    0  0.25148646450E+02  0.35384585542E+01  0.48166880833E+01  0.17314045048E+03  0.17120000000E+03 0.  0.
        998    1    1    2    0    0 -0.36913486771E+01  0.16710873619E+01  0.14106095818E+04  0.14106508465E+04  0.10000000000E+02 0. -1.
</event>
<event>
 5    1  0.1334136E-008  0.3749136E+03  0.7957747E-01  0.3473609E+00
         13   -1    0    0    0    0  0.00000000000E+00  0.00000000000E+00  0.14999999963E+04  0.15000000000E+04  0.10566000000E+00 0.  1.
        994   -1    0    0    0    0 -0.00000000000E+00 -0.00000000000E+00  0.11368683772E-12  0.17120000000E+03  0.17120000000E+03 0.  0.
         13    1    1    2    0    0 -0.96390547945E+01 -0.25141239267E+02  0.50330568137E+02  0.57080386669E+02  0.10566000000E+00 0.  1.
        994    1    1    2    0    0  0.81794940720E+01  0.22306817484E+02  0.86448855358E+01  0.17305684695E+03  0.17120000000E+03 0.  0.
        998    1    1    2    0    0  0.14595607224E+01  0.28344217830E+01  0.14410245426E+04  0.14410627664E+04  0.10000000000E+02 0.  1.
</event>
<event>
 5    1  0.1334136E-008  0.3784362E+03  0.7957747E-01  0.3457996E+00
         13   -1    0    0    0    0  0.00000000000E+00  0.00000000000E+00  0.14999999963E+04  0.15000000000E+04  0.10566000000E+00 0.  1.
        994   -1    0    0    0    0 -0.00000000000E+00 -0.00000000000E+00  0.11368683772E-12  0.17120000000E+03  0.17120000000E+03 0.  0.
         13    1    1    2    0    0 -0.54565925650E+02  0.21138823291E+02  0.28919682213E+03  0.29505779635E+03  0.10566000000E+00 0.  1.
        994    1    1    2    0    0  0.50928411164E+02 -0.21192578502E+02  0.15218342209E+02  0.18051001741E+03  0.17120000000E+03 0.  0.
        998    1    1    2    0    0  0.36375144861E+01  0.53755211495E-01  0.11955848319E+04  0.11956321862E+04  0.10000000000E+02 0.  0.
</event>
<event>
 5    1  0.1334136E-008  0.3712193E+03  0.7957747E-01  0.3490306E+00
         13   -1    0    0    0    0  0.00000000000E+00  0.00000000000E+00  0.14999999963E+04  0.15000000000E+04  0.10566000000E+00 0.  1.
        994   -1    0    0    0    0 -0.00000000000E+00 -0.00000000000E+00  0.11368683772E-12  0.17120000000E+03  0.17120000000E+03 0.  0.
         13    1    1    2    0    0  0.59641177927E+02 -0.20001735319E+02  0.13006782257E+03  0.14448110310E+03  0.10566000000E+00 0.  1.
        994    1    1    2    0    0 -0.96833826856E+02  0.31805531948E+02  0.49009602422E+02  0.20518226779E+03  0.17120000000E+03 0.  0.
        998    1    1    2    0    0  0.37192648929E+02 -0.11803796630E+02  0.13209225713E+04  0.13215366291E+04  0.10000000000E+02 0.  1.
</event>
<event>
 5    1  0.1334136E-008  0.3775064E+03  0.7957747E-01  0.3462089E+00
         13   -1    0    0    0    0  0.00000000000E+00  0.00000000000E+00  0.14999999963E+04  0.15000000000E+04  0.10566000000E+00 0. -1.
        994   -1    0    0    0    0 -0.00000000000E+00 -0.00000000000E+00  0.11368683772E-12  0.17120000000E+03  0.17120000000E+03 0.  0.
         13    1    1    2    0    0  0.36640908022E+02  0.18729115991E+02  0.48300059985E+02  0.63452682253E+02  0.10566000000E+00 0. -1.
        994    1    1    2    0    0 -0.43873058670E+02 -0.22481746626E+02  0.23742385941E+02  0.17973150836E+03  0.17120000000E+03 0.  0.
        998    1    1    2    0    0  0.72321506479E+01  0.37526306350E+01  0.14279575504E+04  0.14280158094E+04  0.10000000000E+02 0. -1.
</event>
<event>
 5    1  0.1334136E-008  0.3992005E+03  0.7957747E-01  0.3371592E+00
         13   -1    0    0    0    0  0.00000000000E+00  0.00000000000E+00  0.14999999963E+04  0.15000000000E+04  0.10566000000E+00 0. -1.
        994   -1    0    0    0    0 -0.00000000000E+00 -0.00000000000E+00  0.11368683772E-12  0.17120000000E+03  0.17120000000E+03 0.  0.
         13    1    1    2    0    0 -0.47529446522E+02  0.35593022943E+02  0.51935573436E+02  0.78887429424E+02  0.10566000000E+00 0. -1.
        994    1    1    2    0    0  0.61679981545E+02 -0.30854789925E+02  0.46108562481E+02  0.19024162983E+03  0.17120000000E+03 0.  0.
        998    1    1    2    0    0 -0.14150535022E+02 -0.47382330182E+01  0.14019558604E+04  0.14020709408E+04  0.10000000000E+02 0. -1.
</event>
<event>
 5    1  0.1334136E-008  0.3911135E+03  0.7957747E-01  0.3404151E+00
         13   -1    0    0    0    0  0.00000000000E+00  0.00000000000E+00  0.14999999963E+04  0.15000000000E+04  0.10566000000E+00 0. -1.
        994   -1    0    0    0    0 -0.00000000000E+00 -0.00000000000E+00  0.11368683772E-12  0.17120000000E+03  0.17120000000E+03 0.  0.
         13    1    1    2    0    0 -0.71573646608E+01  0.56128375592E+02  0.50601576092E+02  0.75908847196E+02  0.10566000000E+00 0. -1.
        994    1    1    2    0    0  0.16681607411E+02 -0.11712286454E+03  0.77645285513E+02  0.22211319589E+03  0.17120000000E+03 0.  0.
        998    1    1    2    0    0 -0.95242427498E+01  0.60994488949E+02  0.13717531347E+04  0.13731779569E+04  0.10000000000E+02 0. -1.
</event>
<event>
 5    1  0.1334136E-008  0.3805361E+03  0.7957747E-01  0.3448827E+00
         13   -1    0    0    0    0  0.00000000000E+00  0.00000000000E+00  0.14999999963E+04  0.15000000000E+04  0.10566000000E+00 0.  1.
        994   -1    0    0    0    0 -0.00000000000E+00 -0.00000000000E+00  0.11368683772E-12  0.17120000000E+03  0.17120000000E+03 0.  0.
         13    1    1    2    0    0 -0.19113209066E+02  0.26366321692E+02  0.15024751823E+03  0.15373622078E+03  0.10566000000E+00 0.  1.
        994    1    1    2    0    0  0.63450888483E+01 -0.59870377567E+00  0.39983082562E+01  0.17136523880E+03  0.17120000000E+03 0.  0.
        998    1    1    2    0    0  0.12768120218E+02 -0.25767617916E+02  0.13457541698E+04  0.13460985404E+04  0.10000000000E+02 0.  1.
</event>
<event>
 5    1  0.1334136E-008  0.3788756E+03  0.7957747E-01  0.3456069E+00
         13   -1    0    0    0    0  0.00000000000E+00  0.00000000000E+00  0.14999999963E+04  0.15000000000E+04  0.10566000000E+00 0. -1.
        994   -1    0    0    0    0 -0.00000000000E+00 -0.00000000000E+00  0.11368683772E-12  0.17120000000E+03  0.17120000000E+03 0.  0.
         13    1    1    2    0    0 -0.27360684939E+02  0.11067753467E+01  0.88103173847E+02  0.92260568164E+02  0.10566000000E+00 0. -1.
        994    1    1    2    0    0 -0.91700523251E+01 -0.18131411160E+01  0.49950277960E+01  0.17152774599E+03  0.17120000000E+03 0.  0.
        998    1    1    2    0    0  0.36530737264E+02  0.70636576927E+00  0.14069017946E+04  0.14074116858E+04  0.10000000000E+02 0. -1.
</event>
<event>
 5    1  0.1334136E-008  0.3724112E+03  0.7957747E-01  0.3484882E+00
         13   -1    0    0    0    0  0.00000000000E+00  0.00000000000E+00  0.14999999963E+04  0.15000000000E+04  0.10566000000E+00 0.  1.
        994   -1    0    0    0    0 -0.00000000000E+00 -0.00000000000E+00  0.11368683772E-12  0.17120000000E+03  0.17120000000E+03 0.  0.
         13    1    1    2    0    0 -0.56146215963E+02  0.19001206186E+02  0.19502243055E+03  0.20383131012E+03  0.10566000000E+00 0.  1.
        994    1    1    2    0    0  0.51559747193E+02 -0.16148213246E+02  0.18091656209E+02  0.18043259225E+03  0.17120000000E+03 0.  0.
        998    1    1    2    0    0  0.45864687701E+01 -0.28529929394E+01  0.12868859095E+04  0.12869360976E+04  0.10000000000E+02 0.  0.
</event>
<event>
 5    1  0.1334136E-008  0.3846601E+03  0.7957747E-01  0.3431115E+00
         13   -1    0    0    0    0  0.00000000000E+00  0.00000000000E+00  0.14999999963E+04  0.15000000000E+04  0.10566000000E+00 0.  1.
        994   -1    0    0    0    0 -0.00000000000E+00 -0.00000000000E+00  0.11368683772E-12  0.17120000000E+03  0.17120000000E+03 0.  0.
         13    1    1    2    0    0 -0.78858959093E+01  0.12730026496E+02  0.64500216330E+02  0.66215783613E+02  0.10566000000E+00 0.  1.
        994    1    1    2    0    0 -0.16978349288E+02 -0.15618258458E+02  0.35530920311E+01  0.17278384995E+03  0.17120000000E+03 0.  0.
        998    1    1    2    0    0  0.24864245197E+02  0.28882319624E+01  0.14319466879E+04  0.14322003664E+04  0.10000000000E+02 0.  1.
</event>
<event>
 5    1  0.1334136E-008  0.3865005E+03  0.7957747E-01  0.3423333E+00
         13   -1    0    0    0    0  0.00000000000E+00  0.00000000000E+00  0.14999999963E+04  0.15000000000E+04  0.10566000000E+00 0. -1.
        994   -1    0    0    0    0 -0.00000000000E+00 -0.00000000000E+00  0.11368683772E-12  0.17120000000E+03  0.17120000000E+03 0.  0.
         13    1    1    2    0    0 -0.49578050783E+02  0.92725970981E+02  0.23773129946E+03  0.25994666899E+03  0.10566000000E+00 0. -1.
        994    1    1    2    0    0  0.65952237668E+02 -0.72500715699E+02  0.56554269037E+02  0.20521665814E+03  0.17120000000E+03 0.  0.
        998    1    1    2    0    0 -0.16374186885E+02 -0.20225255281E+02  0.12057144278E+04  0.12060366729E+04  0.10000000000E+02 0. -1.
</event>
<event>
 5    1  0.1334136E-008  0.3746173E+03  0.7957747E-01  0.3474936E+00
         13   -1    0    0    0    0  0.00000000000E+00  0.00000000000E+00  0.14999999963E+04  0.15000000000E+04  0.10566000000E+00 0. -1.
        994   -1    0    0    0    0 -0.00000000000E+00 -0.00000000000E+00  0.11368683772E-12  0.17120000000E+03  0.17120000000E+03 0.  0.
         13    1    1    2    0    0 -0.37268024073E+02  0.69472777285E+02  0.34298490906E+03  0.35192901473E+03  0.10566000000E+00 0. -1.
        994    1    1    2    0    0  0.50801094981E+02 -0.63638628856E+02  0.29789687359E+02  0.19190490303E+03  0.17120000000E+03 0.  0.
        998    1    1    2    0    0 -0.13533070908E+02 -0.58341484297E+01  0.11272253999E+04  0.11273660822E+04  0.10000000000E+02 0. -1.
</event>
<event>
 5    1  0.1334136E-008  0.3692419E+03  0.7957747E-01  0.3499382E+00
         13   -1    0    0    0    0  0.00000000000E+00  0.00000000000E+00  0.14999999963E+04  0.15000000000E+04  0.10566000000E+00 0. -1.
        994   -1    0    0    0    0 -0.00000000000E+00 -0.00000000000E+00  0.11368683772E-12  0.17120000000E+03  0.17120000000E+03 0.  0.
         13    1    1    2    0    0 -0.69093845640E+02  0.47153873588E+02  0.29531942268E+03  0.30693813689E+03  0.10566000000E+00 0. -1.
        994    1    1    2    0    0  0.59634697673E+02 -0.53764739939E+02  0.32360820718E+02  0.19184266247E+03  0.17120000000E+03 0.  0.
        998    1    1    2    0    0  0.94591479673E+01  0.66108663508E+01  0.11723197529E+04  0.11724192006E+04  0.10000000000E+02 0. -1.
</event>
<event>
 5    1  0.1334136E-008  0.2690077E+03  0.7957747E-01  0.4145570E+00
         13   -1    0    0    0    0  0.00000000000E+00  0.00000000000E+00  0.14999999963E+04  0.15000000000E+04  0.10566000000E+00 0. -1.
        994   -1    0    0    0    0 -0.00000000000E+00 -0.00000000000E+00  0.11368683772E-12  0.17120000000E+03  0.17120000000E+03 0.  0.
         13    1    1    2    0    0 -0.22499326158E+01 -0.13069040605E+03  0.62042438112E+03  0.63404374319E+03  0.10566000000E+00 0. -1.
        994    1    1    2    0    0 -0.46455467902E+02  0.27099890339E+02  0.32556071888E+02  0.18237832210E+03  0.17120000000E+03 0.  0.
        998    1    1    2    0    0  0.48705400518E+02  0.10359051571E+03  0.84701954327E+03  0.85477793471E+03  0.10000000000E+02 0. -1.
</event>
<event>
 5    1  0.1334136E-008  0.3801321E+03  0.7957747E-01  0.3450583E+00
         13   -1    0    0    0    0  0.00000000000E+00  0.00000000000E+00  0.14999999963E+04  0.15000000000E+04  0.10566000000E+00 0.  1.
        994   -1    0    0    0    0 -0.00000000000E+00 -0.00000000000E+00  0.11368683772E-12  0.17120000000E+03  0.17120000000E+03 0.  0.
         13    1    1    2    0    0 -0.20047296348E+02 -0.13139111039E+02  0.81740864599E+02  0.85182806007E+02  0.10566000000E+00 0.  1.
        994    1    1    2    0    0 -0.27518846799E+02  0.67003222986E+01  0.67515499043E+01  0.17365829860E+03  0.17120000000E+03 0.  0.
        998    1    1    2    0    0  0.47566143147E+02  0.64387887409E+01  0.14115075818E+04  0.14123588954E+04  0.10000000000E+02 0.  1.
</event>
<event>
 5    1  0.1334136E-008  0.3817021E+03  0.7957747E-01  0.3443780E+00
         13   -1    0    0    0    0  0.00000000000E+00  0.00000000000E+00  0.14999999963E+04  0.15000000000E+04  0.10566000000E+00 0. -1.
        994   -1    0    0    0    0 -0.00000000000E+00 -0.00000000000E+00  0.11368683772E-12  0.17120000000E+03  0.17120000000E+03 0.  0.
         13    1    1    2    0    0  0.21906004011E+02  0.17377141436E+01  0.69590656343E+02  0.72977827294E+02  0.10566000000E+00 0. -1.
        994    1    1    2    0    0 -0.22490160277E+02 -0.50865686891E+01  0.50458021665E+01  0.17281950298E+03  0.17120000000E+03 0.  0.
        998    1    1    2    0    0  0.58415626599E+00  0.33488545455E+01  0.14253635378E+04  0.14254026697E+04  0.10000000000E+02 0. -1.
</event>
<event>
 5    1  0.1334136E-008  0.3715203E+03  0.7957747E-01  0.3488933E+00
         13   -1    0    0    0    0  0.00000000000E+00  0.00000000000E+00  0.14999999963E+04  0.15000000000E+04  0.10566000000E+00 0.  1.
        994   -1    0    0    0    0 -0.00000000000E+00 -0.00000000000E+00  0.11368683772E-12  0.17120000000E+03  0.17120000000E+03 0.  0.
         13    1    1    2    0    0  0.23210141555E+02 -0.87584424187E+02  0.40653450948E+03  0.41650937636E+03  0.10566000000E+00 0.  1.
        994    1    1    2    0    0 -0.15768482475E+02  0.71341266057E+02  0.27068025525E+02  0.18809662221E+03  0.17120000000E+03 0.  0.
        998    1    1    2    0    0 -0.74416590797E+01  0.16243158131E+02  0.10663974613E+04  0.10665940014E+04  0.10000000000E+02 0.  1.
</event>
<event>
 5    1  0.1334136E-008  0.3844608E+03  0.7957747E-01  0.3431962E+00
         13   -1    0    0    0    0  0.00000000000E+00  0.00000000000E+00  0.14999999963E+04  0.15000000000E+04  0.10566000000E+00 0.  1.
        994   -1    0    0    0    0 -0.00000000000E+00 -0.00000000000E+00  0.11368683772E-12  0.17120000000E+03  0.17120000000E+03 0.  0.
         13    1    1    2    0    0 -0.56161921707E+01 -0.21043892445E+02  0.12378094774E+03  0.12568262095E+03  0.10566000000E+00 0.  1.
        994    1    1    2    0    0  0.73568771212E+01  0.12987570506E+02  0.26324297363E+01  0.17186963174E+03  0.17120000000E+03 0.  0.
        998    1    1    2    0    0 -0.17406849505E+01  0.80563219390E+01  0.13735866188E+04  0.13736477473E+04  0.10000000000E+02 0.  1.
</event>
<event>
 5    1  0.1334136E-008  0.3812814E+03  0.7957747E-01  0.3445598E+00
         13   -1    0    0    0    0  0.00000000000E+00  0.00000000000E+00  0.14999999963E+04  0.15000000000E+04  0.10566000000E+00 0. -1.
        994   -1    0    0    0    0 -0.00000000000E+00 -0.00000000000E+00  0.11368683772E-12  0.17120000000E+03  0.17120000000E+03 0.  0.
         13    1    1    2    0    0  0.94652465150E+01 -0.40937068378E+01  0.13938802172E+02  0.17339281914E+02  0.10566000000E+00 0. -1.
        994    1    1    2    0    0 -0.97136999187E+00  0.41988237955E+01  0.35495560223E+01  0.17129101853E+03  0.17120000000E+03 0.  0.
        998    1    1    2    0    0 -0.84938765231E+01 -0.10511695769E+00  0.14825116381E+04  0.14825696996E+04  0.10000000000E+02 0. -1.
</event>
<event>
 5    1  0.1334136E-008  0.3846418E+03  0.7957747E-01  0.3431193E+00
         13   -1    0    0    0    0  0.00000000000E+00  0.00000000000E+00  0.14999999963E+04  0.15000000000E+04  0.10566000000E+00 0. -1.
        994   -1    0    0    0    0 -0.00000000000E+00 -0.00000000000E+00  0.11368683772E-12  0.17120000000E+03  0.17120000000E+03 0.  0.
         13    1    1    2    0    0 -0.86554490622E+01  0.14858510454E+02  0.83761465209E+02  0.85508399291E+02  0.10566000000E+00 0. -1.
        994    1    1    2    0    0 -0.20794485251E+01 -0.97668732172E+01  0.21364855248E+01  0.17150428709E+03  0.17120000000E+03 0.  0.
        998    1    1    2    0    0  0.10734897587E+02 -0.50916372366E+01  0.14141020455E+04  0.14141873136E+04  0.10000000000E+02 0. -1.
</event>
<event>
 5    1  0.1334136E-008  0.3775939E+03  0.7957747E-01  0.3461703E+00
         13   -1    0    0    0    0  0.00000000000E+00  0.00000000000E+00  0.14999999963E+04  0.15000000000E+04  0.10566000000E+00 0.  1.
        994   -1    0    0    0    0 -0.00000000000E+00 -0.00000000000E+00  0.11368683772E-12  0.17120000000E+03  0.17120000000E+03 0.  0.
         13    1    1    2    0    0 -0.24392959444E+02 -0.12459215831E+02  0.75403276652E+02  0.80224147383E+02  0.10566000000E+00 0.  1.
        994    1    1    2    0    0 -0.12866238333E+02  0.84680183158E+01  0.61525628308E+01  0.17200157398E+03  0.17120000000E+03 0.  0.
        998    1    1    2    0    0  0.37259197776E+02  0.39911975148E+01  0.14184441568E+04  0.14189742786E+04  0.10000000000E+02 0.  1.
</event>
<event>
 5    1  0.1334136E-008  0.4459384E+03  0.7957747E-01  0.3206281E+00
         13   -1    0    0    0    0  0.00000000000E+00  0.00000000000E+00  0.14999999963E+04  0.15000000000E+04  0.10566000000E+00 0.  1.
        994   -1    0    0    0    0 -0.00000000000E+00 -0.00000000000E+00  0.11368683772E-12  0.17120000000E+03  0.17120000000E+03 0.  0.
         13    1    1    2    0    0  0.11993761148E+03  0.26194069022E+02  0.11285542765E+03  0.16675586530E+03  0.10566000000E+00 0.  1.
        994    1    1    2    0    0 -0.65039227790E+02 -0.11387727930E+03  0.14941688674E+03  0.26236040466E+03  0.17120000000E+03 0.  0.
        998    1    1    2    0    0 -0.54898383687E+02  0.87683210279E+02  0.12377276819E+04  0.12420837300E+04  0.10000000000E+02 0.  1.
</event>
<event>
 5    1  0.1334136E-008  0.3959321E+03  0.7957747E-01  0.3384591E+00
         13   -1    0    0    0    0  0.00000000000E+00  0.00000000000E+00  0.14999999963E+04  0.15000000000E+04  0.10566000000E+00 0.  1.
        994   -1    0    0    0    0 -0.00000000000E+00 -0.00000000000E+00  0.11368683772E-12  0.17120000000E+03  0.17120000000E+03 0.  0.
         13    1    1    2    0    0 -0.17797681231E+02 -0.12831889731E+03  0.26342459977E+03  0.29355583420E+03  0.10566000000E+00 0.  1.
        994    1    1    2    0    0  0.57024594864E+01  0.12736881351E+03  0.91141627880E+02  0.23210249682E+03  0.17120000000E+03 0.  0.
        998    1    1    2    0    0  0.12095221744E+02  0.95008379407E+00  0.11454337686E+04  0.11455416690E+04  0.10000000000E+02 0.  1.
</event>
<event>
 5    1  0.1334136E-008  0.3880094E+03  0.7957747E-01  0.3417009E+00
         13   -1    0    0    0    0  0.00000000000E+00  0.00000000000E+00  0.14999999963E+04  0.15000000000E+04  0.10566000000E+00 0.  1.
        994   -1    0    0    0    0 -0.00000000000E+00 -0.00000000000E+00  0.11368683772E-12  0.17120000000E+03  0.17120000000E+03 0.  0.
         13    1    1    2    0    0 -0.17686315777E+02 -0.60681024713E+02  0.87030869500E+02  0.10756103354E+03  0.10566000000E+00 0.  1.
        994    1    1    2    0    0 -0.86798876318E+01  0.57016087809E+02  0.33324372241E+02  0.18370119353E+03  0.17120000000E+03 0.  0.
        998    1    1    2    0    0  0.26366203408E+02  0.36649369043E+01  0.13796447545E+04  0.13799377729E+04  0.10000000000E+02 0.  1.
</event>
<event>
 5    1  0.1334136E-008  0.3856217E+03  0.7957747E-01  0.3427040E+00
         13   -1    0    0    0    0  0.00000000000E+00  0.00000000000E+00  0.14999999963E+04  0.15000000000E+04  0.10566000000E+00 0.  1.
        994   -1    0    0    0    0 -0.00000000000E+00 -0.00000000000E+00  0.11368683772E-12  0.17120000000E+03  0.17120000000E+03 0.  0.
         13    1    1    2    0    0  0.12794088100E+01 -0.10278315739E+02  0.39908804331E+02  0.41231110687E+02  0.10566000000E+00 0.  1.
        994    1    1    2    0    0  0.37877000047E+01  0.11488254079E+02  0.18021795198E+01  0.17163628551E+03  0.17120000000E+03 0.  0.
        998    1    1    2    0    0 -0.50671088147E+01 -0.12099383400E+01  0.14582890124E+04  0.14583326038E+04  0.10000000000E+02 0.  1.
</event>
<event>
 5    1  0.1334136E-008  0.3841888E+03  0.7957747E-01  0.3433120E+00
         13   -1    0    0    0    0  0.00000000000E+00  0.00000000000E+00  0.14999999963E+04  0.15000000000E+04  0.10566000000E+00 0. -1.
        994   -1    0    0    0    0 -0.00000000000E+00 -0.00000000000E+00  0.11368683772E-12  0.17120000000E+03  0.17120000000E+03 0.  0.
         13    1    1    2    0    0 -0.12014397634E+02  0.19100497712E+02  0.11413169626E+03  0.11634100747E+03  0.10566000000E+00 0. -1.
        994    1    1    2    0    0  0.19030824401E+02 -0.18793939587E+02  0.43958292445E+01  0.17333247750E+03  0.17120000000E+03 0.  0.
        998    1    1    2    0    0 -0.70164267673E+01 -0.30655812490E+00  0.13814724708E+04  0.13815265150E+04  0.10000000000E+02 0. -1.
</event>
<event>
 5    1  0.1334136E-008  0.3842921E+03  0.7957747E-01  0.3432680E+00
         13   -1    0    0    0    0  0.00000000000E+00  0.00000000000E+00  0.14999999963E+04  0.15000000000E+04  0.10566000000E+00 0.  1.
        994   -1    0    0    0    0 -0.00000000000E+00 -0.00000000000E+00  0.11368683772E-12  0.17120000000E+03  0.17120000000E+03 0.  0.
         13    1    1    2    0    0  0.11364683245E+02 -0.25329176827E+01  0.35317947250E+02  0.37187904744E+02  0.10566000000E+00 0.  1.
        994    1    1    2    0    0  0.40387296266E+01  0.66985069638E+01  0.21836877969E+01  0.17139250224E+03  0.17120000000E+03 0.  0.
        998    1    1    2    0    0 -0.15403412871E+02 -0.41655892811E+01  0.14624983612E+04  0.14626195930E+04  0.10000000000E+02 0.  1.
</event>
<event>
 5    1  0.1334136E-008  0.3807271E+03  0.7957747E-01  0.3447999E+00
         13   -1    0    0    0    0  0.00000000000E+00  0.00000000000E+00  0.14999999963E+04  0.15000000000E+04  0.10566000000E+00 0. -1.
        994   -1    0    0    0    0 -0.00000000000E+00 -0.00000000000E+00  0.11368683772E-12  0.17120000000E+03  0.17120000000E+03 0.  0.
         13    1    1    2    0    0  0.65603930908E+01  0.10387316694E+02  0.18654170554E+02  0.22336614531E+02  0.10566000000E+00 0. -1.
        994    1    1    2    0    0 -0.43006237944E+01 -0.32774470387E+01  0.38640624790E+01  0.17132894677E+03  0.17120000000E+03 0.  0.
        998    1    1    2    0    0 -0.22597692965E+01 -0.71098696557E+01  0.14774817632E+04  0.14775344387E+04  0.10000000000E+02 0. -1.
</event>
<event>
 5    1  0.1334136E-008  0.3853945E+03  0.7957747E-01  0.3428001E+00
         13   -1    0    0    0    0  0.00000000000E+00  0.00000000000E+00  0.14999999963E+04  0.15000000000E+04  0.10566000000E+00 0.  1.
        994   -1    0    0    0    0 -0.00000000000E+00 -0.00000000000E+00  0.11368683772E-12  0.17120000000E+03  0.17120000000E+03 0.  0.
         13    1    1    2    0    0 -0.34096334787E+01 -0.10920994452E+02  0.46807621150E+02  0.48185664694E+02  0.10566000000E+00 0.  1.
        994    1    1    2    0    0  0.94792526193E+01  0.10143788689E+01  0.17329716210E+01  0.17147398749E+03  0.17120000000E+03 0.  0.
        998    1    1    2    0    0 -0.60696191405E+01  0.99066155835E+01  0.14514594035E+04  0.14515403478E+04  0.10000000000E+02 0.  1.
</event>
<event>
 5    1  0.1334136E-008  0.3854418E+03  0.7957747E-01  0.3427801E+00
         13   -1    0    0    0    0  0.00000000000E+00  0.00000000000E+00  0.14999999963E+04  0.15000000000E+04  0.10566000000E+00 0. -1.
        994   -1    0    0    0    0 -0.00000000000E+00 -0.00000000000E+00  0.11368683772E-12  0.17120000000E+03  0.17120000000E+03 0.  0.
         13    1    1    2    0    0 -0.27073874941E+01 -0.12169921820E+02  0.57723920379E+02  0.59055051368E+02  0.10566000000E+00 0. -1.
        994    1    1    2    0    0  0.92672234708E+01 -0.21855559474E+00  0.16931734316E+01  0.17145913809E+03  0.17120000000E+03 0.  0.
        998    1    1    2    0    0 -0.65598359767E+01  0.12388477414E+02  0.14405829025E+04  0.14406858105E+04  0.10000000000E+02 0. -1.
</event>
<event>
 5    1  0.1334136E-008  0.3794648E+03  0.7957747E-01  0.3453492E+00
         13   -1    0    0    0    0  0.00000000000E+00  0.00000000000E+00  0.14999999963E+04  0.15000000000E+04  0.10566000000E+00 0.  1.
        994   -1    0    0    0    0 -0.00000000000E+00 -0.00000000000E+00  0.11368683772E-12  0.17120000000E+03  0.17120000000E+03 0.  0.
         13    1    1    2    0    0 -0.23230473330E+02 -0.11752675589E+02  0.71718617237E+02  0.76297781731E+02  0.10566000000E+00 0.  1.
        994    1    1    2    0    0  0.25176789534E+02  0.12181964699E+02  0.70276586393E+01  0.17361192062E+03  0.17120000000E+03 0.  0.
        998    1    1    2    0    0 -0.19463162033E+01 -0.42928911028E+00  0.14212537204E+04  0.14212902976E+04  0.10000000000E+02 0.  1.
</event>
<event>
 5    1  0.1334136E-008  0.3932617E+03  0.7957747E-01  0.3395372E+00
         13   -1    0    0    0    0  0.00000000000E+00  0.00000000000E+00  0.14999999963E+04  0.15000000000E+04  0.10566000000E+00 0. -1.
        994   -1    0    0    0    0 -0.00000000000E+00 -0.00000000000E+00  0.11368683772E-12  0.17120000000E+03  0.17120000000E+03 0.  0.
         13    1    1    2    0    0  0.10954392522E+03  0.59407942269E+01  0.24478913563E+03  0.26824782697E+03  0.10566000000E+00 0. -1.
        994    1    1    2    0    0 -0.71187267798E+02  0.96875834856E+01  0.43758077447E+02  0.19075032297E+03  0.17120000000E+03 0.  0.
        998    1    1    2    0    0 -0.38356657426E+02 -0.15628377713E+02  0.12114527832E+04  0.12122018501E+04  0.10000000000E+02 0. -1.
</event>
<event>
 5    1  0.1334136E-008  0.3719795E+03  0.7957747E-01  0.3486843E+00
         13   -1    0    0    0    0  0.00000000000E+00  0.00000000000E+00  0.14999999963E+04  0.15000000000E+04  0.10566000000E+00 0.  1.
        994   -1    0    0    0    0 -0.00000000000E+00 -0.00000000000E+00  0.11368683772E-12  0.17120000000E+03  0.17120000000E+03 0.  0.
         13    1    1    2    0    0 -0.50987836444E+02 -0.21662892883E+02  0.17350686215E+03  0.18213643998E+03  0.10566000000E+00 0.  1.
        994    1    1    2    0    0  0.50108911005E+02 -0.48724534006E+01  0.16993261808E+02  0.17925639378E+03  0.17120000000E+03 0.  0.
        998    1    1    2    0    0  0.87892543823E+00  0.26535346284E+02  0.13094998723E+04  0.13098071662E+04  0.10000000000E+02 0.  1.
</event>
<event>
 5    1  0.1334136E-008  0.3813457E+03  0.7957747E-01  0.3445320E+00
         13   -1    0    0    0    0  0.00000000000E+00  0.00000000000E+00  0.14999999963E+04  0.15000000000E+04  0.10566000000E+00 0. -1.
        994   -1    0    0    0    0 -0.00000000000E+00 -0.00000000000E+00  0.11368683772E-12  0.17120000000E+03  0.17120000000E+03 0.  0.
         13    1    1    2    0    0 -0.47806963117E+01  0.91778769197E+01  0.14244072815E+02  0.17606625354E+02  0.10566000000E+00 0. -1.
        994    1    1    2    0    0 -0.20279545595E+02 -0.12161428862E+02  0.53185775581E+01  0.17290716465E+03  0.17120000000E+03 0.  0.
        998    1    1    2    0    0  0.25060241907E+02  0.29835519422E+01  0.14804373459E+04  0.14806862100E+04  0.10000000000E+02 0. -1.
</event>
<event>
 5    1  0.1334136E-008  0.3848363E+03  0.7957747E-01  0.3430367E+00
         13   -1    0    0    0    0  0.00000000000E+00  0.00000000000E+00  0.14999999963E+04  0.15000000000E+04  0.10566000000E+00 0. -1.
        994   -1    0    0    0    0 -0.00000000000E+00 -0.00000000000E+00  0.11368683772E-12  0.17120000000E+03  0.17120000000E+03 0.  0.
         13    1    1    2    0    0 -0.11834159263E+02  0.47360469990E-01  0.41592389736E+02  0.43243353437E+02  0.10566000000E+00 0. -1.
        994    1    1    2    0    0  0.37834524565E+01  0.35925418296E+01  0.18010317240E+01  0.17128895056E+03  0.17120000000E+03 0.  0.
        998    1    1    2    0    0  0.80507068066E+01 -0.36399022996E+01  0.14566065748E+04  0.14566676960E+04  0.10000000000E+02 0. -1.
</event>
<event>
 5    1  0.1334136E-008  0.3857982E+03  0.7957747E-01  0.3426294E+00
         13   -1    0    0    0    0  0.00000000000E+00  0.00000000000E+00  0.14999999963E+04  0.15000000000E+04  0.10566000000E+00 0.  1.
        994   -1    0    0    0    0 -0.00000000000E+00 -0.00000000000E+00  0.11368683772E-12  0.17120000000E+03  0.17120000000E+03 0.  0.
         13    1    1    2    0    0 -0.38822796413E+01  0.13231722943E+02  0.77495737036E+02  0.78713093002E+02  0.10566000000E+00 0.  1.
        994    1    1    2    0    0 -0.11104679152E+01 -0.10118175371E+02  0.15742818693E+01  0.17150955943E+03  0.17120000000E+03 0.  0.
        998    1    1    2    0    0  0.49927475565E+01 -0.31135475716E+01  0.14209299774E+04  0.14209773476E+04  0.10000000000E+02 0.  1.
</event>
<event>
 5    1  0.1334136E-008  0.3814707E+03  0.7957747E-01  0.3444779E+00
         13   -1    0    0    0    0  0.00000000000E+00  0.00000000000E+00  0.14999999963E+04  0.15000000000E+04  0.10566000000E+00 0.  1.
        994   -1    0    0    0    0 -0.00000000000E+00 -0.00000000000E+00  0.11368683772E-12  0.17120000000E+03  0.17120000000E+03 0.  0.
         13    1    1    2    0    0 -0.22149350573E+02  0.18221574760E+02  0.14261384334E+03  0.14546937476E+03  0.10566000000E+00 0.  1.
        994    1    1    2    0    0 -0.55132216993E+02 -0.74003142865E+02  0.32261686884E+02  0.19714533458E+03  0.17120000000E+03 0.  0.
        998    1    1    2    0    0  0.77281567566E+02  0.55781568106E+02  0.13251244661E+04  0.13285852907E+04  0.10000000000E+02 0.  1.
</event>
<event>
 5    1  0.1334136E-008  0.3846510E+03  0.7957747E-01  0.3431154E+00
         13   -1    0    0    0    0  0.00000000000E+00  0.00000000000E+00  0.14999999963E+04  0.15000000000E+04  0.10566000000E+00 0.  1.
        994   -1    0    0    0    0 -0.00000000000E+00 -0.00000000000E+00  0.11368683772E-12  0.17120000000E+03  0.17120000000E+03 0.  0.
         13    1    1    2    0    0 -0.21905514553E+01  0.10374326683E+02  0.30060829244E+02  0.31876163331E+02  0.10566000000E+00 0.  1.
        994    1    1    2    0    0  0.11262883755E+01 -0.13099625938E+02  0.23728424376E+01  0.17172052617E+03  0.17120000000E+03 0.  0.
        998    1    1    2    0    0  0.10642630798E+01  0.27252992551E+01  0.14675663246E+04  0.14676033105E+04  0.10000000000E+02 0.  1.
</event>
<event>
 5    1  0.1334136E-008  0.3825175E+03  0.7957747E-01  0.3440270E+00
         13   -1    0    0    0    0  0.00000000000E+00  0.00000000000E+00  0.14999999963E+04  0.15000000000E+04  0.10566000000E+00 0.  1.
        994   -1    0    0    0    0 -0.00000000000E+00 -0.00000000000E+00  0.11368683772E-12  0.17120000000E+03  0.17120000000E+03 0.  0.
         13    1    1    2    0    0  0.79255633324E+01 -0.80889316665E+01  0.21451587650E+02  0.24257517317E+02  0.10566000000E+00 0.  1.
        994    1    1    2    0    0 -0.61267112476E+01  0.12098505622E+01  0.29970208669E+01  0.17134007839E+03  0.17120000000E+03 0.  0.
        998    1    1    2    0    0 -0.17988520847E+01  0.68790811043E+01  0.14755513878E+04  0.14756024043E+04  0.10000000000E+02 0.  1.
</event>
<event>
 5    1  0.1334136E-008  0.3732909E+03  0.7957747E-01  0.3480902E+00
         13   -1    0    0    0    0  0.00000000000E+00  0.00000000000E+00  0.14999999963E+04  0.15000000000E+04  0.10566000000E+00 0.  1.
        994   -1    0    0    0    0 -0.00000000000E+00 -0.00000000000E+00  0.11368683772E-12  0.17120000000E+03  0.17120000000E+03 0.  0.
         13    1    1    2    0    0 -0.33790974389E+02  0.51536520654E+01  0.38667497966E+02  0.51609850249E+02  0.10566000000E+00 0.  1.
        994    1    1    2    0    0  0.46201884098E+02 -0.11178335050E+02  0.20724382108E+02  0.17888127147E+03  0.17120000000E+03 0.  0.
        998    1    1    2    0    0 -0.12410909709E+02  0.60246829848E+01  0.14406081162E+04  0.14407088783E+04  0.10000000000E+02 0.  1.
</event>
<event>
 5    1  0.1334136E-008  0.3789272E+03  0.7957747E-01  0.3455843E+00
         13   -1    0    0    0    0  0.00000000000E+00  0.00000000000E+00  0.14999999963E+04  0.15000000000E+04  0.10566000000E+00 0.  1.
        994   -1    0    0    0    0 -0.00000000000E+00 -0.00000000000E+00  0.11368683772E-12  0.17120000000E+03  0.17120000000E+03 0.  0.
         13    1    1    2    0    0 -0.13866251533E+02 -0.19936610920E+01  0.19504171193E+02  0.24013984969E+02  0.10566000000E+00 0.  1.
        994    1    1    2    0    0 -0.11594717820E+01  0.66604531399E+01  0.48290411755E+01  0.17140147505E+03  0.17120000000E+03 0.  0.
        998    1    1    2    0    0  0.15025723315E+02 -0.46667920479E+01  0.14756667839E+04  0.14757845400E+04  0.10000000000E+02 0.  1.
</event>
<event>
 5    1  0.1334136E-008  0.3844948E+03  0.7957747E-01  0.3431818E+00
         13   -1    0    0    0    0  0.00000000000E+00  0.00000000000E+00  0.14999999963E+04  0.15000000000E+04  0.10566000000E+00 0.  1.
        994   -1    0    0    0    0 -0.00000000000E+00 -0.00000000000E+00  0.11368683772E-12  0.17120000000E+03  0.17120000000E+03 0.  0.
         13    1    1    2    0    0 -0.99002171760E+01 -0.15218726907E+02  0.89091990863E+02  0.90923143087E+02  0.10566000000E+00 0.  1.
        994    1    1    2    0    0  0.30383891959E+01  0.85981161468E+01  0.21551533595E+01  0.17145624543E+03  0.17120000000E+03 0.  0.
        998    1    1    2    0    0  0.68618279801E+01  0.66206107605E+01  0.14087528521E+04  0.14088206115E+04  0.10000000000E+02 0.  1.
</event>
<event>
 5    1  0.1334136E-008  0.3702210E+03  0.7957747E-01  0.3494876E+00
         13   -1    0    0    0    0  0.00000000000E+00  0.00000000000E+00  0.14999999963E+04  0.15000000000E+04  0.10566000000E+00 0. -1.
        994   -1    0    0    0    0 -0.00000000000E+00 -0.00000000000E+00  0.11368683772E-12  0.17120000000E+03  0.17120000000E+03 0.  0.
         13    1    1    2    0    0  0.21921253456E+01 -0.58319239294E+02  0.21807871101E+03  0.22575268425E+03  0.10566000000E+00 0. -1.
        994    1    1    2    0    0  0.55832743755E+02  0.81237323393E+01  0.20233589184E+02  0.18138943859E+03  0.17120000000E+03 0.  0.
        998    1    1    2    0    0 -0.58024869101E+02  0.50195506954E+02  0.12616876961E+04  0.12640578772E+04  0.10000000000E+02 0. -1.
</event>
<event>
 5    1  0.1334136E-008  0.3829990E+03  0.7957747E-01  0.3438203E+00
         13   -1    0    0    0    0  0.00000000000E+00  0.00000000000E+00  0.14999999963E+04  0.15000000000E+04  0.10566000000E+00 0. -1.
        994   -1    0    0    0    0 -0.00000000000E+00 -0.00000000000E+00  0.11368683772E-12  0.17120000000E+03  0.17120000000E+03 0.  0.
         13    1    1    2    0    0 -0.14112658177E+02  0.11928403789E+02  0.62897856810E+02  0.65556124757E+02  0.10566000000E+00 0. -1.
        994    1    1    2    0    0  0.11369407949E+02 -0.11545969489E+02  0.34965095899E+01  0.17200069310E+03  0.17120000000E+03 0.  0.
        998    1    1    2    0    0  0.27432502279E+01 -0.38243429998E+00  0.14336056299E+04  0.14336431821E+04  0.10000000000E+02 0. -1.
</event>
<event>
 5    1  0.1334136E-008  0.3845833E+03  0.7957747E-01  0.3431442E+00
         13   -1    0    0    0    0  0.00000000000E+00  0.00000000000E+00  0.14999999963E+04  0.15000000000E+04  0.10566000000E+00 0. -1.
        994   -1    0    0    0    0 -0.00000000000E+00 -0.00000000000E+00  0.11368683772E-12  0.17120000000E+03  0.17120000000E+03 0.  0.
         13    1    1    2    0    0 -0.80338642857E+01 -0.84746911678E+01  0.37238235118E+02  0.39026410090E+02  0.10566000000E+00 0. -1.
        994    1    1    2    0    0  0.93773880215E+01 -0.16165404355E+01  0.21354243302E+01  0.17147754560E+03  0.17120000000E+03 0.  0.
        998    1    1    2    0    0 -0.13435237358E+01  0.10091231603E+02  0.14606263368E+04  0.14606960443E+04  0.10000000000E+02 0. -1.
</event>
<event>
 5    1  0.1334136E-008  0.3794164E+03  0.7957747E-01  0.3453704E+00
         13   -1    0    0    0    0  0.00000000000E+00  0.00000000000E+00  0.14999999963E+04  0.15000000000E+04  0.10566000000E+00 0. -1.
        994   -1    0    0    0    0 -0.00000000000E+00 -0.00000000000E+00  0.11368683772E-12  0.17120000000E+03  0.17120000000E+03 0.  0.
         13    1    1    2    0    0 -0.90783480504E+01  0.13913247404E+02  0.29185249284E+02  0.33582507299E+02  0.10566000000E+00 0. -1.
        994    1    1    2    0    0  0.92528737907E+01 -0.10220346916E+02  0.50649098438E+01  0.17182888138E+03  0.17120000000E+03 0.  0.
        998    1    1    2    0    0 -0.17452574037E+00 -0.36929004882E+01  0.14657498372E+04  0.14657886113E+04  0.10000000000E+02 0. -1.
</event>
<event>
 5    1  0.1334136E-008  0.3833173E+03  0.7957747E-01  0.3436840E+00
         13   -1    0    0    0    0  0.00000000000E+00  0.00000000000E+00  0.14999999963E+04  0.15000000000E+04  0.10566000000E+00 0. -1.
        994   -1    0    0    0    0 -0.00000000000E+00 -0.00000000000E+00  0.11368683772E-12  0.17120000000E+03  0.17120000000E+03 0.  0.
         13    1    1    2    0    0 -0.17314609290E+02 -0.22367568161E+01  0.22527096894E+00  0.17460260220E+02  0.10566000000E+00 0. -1.
        994    1    1    2    0    0  0.14810477930E+02 -0.97740178803E+01  0.19317413199E+02  0.17319781793E+03  0.17120000000E+03 0.  0.
        998    1    1    2    0    0  0.25041313599E+01  0.12010774696E+02  0.14804573121E+04  0.14805419219E+04  0.10000000000E+02 0. -1.
</event>
<event>
 5    1  0.1334136E-008  0.3807458E+03  0.7957747E-01  0.3447918E+00
         13   -1    0    0    0    0  0.00000000000E+00  0.00000000000E+00  0.14999999963E+04  0.15000000000E+04  0.10566000000E+00 0. -1.
        994   -1    0    0    0    0 -0.00000000000E+00 -0.00000000000E+00  0.11368683772E-12  0.17120000000E+03  0.17120000000E+03 0.  0.
         13    1    1    2    0    0  0.17501581870E+03  0.34115324433E+02  0.88848676153E+03  0.90620258703E+03  0.10566000000E+00 0. -1.
        994    1    1    2    0    0 -0.19104682408E+03 -0.46660712439E+02  0.14580730934E+03  0.29873955636E+03  0.17120000000E+03 0.  0.
        998    1    1    2    0    0  0.16031005388E+02  0.12545388006E+02  0.46570592541E+03  0.46625785661E+03  0.10000000000E+02 0. -1.
</event>
<event>
 5    1  0.1334136E-008  0.3782594E+03  0.7957747E-01  0.3458773E+00
         13   -1    0    0    0    0  0.00000000000E+00  0.00000000000E+00  0.14999999963E+04  0.15000000000E+04  0.10566000000E+00 0. -1.
        994   -1    0    0    0    0 -0.00000000000E+00 -0.00000000000E+00  0.11368683772E-12  0.17120000000E+03  0.17120000000E+03 0.  0.
         13    1    1    2    0    0  0.61016290233E+02  0.84786870360E+02  0.42970775297E+03  0.44222230291E+03  0.10566000000E+00 0. -1.
        994    1    1    2    0    0 -0.83110421321E+02 -0.13443351974E+03  0.94198789057E+02  0.25132163699E+03  0.17120000000E+03 0.  0.
        998    1    1    2    0    0  0.22094131088E+02  0.49646649378E+02  0.97609345425E+03  0.97765606010E+03  0.10000000000E+02 0. -1.
</event>
<event>
 5    1  0.1334136E-008  0.3842720E+03  0.7957747E-01  0.3432765E+00
         13   -1    0    0    0    0  0.00000000000E+00  0.00000000000E+00  0.14999999963E+04  0.15000000000E+04  0.10566000000E+00 0.  1.
        994   -1    0    0    0    0 -0.00000000000E+00 -0.00000000000E+00  0.11368683772E-12  0.17120000000E+03  0.17120000000E+03 0.  0.
         13    1    1    2    0    0 -0.10660281718E+02 -0.26337487964E+02  0.16456922335E+03  0.16700402784E+03  0.10566000000E+00 0.  1.
        994    1    1    2    0    0  0.57964879510E+01  0.41047608480E+02  0.76775966610E+01  0.17631474960E+03  0.17120000000E+03 0.  0.
        998    1    1    2    0    0  0.48637937668E+01 -0.14710120516E+02  0.13277531763E+04  0.13278812226E+04  0.10000000000E+02 0.  1.
</event>
<event>
 5    1  0.1334136E-008  0.3723677E+03  0.7957747E-01  0.3485079E+00
         13   -1    0    0    0    0  0.00000000000E+00  0.00000000000E+00  0.14999999963E+04  0.15000000000E+04  0.10566000000E+00 0.  1.
        994   -1    0    0    0    0 -0.00000000000E+00 -0.00000000000E+00  0.11368683772E-12  0.17120000000E+03  0.17120000000E+03 0.  0.
         13    1    1    2    0    0  0.34173772223E+02  0.91433754042E+00  0.64898330999E+02  0.73351804692E+02  0.10566000000E+00 0.  1.
        994    1    1    2    0    0 -0.43903308629E+02  0.97776638859E+01  0.15007301156E+02  0.17764504583E+03  0.17120000000E+03 0.  0.
        998    1    1    2    0    0  0.97295364058E+01 -0.10692001426E+02  0.14200943641E+04  0.14202031495E+04  0.10000000000E+02 0.  1.
</event>
<event>
 5    1  0.1334136E-008  0.3746244E+03  0.7957747E-01  0.3474904E+00
         13   -1    0    0    0    0  0.00000000000E+00  0.00000000000E+00  0.14999999963E+04  0.15000000000E+04  0.10566000000E+00 0.  1.
        994   -1    0    0    0    0 -0.00000000000E+00 -0.00000000000E+00  0.11368683772E-12  0.17120000000E+03  0.17120000000E+03 0.  0.
         13    1    1    2    0    0  0.37447597722E+02 -0.54870277488E+01  0.47500417600E+02  0.60734923108E+02  0.10566000000E+00 0.  1.
        994    1    1    2    0    0 -0.34166565326E+02 -0.64114023078E+01  0.17711745876E+02  0.17558931120E+03  0.17120000000E+03 0.  0.
        998    1    1    2    0    0 -0.32810323960E+01  0.11898430057E+02  0.14347878328E+04  0.14348757657E+04  0.10000000000E+02 0.  1.
</event>
<event>
 5    1  0.1334136E-008  0.3857504E+03  0.7957747E-01  0.3426496E+00
         13   -1    0    0    0    0  0.00000000000E+00  0.00000000000E+00  0.14999999963E+04  0.15000000000E+04  0.10566000000E+00 0.  1.
        994   -1    0    0    0    0 -0.00000000000E+00 -0.00000000000E+00  0.11368683772E-12  0.17120000000E+03  0.17120000000E+03 0.  0.
         13    1    1    2    0    0 -0.10818040131E+02 -0.41137910544E+01  0.55423302625E+02  0.56618962433E+02  0.10566000000E+00 0.  1.
        994    1    1    2    0    0 -0.90557678236E+00  0.11009000697E+02  0.16584134411E+01  0.17156400701E+03  0.17120000000E+03 0.  0.
        998    1    1    2    0    0  0.11723616914E+02 -0.68952096429E+01  0.14429182802E+04  0.14430170306E+04  0.10000000000E+02 0.  1.
</event>
<event>
 5    1  0.1334136E-008  0.3843064E+03  0.7957747E-01  0.3432619E+00
         13   -1    0    0    0    0  0.00000000000E+00  0.00000000000E+00  0.14999999963E+04  0.15000000000E+04  0.10566000000E+00 0.  1.
        994   -1    0    0    0    0 -0.00000000000E+00 -0.00000000000E+00  0.11368683772E-12  0.17120000000E+03  0.17120000000E+03 0.  0.
         13    1    1    2    0    0  0.17783544229E+02 -0.13023647709E+02  0.11428045513E+03  0.11638686968E+03  0.10566000000E+00 0.  1.
        994    1    1    2    0    0 -0.21069648340E+02  0.10270146996E+02  0.37878773762E+01  0.17283863577E+03  0.17120000000E+03 0.  0.
        998    1    1    2    0    0  0.32861041109E+01  0.27535007132E+01  0.13819316638E+04  0.13819744946E+04  0.10000000000E+02 0.  0.
</event>
<event>
 5    1  0.1334136E-008  0.3826638E+03  0.7957747E-01  0.3439641E+00
         13   -1    0    0    0    0  0.00000000000E+00  0.00000000000E+00  0.14999999963E+04  0.15000000000E+04  0.10566000000E+00 0. -1.
        994   -1    0    0    0    0 -0.00000000000E+00 -0.00000000000E+00  0.11368683772E-12  0.17120000000E+03  0.17120000000E+03 0.  0.
         13    1    1    2    0    0  0.25056277635E+02 -0.21213933021E+01  0.11476410849E+03  0.11748671890E+03  0.10566000000E+00 0. -1.
        994    1    1    2    0    0 -0.12052372937E+02  0.39951683689E+00  0.32764916768E+01  0.17165545347E+03  0.17120000000E+03 0.  0.
        998    1    1    2    0    0 -0.13003904698E+02  0.17218764652E+01  0.13819593961E+04  0.13820578276E+04  0.10000000000E+02 0. -1.
</event>
<event>
 5    1  0.1334136E-008  0.3885993E+03  0.7957747E-01  0.3414549E+00
         13   -1    0    0    0    0  0.00000000000E+00  0.00000000000E+00  0.14999999963E+04  0.15000000000E+04  0.10566000000E+00 0.  1.
        994   -1    0    0    0    0 -0.00000000000E+00 -0.00000000000E+00  0.11368683772E-12  0.17120000000E+03  0.17120000000E+03 0.  0.
         13    1    1    2    0    0 -0.10328400092E+03 -0.62979470074E+02  0.44139709857E+03  0.45767391043E+03  0.10566000000E+00 0.  1.
        994    1    1    2    0    0  0.34051647748E+02  0.45773649295E+01  0.25563050315E+02  0.17647486089E+03  0.17120000000E+03 0.  0.
        998    1    1    2    0    0  0.69232353172E+02  0.58402105144E+02  0.10330398474E+04  0.10370512287E+04  0.10000000000E+02 0.  1.
</event>
<event>
 5    1  0.1334136E-008  0.3785168E+03  0.7957747E-01  0.3457642E+00
         13   -1    0    0    0    0  0.00000000000E+00  0.00000000000E+00  0.14999999963E+04  0.15000000000E+04  0.10566000000E+00 0.  1.
        994   -1    0    0    0    0 -0.00000000000E+00 -0.00000000000E+00  0.11368683772E-12  0.17120000000E+03  0.17120000000E+03 0.  0.
         13    1    1    2    0    0 -0.27176429248E+02  0.11172701772E+02  0.89155420015E+02  0.93872720498E+02  0.10566000000E+00 0.  1.
        994    1    1    2    0    0  0.10341990837E+02 -0.59876264152E+01  0.53636168555E+01  0.17170036934E+03  0.17120000000E+03 0.  0.
        998    1    1    2    0    0  0.16834438411E+02 -0.51850753567E+01  0.14054809594E+04  0.14056269102E+04  0.10000000000E+02 0.  1.
</event>
<event>
 5    1  0.1567328E-008  0.3860358E+03  0.7957747E-01  0.3425291E+00
         13   -1    0    0    0    0  0.00000000000E+00  0.00000000000E+00  0.14999999963E+04  0.15000000000E+04  0.10566000000E+00 0. -1.
        994   -1    0    0    0    0 -0.00000000000E+00 -0.00000000000E+00  0.11368683772E-12  0.17120000000E+03  0.17120000000E+03 0.  0.
         13    1    1    2    0    0  0.76377724217E+00 -0.11574809602E+02  0.60640421998E+02  0.61740031722E+02  0.10566000000E+00 0. -1.
        994    1    1    2    0    0 -0.30916092314E+01  0.83660584095E+01  0.13775453611E+01  0.17143770476E+03  0.17120000000E+03 0.  0.
        998    1    1    2    0    0  0.23278319893E+01  0.32087511921E+01  0.14379820289E+04  0.14380222635E+04  0.10000000000E+02 0. -1.
</event>
<event>
 5    1  0.1334136E-008  0.3857039E+03  0.7957747E-01  0.3426692E+00
         13   -1    0    0    0    0  0.00000000000E+00  0.00000000000E+00  0.14999999963E+04  0.15000000000E+04  0.10566000000E+00 0.  1.
        994   -1    0    0    0    0 -0.00000000000E+00 -0.00000000000E+00  0.11368683772E-12  0.17120000000E+03  0.17120000000E+03 0.  0.
         13    1    1    2    0    0  0.55412813439E+02  0.85491715104E+02  0.23382414395E+03  0.25505519933E+03  0.10566000000E+00 0.  1.
        994    1    1    2    0    0 -0.42062381399E+02 -0.77073882639E+02  0.48627730964E+02  0.19845332835E+03  0.17120000000E+03 0.  0.
        998    1    1    2    0    0 -0.13350432040E+02 -0.84178324652E+01  0.12175481214E+04  0.12176914723E+04  0.10000000000E+02 0.  1.
</event>
<event>
 5    1  0.1334136E-008  0.3825645E+03  0.7957747E-01  0.3440067E+00
         13   -1    0    0    0    0  0.00000000000E+00  0.00000000000E+00  0.14999999963E+04  0.15000000000E+04  0.10566000000E+00 0.  1.
        994   -1    0    0    0    0 -0.00000000000E+00 -0.00000000000E+00  0.11368683772E-12  0.17120000000E+03  0.17120000000E+03 0.  0.
         13    1    1    2    0    0 -0.83628235918E+01  0.59553701323E+01  0.16749393532E+02  0.19645778162E+02  0.10566000000E+00 0.  1.
        994    1    1    2    0    0  0.20650506085E+02 -0.68690693584E+01  0.44157177846E+01  0.17263419730E+03  0.17120000000E+03 0.  0.
        998    1    1    2    0    0 -0.12287682493E+02  0.91369922611E+00  0.14788348850E+04  0.14789200245E+04  0.10000000000E+02 0.  1.
</event>
<event>
 5    1  0.1334136E-008  0.3725241E+03  0.7957747E-01  0.3484370E+00
         13   -1    0    0    0    0  0.00000000000E+00  0.00000000000E+00  0.14999999963E+04  0.15000000000E+04  0.10566000000E+00 0.  1.
        994   -1    0    0    0    0 -0.00000000000E+00 -0.00000000000E+00  0.11368683772E-12  0.17120000000E+03  0.17120000000E+03 0.  0.
         13    1    1    2    0    0 -0.51829328628E+02 -0.75587184436E+02  0.47353669187E+03  0.48232428040E+03  0.10566000000E+00 0.  1.
        994    1    1    2    0    0  0.15903609839E+02  0.48265531987E+01  0.13254609085E+02  0.17251476773E+03  0.17120000000E+03 0.  0.
        998    1    1    2    0    0  0.35925718790E+02  0.70760631237E+02  0.10132086953E+04  0.10163609519E+04  0.10000000000E+02 0.  1.
</event>
<event>
 5    1  0.1334136E-008  0.3856919E+03  0.7957747E-01  0.3426743E+00
         13   -1    0    0    0    0  0.00000000000E+00  0.00000000000E+00  0.14999999963E+04  0.15000000000E+04  0.10566000000E+00 0.  1.
        994   -1    0    0    0    0 -0.00000000000E+00 -0.00000000000E+00  0.11368683772E-12  0.17120000000E+03  0.17120000000E+03 0.  0.
         13    1    1    2    0    0 -0.66826019789E+01 -0.10219073245E+02  0.60175218780E+02  0.61401585862E+02  0.10566000000E+00 0.  1.
        994    1    1    2    0    0  0.57055953137E+01  0.65209041039E+00  0.13952410672E+01  0.17130197237E+03  0.17120000000E+03 0.  0.
        998    1    1    2    0    0  0.97700666512E+00  0.95669828344E+01  0.14384295364E+04  0.14384964418E+04  0.10000000000E+02 0.  1.
</event>
<event>
 5    1  0.1334136E-008  0.3818059E+03  0.7957747E-01  0.3443333E+00
         13   -1    0    0    0    0  0.00000000000E+00  0.00000000000E+00  0.14999999963E+04  0.15000000000E+04  0.10566000000E+00 0.  1.
        994   -1    0    0    0    0 -0.00000000000E+00 -0.00000000000E+00  0.11368683772E-12  0.17120000000E+03  0.17120000000E+03 0.  0.
         13    1    1    2    0    0 -0.19056322645E+02 -0.97465712071E+01  0.70032612968E+02  0.73230575077E+02  0.10566000000E+00 0.  1.
        994    1    1    2    0    0  0.15230415471E+02 -0.21834527265E+00  0.39956823578E+01  0.17192271144E+03  0.17120000000E+03 0.  0.
        998    1    1    2    0    0  0.38259071736E+01  0.99649164798E+01  0.14259717010E+04  0.14260467135E+04  0.10000000000E+02 0.  1.
</event>
<event>
 5    1  0.1334136E-008  0.2542072E+03  0.7957747E-01  0.4289125E+00
         13   -1    0    0    0    0  0.00000000000E+00  0.00000000000E+00  0.14999999963E+04  0.15000000000E+04  0.10566000000E+00 0.  1.
        994   -1    0    0    0    0 -0.00000000000E+00 -0.00000000000E+00  0.11368683772E-12  0.17120000000E+03  0.17120000000E+03 0.  0.
         13    1    1    2    0    0 -0.40718597429E+02  0.23623882018E+03  0.52210034186E+03  0.57450462354E+03  0.10566000000E+00 0.  1.
        994    1    1    2    0    0  0.31625749160E+02 -0.69852979308E+02  0.11995659160E+03  0.22266263853E+03  0.17120000000E+03 0.  0.
        998    1    1    2    0    0  0.90928482696E+01 -0.16638584088E+03  0.85794306282E+03  0.87403273793E+03  0.10000000000E+02 0.  1.
</event>
<event>
 5    1  0.1334136E-008  0.3816068E+03  0.7957747E-01  0.3444192E+00
         13   -1    0    0    0    0  0.00000000000E+00  0.00000000000E+00  0.14999999963E+04  0.15000000000E+04  0.10566000000E+00 0. -1.
        994   -1    0    0    0    0 -0.00000000000E+00 -0.00000000000E+00  0.11368683772E-12  0.17120000000E+03  0.17120000000E+03 0.  0.
         13    1    1    2    0    0  0.14329277274E+02 -0.13045577163E+02  0.56954590009E+02  0.60161048510E+02  0.10566000000E+00 0. -1.
        994    1    1    2    0    0  0.48309846986E+00  0.93852968590E+01  0.36179621723E+01  0.17149590908E+03  0.17120000000E+03 0.  0.
        998    1    1    2    0    0 -0.14812375744E+02  0.36602803037E+01  0.14394274441E+04  0.14395430424E+04  0.10000000000E+02 0. -1.
</event>
<event>
 5    1  0.1334136E-008  0.3826097E+03  0.7957747E-01  0.3439873E+00
         13   -1    0    0    0    0  0.00000000000E+00  0.00000000000E+00  0.14999999963E+04  0.15000000000E+04  0.10566000000E+00 0.  1.
        994   -1    0    0    0    0 -0.00000000000E+00 -0.00000000000E+00  0.11368683772E-12  0.17120000000E+03  0.17120000000E+03 0.  0.
         13    1    1    2    0    0 -0.89753235957E+01  0.57056067277E+01  0.20664002102E+02  0.23240536325E+02  0.10566000000E+00 0.  1.
        994    1    1    2    0    0 -0.24847112465E+02 -0.30058542358E+00  0.48707199512E+01  0.17306251259E+03  0.17120000000E+03 0.  0.
        998    1    1    2    0    0  0.33822436061E+02 -0.54050213041E+01  0.14744652742E+04  0.14748969511E+04  0.10000000000E+02 0.  1.
</event>
<event>
 5    1  0.1334136E-008  0.3838172E+03  0.7957747E-01  0.3434704E+00
         13   -1    0    0    0    0  0.00000000000E+00  0.00000000000E+00  0.14999999963E+04  0.15000000000E+04  0.10566000000E+00 0.  1.
        994   -1    0    0    0    0 -0.00000000000E+00 -0.00000000000E+00  0.11368683772E-12  0.17120000000E+03  0.17120000000E+03 0.  0.
         13    1    1    2    0    0 -0.10484034099E+02  0.13902533557E+02  0.68848597184E+02  0.71016448155E+02  0.10566000000E+00 0.  1.
        994    1    1    2    0    0  0.62314066479E+01 -0.61615932639E+01  0.24721075073E+01  0.17144196387E+03  0.17120000000E+03 0.  0.
        998    1    1    2    0    0  0.42526274515E+01 -0.77409402928E+01  0.14286792916E+04  0.14287415880E+04  0.10000000000E+02 0.  1.
</event>
<event>
 5    1  0.1334136E-008  0.3820407E+03  0.7957747E-01  0.3442321E+00
         13   -1    0    0    0    0  0.00000000000E+00  0.00000000000E+00  0.14999999963E+04  0.15000000000E+04  0.10566000000E+00 0.  1.
        994   -1    0    0    0    0 -0.00000000000E+00 -0.00000000000E+00  0.11368683772E-12  0.17120000000E+03  0.17120000000E+03 0.  0.
         13    1    1    2    0    0  0.15313026527E+02  0.22996892788E+02  0.13596534039E+03  0.13874411992E+03  0.10566000000E+00 0.  1.
        994    1    1    2    0    0 -0.56584763203E+01  0.26628181344E+01  0.32364056150E+01  0.17134474978E+03  0.17120000000E+03 0.  0.
        998    1    1    2    0    0 -0.96545502066E+01 -0.25659710923E+02  0.13607982503E+04  0.13611111303E+04  0.10000000000E+02 0.  1.
</event>
<event>
 5    1  0.1334136E-008  0.3772675E+03  0.7957747E-01  0.3463143E+00
         13   -1    0    0    0    0  0.00000000000E+00  0.00000000000E+00  0.14999999963E+04  0.15000000000E+04  0.10566000000E+00 0. -1.
        994   -1    0    0    0    0 -0.00000000000E+00 -0.00000000000E+00  0.11368683772E-12  0.17120000000E+03  0.17120000000E+03 0.  0.
         13    1    1    2    0    0 -0.34656620303E+02  0.50246030500E+01  0.10491388134E+03  0.11060407600E+03  0.10566000000E+00 0. -1.
        994    1    1    2    0    0  0.28294091848E+02 -0.12412000220E+02  0.87459117368E+01  0.17418537354E+03  0.17120000000E+03 0.  0.
        998    1    1    2    0    0  0.63625284555E+01  0.73873971704E+01  0.13863402032E+04  0.13864105505E+04  0.10000000000E+02 0. -1.
</event>
<event>
 5    1  0.1334136E-008  0.3822431E+03  0.7957747E-01  0.3441449E+00
         13   -1    0    0    0    0  0.00000000000E+00  0.00000000000E+00  0.14999999963E+04  0.15000000000E+04  0.10566000000E+00 0.  1.
        994   -1    0    0    0    0 -0.00000000000E+00 -0.00000000000E+00  0.11368683772E-12  0.17120000000E+03  0.17120000000E+03 0.  0.
         13    1    1    2    0    0 -0.13555109362E+02 -0.61339389699E+01  0.34722344078E+02  0.37775898923E+02  0.10566000000E+00 0.  1.
        994    1    1    2    0    0  0.15839123077E+02  0.91815983812E+01  0.41181043145E+01  0.17222537081E+03  0.17120000000E+03 0.  0.
        998    1    1    2    0    0 -0.22840137148E+01 -0.30476594114E+01  0.14611595479E+04  0.14611987303E+04  0.10000000000E+02 0.  1.
</event>
<event>
 5    1  0.1334136E-008  0.3823678E+03  0.7957747E-01  0.3440913E+00
         13   -1    0    0    0    0  0.00000000000E+00  0.00000000000E+00  0.14999999963E+04  0.15000000000E+04  0.10566000000E+00 0.  1.
        994   -1    0    0    0    0 -0.00000000000E+00 -0.00000000000E+00  0.11368683772E-12  0.17120000000E+03  0.17120000000E+03 0.  0.
         13    1    1    2    0    0 -0.20090155358E+02 -0.11721586641E+02  0.86777932826E+02  0.89841141607E+02  0.10566000000E+00 0.  1.
        994    1    1    2    0    0  0.20664088383E+02  0.10403575452E+02  0.47200306380E+01  0.17282059374E+03  0.17120000000E+03 0.  0.
        998    1    1    2    0    0 -0.57393302481E+00  0.13180111886E+01  0.14085020328E+04  0.14085382647E+04  0.10000000000E+02 0.  1.
</event>
<event>
 5    1  0.1334136E-008  0.3795659E+03  0.7957747E-01  0.3453051E+00
         13   -1    0    0    0    0  0.00000000000E+00  0.00000000000E+00  0.14999999963E+04  0.15000000000E+04  0.10566000000E+00 0.  1.
        994   -1    0    0    0    0 -0.00000000000E+00 -0.00000000000E+00  0.11368683772E-12  0.17120000000E+03  0.17120000000E+03 0.  0.
         13    1    1    2    0    0  0.11382457003E+02 -0.50097245490E+02  0.25299358226E+03  0.25815704166E+03  0.10566000000E+00 0.  1.
        994    1    1    2    0    0 -0.17357791277E+02  0.48702026315E+02  0.13353985209E+02  0.17933474066E+03  0.17120000000E+03 0.  0.
        998    1    1    2    0    0  0.59753342742E+01  0.13952191745E+01  0.12336524288E+04  0.12337082177E+04  0.10000000000E+02 0.  1.
</event>
<event>
 5    1  0.1453779E-008  0.3853619E+03  0.7957747E-01  0.3428139E+00
         13   -1    0    0    0    0  0.00000000000E+00  0.00000000000E+00  0.14999999963E+04  0.15000000000E+04  0.10566000000E+00 0.  1.
        994   -1    0    0    0    0 -0.00000000000E+00 -0.00000000000E+00  0.11368683772E-12  0.17120000000E+03  0.17120000000E+03 0.  0.
         13    1    1    2    0    0  0.11773527900E+02 -0.36356173450E+01  0.52431140447E+02  0.53859718950E+02  0.10566000000E+00 0.  1.
        994    1    1    2    0    0 -0.76728971525E+01  0.37471897019E+01  0.16901263005E+01  0.17142115187E+03  0.17120000000E+03 0.  0.
        998    1    1    2    0    0 -0.41006307479E+01 -0.11157235684E+00  0.14458787295E+04  0.14459191292E+04  0.10000000000E+02 0.  1.
</event>
<event>
 5    1  0.1334136E-008  0.3853548E+03  0.7957747E-01  0.3428169E+00
         13   -1    0    0    0    0  0.00000000000E+00  0.00000000000E+00  0.14999999963E+04  0.15000000000E+04  0.10566000000E+00 0. -1.
        994   -1    0    0    0    0 -0.00000000000E+00 -0.00000000000E+00  0.11368683772E-12  0.17120000000E+03  0.17120000000E+03 0.  0.
         13    1    1    2    0    0  0.10864047415E+02 -0.48044993424E+01  0.46805999118E+02  0.48289993349E+02  0.10566000000E+00 0. -1.
        994    1    1    2    0    0 -0.12012907412E+02  0.93752362257E+01  0.22172350525E+01  0.17189113162E+03  0.17120000000E+03 0.  0.
        998    1    1    2    0    0  0.11488599972E+01 -0.45707368832E+01  0.14509767621E+04  0.14510188750E+04  0.10000000000E+02 0. -1.
</event>
<event>
 5    1  0.1334136E-008  0.3794621E+03  0.7957747E-01  0.3453504E+00
         13   -1    0    0    0    0  0.00000000000E+00  0.00000000000E+00  0.14999999963E+04  0.15000000000E+04  0.10566000000E+00 0.  1.
        994   -1    0    0    0    0 -0.00000000000E+00 -0.00000000000E+00  0.11368683772E-12  0.17120000000E+03  0.17120000000E+03 0.  0.
         13    1    1    2    0    0  0.48318261076E+01 -0.11919585658E+02  0.17053841089E+02  0.21360424286E+02  0.10566000000E+00 0.  1.
        994    1    1    2    0    0 -0.89178049845E+01  0.22949412287E+01  0.46889552487E+01  0.17151157483E+03  0.17120000000E+03 0.  0.
        998    1    1    2    0    0  0.40859788770E+01  0.96246444291E+01  0.14782571999E+04  0.14783280009E+04  0.10000000000E+02 0.  1.
</event>
<event>
 5    1  0.1334136E-008  0.3829451E+03  0.7957747E-01  0.3438434E+00
         13   -1    0    0    0    0  0.00000000000E+00  0.00000000000E+00  0.14999999963E+04  0.15000000000E+04  0.10566000000E+00 0. -1.
        994   -1    0    0    0    0 -0.00000000000E+00 -0.00000000000E+00  0.11368683772E-12  0.17120000000E+03  0.17120000000E+03 0.  0.
         13    1    1    2    0    0 -0.58408767366E+01 -0.10997395151E+02  0.27301592665E+02  0.30007443531E+02  0.10566000000E+00 0. -1.
        994    1    1    2    0    0  0.81413979099E+01  0.17014588980E+02  0.38325871994E+01  0.17227857476E+03  0.17120000000E+03 0.  0.
        998    1    1    2    0    0 -0.23005211733E+01 -0.60171938294E+01  0.14688658164E+04  0.14689139817E+04  0.10000000000E+02 0. -1.
</event>
<event>
 5    1  0.1334136E-008  0.3756828E+03  0.7957747E-01  0.3470175E+00
         13   -1    0    0    0    0  0.00000000000E+00  0.00000000000E+00  0.14999999963E+04  0.15000000000E+04  0.10566000000E+00 0.  1.
        994   -1    0    0    0    0 -0.00000000000E+00 -0.00000000000E+00  0.11368683772E-12  0.17120000000E+03  0.17120000000E+03 0.  0.
         13    1    1    2    0    0  0.10630764341E+02 -0.48398835341E+01 -0.14955344192E+01  0.11776476992E+02  0.10566000000E+00 0.  1.
        994    1    1    2    0    0  0.85629500805E+01  0.12706527588E+01  0.14243192176E+02  0.17200943926E+03  0.17120000000E+03 0.  0.
        998    1    1    2    0    0 -0.19193714422E+02  0.35692307753E+01  0.14872523385E+04  0.14874140837E+04  0.10000000000E+02 0.  1.
</event>
<event>
 5    1  0.1334136E-008  0.3702889E+03  0.7957747E-01  0.3494564E+00
         13   -1    0    0    0    0  0.00000000000E+00  0.00000000000E+00  0.14999999963E+04  0.15000000000E+04  0.10566000000E+00 0. -1.
        994   -1    0    0    0    0 -0.00000000000E+00 -0.00000000000E+00  0.11368683772E-12  0.17120000000E+03  0.17120000000E+03 0.  0.
         13    1    1    2    0    0  0.99527499935E+02 -0.60322711289E+02  0.49802206799E+03  0.51143967788E+03  0.10566000000E+00 0. -1.
        994    1    1    2    0    0 -0.97819863135E+02  0.55361476647E+02  0.54113384761E+02  0.21182850878E+03  0.17120000000E+03 0.  0.
        998    1    1    2    0    0 -0.17076367999E+01  0.49612346416E+01  0.94786454353E+03  0.94793181334E+03  0.10000000000E+02 0. -1.
</event>
<event>
 5    1  0.1334136E-008  0.3781160E+03  0.7957747E-01  0.3459403E+00
         13   -1    0    0    0    0  0.00000000000E+00  0.00000000000E+00  0.14999999963E+04  0.15000000000E+04  0.10566000000E+00 0.  1.
        994   -1    0    0    0    0 -0.00000000000E+00 -0.00000000000E+00  0.11368683772E-12  0.17120000000E+03  0.17120000000E+03 0.  0.
         13    1    1    2    0    0  0.42080143085E+01 -0.28214384571E+02  0.79559712640E+02  0.84519334596E+02  0.10566000000E+00 0.  1.
        994    1    1    2    0    0  0.34407873129E+01  0.14191279264E+02  0.58047931697E+01  0.17191965289E+03  0.17120000000E+03 0.  0.
        998    1    1    2    0    0 -0.76488016214E+01  0.14023105307E+02  0.14146354905E+04  0.14147610125E+04  0.10000000000E+02 0.  1.
</event>
<event>
 5    1  0.1334136E-008  0.3745071E+03  0.7957747E-01  0.3475430E+00
         13   -1    0    0    0    0  0.00000000000E+00  0.00000000000E+00  0.14999999963E+04  0.15000000000E+04  0.10566000000E+00 0.  1.
        994   -1    0    0    0    0 -0.00000000000E+00 -0.00000000000E+00  0.11368683772E-12  0.17120000000E+03  0.17120000000E+03 0.  0.
         13    1    1    2    0    0  0.38822771896E+02  0.60949868523E+01  0.12251760893E+03  0.12866597120E+03  0.10566000000E+00 0.  1.
        994    1    1    2    0    0 -0.15811948937E+01  0.18534734596E+02  0.81111390677E+01  0.17239857059E+03  0.17120000000E+03 0.  0.
        998    1    1    2    0    0 -0.37241577002E+02 -0.24629721449E+02  0.13693712483E+04  0.13701354582E+04  0.10000000000E+02 0.  1.
</event>
<event>
 5    1  0.1334136E-008  0.3416437E+03  0.7957747E-01  0.3637307E+00
         13   -1    0    0    0    0  0.00000000000E+00  0.00000000000E+00  0.14999999963E+04  0.15000000000E+04  0.10566000000E+00 0.  1.
        994   -1    0    0    0    0 -0.00000000000E+00 -0.00000000000E+00  0.11368683772E-12  0.17120000000E+03  0.17120000000E+03 0.  0.
         13    1    1    2    0    0  0.78577023516E+02  0.21261054092E+03  0.90520974718E+03  0.93315716162E+03  0.10566000000E+00 0.  1.
        994    1    1    2    0    0 -0.99747201531E+02 -0.19799564210E+03  0.20459389132E+03  0.34687155961E+03  0.17120000000E+03 0.  0.
        998    1    1    2    0    0  0.21170178015E+02 -0.14614898825E+02  0.39019635778E+03  0.39117127877E+03  0.10000000000E+02 0.  1.
</event>
<event>
 5    1  0.1334136E-008  0.3847966E+03  0.7957747E-01  0.3430535E+00
         13   -1    0    0    0    0  0.00000000000E+00  0.00000000000E+00  0.14999999963E+04  0.15000000000E+04  0.10566000000E+00 0. -1.
        994   -1    0    0    0    0 -0.00000000000E+00 -0.00000000000E+00  0.11368683772E-12  0.17120000000E+03  0.17120000000E+03 0.  0.
         13    1    1    2    0    0  0.14606596089E+01  0.10763417122E+02  0.33193872758E+02  0.34926050841E+02  0.10566000000E+00 0. -1.
        994    1    1    2    0    0 -0.32566272494E+01 -0.11089730640E+02  0.21708892785E+01  0.17160343967E+03  0.17120000000E+03 0.  0.
        998    1    1    2    0    0  0.17959676404E+01  0.32631351839E+00  0.14646352342E+04  0.14646705095E+04  0.10000000000E+02 0. -1.
</event>
<event>
 5    1  0.1334136E-008  0.3840232E+03  0.7957747E-01  0.3433826E+00
         13   -1    0    0    0    0  0.00000000000E+00  0.00000000000E+00  0.14999999963E+04  0.15000000000E+04  0.10566000000E+00 0. -1.
        994   -1    0    0    0    0 -0.00000000000E+00 -0.00000000000E+00  0.11368683772E-12  0.17120000000E+03  0.17120000000E+03 0.  0.
         13    1    1    2    0    0  0.12077250700E+02  0.28326544484E+00  0.34319198855E+02  0.36383496229E+02  0.10566000000E+00 0. -1.
        994    1    1    2    0    0 -0.54081368257E+01 -0.56740000091E+01  0.23186220186E+01  0.17139503560E+03  0.17120000000E+03 0.  0.
        998    1    1    2    0    0 -0.66691138740E+01  0.53907345642E+01  0.14633621754E+04  0.14634214682E+04  0.10000000000E+02 0. -1.
</event>
<event>
 5    1  0.1334136E-008  0.3854791E+03  0.7957747E-01  0.3427643E+00
         13   -1    0    0    0    0  0.00000000000E+00  0.00000000000E+00  0.14999999963E+04  0.15000000000E+04  0.10566000000E+00 0.  1.
        994   -1    0    0    0    0 -0.00000000000E+00 -0.00000000000E+00  0.11368683772E-12  0.17120000000E+03  0.17120000000E+03 0.  0.
         13    1    1    2    0    0  0.84329037957E+01  0.12366597775E+02  0.74093265203E+02  0.75590143005E+02  0.10566000000E+00 0.  1.
        994    1    1    2    0    0 -0.14336830871E+02 -0.16812846955E+02  0.29972028215E+01  0.17264599551E+03  0.17120000000E+03 0.  0.
        998    1    1    2    0    0  0.59039270754E+01  0.44462491792E+01  0.14229095283E+04  0.14229638615E+04  0.10000000000E+02 0.  1.
</event>
<event>
 5    1  0.1334136E-008  0.3834190E+03  0.7957747E-01  0.3436405E+00
         13   -1    0    0    0    0  0.00000000000E+00  0.00000000000E+00  0.14999999963E+04  0.15000000000E+04  0.10566000000E+00 0. -1.
        994   -1    0    0    0    0 -0.00000000000E+00 -0.00000000000E+00  0.11368683772E-12  0.17120000000E+03  0.17120000000E+03 0.  0.
         13    1    1    2    0    0 -0.36277008100E+01  0.17342258179E+02  0.85209665996E+02  0.87032249627E+02  0.10566000000E+00 0. -1.
        994    1    1    2    0    0 -0.11202763844E+02  0.31267025278E+02  0.60721518288E+01  0.17449767854E+03  0.17120000000E+03 0.  0.
        998    1    1    2    0    0  0.14830464654E+02 -0.48609283458E+02  0.14087181785E+04  0.14096700718E+04  0.10000000000E+02 0. -1.
</event>
<event>
 5    1  0.1334136E-008  0.3810905E+03  0.7957747E-01  0.3446424E+00
         13   -1    0    0    0    0  0.00000000000E+00  0.00000000000E+00  0.14999999963E+04  0.15000000000E+04  0.10566000000E+00 0. -1.
        994   -1    0    0    0    0 -0.00000000000E+00 -0.00000000000E+00  0.11368683772E-12  0.17120000000E+03  0.17120000000E+03 0.  0.
         13    1    1    2    0    0  0.31508559802E+02  0.20178868098E+02  0.17873986434E+03  0.18261414602E+03  0.10566000000E+00 0. -1.
        994    1    1    2    0    0 -0.29095211743E+02 -0.15851725984E+02  0.72490223912E+01  0.17452735284E+03  0.17120000000E+03 0.  0.
        998    1    1    2    0    0 -0.24133480597E+01 -0.43271421137E+01  0.13140111095E+04  0.13140585011E+04  0.10000000000E+02 0. -1.
</event>
<event>
 5    1  0.1334136E-008  0.3845903E+03  0.7957747E-01  0.3431412E+00
         13   -1    0    0    0    0  0.00000000000E+00  0.00000000000E+00  0.14999999963E+04  0.15000000000E+04  0.10566000000E+00 0. -1.
        994   -1    0    0    0    0 -0.00000000000E+00 -0.00000000000E+00  0.11368683772E-12  0.17120000000E+03  0.17120000000E+03 0.  0.
         13    1    1    2    0    0  0.19711385552E+01 -0.12789493269E+02  0.45183314947E+02  0.46999996159E+02  0.10566000000E+00 0. -1.
        994    1    1    2    0    0 -0.31179804368E+01  0.92306745456E+01  0.21463570336E+01  0.17149044872E+03  0.17120000000E+03 0.  0.
        998    1    1    2    0    0  0.11468418815E+01  0.35588187232E+01  0.14526703243E+04  0.14527095551E+04  0.10000000000E+02 0. -1.
</event>
<event>
 5    1  0.1334136E-008  0.3849356E+03  0.7957747E-01  0.3429945E+00
         13   -1    0    0    0    0  0.00000000000E+00  0.00000000000E+00  0.14999999963E+04  0.15000000000E+04  0.10566000000E+00 0.  1.
        994   -1    0    0    0    0 -0.00000000000E+00 -0.00000000000E+00  0.11368683772E-12  0.17120000000E+03  0.17120000000E+03 0.  0.
         13    1    1    2    0    0 -0.12035448878E+02  0.65517156059E+01  0.55025738566E+02  0.56706437693E+02  0.10566000000E+00 0.  1.
        994    1    1    2    0    0  0.15527553885E+02  0.18970437912E+00  0.24556989167E+01  0.17192036347E+03  0.17120000000E+03 0.  0.
        998    1    1    2    0    0 -0.34921050067E+01 -0.67414199850E+01  0.14425185588E+04  0.14425731988E+04  0.10000000000E+02 0.  1.
</event>
<event>
 5    1  0.1334136E-008  0.3823751E+03  0.7957747E-01  0.3440881E+00
         13   -1    0    0    0    0  0.00000000000E+00  0.00000000000E+00  0.14999999963E+04  0.15000000000E+04  0.10566000000E+00 0. -1.
        994   -1    0    0    0    0 -0.00000000000E+00 -0.00000000000E+00  0.11368683772E-12  0.17120000000E+03  0.17120000000E+03 0.  0.
         13    1    1    2    0    0  0.22417471049E+01 -0.27903923160E+02  0.16015835977E+03  0.16258648691E+03  0.10566000000E+00 0. -1.
        994    1    1    2    0    0 -0.16846462729E+02 -0.81962844653E+01  0.41039976674E+01  0.17227090637E+03  0.17120000000E+03 0.  0.
        998    1    1    2    0    0  0.14604715624E+02  0.36100207625E+02  0.13357376388E+04  0.13363426067E+04  0.10000000000E+02 0. -1.
</event>
<event>
 5    1  0.1334136E-008  0.3795060E+03  0.7957747E-01  0.3453312E+00
         13   -1    0    0    0    0  0.00000000000E+00  0.00000000000E+00  0.14999999963E+04  0.15000000000E+04  0.10566000000E+00 0.  1.
        994   -1    0    0    0    0 -0.00000000000E+00 -0.00000000000E+00  0.11368683772E-12  0.17120000000E+03  0.17120000000E+03 0.  0.
         13    1    1    2    0    0  0.12277112181E+02 -0.51990920006E+02  0.27481657137E+03  0.27996060849E+03  0.10566000000E+00 0.  1.
        994    1    1    2    0    0  0.34588422348E+01  0.52657092254E+02  0.13764127471E+02  0.17967644297E+03  0.17120000000E+03 0.  0.
        998    1    1    2    0    0 -0.15735954415E+02 -0.66617224847E+00  0.12114192974E+04  0.12115629485E+04  0.10000000000E+02 0.  1.
</event>
<event>
 5    1  0.1334136E-008  0.3836014E+03  0.7957747E-01  0.3435625E+00
         13   -1    0    0    0    0  0.00000000000E+00  0.00000000000E+00  0.14999999963E+04  0.15000000000E+04  0.10566000000E+00 0. -1.
        994   -1    0    0    0    0 -0.00000000000E+00 -0.00000000000E+00  0.11368683772E-12  0.17120000000E+03  0.17120000000E+03 0.  0.
         13    1    1    2    0    0 -0.70265269052E+01  0.10173767397E+02  0.34318864110E+02  0.36478393896E+02  0.10566000000E+00 0. -1.
        994    1    1    2    0    0 -0.50866394608E+01  0.57153677603E+01  0.25195057168E+01  0.17138940235E+03  0.17120000000E+03 0.  0.
        998    1    1    2    0    0  0.12113166366E+02 -0.15889135157E+02  0.14631616265E+04  0.14633322038E+04  0.10000000000E+02 0. -1.
</event>
<event>
 5    1  0.1334136E-008  0.3819414E+03  0.7957747E-01  0.3442748E+00
         13   -1    0    0    0    0  0.00000000000E+00  0.00000000000E+00  0.14999999963E+04  0.15000000000E+04  0.10566000000E+00 0.  1.
        994   -1    0    0    0    0 -0.00000000000E+00 -0.00000000000E+00  0.11368683772E-12  0.17120000000E+03  0.17120000000E+03 0.  0.
         13    1    1    2    0    0 -0.12904651832E+02  0.63758256454E+01  0.34151312620E+02  0.37060821756E+02  0.10566000000E+00 0.  1.
        994    1    1    2    0    0 -0.23449549772E+02 -0.22076603903E+02  0.66093449008E+01  0.17432837194E+03  0.17120000000E+03 0.  0.
        998    1    1    2    0    0  0.36354201604E+02  0.15700778258E+02  0.14592393388E+04  0.14598108063E+04  0.10000000000E+02 0.  1.
</event>
<event>
 5    1  0.1334136E-008  0.3751706E+03  0.7957747E-01  0.3472460E+00
         13   -1    0    0    0    0  0.00000000000E+00  0.00000000000E+00  0.14999999963E+04  0.15000000000E+04  0.10566000000E+00 0. -1.
        994   -1    0    0    0    0 -0.00000000000E+00 -0.00000000000E+00  0.11368683772E-12  0.17120000000E+03  0.17120000000E+03 0.  0.
         13    1    1    2    0    0 -0.64544232402E+02 -0.68787572034E+02  0.26072066407E+03  0.27725974075E+03  0.10566000000E+00 0. -1.
        994    1    1    2    0    0  0.74896540865E+02  0.61273914910E+02  0.47840831333E+02  0.20239113030E+03  0.17120000000E+03 0.  0.
        998    1    1    2    0    0 -0.10352308463E+02  0.75136571241E+01  0.11914385009E+04  0.11915491290E+04  0.10000000000E+02 0. -1.
</event>
<event>
 5    1  0.1334136E-008  0.3815597E+03  0.7957747E-01  0.3444395E+00
         13   -1    0    0    0    0  0.00000000000E+00  0.00000000000E+00  0.14999999963E+04  0.15000000000E+04  0.10566000000E+00 0. -1.
        994   -1    0    0    0    0 -0.00000000000E+00 -0.00000000000E+00  0.11368683772E-12  0.17120000000E+03  0.17120000000E+03 0.  0.
         13    1    1    2    0    0 -0.13372262222E+02  0.21224197597E+01  0.25745659549E+02  0.29089039383E+02  0.10566000000E+00 0. -1.
        994    1    1    2    0    0  0.12220411778E+02 -0.91665619408E+01  0.41243933171E+01  0.17192968022E+03  0.17120000000E+03 0.  0.
        998    1    1    2    0    0  0.11518504439E+01  0.70441421811E+01  0.14701299434E+04  0.14701812804E+04  0.10000000000E+02 0. -1.
</event>
<event>
 5    1  0.1334136E-008  0.3814348E+03  0.7957747E-01  0.3444935E+00
         13   -1    0    0    0    0  0.00000000000E+00  0.00000000000E+00  0.14999999963E+04  0.15000000000E+04  0.10566000000E+00 0.  1.
        994   -1    0    0    0    0 -0.00000000000E+00 -0.00000000000E+00  0.11368683772E-12  0.17120000000E+03  0.17120000000E+03 0.  0.
         13    1    1    2    0    0 -0.11947577016E+02  0.67766391715E+01  0.25991224690E+02  0.29397659089E+02  0.10566000000E+00 0.  1.
        994    1    1    2    0    0  0.12965337518E+02 -0.48676276257E+01  0.40489867203E+01  0.17180695000E+03  0.17120000000E+03 0.  0.
        998    1    1    2    0    0 -0.10177605024E+01 -0.19090115458E+01  0.14699597849E+04  0.14699953909E+04  0.10000000000E+02 0.  1.
</event>
<event>
 5    1  0.1334136E-008  0.3696416E+03  0.7957747E-01  0.3497540E+00
         13   -1    0    0    0    0  0.00000000000E+00  0.00000000000E+00  0.14999999963E+04  0.15000000000E+04  0.10566000000E+00 0. -1.
        994   -1    0    0    0    0 -0.00000000000E+00 -0.00000000000E+00  0.11368683772E-12  0.17120000000E+03  0.17120000000E+03 0.  0.
         13    1    1    2    0    0 -0.26027047912E+02  0.16503235415E+02  0.47376851211E+02  0.56518503138E+02  0.10566000000E+00 0. -1.
        994    1    1    2    0    0  0.16307908128E+02 -0.11807042877E+01  0.10382586977E+02  0.17229213575E+03  0.17120000000E+03 0.  0.
        998    1    1    2    0    0  0.97191397834E+01 -0.15322531128E+02  0.14422405581E+04  0.14423893611E+04  0.10000000000E+02 0. -1.
</event>
<event>
 5    1  0.1334136E-008  0.3837351E+03  0.7957747E-01  0.3435055E+00
         13   -1    0    0    0    0  0.00000000000E+00  0.00000000000E+00  0.14999999963E+04  0.15000000000E+04  0.10566000000E+00 0.  1.
        994   -1    0    0    0    0 -0.00000000000E+00 -0.00000000000E+00  0.11368683772E-12  0.17120000000E+03  0.17120000000E+03 0.  0.
         13    1    1    2    0    0 -0.12450483437E+02 -0.18911725729E+02  0.10642987547E+03  0.10881175242E+03  0.10566000000E+00 0.  1.
        994    1    1    2    0    0  0.39359210766E+01  0.24666750862E+02  0.43225215433E+01  0.17306664689E+03  0.17120000000E+03 0.  0.
        998    1    1    2    0    0  0.85145623609E+01 -0.57550251332E+01  0.13892475993E+04  0.13893216007E+04  0.10000000000E+02 0.  1.
</event>
<event>
 5    1  0.1334136E-008  0.3745060E+03  0.7957747E-01  0.3475435E+00
         13   -1    0    0    0    0  0.00000000000E+00  0.00000000000E+00  0.14999999963E+04  0.15000000000E+04  0.10566000000E+00 0.  1.
        994   -1    0    0    0    0 -0.00000000000E+00 -0.00000000000E+00  0.11368683772E-12  0.17120000000E+03  0.17120000000E+03 0.  0.
         13    1    1    2    0    0 -0.12101544802E+02  0.94716860299E+01  0.26935084837E+01  0.15602127253E+02  0.10566000000E+00 0.  1.
        994    1    1    2    0    0  0.16651281277E+02 -0.84726099484E+01  0.14582331491E+02  0.17283267827E+03  0.17120000000E+03 0.  0.
        998    1    1    2    0    0 -0.45497364755E+01 -0.99907608144E+00  0.14827241563E+04  0.14827651945E+04  0.10000000000E+02 0.  1.
</event>
<event>
 5    1  0.1334136E-008  0.3825825E+03  0.7957747E-01  0.3439990E+00
         13   -1    0    0    0    0  0.00000000000E+00  0.00000000000E+00  0.14999999963E+04  0.15000000000E+04  0.10566000000E+00 0.  1.
        994   -1    0    0    0    0 -0.00000000000E+00 -0.00000000000E+00  0.11368683772E-12  0.17120000000E+03  0.17120000000E+03 0.  0.
         13    1    1    2    0    0 -0.21156891843E+02 -0.23719539642E+02  0.17806787586E+03  0.18088231038E+03  0.10566000000E+00 0.  1.
        994    1    1    2    0    0  0.17497720804E+02  0.87917666799E+01  0.41072303568E+01  0.17236523645E+03  0.17120000000E+03 0.  0.
        998    1    1    2    0    0  0.36591710394E+01  0.14927772963E+02  0.13178248901E+04  0.13179524532E+04  0.10000000000E+02 0.  1.
</event>
<event>
 5    1  0.1334136E-008  0.3686674E+03  0.7957747E-01  0.3502038E+00
         13   -1    0    0    0    0  0.00000000000E+00  0.00000000000E+00  0.14999999963E+04  0.15000000000E+04  0.10566000000E+00 0.  1.
        994   -1    0    0    0    0 -0.00000000000E+00 -0.00000000000E+00  0.11368683772E-12  0.17120000000E+03  0.17120000000E+03 0.  0.
         13    1    1    2    0    0 -0.96162442607E+02 -0.29807787953E+02  0.36381787382E+03  0.37749063043E+03  0.10566000000E+00 0.  1.
        994    1    1    2    0    0  0.12188183808E+03 -0.32132986022E+02  0.67754170918E+02  0.22313175238E+03  0.17120000000E+03 0.  0.
        998    1    1    2    0    0 -0.25719395470E+02  0.61940773974E+02  0.10684279515E+04  0.10705776172E+04  0.10000000000E+02 0.  1.
</event>
<event>
 5    1  0.1334136E-008  0.3854637E+03  0.7957747E-01  0.3427708E+00
         13   -1    0    0    0    0  0.00000000000E+00  0.00000000000E+00  0.14999999963E+04  0.15000000000E+04  0.10566000000E+00 0.  1.
        994   -1    0    0    0    0 -0.00000000000E+00 -0.00000000000E+00  0.11368683772E-12  0.17120000000E+03  0.17120000000E+03 0.  0.
         13    1    1    2    0    0  0.12706285687E+02  0.11603790895E+00  0.56719661507E+02  0.58125676996E+02  0.10566000000E+00 0.  1.
        994    1    1    2    0    0 -0.11789434400E+02  0.13622618426E+01  0.18627158125E+01  0.17162096676E+03  0.17120000000E+03 0.  0.
        998    1    1    2    0    0 -0.91685128649E+00 -0.14782997515E+01  0.14414176190E+04  0.14414533562E+04  0.10000000000E+02 0.  1.
</event>
<event>
 5    1  0.1334136E-008  0.3767746E+03  0.7957747E-01  0.3465324E+00
         13   -1    0    0    0    0  0.00000000000E+00  0.00000000000E+00  0.14999999963E+04  0.15000000000E+04  0.10566000000E+00 0.  1.
        994   -1    0    0    0    0 -0.00000000000E+00 -0.00000000000E+00  0.11368683772E-12  0.17120000000E+03  0.17120000000E+03 0.  0.
         13    1    1    2    0    0  0.12583516356E+02  0.84829665881E+02  0.44716272858E+03  0.45531190857E+03  0.10566000000E+00 0.  1.
        994    1    1    2    0    0 -0.67863404012E+01 -0.84715581291E+02  0.30579292003E+02  0.19356476236E+03  0.17120000000E+03 0.  0.
        998    1    1    2    0    0 -0.57971759549E+01 -0.11408459002E+00  0.10222579757E+04  0.10223233291E+04  0.10000000000E+02 0.  1.
</event>
<event>
 5    1  0.1334136E-008  0.3821573E+03  0.7957747E-01  0.3441819E+00
         13   -1    0    0    0    0  0.00000000000E+00  0.00000000000E+00  0.14999999963E+04  0.15000000000E+04  0.10566000000E+00 0. -1.
        994   -1    0    0    0    0 -0.00000000000E+00 -0.00000000000E+00  0.11368683772E-12  0.17120000000E+03  0.17120000000E+03 0.  0.
         13    1    1    2    0    0 -0.10598093284E+02  0.27701331342E+02  0.16682236555E+03  0.16943847305E+03  0.10566000000E+00 0. -1.
        994    1    1    2    0    0 -0.45123458182E+02 -0.19815976763E+02  0.11152166483E+02  0.17850100905E+03  0.17120000000E+03 0.  0.
        998    1    1    2    0    0  0.55721551466E+02 -0.78853545788E+01  0.13220254642E+04  0.13232605179E+04  0.10000000000E+02 0. -1.
</event>
<event>
 5    1  0.1334136E-008  0.3749417E+03  0.7957747E-01  0.3473483E+00
         13   -1    0    0    0    0  0.00000000000E+00  0.00000000000E+00  0.14999999963E+04  0.15000000000E+04  0.10566000000E+00 0.  1.
        994   -1    0    0    0    0 -0.00000000000E+00 -0.00000000000E+00  0.11368683772E-12  0.17120000000E+03  0.17120000000E+03 0.  0.
         13    1    1    2    0    0 -0.91524269602E+02 -0.45469798110E+01  0.34715360714E+03  0.35904457253E+03  0.10566000000E+00 0.  1.
        994    1    1    2    0    0  0.32585955368E+02  0.33406122444E+02  0.21364545432E+02  0.17872799810E+03  0.17120000000E+03 0.  0.
        998    1    1    2    0    0  0.58938314234E+02 -0.28859142633E+02  0.11314818437E+04  0.11334274294E+04  0.10000000000E+02 0.  1.
</event>
<event>
 5    1  0.1334136E-008  0.3814272E+03  0.7957747E-01  0.3444968E+00
         13   -1    0    0    0    0  0.00000000000E+00  0.00000000000E+00  0.14999999963E+04  0.15000000000E+04  0.10566000000E+00 0. -1.
        994   -1    0    0    0    0 -0.00000000000E+00 -0.00000000000E+00  0.11368683772E-12  0.17120000000E+03  0.17120000000E+03 0.  0.
         13    1    1    2    0    0  0.12122262301E+02  0.11675971482E+02  0.39486946080E+02  0.42924440918E+02  0.10566000000E+00 0. -1.
        994    1    1    2    0    0 -0.14306722460E+02 -0.87614266272E+01  0.43514238924E+01  0.17207504117E+03  0.17120000000E+03 0.  0.
        998    1    1    2    0    0  0.21844601593E+01 -0.29145448547E+01  0.14561616263E+04  0.14562005179E+04  0.10000000000E+02 0. -1.
</event>
<event>
 5    1  0.1334136E-008  0.3845827E+03  0.7957747E-01  0.3431444E+00
         13   -1    0    0    0    0  0.00000000000E+00  0.00000000000E+00  0.14999999963E+04  0.15000000000E+04  0.10566000000E+00 0. -1.
        994   -1    0    0    0    0 -0.00000000000E+00 -0.00000000000E+00  0.11368683772E-12  0.17120000000E+03  0.17120000000E+03 0.  0.
         13    1    1    2    0    0 -0.10744863424E+02 -0.53842788115E+01  0.38759331804E+02  0.40580038372E+02  0.10566000000E+00 0. -1.
        994    1    1    2    0    0  0.10299319664E+02  0.42476638503E+00  0.21874646721E+01  0.17152399661E+03  0.17120000000E+03 0.  0.
        998    1    1    2    0    0  0.44554376004E+00  0.49595124265E+01  0.14590531998E+04  0.14590959650E+04  0.10000000000E+02 0. -1.
</event>
<event>
 5    1  0.1334136E-008  0.3804045E+03  0.7957747E-01  0.3449399E+00
         13   -1    0    0    0    0  0.00000000000E+00  0.00000000000E+00  0.14999999963E+04  0.15000000000E+04  0.10566000000E+00 0.  1.
        994   -1    0    0    0    0 -0.00000000000E+00 -0.00000000000E+00  0.11368683772E-12  0.17120000000E+03  0.17120000000E+03 0.  0.
         13    1    1    2    0    0 -0.42314307279E+02 -0.34313799529E+02  0.30381143509E+03  0.30865731272E+03  0.10566000000E+00 0.  1.
        994    1    1    2    0    0  0.43634371755E+02  0.31974420177E+02  0.13760993331E+02  0.18006978337E+03  0.17120000000E+03 0.  0.
        998    1    1    2    0    0 -0.13200644761E+01  0.23393793512E+01  0.11824275679E+04  0.11824729039E+04  0.10000000000E+02 0.  1.
</event>
<event>
 5    1  0.1334136E-008  0.3845852E+03  0.7957747E-01  0.3431433E+00
         13   -1    0    0    0    0  0.00000000000E+00  0.00000000000E+00  0.14999999963E+04  0.15000000000E+04  0.10566000000E+00 0.  1.
        994   -1    0    0    0    0 -0.00000000000E+00 -0.00000000000E+00  0.11368683772E-12  0.17120000000E+03  0.17120000000E+03 0.  0.
         13    1    1    2    0    0 -0.14453871114E+02 -0.17222976889E+01  0.53269104693E+02  0.55222181941E+02  0.10566000000E+00 0.  1.
        994    1    1    2    0    0  0.26769552673E+02 -0.19909658853E+02  0.55100248907E+01  0.17450731744E+03  0.17120000000E+03 0.  0.
        998    1    1    2    0    0 -0.12315681559E+02  0.21631956542E+02  0.14412208667E+04  0.14414705006E+04  0.10000000000E+02 0.  1.
</event>
<event>
 5    1  0.1334136E-008  0.3835201E+03  0.7957747E-01  0.3435973E+00
         13   -1    0    0    0    0  0.00000000000E+00  0.00000000000E+00  0.14999999963E+04  0.15000000000E+04  0.10566000000E+00 0.  1.
        994   -1    0    0    0    0 -0.00000000000E+00 -0.00000000000E+00  0.11368683772E-12  0.17120000000E+03  0.17120000000E+03 0.  0.
         13    1    1    2    0    0 -0.28869812666E+01  0.19531657460E+02  0.90089673698E+02  0.92227874176E+02  0.10566000000E+00 0.  1.
        994    1    1    2    0    0  0.88563370186E+01  0.39392202896E+01  0.26771704951E+01  0.17149507108E+03  0.17120000000E+03 0.  0.
        998    1    1    2    0    0 -0.59693557521E+01 -0.23470877750E+02  0.14072331521E+04  0.14074770547E+04  0.10000000000E+02 0.  1.
</event>
<event>
 5    1  0.1334136E-008  0.3805457E+03  0.7957747E-01  0.3448786E+00
         13   -1    0    0    0    0  0.00000000000E+00  0.00000000000E+00  0.14999999963E+04  0.15000000000E+04  0.10566000000E+00 0.  1.
        994   -1    0    0    0    0 -0.00000000000E+00 -0.00000000000E+00  0.11368683772E-12  0.17120000000E+03  0.17120000000E+03 0.  0.
         13    1    1    2    0    0  0.38929678526E+01  0.12863685463E+02  0.21528047357E+02  0.25379077789E+02  0.10566000000E+00 0.  1.
        994    1    1    2    0    0 -0.12233310943E+01 -0.14659637048E+02  0.45803497900E+01  0.17189188783E+03  0.17120000000E+03 0.  0.
        998    1    1    2    0    0 -0.26696367583E+01  0.17959515852E+01  0.14738915991E+04  0.14739290344E+04  0.10000000000E+02 0.  1.
</event>
<event>
 5    1  0.1334136E-008  0.3699972E+03  0.7957747E-01  0.3495904E+00
         13   -1    0    0    0    0  0.00000000000E+00  0.00000000000E+00  0.14999999963E+04  0.15000000000E+04  0.10566000000E+00 0.  1.
        994   -1    0    0    0    0 -0.00000000000E+00 -0.00000000000E+00  0.11368683772E-12  0.17120000000E+03  0.17120000000E+03 0.  0.
         13    1    1    2    0    0 -0.43278986222E+02 -0.12927718413E+03  0.58240452034E+03  0.59814772210E+03  0.10566000000E+00 0.  1.
        994    1    1    2    0    0  0.39198560267E+02  0.12956657962E+03  0.75579427520E+02  0.23096691439E+03  0.17120000000E+03 0.  0.
        998    1    1    2    0    0  0.40804259557E+01 -0.28939548480E+00  0.84201604842E+03  0.84208536350E+03  0.10000000000E+02 0.  0.
</event>
<event>
 5    1  0.1334136E-008  0.3802446E+03  0.7957747E-01  0.3450094E+00
         13   -1    0    0    0    0  0.00000000000E+00  0.00000000000E+00  0.14999999963E+04  0.15000000000E+04  0.10566000000E+00 0. -1.
        994   -1    0    0    0    0 -0.00000000000E+00 -0.00000000000E+00  0.11368683772E-12  0.17120000000E+03  0.17120000000E+03 0.  0.
         13    1    1    2    0    0  0.13524280474E+02 -0.13317312776E+02  0.41014551511E+02  0.45193601114E+02  0.10566000000E+00 0. -1.
        994    1    1    2    0    0 -0.27512005964E+02  0.13071579729E+02  0.71148974239E+01  0.17403401516E+03  0.17120000000E+03 0.  0.
        998    1    1    2    0    0  0.13987725490E+02  0.24573304712E+00  0.14518705473E+04  0.14519723837E+04  0.10000000000E+02 0. -1.
</event>
<event>
 5    1  0.1334136E-008  0.3712500E+03  0.7957747E-01  0.3490166E+00
         13   -1    0    0    0    0  0.00000000000E+00  0.00000000000E+00  0.14999999963E+04  0.15000000000E+04  0.10566000000E+00 0. -1.
        994   -1    0    0    0    0 -0.00000000000E+00 -0.00000000000E+00  0.11368683772E-12  0.17120000000E+03  0.17120000000E+03 0.  0.
         13    1    1    2    0    0 -0.56907932896E+01 -0.34241080065E+02  0.73022533854E+02  0.80852571430E+02  0.10566000000E+00 0. -1.
        994    1    1    2    0    0 -0.31201295810E+02  0.65037592709E+00  0.11977638878E+02  0.17443293176E+03  0.17120000000E+03 0.  0.
        998    1    1    2    0    0  0.36892089100E+02  0.33590704138E+02  0.14149998235E+04  0.14159144968E+04  0.10000000000E+02 0. -1.
</event>
<event>
 5    1  0.1334136E-008  0.3806324E+03  0.7957747E-01  0.3448410E+00
         13   -1    0    0    0    0  0.00000000000E+00  0.00000000000E+00  0.14999999963E+04  0.15000000000E+04  0.10566000000E+00 0.  1.
        994   -1    0    0    0    0 -0.00000000000E+00 -0.00000000000E+00  0.11368683772E-12  0.17120000000E+03  0.17120000000E+03 0.  0.
         13    1    1    2    0    0  0.21820601726E+01 -0.30694811282E+02  0.14068916220E+03  0.14401522264E+03  0.10566000000E+00 0.  1.
        994    1    1    2    0    0 -0.62989229453E+01 -0.30203911116E+01  0.39770825058E+01  0.17138861216E+03  0.17120000000E+03 0.  0.
        998    1    1    2    0    0  0.41168627727E+01  0.33715202393E+02  0.13553337516E+04  0.13557961652E+04  0.10000000000E+02 0.  1.
</event>
<event>
 5    1  0.1334136E-008  0.3702917E+03  0.7957747E-01  0.3494551E+00
         13   -1    0    0    0    0  0.00000000000E+00  0.00000000000E+00  0.14999999963E+04  0.15000000000E+04  0.10566000000E+00 0.  1.
        994   -1    0    0    0    0 -0.00000000000E+00 -0.00000000000E+00  0.11368683772E-12  0.17120000000E+03  0.17120000000E+03 0.  0.
         13    1    1    2    0    0  0.10043639080E+02 -0.11358513656E+01 -0.45085641177E+00  0.10118264665E+02  0.10566000000E+00 0.  1.
        994    1    1    2    0    0  0.14608051116E+02 -0.53859333861E+01  0.11941889140E+02  0.17232078271E+03  0.17120000000E+03 0.  0.
        998    1    1    2    0    0 -0.24651690196E+02  0.65217847517E+01  0.14885089636E+04  0.14887609526E+04  0.10000000000E+02 0.  1.
</event>
<event>
 5    1  0.1334136E-008  0.3861303E+03  0.7957747E-01  0.3424893E+00
         13   -1    0    0    0    0  0.00000000000E+00  0.00000000000E+00  0.14999999963E+04  0.15000000000E+04  0.10566000000E+00 0.  1.
        994   -1    0    0    0    0 -0.00000000000E+00 -0.00000000000E+00  0.11368683772E-12  0.17120000000E+03  0.17120000000E+03 0.  0.
         13    1    1    2    0    0 -0.74199343208E+01  0.98251903712E+01  0.68567321879E+02  0.69664040830E+02  0.10566000000E+00 0.  1.
        994    1    1    2    0    0  0.26072811802E+02  0.11358017081E+01  0.33048365024E+01  0.17320924775E+03  0.17120000000E+03 0.  0.
        998    1    1    2    0    0 -0.18652877481E+02 -0.10960992079E+02  0.14281278379E+04  0.14283267114E+04  0.10000000000E+02 0.  1.
</event>
<event>
 5    1  0.1334136E-008  0.3836640E+03  0.7957747E-01  0.3435358E+00
         13   -1    0    0    0    0  0.00000000000E+00  0.00000000000E+00  0.14999999963E+04  0.15000000000E+04  0.10566000000E+00 0. -1.
        994   -1    0    0    0    0 -0.00000000000E+00 -0.00000000000E+00  0.11368683772E-12  0.17120000000E+03  0.17120000000E+03 0.  0.
         13    1    1    2    0    0  0.21171047969E+02 -0.21926664197E+01  0.10611387236E+03  0.10822747401E+03  0.10566000000E+00 0. -1.
        994    1    1    2    0    0 -0.28322582990E+01 -0.59688095529E+01  0.24390963278E+01  0.17134479147E+03  0.17120000000E+03 0.  0.
        998    1    1    2    0    0 -0.18338789670E+02  0.81614759725E+01  0.13914470276E+04  0.13916277345E+04  0.10000000000E+02 0. -1.
</event>
<event>
 5    1  0.1334136E-008  0.3816405E+03  0.7957747E-01  0.3444046E+00
         13   -1    0    0    0    0  0.00000000000E+00  0.00000000000E+00  0.14999999963E+04  0.15000000000E+04  0.10566000000E+00 0.  1.
        994   -1    0    0    0    0 -0.00000000000E+00 -0.00000000000E+00  0.11368683772E-12  0.17120000000E+03  0.17120000000E+03 0.  0.
         13    1    1    2    0    0 -0.13883842790E+02  0.12833495286E+02  0.50756020825E+02  0.54163128657E+02  0.10566000000E+00 0.  1.
        994    1    1    2    0    0  0.18048486210E+02 -0.13416866681E+02  0.49907405634E+01  0.17274289467E+03  0.17120000000E+03 0.  0.
        998    1    1    2    0    0 -0.41646434204E+01  0.58337139526E+00  0.14442532349E+04  0.14442939767E+04  0.10000000000E+02 0.  1.
</event>
<event>
 5    1  0.1334136E-008  0.3845080E+03  0.7957747E-01  0.3431761E+00
         13   -1    0    0    0    0  0.00000000000E+00  0.00000000000E+00  0.14999999963E+04  0.15000000000E+04  0.10566000000E+00 0. -1.
        994   -1    0    0    0    0 -0.00000000000E+00 -0.00000000000E+00  0.11368683772E-12  0.17120000000E+03  0.17120000000E+03 0.  0.
         13    1    1    2    0    0 -0.77770021852E+01 -0.77364993010E+01  0.31628653298E+02  0.33477127384E+02  0.10566000000E+00 0. -1.
        994    1    1    2    0    0  0.58073986796E+01  0.54398240677E+01  0.20831741106E+01  0.17139748300E+03  0.17120000000E+03 0.  0.
        998    1    1    2    0    0  0.19696035056E+01  0.22966752333E+01  0.14662881689E+04  0.14663253896E+04  0.10000000000E+02 0. -1.
</event>
<event>
 5    1  0.1334136E-008  0.3862740E+03  0.7957747E-01  0.3424287E+00
         13   -1    0    0    0    0  0.00000000000E+00  0.00000000000E+00  0.14999999963E+04  0.15000000000E+04  0.10566000000E+00 0.  1.
        994   -1    0    0    0    0 -0.00000000000E+00 -0.00000000000E+00  0.11368683772E-12  0.17120000000E+03  0.17120000000E+03 0.  0.
         13    1    1    2    0    0 -0.11298849328E+02 -0.14558055960E+01  0.68668641549E+02  0.69607304662E+02  0.10566000000E+00 0.  1.
        994    1    1    2    0    0  0.21737523062E+01  0.63376135484E+01  0.11459482612E+01  0.17133488770E+03  0.17120000000E+03 0.  0.
        998    1    1    2    0    0  0.91250970214E+01 -0.48818079524E+01  0.14301854065E+04  0.14302578076E+04  0.10000000000E+02 0.  1.
</event>
<event>
 5    1  0.1334136E-008  0.3839612E+03  0.7957747E-01  0.3434090E+00
         13   -1    0    0    0    0  0.00000000000E+00  0.00000000000E+00  0.14999999963E+04  0.15000000000E+04  0.10566000000E+00 0. -1.
        994   -1    0    0    0    0 -0.00000000000E+00 -0.00000000000E+00  0.11368683772E-12  0.17120000000E+03  0.17120000000E+03 0.  0.
         13    1    1    2    0    0  0.34762186961E+02 -0.20400119771E+01  0.20405994261E+03  0.20700976459E+03  0.10566000000E+00 0. -1.
        994    1    1    2    0    0 -0.53879335403E+02  0.11431733696E+02  0.12222181977E+02  0.18025673095E+03  0.17120000000E+03 0.  0.
        998    1    1    2    0    0  0.19117148443E+02 -0.93917217190E+01  0.12837178717E+04  0.12839335045E+04  0.10000000000E+02 0. -1.
</event>
<event>
 5    1  0.1334136E-008  0.3823507E+03  0.7957747E-01  0.3440986E+00
         13   -1    0    0    0    0  0.00000000000E+00  0.00000000000E+00  0.14999999963E+04  0.15000000000E+04  0.10566000000E+00 0.  1.
        994   -1    0    0    0    0 -0.00000000000E+00 -0.00000000000E+00  0.11368683772E-12  0.17120000000E+03  0.17120000000E+03 0.  0.
         13    1    1    2    0    0  0.65910844806E+01 -0.12703370882E+02  0.34100086733E+02  0.36981686084E+02  0.10566000000E+00 0.  1.
        994    1    1    2    0    0 -0.26677177515E+01  0.55364656199E+01  0.30764870333E+01  0.17133789406E+03  0.17120000000E+03 0.  0.
        998    1    1    2    0    0 -0.39233667291E+01  0.71669052617E+01  0.14628234225E+04  0.14628804199E+04  0.10000000000E+02 0.  1.
</event>
<event>
 5    1  0.1334136E-008  0.4301480E+03  0.7957747E-01  0.3258197E+00
         13   -1    0    0    0    0  0.00000000000E+00  0.00000000000E+00  0.14999999963E+04  0.15000000000E+04  0.10566000000E+00 0.  1.
        994   -1    0    0    0    0 -0.00000000000E+00 -0.00000000000E+00  0.11368683772E-12  0.17120000000E+03  0.17120000000E+03 0.  0.
         13    1    1    2    0    0 -0.31401853814E+02  0.14740419864E+03  0.20584168100E+03  0.25511739062E+03  0.10566000000E+00 0.  1.
        994    1    1    2    0    0  0.49210048426E+02 -0.12457753201E+03  0.13365472448E+03  0.25517487283E+03  0.17120000000E+03 0.  0.
        998    1    1    2    0    0 -0.17808194612E+02 -0.22826666628E+02  0.11605035908E+04  0.11609077365E+04  0.10000000000E+02 0.  1.
</event>
<event>
 5    1  0.1334136E-008  0.3497687E+03  0.7957747E-01  0.3594371E+00
         13   -1    0    0    0    0  0.00000000000E+00  0.00000000000E+00  0.14999999963E+04  0.15000000000E+04  0.10566000000E+00 0. -1.
        994   -1    0    0    0    0 -0.00000000000E+00 -0.00000000000E+00  0.11368683772E-12  0.17120000000E+03  0.17120000000E+03 0.  0.
         13    1    1    2    0    0  0.27812250211E+03  0.50576220230E+02  0.79174982896E+03  0.84070082851E+03  0.10566000000E+00 0. -1.
        994    1    1    2    0    0 -0.27345121307E+03 -0.51767538474E+02  0.37630193001E+03  0.49836535443E+03  0.17120000000E+03 0.  0.
        998    1    1    2    0    0 -0.46712890449E+01  0.11913182437E+01  0.33194823731E+03  0.33213381706E+03  0.10000000000E+02 0.  0.
</event>
<event>
 5    1  0.1334136E-008  0.3822866E+03  0.7957747E-01  0.3441262E+00
         13   -1    0    0    0    0  0.00000000000E+00  0.00000000000E+00  0.14999999963E+04  0.15000000000E+04  0.10566000000E+00 0.  1.
        994   -1    0    0    0    0 -0.00000000000E+00 -0.00000000000E+00  0.11368683772E-12  0.17120000000E+03  0.17120000000E+03 0.  0.
         13    1    1    2    0    0 -0.22768038550E+02  0.52836434820E+01  0.86400741844E+02  0.89506423362E+02  0.10566000000E+00 0.  1.
        994    1    1    2    0    0  0.23169045748E+02 -0.30063081491E+01  0.47964386869E+01  0.17285337253E+03  0.17120000000E+03 0.  0.
        998    1    1    2    0    0 -0.40100719785E+00 -0.22773353329E+01  0.14088028157E+04  0.14088402041E+04  0.10000000000E+02 0.  1.
</event>
<event>
 5    1  0.1334136E-008  0.3707092E+03  0.7957747E-01  0.3492638E+00
         13   -1    0    0    0    0  0.00000000000E+00  0.00000000000E+00  0.14999999963E+04  0.15000000000E+04  0.10566000000E+00 0. -1.
        994   -1    0    0    0    0 -0.00000000000E+00 -0.00000000000E+00  0.11368683772E-12  0.17120000000E+03  0.17120000000E+03 0.  0.
         13    1    1    2    0    0  0.49359370861E+02  0.22855030553E+02  0.11885955497E+03  0.13071459323E+03  0.10566000000E+00 0. -1.
        994    1    1    2    0    0 -0.46839408170E+02 -0.21155142953E+02  0.20629899228E+02  0.17993471864E+03  0.17120000000E+03 0.  0.
        998    1    1    2    0    0 -0.25199626907E+01 -0.16998876008E+01  0.13605105421E+04  0.13605506881E+04  0.10000000000E+02 0.  0.
</event>
<event>
 5    1  0.1334136E-008  0.3837446E+03  0.7957747E-01  0.3435014E+00
         13   -1    0    0    0    0  0.00000000000E+00  0.00000000000E+00  0.14999999963E+04  0.15000000000E+04  0.10566000000E+00 0.  1.
        994   -1    0    0    0    0 -0.00000000000E+00 -0.00000000000E+00  0.11368683772E-12  0.17120000000E+03  0.17120000000E+03 0.  0.
         13    1    1    2    0    0 -0.70962038847E+00 -0.14458421690E+02  0.47201712467E+02  0.49371675511E+02  0.10566000000E+00 0.  1.
        994    1    1    2    0    0 -0.45893767540E+01  0.39421283658E+01  0.23755714807E+01  0.17132333786E+03  0.17120000000E+03 0.  0.
        998    1    1    2    0    0  0.52989971425E+01  0.10516293325E+02  0.14504227123E+04  0.14505049866E+04  0.10000000000E+02 0.  1.
</event>
<event>
 5    1  0.3776386E-008  0.3861599E+03  0.7957747E-01  0.3424768E+00
         13   -1    0    0    0    0  0.00000000000E+00  0.00000000000E+00  0.14999999963E+04  0.15000000000E+04  0.10566000000E+00 0.  1.
        994   -1    0    0    0    0 -0.00000000000E+00 -0.00000000000E+00  0.11368683772E-12  0.17120000000E+03  0.17120000000E+03 0.  0.
         13    1    1    2    0    0 -0.10296313511E+02  0.96174260472E+00  0.49538532199E+02  0.50606485328E+02  0.10566000000E+00 0.  1.
        994    1    1    2    0    0  0.12372774490E+02 -0.11807076766E+01  0.15616401410E+01  0.17165767778E+03  0.17120000000E+03 0.  0.
        998    1    1    2    0    0 -0.20764609791E+01  0.21896507188E+00  0.14488998239E+04  0.14489358369E+04  0.10000000000E+02 0.  1.
</event>
<event>
 5    1  0.1334136E-008  0.3828644E+03  0.7957747E-01  0.3438780E+00
         13   -1    0    0    0    0  0.00000000000E+00  0.00000000000E+00  0.14999999963E+04  0.15000000000E+04  0.10566000000E+00 0.  1.
        994   -1    0    0    0    0 -0.00000000000E+00 -0.00000000000E+00  0.11368683772E-12  0.17120000000E+03  0.17120000000E+03 0.  0.
         13    1    1    2    0    0  0.99209414680E+01 -0.11914056680E+02  0.49014752713E+02  0.51408432905E+02  0.10566000000E+00 0.  1.
        994    1    1    2    0    0  0.19050512342E+02 -0.35058499594E+01  0.39376894523E+01  0.17233733897E+03  0.17120000000E+03 0.  0.
        998    1    1    2    0    0 -0.28971453810E+02  0.15419906640E+02  0.14470475541E+04  0.14474542281E+04  0.10000000000E+02 0.  1.
</event>
<event>
 5    1  0.1334136E-008  0.3845053E+03  0.7957747E-01  0.3431773E+00
         13   -1    0    0    0    0  0.00000000000E+00  0.00000000000E+00  0.14999999963E+04  0.15000000000E+04  0.10566000000E+00 0.  1.
        994   -1    0    0    0    0 -0.00000000000E+00 -0.00000000000E+00  0.11368683772E-12  0.17120000000E+03  0.17120000000E+03 0.  0.
         13    1    1    2    0    0  0.11320411667E+02 -0.88277103553E+00  0.32711548930E+02  0.34626400368E+02  0.10566000000E+00 0.  1.
        994    1    1    2    0    0 -0.15787422373E+02  0.11127491259E+02  0.31057502620E+01  0.17231410114E+03  0.17120000000E+03 0.  0.
        998    1    1    2    0    0  0.44670107059E+01 -0.10244720224E+02  0.14641826971E+04  0.14642594985E+04  0.10000000000E+02 0.  1.
</event>
<event>
 5    1  0.1334136E-008  0.3851226E+03  0.7957747E-01  0.3429152E+00
         13   -1    0    0    0    0  0.00000000000E+00  0.00000000000E+00  0.14999999963E+04  0.15000000000E+04  0.10566000000E+00 0.  1.
        994   -1    0    0    0    0 -0.00000000000E+00 -0.00000000000E+00  0.11368683772E-12  0.17120000000E+03  0.17120000000E+03 0.  0.
         13    1    1    2    0    0  0.76424579909E+01  0.12710580458E+02  0.77688238833E+02  0.79091337305E+02  0.10566000000E+00 0.  1.
        994    1    1    2    0    0  0.10642604173E+02 -0.14130354026E+01  0.19482720604E+01  0.17154736214E+03  0.17120000000E+03 0.  0.
        998    1    1    2    0    0 -0.18285062164E+02 -0.11297545055E+02  0.14203634854E+04  0.14205613006E+04  0.10000000000E+02 0.  1.
</event>
<event>
 5    1  0.1334136E-008  0.3732127E+03  0.7957747E-01  0.3481255E+00
         13   -1    0    0    0    0  0.00000000000E+00  0.00000000000E+00  0.14999999963E+04  0.15000000000E+04  0.10566000000E+00 0. -1.
        994   -1    0    0    0    0 -0.00000000000E+00 -0.00000000000E+00  0.11368683772E-12  0.17120000000E+03  0.17120000000E+03 0.  0.
         13    1    1    2    0    0 -0.65429803218E+02  0.93012206335E+01  0.25334379076E+03  0.26182180837E+03  0.10566000000E+00 0. -1.
        994    1    1    2    0    0  0.92970458654E+02  0.11636768302E+03  0.87732582792E+02  0.24329280696E+03  0.17120000000E+03 0.  0.
        998    1    1    2    0    0 -0.27540655436E+02 -0.12566890365E+03  0.11589236227E+04  0.11660853847E+04  0.10000000000E+02 0. -1.
</event>
<event>
 5    1  0.1334136E-008  0.3829849E+03  0.7957747E-01  0.3438264E+00
         13   -1    0    0    0    0  0.00000000000E+00  0.00000000000E+00  0.14999999963E+04  0.15000000000E+04  0.10566000000E+00 0. -1.
        994   -1    0    0    0    0 -0.00000000000E+00 -0.00000000000E+00  0.11368683772E-12  0.17120000000E+03  0.17120000000E+03 0.  0.
         13    1    1    2    0    0 -0.80614518035E+01  0.27096375690E+02  0.16276010048E+03  0.16519704009E+03  0.10566000000E+00 0. -1.
        994    1    1    2    0    0  0.12349174589E+02 -0.45208809938E+01  0.32065848523E+01  0.17173427924E+03  0.17120000000E+03 0.  0.
        998    1    1    2    0    0 -0.42877227859E+01 -0.22575494696E+02  0.13340333109E+04  0.13342686807E+04  0.10000000000E+02 0. -1.
</event>
<event>
 5    1  0.1334136E-008  0.3960025E+03  0.7957747E-01  0.3384309E+00
         13   -1    0    0    0    0  0.00000000000E+00  0.00000000000E+00  0.14999999963E+04  0.15000000000E+04  0.10566000000E+00 0.  1.
        994   -1    0    0    0    0 -0.00000000000E+00 -0.00000000000E+00  0.11368683772E-12  0.17120000000E+03  0.17120000000E+03 0.  0.
         13    1    1    2    0    0 -0.67451052650E+02 -0.76653261992E+02  0.23987762117E+03  0.26070414531E+03  0.10566000000E+00 0.  1.
        994    1    1    2    0    0  0.40227158631E+02 -0.99373202403E+01  0.32052769939E+02  0.17903573578E+03  0.17120000000E+03 0.  0.
        998    1    1    2    0    0  0.27223894019E+02  0.86590582232E+02  0.12280696052E+04  0.12314601189E+04  0.10000000000E+02 0.  1.
</event>
<event>
 5    1  0.1334136E-008  0.3734527E+03  0.7957747E-01  0.3480172E+00
         13   -1    0    0    0    0  0.00000000000E+00  0.00000000000E+00  0.14999999963E+04  0.15000000000E+04  0.10566000000E+00 0.  1.
        994   -1    0    0    0    0 -0.00000000000E+00 -0.00000000000E+00  0.11368683772E-12  0.17120000000E+03  0.17120000000E+03 0.  0.
         13    1    1    2    0    0  0.45062311853E+02 -0.20646974632E+02  0.19756348840E+03  0.20368665303E+03  0.10566000000E+00 0.  1.
        994    1    1    2    0    0  0.95511389613E+01  0.85490138593E+01  0.80370826915E+01  0.17186722955E+03  0.17120000000E+03 0.  0.
        998    1    1    2    0    0 -0.54613450814E+02  0.12097960772E+02  0.12943994252E+04  0.12956461174E+04  0.10000000000E+02 0.  1.
</event>
<event>
 5    1  0.1334136E-008  0.3761280E+03  0.7957747E-01  0.3468193E+00
         13   -1    0    0    0    0  0.00000000000E+00  0.00000000000E+00  0.14999999963E+04  0.15000000000E+04  0.10566000000E+00 0.  1.
        994   -1    0    0    0    0 -0.00000000000E+00 -0.00000000000E+00  0.11368683772E-12  0.17120000000E+03  0.17120000000E+03 0.  0.
         13    1    1    2    0    0  0.21879168672E+02  0.21451026752E+01  0.42158169102E+02  0.47545997448E+02  0.10566000000E+00 0.  1.
        994    1    1    2    0    0  0.25444791482E+02  0.14152525976E+02  0.89766396071E+01  0.17389005568E+03  0.17120000000E+03 0.  0.
        998    1    1    2    0    0 -0.47323960154E+02 -0.16297628651E+02  0.14488651876E+04  0.14497639469E+04  0.10000000000E+02 0.  1.
</event>
<event>
 5    1  0.1334136E-008  0.3822381E+03  0.7957747E-01  0.3441471E+00
         13   -1    0    0    0    0  0.00000000000E+00  0.00000000000E+00  0.14999999963E+04  0.15000000000E+04  0.10566000000E+00 0. -1.
        994   -1    0    0    0    0 -0.00000000000E+00 -0.00000000000E+00  0.11368683772E-12  0.17120000000E+03  0.17120000000E+03 0.  0.
         13    1    1    2    0    0 -0.95935137255E+01 -0.33775412011E+02  0.20060874680E+03  0.20365827855E+03  0.10566000000E+00 0. -1.
        994    1    1    2    0    0 -0.18812929049E+02  0.29885706451E+02  0.71569355195E+01  0.17495068870E+03  0.17120000000E+03 0.  0.
        998    1    1    2    0    0  0.28406442774E+02  0.38897055603E+01  0.12922343140E+04  0.12925910328E+04  0.10000000000E+02 0. -1.
</event>
<event>
 5    1  0.1334136E-008  0.3850970E+03  0.7957747E-01  0.3429261E+00
         13   -1    0    0    0    0  0.00000000000E+00  0.00000000000E+00  0.14999999963E+04  0.15000000000E+04  0.10566000000E+00 0.  1.
        994   -1    0    0    0    0 -0.00000000000E+00 -0.00000000000E+00  0.11368683772E-12  0.17120000000E+03  0.17120000000E+03 0.  0.
         13    1    1    2    0    0  0.18034112833E+02 -0.16326622045E+01  0.95906733951E+02  0.97601268397E+02  0.10566000000E+00 0.  1.
        994    1    1    2    0    0 -0.20969601734E+02  0.12220147510E+02  0.35209832228E+01  0.17294766123E+03  0.17120000000E+03 0.  0.
        998    1    1    2    0    0  0.29354889014E+01 -0.10587485305E+02  0.14005722791E+04  0.14006510704E+04  0.10000000000E+02 0.  1.
</event>
<event>
 5    1  0.1334136E-008  0.3730739E+03  0.7957747E-01  0.3481882E+00
         13   -1    0    0    0    0  0.00000000000E+00  0.00000000000E+00  0.14999999963E+04  0.15000000000E+04  0.10566000000E+00 0. -1.
        994   -1    0    0    0    0 -0.00000000000E+00 -0.00000000000E+00  0.11368683772E-12  0.17120000000E+03  0.17120000000E+03 0.  0.
         13    1    1    2    0    0 -0.28930591099E+02  0.69892433180E+02  0.32155322015E+03  0.33033076737E+03  0.10566000000E+00 0. -1.
        994    1    1    2    0    0  0.47420916915E+02 -0.49211071389E+02  0.23823571865E+02  0.18586951198E+03  0.17120000000E+03 0.  0.
        998    1    1    2    0    0 -0.18490325816E+02 -0.20681361791E+02  0.11546232043E+04  0.11549997206E+04  0.10000000000E+02 0. -1.
</event>
<event>
 5    1  0.1334136E-008  0.3764589E+03  0.7957747E-01  0.3466724E+00
         13   -1    0    0    0    0  0.00000000000E+00  0.00000000000E+00  0.14999999963E+04  0.15000000000E+04  0.10566000000E+00 0. -1.
        994   -1    0    0    0    0 -0.00000000000E+00 -0.00000000000E+00  0.11368683772E-12  0.17120000000E+03  0.17120000000E+03 0.  0.
         13    1    1    2    0    0  0.11837060991E+03 -0.76181512111E+02  0.58955006923E+03  0.60612252835E+03  0.10566000000E+00 0. -1.
        994    1    1    2    0    0 -0.93478885921E+02  0.40992846676E+02  0.52675038249E+02  0.20616210914E+03  0.17120000000E+03 0.  0.
        998    1    1    2    0    0 -0.24891723993E+02  0.35188665434E+02  0.85777488880E+03  0.85891536250E+03  0.10000000000E+02 0. -1.
</event>
<event>
 5    1  0.1334136E-008  0.3748961E+03  0.7957747E-01  0.3473688E+00
         13   -1    0    0    0    0  0.00000000000E+00  0.00000000000E+00  0.14999999963E+04  0.15000000000E+04  0.10566000000E+00 0. -1.
        994   -1    0    0    0    0 -0.00000000000E+00 -0.00000000000E+00  0.11368683772E-12  0.17120000000E+03  0.17120000000E+03 0.  0.
         13    1    1    2    0    0 -0.13796935803E+02 -0.13899481339E+02  0.25523664664E+02  0.32171721138E+02  0.10566000000E+00 0. -1.
        994    1    1    2    0    0  0.11532468398E+02  0.10838457182E+02  0.75842340361E+01  0.17209715450E+03  0.17120000000E+03 0.  0.
        998    1    1    2    0    0  0.22644674047E+01  0.30610241574E+01  0.14668920976E+04  0.14669311244E+04  0.10000000000E+02 0. -1.
</event>
<event>
 5    1  0.1334136E-008  0.3819561E+03  0.7957747E-01  0.3442685E+00
         13   -1    0    0    0    0  0.00000000000E+00  0.00000000000E+00  0.14999999963E+04  0.15000000000E+04  0.10566000000E+00 0.  1.
        994   -1    0    0    0    0 -0.00000000000E+00 -0.00000000000E+00  0.11368683772E-12  0.17120000000E+03  0.17120000000E+03 0.  0.
         13    1    1    2    0    0  0.57336541745E+01  0.14359241909E+02  0.36871055074E+02  0.39981851941E+02  0.10566000000E+00 0.  1.
        994    1    1    2    0    0 -0.34122807206E+01 -0.95308197057E+01  0.34894130550E+01  0.17153453351E+03  0.17120000000E+03 0.  0.
        998    1    1    2    0    0 -0.23213734539E+01 -0.48284222030E+01  0.14596395282E+04  0.14596836145E+04  0.10000000000E+02 0.  1.
</event>
<event>
 5    1  0.1334136E-008  0.4090120E+03  0.7957747E-01  0.3333809E+00
         13   -1    0    0    0    0  0.00000000000E+00  0.00000000000E+00  0.14999999963E+04  0.15000000000E+04  0.10566000000E+00 0. -1.
        994   -1    0    0    0    0 -0.00000000000E+00 -0.00000000000E+00  0.11368683772E-12  0.17120000000E+03  0.17120000000E+03 0.  0.
         13    1    1    2    0    0 -0.17600339561E+02 -0.12098421768E+02 -0.71188488214E+01  0.22512950374E+02  0.10566000000E+00 0. -1.
        994    1    1    2    0    0 -0.64861819667E+02  0.19995409160E+02  0.52256950499E+02  0.19143432533E+03  0.17120000000E+03 0.  0.
        998    1    1    2    0    0  0.82462159228E+02 -0.78969873919E+01  0.14548618946E+04  0.14572527243E+04  0.10000000000E+02 0. -1.
</event>
<event>
 5    1  0.1334136E-008  0.3855089E+03  0.7957747E-01  0.3427517E+00
         13   -1    0    0    0    0  0.00000000000E+00  0.00000000000E+00  0.14999999963E+04  0.15000000000E+04  0.10566000000E+00 0.  1.
        994   -1    0    0    0    0 -0.00000000000E+00 -0.00000000000E+00  0.11368683772E-12  0.17120000000E+03  0.17120000000E+03 0.  0.
         13    1    1    2    0    0 -0.69361985190E+01 -0.93268938928E+01  0.49697236050E+02  0.51038497574E+02  0.10566000000E+00 0.  1.
        994    1    1    2    0    0  0.68924337861E+01  0.27580492465E+01  0.15586343634E+01  0.17136797198E+03  0.17120000000E+03 0.  0.
        998    1    1    2    0    0  0.43764732930E-01  0.65688446464E+01  0.14487441259E+04  0.14487935304E+04  0.10000000000E+02 0.  1.
</event>
<event>
 5    1  0.1334136E-008  0.3767623E+03  0.7957747E-01  0.3465378E+00
         13   -1    0    0    0    0  0.00000000000E+00  0.00000000000E+00  0.14999999963E+04  0.15000000000E+04  0.10566000000E+00 0. -1.
        994   -1    0    0    0    0 -0.00000000000E+00 -0.00000000000E+00  0.11368683772E-12  0.17120000000E+03  0.17120000000E+03 0.  0.
         13    1    1    2    0    0  0.43711104117E+02 -0.91906911709E+01  0.15343163294E+03  0.15980114699E+03  0.10566000000E+00 0. -1.
        994    1    1    2    0    0 -0.45788399327E+02  0.47339087081E+01  0.12970569309E+02  0.17775450226E+03  0.17120000000E+03 0.  0.
        998    1    1    2    0    0  0.20772952097E+01  0.44567824628E+01  0.13335977940E+04  0.13336443508E+04  0.10000000000E+02 0. -1.
</event>
<event>
 5    1  0.1334136E-008  0.3716882E+03  0.7957747E-01  0.3488168E+00
         13   -1    0    0    0    0  0.00000000000E+00  0.00000000000E+00  0.14999999963E+04  0.15000000000E+04  0.10566000000E+00 0.  1.
        994   -1    0    0    0    0 -0.00000000000E+00 -0.00000000000E+00  0.11368683772E-12  0.17120000000E+03  0.17120000000E+03 0.  0.
         13    1    1    2    0    0  0.17541274959E+02 -0.14551434231E+02  0.17355322240E+02  0.28647145398E+02  0.10566000000E+00 0.  1.
        994    1    1    2    0    0 -0.58921417207E+01  0.56779996038E+00  0.11957565525E+02  0.17171914018E+03  0.17120000000E+03 0.  0.
        998    1    1    2    0    0 -0.11649133238E+02  0.13983634270E+02  0.14706871085E+04  0.14708337144E+04  0.10000000000E+02 0.  1.
</event>
<event>
 5    1  0.1334136E-008  0.3847292E+03  0.7957747E-01  0.3430822E+00
         13   -1    0    0    0    0  0.00000000000E+00  0.00000000000E+00  0.14999999963E+04  0.15000000000E+04  0.10566000000E+00 0.  1.
        994   -1    0    0    0    0 -0.00000000000E+00 -0.00000000000E+00  0.11368683772E-12  0.17120000000E+03  0.17120000000E+03 0.  0.
         13    1    1    2    0    0 -0.45426244447E+01  0.13858998378E+02  0.69961842061E+02  0.71465920420E+02  0.10566000000E+00 0.  1.
        994    1    1    2    0    0 -0.84480320286E+01  0.11586528106E+02  0.24417571082E+01  0.17181681832E+03  0.17120000000E+03 0.  0.
        998    1    1    2    0    0  0.12990656473E+02 -0.25445526484E+02  0.14275963971E+04  0.14279172613E+04  0.10000000000E+02 0.  1.
</event>
<event>
 5    1  0.1334136E-008  0.2947353E+03  0.7957747E-01  0.3934336E+00
         13   -1    0    0    0    0  0.00000000000E+00  0.00000000000E+00  0.14999999963E+04  0.15000000000E+04  0.10566000000E+00 0.  1.
        994   -1    0    0    0    0 -0.00000000000E+00 -0.00000000000E+00  0.11368683772E-12  0.17120000000E+03  0.17120000000E+03 0.  0.
         13    1    1    2    0    0  0.14993967424E+03 -0.21781130948E+02  0.72305893279E+03  0.73876285439E+03  0.10566000000E+00 0.  1.
        994    1    1    2    0    0 -0.92509674213E+02  0.22152240966E+02  0.48633734446E+02  0.20180049982E+03  0.17120000000E+03 0.  0.
        998    1    1    2    0    0 -0.57430000029E+02 -0.37111001823E+00  0.72830732904E+03  0.73063664578E+03  0.10000000000E+02 0. -1.
</event>
<event>
 5    1  0.1334136E-008  0.3725161E+03  0.7957747E-01  0.3484407E+00
         13   -1    0    0    0    0  0.00000000000E+00  0.00000000000E+00  0.14999999963E+04  0.15000000000E+04  0.10566000000E+00 0. -1.
        994   -1    0    0    0    0 -0.00000000000E+00 -0.00000000000E+00  0.11368683772E-12  0.17120000000E+03  0.17120000000E+03 0.  0.
         13    1    1    2    0    0 -0.20615901621E+02  0.78945536980E+01  0.26519444577E+02  0.34505528288E+02  0.10566000000E+00 0. -1.
        994    1    1    2    0    0  0.30730646255E+02  0.57449942714E+01  0.11317567465E+02  0.17439869527E+03  0.17120000000E+03 0.  0.
        998    1    1    2    0    0 -0.10114744634E+02 -0.13639547969E+02  0.14621629842E+04  0.14622957764E+04  0.10000000000E+02 0. -1.
</event>
<event>
 5    1  0.1334136E-008  0.3812102E+03  0.7957747E-01  0.3445906E+00
         13   -1    0    0    0    0  0.00000000000E+00  0.00000000000E+00  0.14999999963E+04  0.15000000000E+04  0.10566000000E+00 0. -1.
        994   -1    0    0    0    0 -0.00000000000E+00 -0.00000000000E+00  0.11368683772E-12  0.17120000000E+03  0.17120000000E+03 0.  0.
         13    1    1    2    0    0  0.10707210476E+02 -0.34112699611E+01  0.18063704099E+02  0.21274155417E+02  0.10566000000E+00 0. -1.
        994    1    1    2    0    0  0.23832746077E+02 -0.12724575718E+02  0.59575842170E+01  0.17342101206E+03  0.17120000000E+03 0.  0.
        998    1    1    2    0    0 -0.34539956553E+02  0.16135845680E+02  0.14759787080E+04  0.14765048325E+04  0.10000000000E+02 0. -1.
</event>
<event>
 5    1  0.1334136E-008  0.3692378E+03  0.7957747E-01  0.3499401E+00
         13   -1    0    0    0    0  0.00000000000E+00  0.00000000000E+00  0.14999999963E+04  0.15000000000E+04  0.10566000000E+00 0. -1.
        994   -1    0    0    0    0 -0.00000000000E+00 -0.00000000000E+00  0.11368683772E-12  0.17120000000E+03  0.17120000000E+03 0.  0.
         13    1    1    2    0    0 -0.42913371436E+02  0.32667672577E+02  0.15819788854E+03  0.16713861727E+03  0.10566000000E+00 0. -1.
        994    1    1    2    0    0 -0.18953455139E+02 -0.19753765735E+02  0.13153853447E+02  0.17387325436E+03  0.17120000000E+03 0.  0.
        998    1    1    2    0    0  0.61866826576E+02 -0.12913906843E+02  0.13286482543E+04  0.13301881284E+04  0.10000000000E+02 0. -1.
</event>
<event>
 5    1  0.1334136E-008  0.3856183E+03  0.7957747E-01  0.3427054E+00
         13   -1    0    0    0    0  0.00000000000E+00  0.00000000000E+00  0.14999999963E+04  0.15000000000E+04  0.10566000000E+00 0.  1.
        994   -1    0    0    0    0 -0.00000000000E+00 -0.00000000000E+00  0.11368683772E-12  0.17120000000E+03  0.17120000000E+03 0.  0.
         13    1    1    2    0    0  0.10359396500E+02  0.36914904994E+01  0.50060398121E+02  0.51254256623E+02  0.10566000000E+00 0.  1.
        994    1    1    2    0    0  0.31037886856E+01  0.98321195834E+01  0.16724279515E+01  0.17151834040E+03  0.17120000000E+03 0.  0.
        998    1    1    2    0    0 -0.13463185185E+02 -0.13523610083E+02  0.14482671702E+04  0.14484274030E+04  0.10000000000E+02 0.  1.
</event>
<event>
 5    1  0.1334136E-008  0.3826488E+03  0.7957747E-01  0.3439706E+00
         13   -1    0    0    0    0  0.00000000000E+00  0.00000000000E+00  0.14999999963E+04  0.15000000000E+04  0.10566000000E+00 0. -1.
        994   -1    0    0    0    0 -0.00000000000E+00 -0.00000000000E+00  0.11368683772E-12  0.17120000000E+03  0.17120000000E+03 0.  0.
         13    1    1    2    0    0  0.11037135505E+02 -0.34309029435E+02  0.19557420220E+03  0.19886731152E+03  0.10566000000E+00 0. -1.
        994    1    1    2    0    0 -0.23253417000E+01  0.42078121739E+02  0.87098397722E+01  0.17652556997E+03  0.17120000000E+03 0.  0.
        998    1    1    2    0    0 -0.87117938052E+01 -0.77690923036E+01  0.12957159543E+04  0.12958071185E+04  0.10000000000E+02 0. -1.
</event>
<event>
 5    1  0.1646375E-008  0.3859906E+03  0.7957747E-01  0.3425482E+00
         13   -1    0    0    0    0  0.00000000000E+00  0.00000000000E+00  0.14999999963E+04  0.15000000000E+04  0.10566000000E+00 0. -1.
        994   -1    0    0    0    0 -0.00000000000E+00 -0.00000000000E+00  0.11368683772E-12  0.17120000000E+03  0.17120000000E+03 0.  0.
         13    1    1    2    0    0 -0.13946944099E+02 -0.26167866546E+01  0.85657250630E+02  0.86824769344E+02  0.10566000000E+00 0. -1.
        994    1    1    2    0    0  0.14959481353E+02 -0.25482084198E+01  0.18943893756E+01  0.17188166906E+03  0.17120000000E+03 0.  0.
        998    1    1    2    0    0 -0.10125372542E+01  0.51649950743E+01  0.14124483563E+04  0.14124935616E+04  0.10000000000E+02 0. -1.
</event>
<event>
 5    1  0.1334136E-008  0.3715376E+03  0.7957747E-01  0.3488854E+00
         13   -1    0    0    0    0  0.00000000000E+00  0.00000000000E+00  0.14999999963E+04  0.15000000000E+04  0.10566000000E+00 0. -1.
        994   -1    0    0    0    0 -0.00000000000E+00 -0.00000000000E+00  0.11368683772E-12  0.17120000000E+03  0.17120000000E+03 0.  0.
         13    1    1    2    0    0 -0.36520756490E+02 -0.57994627010E+01  0.73271860234E+02  0.82074210860E+02  0.10566000000E+00 0. -1.
        994    1    1    2    0    0  0.41879200875E+02 -0.46141719542E+01  0.14597863226E+02  0.17691154756E+03  0.17120000000E+03 0.  0.
        998    1    1    2    0    0 -0.53584443857E+01  0.10413634655E+02  0.14121302728E+04  0.14122142416E+04  0.10000000000E+02 0. -1.
</event>
<event>
 5    1  0.1334136E-008  0.3733680E+03  0.7957747E-01  0.3480554E+00
         13   -1    0    0    0    0  0.00000000000E+00  0.00000000000E+00  0.14999999963E+04  0.15000000000E+04  0.10566000000E+00 0. -1.
        994   -1    0    0    0    0 -0.00000000000E+00 -0.00000000000E+00  0.11368683772E-12  0.17120000000E+03  0.17120000000E+03 0.  0.
         13    1    1    2    0    0  0.16991459114E+02 -0.50553652316E+01  0.17984633115E+02  0.25253209554E+02  0.10566000000E+00 0. -1.
        994    1    1    2    0    0 -0.36014070024E+01  0.38216328874E+01  0.76134412712E+01  0.17144964129E+03  0.17120000000E+03 0.  0.
        998    1    1    2    0    0 -0.13390052112E+02  0.12337323441E+01  0.14744019219E+04  0.14744971492E+04  0.10000000000E+02 0. -1.
</event>
<event>
 5    1  0.1334136E-008  0.3838455E+03  0.7957747E-01  0.3434583E+00
         13   -1    0    0    0    0  0.00000000000E+00  0.00000000000E+00  0.14999999963E+04  0.15000000000E+04  0.10566000000E+00 0. -1.
        994   -1    0    0    0    0 -0.00000000000E+00 -0.00000000000E+00  0.11368683772E-12  0.17120000000E+03  0.17120000000E+03 0.  0.
         13    1    1    2    0    0 -0.63155998059E+01 -0.19854150274E+02  0.10806500263E+03  0.11005512274E+03  0.10566000000E+00 0. -1.
        994    1    1    2    0    0  0.12788317076E+02 -0.43439495039E+01  0.28067777978E+01  0.17175485132E+03  0.17120000000E+03 0.  0.
        998    1    1    2    0    0 -0.64727172704E+01  0.24198099778E+02  0.13891282159E+04  0.13893900259E+04  0.10000000000E+02 0. -1.
</event>
<event>
 5    1  0.1334136E-008  0.3761141E+03  0.7957747E-01  0.3468255E+00
         13   -1    0    0    0    0  0.00000000000E+00  0.00000000000E+00  0.14999999963E+04  0.15000000000E+04  0.10566000000E+00 0. -1.
        994   -1    0    0    0    0 -0.00000000000E+00 -0.00000000000E+00  0.11368683772E-12  0.17120000000E+03  0.17120000000E+03 0.  0.
         13    1    1    2    0    0  0.28892913609E+01  0.30456450416E+02  0.76226701678E+02  0.82136864983E+02  0.10566000000E+00 0. -1.
        994    1    1    2    0    0  0.26051429559E+02 -0.15607846933E+02  0.92373600708E+01  0.17411792179E+03  0.17120000000E+03 0.  0.
        998    1    1    2    0    0 -0.28940720920E+02 -0.14848603483E+02  0.14145359345E+04  0.14149452132E+04  0.10000000000E+02 0. -1.
</event>
<event>
 5    1  0.1334136E-008  0.2589727E+03  0.7957747E-01  0.4240847E+00
         13   -1    0    0    0    0  0.00000000000E+00  0.00000000000E+00  0.14999999963E+04  0.15000000000E+04  0.10566000000E+00 0. -1.
        994   -1    0    0    0    0 -0.00000000000E+00 -0.00000000000E+00  0.11368683772E-12  0.17120000000E+03  0.17120000000E+03 0.  0.
         13    1    1    2    0    0  0.61507972500E+02  0.16823029775E+03  0.48623995071E+03  0.51818333106E+03  0.10566000000E+00 0. -1.
        994    1    1    2    0    0 -0.25028105884E+02 -0.85532023776E+02  0.70647787194E+02  0.20553024841E+03  0.17120000000E+03 0.  0.
        998    1    1    2    0    0 -0.36479866616E+02 -0.82698273975E+02  0.94311225838E+03  0.94748642053E+03  0.10000000000E+02 0. -1.
</event>
<event>
 5    1  0.1334136E-008  0.3763784E+03  0.7957747E-01  0.3467081E+00
         13   -1    0    0    0    0  0.00000000000E+00  0.00000000000E+00  0.14999999963E+04  0.15000000000E+04  0.10566000000E+00 0. -1.
        994   -1    0    0    0    0 -0.00000000000E+00 -0.00000000000E+00  0.11368683772E-12  0.17120000000E+03  0.17120000000E+03 0.  0.
         13    1    1    2    0    0 -0.56410433952E+02  0.38892453176E+02  0.30143826947E+03  0.30912748412E+03  0.10566000000E+00 0. -1.
        994    1    1    2    0    0  0.63859969297E+02 -0.36181116742E+02  0.24423130330E+02  0.18786457405E+03  0.17120000000E+03 0.  0.
        998    1    1    2    0    0 -0.74495353447E+01 -0.27113364344E+01  0.11741385965E+04  0.11742079418E+04  0.10000000000E+02 0. -1.
</event>
<event>
 5    1  0.1334136E-008  0.3827451E+03  0.7957747E-01  0.3439292E+00
         13   -1    0    0    0    0  0.00000000000E+00  0.00000000000E+00  0.14999999963E+04  0.15000000000E+04  0.10566000000E+00 0. -1.
        994   -1    0    0    0    0 -0.00000000000E+00 -0.00000000000E+00  0.11368683772E-12  0.17120000000E+03  0.17120000000E+03 0.  0.
         13    1    1    2    0    0 -0.36628869486E+02 -0.89069541670E+01  0.21567388149E+03  0.21894346812E+03  0.10566000000E+00 0. -1.
        994    1    1    2    0    0  0.41627999505E+02  0.40913417275E+01  0.85718291462E+01  0.17644417155E+03  0.17120000000E+03 0.  0.
        998    1    1    2    0    0 -0.49991300188E+01  0.48156124395E+01  0.12757542856E+04  0.12758123603E+04  0.10000000000E+02 0. -1.
</event>
<event>
 5    1  0.1503367E-008  0.3862274E+03  0.7957747E-01  0.3424483E+00
         13   -1    0    0    0    0  0.00000000000E+00  0.00000000000E+00  0.14999999963E+04  0.15000000000E+04  0.10566000000E+00 0.  1.
        994   -1    0    0    0    0 -0.00000000000E+00 -0.00000000000E+00  0.11368683772E-12  0.17120000000E+03  0.17120000000E+03 0.  0.
         13    1    1    2    0    0 -0.18529678043E+01  0.98268546631E+01  0.48401864831E+02  0.49424207079E+02  0.10566000000E+00 0.  1.
        994    1    1    2    0    0  0.41744054766E+01 -0.10056300863E+02  0.14103875299E+01  0.17155169495E+03  0.17120000000E+03 0.  0.
        998    1    1    2    0    0 -0.23214376722E+01  0.22944620013E+00  0.14501877439E+04  0.14502240980E+04  0.10000000000E+02 0.  1.
</event>
<event>
 5    1  0.1334136E-008  0.3825344E+03  0.7957747E-01  0.3440197E+00
         13   -1    0    0    0    0  0.00000000000E+00  0.00000000000E+00  0.14999999963E+04  0.15000000000E+04  0.10566000000E+00 0.  1.
        994   -1    0    0    0    0 -0.00000000000E+00 -0.00000000000E+00  0.11368683772E-12  0.17120000000E+03  0.17120000000E+03 0.  0.
         13    1    1    2    0    0 -0.20762606899E+01 -0.20629484362E+02  0.77269651857E+02  0.80003104600E+02  0.10566000000E+00 0.  1.
        994    1    1    2    0    0  0.13221638519E+02  0.46699819952E+01  0.35113345946E+01  0.17180916718E+03  0.17120000000E+03 0.  0.
        998    1    1    2    0    0 -0.11145377829E+02  0.15959502367E+02  0.14192190098E+04  0.14193877282E+04  0.10000000000E+02 0.  1.
</event>
<event>
 5    1  0.1334136E-008  0.3783039E+03  0.7957747E-01  0.3458577E+00
         13   -1    0    0    0    0  0.00000000000E+00  0.00000000000E+00  0.14999999963E+04  0.15000000000E+04  0.10566000000E+00 0.  1.
        994   -1    0    0    0    0 -0.00000000000E+00 -0.00000000000E+00  0.11368683772E-12  0.17120000000E+03  0.17120000000E+03 0.  0.
         13    1    1    2    0    0  0.22138173654E+02  0.13734107271E+02  0.64256543167E+02  0.69337139680E+02  0.10566000000E+00 0.  1.
        994    1    1    2    0    0 -0.21973674291E+02 -0.10047787838E+02  0.69568755114E+01  0.17303652366E+03  0.17120000000E+03 0.  0.
        998    1    1    2    0    0 -0.16449936322E+00 -0.36863194333E+01  0.14287865776E+04  0.14288263367E+04  0.10000000000E+02 0.  1.
</event>
<event>
 5    1  0.1820790E-008  0.3860876E+03  0.7957747E-01  0.3425073E+00
         13   -1    0    0    0    0  0.00000000000E+00  0.00000000000E+00  0.14999999963E+04  0.15000000000E+04  0.10566000000E+00 0. -1.
        994   -1    0    0    0    0 -0.00000000000E+00 -0.00000000000E+00  0.11368683772E-12  0.17120000000E+03  0.17120000000E+03 0.  0.
         13    1    1    2    0    0 -0.71624012115E+01 -0.74191302918E+01  0.48504680531E+02  0.49588896770E+02  0.10566000000E+00 0. -1.
        994    1    1    2    0    0  0.76062241114E+01  0.60566400948E+01  0.14010041387E+01  0.17148160352E+03  0.17120000000E+03 0.  0.
        998    1    1    2    0    0 -0.44382289996E+00  0.13624901970E+01  0.14500943116E+04  0.14501294997E+04  0.10000000000E+02 0.  0.
</event>
<event>
 5    1  0.1334136E-008  0.3846906E+03  0.7957747E-01  0.3430986E+00
         13   -1    0    0    0    0  0.00000000000E+00  0.00000000000E+00  0.14999999963E+04  0.15000000000E+04  0.10566000000E+00 0. -1.
        994   -1    0    0    0    0 -0.00000000000E+00 -0.00000000000E+00  0.11368683772E-12  0.17120000000E+03  0.17120000000E+03 0.  0.
         13    1    1    2    0    0  0.17364964096E+02 -0.93869338300E+01  0.10307523129E+03  0.10494842054E+03  0.10566000000E+00 0. -1.
        994    1    1    2    0    0 -0.17922252861E+02  0.88287058882E+01  0.30989459271E+01  0.17238966518E+03  0.17120000000E+03 0.  0.
        998    1    1    2    0    0  0.55728876428E+00  0.55822794180E+00  0.13938258191E+04  0.13938619143E+04  0.10000000000E+02 0. -1.
</event>
<event>
 5    1  0.1334136E-008  0.3811887E+03  0.7957747E-01  0.3445999E+00
         13   -1    0    0    0    0  0.00000000000E+00  0.00000000000E+00  0.14999999963E+04  0.15000000000E+04  0.10566000000E+00 0. -1.
        994   -1    0    0    0    0 -0.00000000000E+00 -0.00000000000E+00  0.11368683772E-12  0.17120000000E+03  0.17120000000E+03 0.  0.
         13    1    1    2    0    0  0.53640365648E+01  0.25533954200E+02  0.90149119969E+02  0.93848978154E+02  0.10566000000E+00 0. -1.
        994    1    1    2    0    0 -0.33118680447E+02 -0.20636713450E+02  0.86213452079E+01  0.17580241332E+03  0.17120000000E+03 0.  0.
        998    1    1    2    0    0  0.27754643882E+02 -0.48972407505E+01  0.14012295311E+04  0.14015486085E+04  0.10000000000E+02 0. -1.
</event>
<event>
 5    1  0.1334136E-008  0.3774571E+03  0.7957747E-01  0.3462306E+00
         13   -1    0    0    0    0  0.00000000000E+00  0.00000000000E+00  0.14999999963E+04  0.15000000000E+04  0.10566000000E+00 0. -1.
        994   -1    0    0    0    0 -0.00000000000E+00 -0.00000000000E+00  0.11368683772E-12  0.17120000000E+03  0.17120000000E+03 0.  0.
         13    1    1    2    0    0 -0.37550941979E+02  0.42586852079E+01  0.13567435781E+03  0.14083945532E+03  0.10566000000E+00 0. -1.
        994    1    1    2    0    0  0.14162455662E+02 -0.13386288774E+01  0.61048457693E+01  0.17189844740E+03  0.17120000000E+03 0.  0.
        998    1    1    2    0    0  0.23388486317E+02 -0.29200563304E+01  0.13582207927E+04  0.13584620973E+04  0.10000000000E+02 0. -1.
</event>
<event>
 5    1  0.1334136E-008  0.3794882E+03  0.7957747E-01  0.3453390E+00
         13   -1    0    0    0    0  0.00000000000E+00  0.00000000000E+00  0.14999999963E+04  0.15000000000E+04  0.10566000000E+00 0.  1.
        994   -1    0    0    0    0 -0.00000000000E+00 -0.00000000000E+00  0.11368683772E-12  0.17120000000E+03  0.17120000000E+03 0.  0.
         13    1    1    2    0    0  0.25895710242E+02  0.46247434660E+02  0.23987086572E+03  0.24565719287E+03  0.10566000000E+00 0.  1.
        994    1    1    2    0    0 -0.15898039593E+02 -0.69049877176E+02  0.21391385005E+02  0.18651451566E+03  0.17120000000E+03 0.  0.
        998    1    1    2    0    0 -0.99976706483E+01  0.22802442516E+02  0.12387377455E+04  0.12390282915E+04  0.10000000000E+02 0.  1.
</event>
<event>
 5    1  0.1334136E-008  0.3694273E+03  0.7957747E-01  0.3498527E+00
         13   -1    0    0    0    0  0.00000000000E+00  0.00000000000E+00  0.14999999963E+04  0.15000000000E+04  0.10566000000E+00 0.  1.
        994   -1    0    0    0    0 -0.00000000000E+00 -0.00000000000E+00  0.11368683772E-12  0.17120000000E+03  0.17120000000E+03 0.  0.
         13    1    1    2    0    0 -0.22577250175E+02 -0.33900643856E+01  0.23084176872E+02  0.32467139509E+02  0.10566000000E+00 0.  1.
        994    1    1    2    0    0  0.19235665867E+02 -0.36166307547E+01  0.10897039027E+02  0.17265942291E+03  0.17120000000E+03 0.  0.
        998    1    1    2    0    0  0.33415843077E+01  0.70066951403E+01  0.14660187804E+04  0.14660734376E+04  0.10000000000E+02 0.  1.
</event>
<event>
 5    1  0.1334136E-008  0.3840424E+03  0.7957747E-01  0.3433744E+00
         13   -1    0    0    0    0  0.00000000000E+00  0.00000000000E+00  0.14999999963E+04  0.15000000000E+04  0.10566000000E+00 0. -1.
        994   -1    0    0    0    0 -0.00000000000E+00 -0.00000000000E+00  0.11368683772E-12  0.17120000000E+03  0.17120000000E+03 0.  0.
         13    1    1    2    0    0  0.30218607615E+01 -0.10582112348E+02  0.28555485555E+02  0.30602935538E+02  0.10566000000E+00 0. -1.
        994    1    1    2    0    0 -0.61857054518E+01  0.23213154735E+01  0.22503250184E+01  0.17134221727E+03  0.17120000000E+03 0.  0.
        998    1    1    2    0    0  0.31638446903E+01  0.82607968743E+01  0.14691941857E+04  0.14692548472E+04  0.10000000000E+02 0. -1.
</event>
<event>
 5    1  0.1334136E-008  0.2824822E+03  0.7957747E-01  0.4029604E+00
         13   -1    0    0    0    0  0.00000000000E+00  0.00000000000E+00  0.14999999963E+04  0.15000000000E+04  0.10566000000E+00 0. -1.
        994   -1    0    0    0    0 -0.00000000000E+00 -0.00000000000E+00  0.11368683772E-12  0.17120000000E+03  0.17120000000E+03 0.  0.
         13    1    1    2    0    0  0.20925309416E+03 -0.19309165573E+01  0.43033928664E+03  0.47852115799E+03  0.10566000000E+00 0. -1.
        994    1    1    2    0    0 -0.20929949726E+03 -0.13790699515E+02  0.23704845117E+03  0.35985812642E+03  0.17120000000E+03 0.  0.
        998    1    1    2    0    0  0.46403100950E-01  0.15721616072E+02  0.83261225847E+03  0.83282071559E+03  0.10000000000E+02 0.  1.
</event>
<event>
 5    1  0.1334136E-008  0.3832285E+03  0.7957747E-01  0.3437220E+00
         13   -1    0    0    0    0  0.00000000000E+00  0.00000000000E+00  0.14999999963E+04  0.15000000000E+04  0.10566000000E+00 0.  1.
        994   -1    0    0    0    0 -0.00000000000E+00 -0.00000000000E+00  0.11368683772E-12  0.17120000000E+03  0.17120000000E+03 0.  0.
         13    1    1    2    0    0  0.10424547189E+02  0.14423847233E+02  0.61342308194E+02  0.63871812967E+02  0.10566000000E+00 0.  1.
        994    1    1    2    0    0 -0.90503976699E+01 -0.11661711135E+02  0.32332921378E+01  0.17186564340E+03  0.17120000000E+03 0.  0.
        998    1    1    2    0    0 -0.13741495188E+01 -0.27621360981E+01  0.14354243959E+04  0.14354625436E+04  0.10000000000E+02 0.  1.
</event>
<event>
 5    1  0.1334136E-008  0.3706080E+03  0.7957747E-01  0.3493101E+00
         13   -1    0    0    0    0  0.00000000000E+00  0.00000000000E+00  0.14999999963E+04  0.15000000000E+04  0.10566000000E+00 0.  1.
        994   -1    0    0    0    0 -0.00000000000E+00 -0.00000000000E+00  0.11368683772E-12  0.17120000000E+03  0.17120000000E+03 0.  0.
         13    1    1    2    0    0 -0.26281648109E+02 -0.92317130286E+01  0.29562404006E+02  0.40618917359E+02  0.10566000000E+00 0.  1.
        994    1    1    2    0    0  0.23902582346E+02  0.40512217954E+01  0.13322488183E+02  0.17342051359E+03  0.17120000000E+03 0.  0.
        998    1    1    2    0    0  0.23790657636E+01  0.51804912331E+01  0.14571151041E+04  0.14571605691E+04  0.10000000000E+02 0.  1.
</event>
<event>
 5    1  0.1334136E-008  0.3797786E+03  0.7957747E-01  0.3452123E+00
         13   -1    0    0    0    0  0.00000000000E+00  0.00000000000E+00  0.14999999963E+04  0.15000000000E+04  0.10566000000E+00 0. -1.
        994   -1    0    0    0    0 -0.00000000000E+00 -0.00000000000E+00  0.11368683772E-12  0.17120000000E+03  0.17120000000E+03 0.  0.
         13    1    1    2    0    0 -0.16293983619E+02 -0.80081054725E+01  0.38015221102E+02  0.42128278566E+02  0.10566000000E+00 0. -1.
        994    1    1    2    0    0  0.87975529221E+01 -0.54955993858E+01  0.46049664446E+01  0.17157576829E+03  0.17120000000E+03 0.  0.
        998    1    1    2    0    0  0.74964306969E+01  0.13503704858E+02  0.14573798087E+04  0.14574959531E+04  0.10000000000E+02 0. -1.
</event>
<event>
 5    1  0.1334136E-008  0.3857237E+03  0.7957747E-01  0.3426609E+00
         13   -1    0    0    0    0  0.00000000000E+00  0.00000000000E+00  0.14999999963E+04  0.15000000000E+04  0.10566000000E+00 0. -1.
        994   -1    0    0    0    0 -0.00000000000E+00 -0.00000000000E+00  0.11368683772E-12  0.17120000000E+03  0.17120000000E+03 0.  0.
         13    1    1    2    0    0 -0.11101187708E+02 -0.74155983345E+01  0.57057779107E+02  0.58598880432E+02  0.10566000000E+00 0. -1.
        994    1    1    2    0    0  0.29483833809E+02  0.31710861786E+02  0.74469450822E+01  0.17674776435E+03  0.17120000000E+03 0.  0.
        998    1    1    2    0    0 -0.18382646101E+02 -0.24295263452E+02  0.14354952721E+04  0.14358533552E+04  0.10000000000E+02 0. -1.
</event>
<event>
 5    1  0.1334136E-008  0.3751525E+03  0.7957747E-01  0.3472541E+00
         13   -1    0    0    0    0  0.00000000000E+00  0.00000000000E+00  0.14999999963E+04  0.15000000000E+04  0.10566000000E+00 0. -1.
        994   -1    0    0    0    0 -0.00000000000E+00 -0.00000000000E+00  0.11368683772E-12  0.17120000000E+03  0.17120000000E+03 0.  0.
         13    1    1    2    0    0 -0.50242532804E+01  0.45078573962E+02  0.15447743182E+03  0.16099878589E+03  0.10566000000E+00 0. -1.
        994    1    1    2    0    0  0.43862234738E+01 -0.25366831700E+02  0.88552440513E+01  0.17335100361E+03  0.17120000000E+03 0.  0.
        998    1    1    2    0    0  0.63802980658E+00 -0.19711742261E+02  0.13366673204E+04  0.13368502105E+04  0.10000000000E+02 0. -1.
</event>
<event>
 5    1  0.1334136E-008  0.3839209E+03  0.7957747E-01  0.3434262E+00
         13   -1    0    0    0    0  0.00000000000E+00  0.00000000000E+00  0.14999999963E+04  0.15000000000E+04  0.10566000000E+00 0.  1.
        994   -1    0    0    0    0 -0.00000000000E+00 -0.00000000000E+00  0.11368683772E-12  0.17120000000E+03  0.17120000000E+03 0.  0.
         13    1    1    2    0    0  0.16086127765E+02 -0.41378122975E+01  0.70437798746E+02  0.72369742664E+02  0.10566000000E+00 0.  1.
        994    1    1    2    0    0  0.69843656310E+01 -0.34698969174E+01  0.23675908466E+01  0.17139389439E+03  0.17120000000E+03 0.  0.
        998    1    1    2    0    0 -0.23070493396E+02  0.76077092149E+01  0.14271946067E+04  0.14274363629E+04  0.10000000000E+02 0.  1.
</event>
<event>
 5    1  0.1334136E-008  0.3691967E+03  0.7957747E-01  0.3499591E+00
         13   -1    0    0    0    0  0.00000000000E+00  0.00000000000E+00  0.14999999963E+04  0.15000000000E+04  0.10566000000E+00 0. -1.
        994   -1    0    0    0    0 -0.00000000000E+00 -0.00000000000E+00  0.11368683772E-12  0.17120000000E+03  0.17120000000E+03 0.  0.
         13    1    1    2    0    0  0.18904042508E+02  0.23868283545E+02  0.49426143463E+02  0.58051809655E+02  0.10566000000E+00 0. -1.
        994    1    1    2    0    0  0.20305963749E+02  0.10303549513E+02  0.11489359646E+02  0.17308940084E+03  0.17120000000E+03 0.  0.
        998    1    1    2    0    0 -0.39210006258E+02 -0.34171833058E+02  0.14390844932E+04  0.14400587895E+04  0.10000000000E+02 0. -1.
</event>
<event>
 5    1  0.1334136E-008  0.3825439E+03  0.7957747E-01  0.3440156E+00
         13   -1    0    0    0    0  0.00000000000E+00  0.00000000000E+00  0.14999999963E+04  0.15000000000E+04  0.10566000000E+00 0.  1.
        994   -1    0    0    0    0 -0.00000000000E+00 -0.00000000000E+00  0.11368683772E-12  0.17120000000E+03  0.17120000000E+03 0.  0.
         13    1    1    2    0    0  0.16159575092E+02  0.87337155876E+01  0.60545307119E+02  0.63270491015E+02  0.10566000000E+00 0.  1.
        994    1    1    2    0    0 -0.60860329375E+01  0.35054564383E+01  0.30180299766E+01  0.17137058244E+03  0.17120000000E+03 0.  0.
        998    1    1    2    0    0 -0.10073542155E+02 -0.12239172026E+02  0.14364366592E+04  0.14365589265E+04  0.10000000000E+02 0.  1.
</event>
<event>
 5    1  0.1334136E-008  0.3839067E+03  0.7957747E-01  0.3434322E+00
         13   -1    0    0    0    0  0.00000000000E+00  0.00000000000E+00  0.14999999963E+04  0.15000000000E+04  0.10566000000E+00 0.  1.
        994   -1    0    0    0    0 -0.00000000000E+00 -0.00000000000E+00  0.11368683772E-12  0.17120000000E+03  0.17120000000E+03 0.  0.
         13    1    1    2    0    0 -0.97066465779E+01 -0.14143733653E+02  0.63599823915E+02  0.65872702659E+02  0.10566000000E+00 0.  1.
        994    1    1    2    0    0  0.11410571722E+02  0.18014879486E+02  0.36761530510E+01  0.17256213701E+03  0.17120000000E+03 0.  0.
        998    1    1    2    0    0 -0.17039251437E+01 -0.38711458324E+01  0.14327240193E+04  0.14327651603E+04  0.10000000000E+02 0.  1.
</event>
<event>
 5    1  0.1334136E-008  0.3764526E+03  0.7957747E-01  0.3466752E+00
         13   -1    0    0    0    0  0.00000000000E+00  0.00000000000E+00  0.14999999963E+04  0.15000000000E+04  0.10566000000E+00 0. -1.
        994   -1    0    0    0    0 -0.00000000000E+00 -0.00000000000E+00  0.11368683772E-12  0.17120000000E+03  0.17120000000E+03 0.  0.
         13    1    1    2    0    0  0.48922782127E+02 -0.38808682635E+02  0.35501024707E+03  0.36046059306E+03  0.10566000000E+00 0. -1.
        994    1    1    2    0    0 -0.24278503081E+02  0.11720673713E+02  0.83971536271E+01  0.17351303148E+03  0.17120000000E+03 0.  0.
        998    1    1    2    0    0 -0.24644279046E+02  0.27088008922E+02  0.11365925956E+04  0.11372263755E+04  0.10000000000E+02 0. -1.
</event>
<event>
 5    1  0.1334136E-008  0.3803066E+03  0.7957747E-01  0.3449825E+00
         13   -1    0    0    0    0  0.00000000000E+00  0.00000000000E+00  0.14999999963E+04  0.15000000000E+04  0.10566000000E+00 0. -1.
        994   -1    0    0    0    0 -0.00000000000E+00 -0.00000000000E+00  0.11368683772E-12  0.17120000000E+03  0.17120000000E+03 0.  0.
         13    1    1    2    0    0 -0.32579067124E+02  0.28835678387E+02  0.26055656885E+03  0.26416401855E+03  0.10566000000E+00 0. -1.
        994    1    1    2    0    0  0.26175507547E+02  0.69404183629E+01  0.64312834442E+01  0.17344776738E+03  0.17120000000E+03 0.  0.
        998    1    1    2    0    0  0.64035595774E+01 -0.35776096750E+02  0.12330121440E+04  0.12335882141E+04  0.10000000000E+02 0. -1.
</event>
<event>
 5    1  0.1334136E-008  0.3766349E+03  0.7957747E-01  0.3465943E+00
         13   -1    0    0    0    0  0.00000000000E+00  0.00000000000E+00  0.14999999963E+04  0.15000000000E+04  0.10566000000E+00 0. -1.
        994   -1    0    0    0    0 -0.00000000000E+00 -0.00000000000E+00  0.11368683772E-12  0.17120000000E+03  0.17120000000E+03 0.  0.
         13    1    1    2    0    0  0.13113156323E+02 -0.20552228066E+02  0.53491945183E+02  0.58785613127E+02  0.10566000000E+00 0. -1.
        994    1    1    2    0    0  0.24698614416E+02  0.12953987419E+01  0.79122156698E+01  0.17315814381E+03  0.17120000000E+03 0.  0.
        998    1    1    2    0    0 -0.37811770740E+02  0.19256829324E+02  0.14385958354E+04  0.14392562431E+04  0.10000000000E+02 0. -1.
</event>
<event>
 5    1  0.1334136E-008  0.3852170E+03  0.7957747E-01  0.3428752E+00
         13   -1    0    0    0    0  0.00000000000E+00  0.00000000000E+00  0.14999999963E+04  0.15000000000E+04  0.10566000000E+00 0.  1.
        994   -1    0    0    0    0 -0.00000000000E+00 -0.00000000000E+00  0.11368683772E-12  0.17120000000E+03  0.17120000000E+03 0.  0.
         13    1    1    2    0    0 -0.35297617466E+01  0.16269578775E+02  0.89725079867E+02  0.91256558848E+02  0.10566000000E+00 0.  1.
        994    1    1    2    0    0  0.58035687586E+01 -0.11979117384E+02  0.21049417446E+01  0.17172958814E+03  0.17120000000E+03 0.  0.
        998    1    1    2    0    0 -0.22738070120E+01 -0.42904613910E+01  0.14081699747E+04  0.14082138530E+04  0.10000000000E+02 0.  1.
</event>
<event>
 5    1  0.1334136E-008  0.3760074E+03  0.7957747E-01  0.3468729E+00
         13   -1    0    0    0    0  0.00000000000E+00  0.00000000000E+00  0.14999999963E+04  0.15000000000E+04  0.10566000000E+00 0.  1.
        994   -1    0    0    0    0 -0.00000000000E+00 -0.00000000000E+00  0.11368683772E-12  0.17120000000E+03  0.17120000000E+03 0.  0.
         13    1    1    2    0    0  0.28903581523E+02 -0.34454222793E+02  0.62614241824E+02  0.77091276656E+02  0.10566000000E+00 0.  1.
        994    1    1    2    0    0 -0.48219092514E+02  0.25854106899E+02  0.24920327038E+02  0.18144965810E+03  0.17120000000E+03 0.  0.
        998    1    1    2    0    0  0.19315510991E+02  0.86001158947E+01  0.14124654274E+04  0.14126590652E+04  0.10000000000E+02 0.  1.
</event>
<event>
 5    1  0.1334136E-008  0.3862435E+03  0.7957747E-01  0.3424416E+00
         13   -1    0    0    0    0  0.00000000000E+00  0.00000000000E+00  0.14999999963E+04  0.15000000000E+04  0.10566000000E+00 0.  1.
        994   -1    0    0    0    0 -0.00000000000E+00 -0.00000000000E+00  0.11368683772E-12  0.17120000000E+03  0.17120000000E+03 0.  0.
         13    1    1    2    0    0  0.29534641745E+00  0.10041056059E+02  0.57122415398E+02  0.57999065003E+02  0.10566000000E+00 0.  1.
        994    1    1    2    0    0 -0.87016803343E+01  0.92803073214E+01  0.15443098230E+01  0.17167896854E+03  0.17120000000E+03 0.  0.
        998    1    1    2    0    0  0.84063339168E+01 -0.19321363381E+02  0.14413332711E+04  0.14415219665E+04  0.10000000000E+02 0.  1.
</event>
<event>
 5    1  0.1334136E-008  0.3748380E+03  0.7957747E-01  0.3473947E+00
         13   -1    0    0    0    0  0.00000000000E+00  0.00000000000E+00  0.14999999963E+04  0.15000000000E+04  0.10566000000E+00 0. -1.
        994   -1    0    0    0    0 -0.00000000000E+00 -0.00000000000E+00  0.11368683772E-12  0.17120000000E+03  0.17120000000E+03 0.  0.
         13    1    1    2    0    0  0.12545463762E+03 -0.10892807740E+03  0.62952525363E+03  0.65108083082E+03  0.10566000000E+00 0. -1.
        994    1    1    2    0    0 -0.14165570001E+03  0.14691560181E+03  0.16495522428E+03  0.31332123679E+03  0.17120000000E+03 0.  0.
        998    1    1    2    0    0  0.16201062391E+02 -0.37987524411E+02  0.70551951837E+03  0.70679793239E+03  0.10000000000E+02 0. -1.
</event>
<event>
 5    1  0.1334136E-008  0.3805174E+03  0.7957747E-01  0.3448909E+00
         13   -1    0    0    0    0  0.00000000000E+00  0.00000000000E+00  0.14999999963E+04  0.15000000000E+04  0.10566000000E+00 0. -1.
        994   -1    0    0    0    0 -0.00000000000E+00 -0.00000000000E+00  0.11368683772E-12  0.17120000000E+03  0.17120000000E+03 0.  0.
         13    1    1    2    0    0  0.81187458568E+01 -0.31936755928E+02  0.16878960509E+03  0.17197619708E+03  0.10566000000E+00 0. -1.
        994    1    1    2    0    0  0.28793357631E+01 -0.72919438914E+01  0.40773578753E+01  0.17142790866E+03  0.17120000000E+03 0.  0.
        998    1    1    2    0    0 -0.10998081620E+02  0.39228699819E+02  0.13271330333E+04  0.13277958943E+04  0.10000000000E+02 0. -1.
</event>
<event>
 5    1  0.1334136E-008  0.3766627E+03  0.7957747E-01  0.3465820E+00
         13   -1    0    0    0    0  0.00000000000E+00  0.00000000000E+00  0.14999999963E+04  0.15000000000E+04  0.10566000000E+00 0. -1.
        994   -1    0    0    0    0 -0.00000000000E+00 -0.00000000000E+00  0.11368683772E-12  0.17120000000E+03  0.17120000000E+03 0.  0.
         13    1    1    2    0    0 -0.10840200344E+03 -0.37246587951E+02  0.68683579055E+03  0.69633448644E+03  0.10566000000E+00 0. -1.
        994    1    1    2    0    0  0.11622501504E+03 -0.78558661604E+00  0.52947901787E+02  0.21359258314E+03  0.17120000000E+03 0.  0.
        998    1    1    2    0    0 -0.78230116072E+01  0.38032174567E+02  0.76021630394E+03  0.76127293042E+03  0.10000000000E+02 0. -1.
</event>
<event>
 5    1  0.1334136E-008  0.3832014E+03  0.7957747E-01  0.3437336E+00
         13   -1    0    0    0    0  0.00000000000E+00  0.00000000000E+00  0.14999999963E+04  0.15000000000E+04  0.10566000000E+00 0.  1.
        994   -1    0    0    0    0 -0.00000000000E+00 -0.00000000000E+00  0.11368683772E-12  0.17120000000E+03  0.17120000000E+03 0.  0.
         13    1    1    2    0    0 -0.12316096279E+02 -0.25744157016E+01  0.30044768122E+02  0.32573196025E+02  0.10566000000E+00 0.  1.
        994    1    1    2    0    0  0.11187787573E+02  0.90106483082E+01  0.32086534902E+01  0.17183158566E+03  0.17120000000E+03 0.  0.
        998    1    1    2    0    0  0.11283087063E+01 -0.64362326066E+01  0.14667465747E+04  0.14667952183E+04  0.10000000000E+02 0.  1.
</event>
<event>
 5    1  0.1334136E-008  0.3971824E+03  0.7957747E-01  0.3379593E+00
         13   -1    0    0    0    0  0.00000000000E+00  0.00000000000E+00  0.14999999963E+04  0.15000000000E+04  0.10566000000E+00 0. -1.
        994   -1    0    0    0    0 -0.00000000000E+00 -0.00000000000E+00  0.11368683772E-12  0.17120000000E+03  0.17120000000E+03 0.  0.
         13    1    1    2    0    0  0.96665554734E+02  0.12176921992E+03  0.34205591936E+03  0.37573160038E+03  0.10566000000E+00 0. -1.
        994    1    1    2    0    0 -0.10370528150E+03 -0.10944818954E+03  0.12072482861E+03  0.25810388576E+03  0.17120000000E+03 0.  0.
        998    1    1    2    0    0  0.70397267636E+01 -0.12321030386E+02  0.10372192483E+04  0.10373645139E+04  0.10000000000E+02 0. -1.
</event>
<event>
 5    1  0.1334136E-008  0.3782373E+03  0.7957747E-01  0.3458870E+00
         13   -1    0    0    0    0  0.00000000000E+00  0.00000000000E+00  0.14999999963E+04  0.15000000000E+04  0.10566000000E+00 0.  1.
        994   -1    0    0    0    0 -0.00000000000E+00 -0.00000000000E+00  0.11368683772E-12  0.17120000000E+03  0.17120000000E+03 0.  0.
         13    1    1    2    0    0  0.16658289922E+02 -0.69435116124E+02  0.27587577297E+03  0.28496699327E+03  0.10566000000E+00 0.  1.
        994    1    1    2    0    0 -0.78279495946E+02  0.10964230214E+03  0.68700545493E+02  0.22842574035E+03  0.17120000000E+03 0.  0.
        998    1    1    2    0    0  0.61621206023E+02 -0.40207186013E+02  0.11554236778E+04  0.11578072664E+04  0.10000000000E+02 0.  1.
</event>
<event>
 5    1  0.1334136E-008  0.3804665E+03  0.7957747E-01  0.3449130E+00
         13   -1    0    0    0    0  0.00000000000E+00  0.00000000000E+00  0.14999999963E+04  0.15000000000E+04  0.10566000000E+00 0. -1.
        994   -1    0    0    0    0 -0.00000000000E+00 -0.00000000000E+00  0.11368683772E-12  0.17120000000E+03  0.17120000000E+03 0.  0.
         13    1    1    2    0    0 -0.22740750414E+02 -0.97871435888E+01  0.78170555874E+02  0.81997419952E+02  0.10566000000E+00 0. -1.
        994    1    1    2    0    0  0.19338384225E+02 -0.11574379499E+02  0.55950563311E+01  0.17276771695E+03  0.17120000000E+03 0.  0.
        998    1    1    2    0    0  0.34023661891E+01  0.21361523088E+02  0.14162343841E+04  0.14164348631E+04  0.10000000000E+02 0. -1.
</event>
<event>
 5    1  0.1334136E-008  0.3837417E+03  0.7957747E-01  0.3435026E+00
         13   -1    0    0    0    0  0.00000000000E+00  0.00000000000E+00  0.14999999963E+04  0.15000000000E+04  0.10566000000E+00 0. -1.
        994   -1    0    0    0    0 -0.00000000000E+00 -0.00000000000E+00  0.11368683772E-12  0.17120000000E+03  0.17120000000E+03 0.  0.
         13    1    1    2    0    0 -0.12715414678E+02 -0.64386404213E+01  0.44194608258E+02  0.46436111207E+02  0.10566000000E+00 0. -1.
        994    1    1    2    0    0  0.95334818795E+01  0.49127968153E+01  0.26360466019E+01  0.17155585560E+03  0.17120000000E+03 0.  0.
        998    1    1    2    0    0  0.31819327980E+01  0.15258436060E+01  0.14531693414E+04  0.14532080332E+04  0.10000000000E+02 0. -1.
</event>
<event>
 5    1  0.1334136E-008  0.3727838E+03  0.7957747E-01  0.3483194E+00
         13   -1    0    0    0    0  0.00000000000E+00  0.00000000000E+00  0.14999999963E+04  0.15000000000E+04  0.10566000000E+00 0. -1.
        994   -1    0    0    0    0 -0.00000000000E+00 -0.00000000000E+00  0.11368683772E-12  0.17120000000E+03  0.17120000000E+03 0.  0.
         13    1    1    2    0    0 -0.27427836674E+02 -0.14308771418E+02  0.61292499967E+02  0.68657183749E+02  0.10566000000E+00 0. -1.
        994    1    1    2    0    0  0.79195175914E+01 -0.60523766520E+01  0.81615300142E+01  0.17168401380E+03  0.17120000000E+03 0.  0.
        998    1    1    2    0    0  0.19508319082E+02  0.20361148070E+02  0.14305459663E+04  0.14308588025E+04  0.10000000000E+02 0. -1.
</event>
<event>
 5    1  0.1334136E-008  0.3855371E+03  0.7957747E-01  0.3427397E+00
         13   -1    0    0    0    0  0.00000000000E+00  0.00000000000E+00  0.14999999963E+04  0.15000000000E+04  0.10566000000E+00 0. -1.
        994   -1    0    0    0    0 -0.00000000000E+00 -0.00000000000E+00  0.11368683772E-12  0.17120000000E+03  0.17120000000E+03 0.  0.
         13    1    1    2    0    0  0.11837475253E+02  0.12704330869E+02  0.10242721615E+03  0.10388874634E+03  0.10566000000E+00 0. -1.
        994    1    1    2    0    0 -0.16887329681E+02 -0.12461970462E+02  0.28111018116E+01  0.17250456488E+03  0.17120000000E+03 0.  0.
        998    1    1    2    0    0  0.50498544273E+01 -0.24236040666E+00  0.13947616783E+04  0.13948066888E+04  0.10000000000E+02 0. -1.
</event>
<event>
 5    1  0.1334136E-008  0.3813242E+03  0.7957747E-01  0.3445413E+00
         13   -1    0    0    0    0  0.00000000000E+00  0.00000000000E+00  0.14999999963E+04  0.15000000000E+04  0.10566000000E+00 0.  1.
        994   -1    0    0    0    0 -0.00000000000E+00 -0.00000000000E+00  0.11368683772E-12  0.17120000000E+03  0.17120000000E+03 0.  0.
         13    1    1    2    0    0 -0.10677729572E+02 -0.18201366508E+02  0.75896025596E+02  0.78775132605E+02  0.10566000000E+00 0.  1.
        994    1    1    2    0    0 -0.25870905295E+02 -0.12160148094E+02  0.61907965815E+01  0.17368056571E+03  0.17120000000E+03 0.  0.
        998    1    1    2    0    0  0.36548634868E+02  0.30361514602E+02  0.14179131741E+04  0.14187443017E+04  0.10000000000E+02 0.  1.
</event>
<event>
 5    1  0.1334136E-008  0.3783771E+03  0.7957747E-01  0.3458256E+00
         13   -1    0    0    0    0  0.00000000000E+00  0.00000000000E+00  0.14999999963E+04  0.15000000000E+04  0.10566000000E+00 0. -1.
        994   -1    0    0    0    0 -0.00000000000E+00 -0.00000000000E+00  0.11368683772E-12  0.17120000000E+03  0.17120000000E+03 0.  0.
         13    1    1    2    0    0 -0.95401769687E+02 -0.16558095823E+03  0.10919943948E+04  0.11085893382E+04  0.10566000000E+00 0. -1.
        994    1    1    2    0    0  0.74691132637E+02  0.16805621726E+03  0.12861455537E+03  0.28226370881E+03  0.17120000000E+03 0.  0.
        998    1    1    2    0    0  0.20710637050E+02 -0.24752590341E+01  0.27939104614E+03  0.28034695300E+03  0.10000000000E+02 0.  0.
</event>
<event>
 5    1  0.1334136E-008  0.3786192E+03  0.7957747E-01  0.3457193E+00
         13   -1    0    0    0    0  0.00000000000E+00  0.00000000000E+00  0.14999999963E+04  0.15000000000E+04  0.10566000000E+00 0. -1.
        994   -1    0    0    0    0 -0.00000000000E+00 -0.00000000000E+00  0.11368683772E-12  0.17120000000E+03  0.17120000000E+03 0.  0.
         13    1    1    2    0    0  0.11199748301E+02 -0.11371107373E+01 -0.31881530480E+01  0.11700549847E+02  0.10566000000E+00 0. -1.
        994    1    1    2    0    0 -0.13013722053E+02 -0.52943550319E+01  0.16282868306E+02  0.17254552720E+03  0.17120000000E+03 0.  0.
        998    1    1    2    0    0  0.18139737525E+01  0.64314657693E+01  0.14869052810E+04  0.14869539230E+04  0.10000000000E+02 0. -1.
</event>
<event>
 5    1  0.1334136E-008  0.3714555E+03  0.7957747E-01  0.3489228E+00
         13   -1    0    0    0    0  0.00000000000E+00  0.00000000000E+00  0.14999999963E+04  0.15000000000E+04  0.10566000000E+00 0. -1.
        994   -1    0    0    0    0 -0.00000000000E+00 -0.00000000000E+00  0.11368683772E-12  0.17120000000E+03  0.17120000000E+03 0.  0.
         13    1    1    2    0    0  0.41592310813E+02 -0.45150458830E+02  0.17411716342E+03  0.18462199764E+03  0.10566000000E+00 0. -1.
        994    1    1    2    0    0 -0.11341730251E+02  0.90719924635E+01  0.12452060870E+02  0.17226557901E+03  0.17120000000E+03 0.  0.
        998    1    1    2    0    0 -0.30250580562E+02  0.36078466367E+02  0.13134307720E+04  0.13143124234E+04  0.10000000000E+02 0. -1.
</event>
<event>
 5    1  0.1334136E-008  0.3775285E+03  0.7957747E-01  0.3461991E+00
         13   -1    0    0    0    0  0.00000000000E+00  0.00000000000E+00  0.14999999963E+04  0.15000000000E+04  0.10566000000E+00 0.  1.
        994   -1    0    0    0    0 -0.00000000000E+00 -0.00000000000E+00  0.11368683772E-12  0.17120000000E+03  0.17120000000E+03 0.  0.
         13    1    1    2    0    0 -0.14587421941E+02  0.37177889990E+02  0.17388008166E+03  0.17840762973E+03  0.10566000000E+00 0.  1.
        994    1    1    2    0    0 -0.44431428044E+01  0.29209441306E+01  0.54812900848E+01  0.17137023655E+03  0.17120000000E+03 0.  0.
        998    1    1    2    0    0  0.19030564745E+02 -0.40098834121E+02  0.13206386245E+04  0.13214221337E+04  0.10000000000E+02 0.  1.
</event>
<event>
 5    1  0.1334136E-008  0.3855607E+03  0.7957747E-01  0.3427298E+00
         13   -1    0    0    0    0  0.00000000000E+00  0.00000000000E+00  0.14999999963E+04  0.15000000000E+04  0.10566000000E+00 0. -1.
        994   -1    0    0    0    0 -0.00000000000E+00 -0.00000000000E+00  0.11368683772E-12  0.17120000000E+03  0.17120000000E+03 0.  0.
         13    1    1    2    0    0 -0.11400049811E+02 -0.44207989416E+01  0.54724962124E+02  0.56074390255E+02  0.10566000000E+00 0. -1.
        994    1    1    2    0    0  0.83248008729E+01  0.80856962107E+01  0.17942637752E+01  0.17160227322E+03  0.17120000000E+03 0.  0.
        998    1    1    2    0    0  0.30752489383E+01 -0.36648972691E+01  0.14434807704E+04  0.14435233365E+04  0.10000000000E+02 0. -1.
</event>
<event>
 5    1  0.1334136E-008  0.3744002E+03  0.7957747E-01  0.3475910E+00
         13   -1    0    0    0    0  0.00000000000E+00  0.00000000000E+00  0.14999999963E+04  0.15000000000E+04  0.10566000000E+00 0. -1.
        994   -1    0    0    0    0 -0.00000000000E+00 -0.00000000000E+00  0.11368683772E-12  0.17120000000E+03  0.17120000000E+03 0.  0.
         13    1    1    2    0    0 -0.12750083874E+02  0.32763609323E+02  0.42110657315E+02  0.54857427557E+02  0.10566000000E+00 0. -1.
        994    1    1    2    0    0  0.45165948303E+01 -0.17354354641E+02  0.14427279646E+02  0.17274015067E+03  0.17120000000E+03 0.  0.
        998    1    1    2    0    0  0.82334890436E+01 -0.15409254682E+02  0.14434620593E+04  0.14436024218E+04  0.10000000000E+02 0. -1.
</event>
<event>
 5    1  0.1334136E-008  0.3840380E+03  0.7957747E-01  0.3433763E+00
         13   -1    0    0    0    0  0.00000000000E+00  0.00000000000E+00  0.14999999963E+04  0.15000000000E+04  0.10566000000E+00 0. -1.
        994   -1    0    0    0    0 -0.00000000000E+00 -0.00000000000E+00  0.11368683772E-12  0.17120000000E+03  0.17120000000E+03 0.  0.
         13    1    1    2    0    0  0.11643152755E+02  0.32595979800E+01  0.33750709197E+02  0.35851213653E+02  0.10566000000E+00 0. -1.
        994    1    1    2    0    0 -0.11496816252E+02  0.86168982149E+00  0.25471336899E+01  0.17160666416E+03  0.17120000000E+03 0.  0.
        998    1    1    2    0    0 -0.14633650251E+00 -0.41212878015E+01  0.14637021534E+04  0.14637421222E+04  0.10000000000E+02 0. -1.
</event>
<event>
 5    1  0.1334136E-008  0.3738078E+03  0.7957747E-01  0.3478572E+00
         13   -1    0    0    0    0  0.00000000000E+00  0.00000000000E+00  0.14999999963E+04  0.15000000000E+04  0.10566000000E+00 0.  1.
        994   -1    0    0    0    0 -0.00000000000E+00 -0.00000000000E+00  0.11368683772E-12  0.17120000000E+03  0.17120000000E+03 0.  0.
         13    1    1    2    0    0 -0.15804822883E+03 -0.25606104944E+02  0.45583683909E+03  0.48313781707E+03  0.10566000000E+00 0.  1.
        994    1    1    2    0    0  0.19713690726E+03  0.12546272019E+02  0.16768988056E+03  0.31056352842E+03  0.17120000000E+03 0.  0.
        998    1    1    2    0    0 -0.39088678424E+02  0.13059832924E+02  0.87647327663E+03  0.87749865451E+03  0.10000000000E+02 0. -1.
</event>
<event>
 5    1  0.1334136E-008  0.3837563E+03  0.7957747E-01  0.3434964E+00
         13   -1    0    0    0    0  0.00000000000E+00  0.00000000000E+00  0.14999999963E+04  0.15000000000E+04  0.10566000000E+00 0.  1.
        994   -1    0    0    0    0 -0.00000000000E+00 -0.00000000000E+00  0.11368683772E-12  0.17120000000E+03  0.17120000000E+03 0.  0.
         13    1    1    2    0    0 -0.28099470295E-01 -0.10962887443E+02  0.26094160770E+02  0.28303746766E+02  0.10566000000E+00 0.  1.
        994    1    1    2    0    0  0.25484820656E+01  0.67523094760E+01  0.24209042514E+01  0.17136916065E+03  0.17120000000E+03 0.  0.
        998    1    1    2    0    0 -0.25203825954E+01  0.42105779665E+01  0.14714849313E+04  0.14715270926E+04  0.10000000000E+02 0.  1.
</event>
<event>
 5    1  0.1334136E-008  0.3795001E+03  0.7957747E-01  0.3453338E+00
         13   -1    0    0    0    0  0.00000000000E+00  0.00000000000E+00  0.14999999963E+04  0.15000000000E+04  0.10566000000E+00 0. -1.
        994   -1    0    0    0    0 -0.00000000000E+00 -0.00000000000E+00  0.11368683772E-12  0.17120000000E+03  0.17120000000E+03 0.  0.
         13    1    1    2    0    0  0.17966209598E+02 -0.42191613717E+02  0.20453550870E+03  0.20961322105E+03  0.10566000000E+00 0. -1.
        994    1    1    2    0    0 -0.26499231201E+02  0.40805861853E+02  0.12353704298E+02  0.17840790797E+03  0.17120000000E+03 0.  0.
        998    1    1    2    0    0  0.85330216029E+01  0.13857518645E+01  0.12831107833E+04  0.12831788710E+04  0.10000000000E+02 0. -1.
</event>
<event>
 5    1  0.1334136E-008  0.3845957E+03  0.7957747E-01  0.3431389E+00
         13   -1    0    0    0    0  0.00000000000E+00  0.00000000000E+00  0.14999999963E+04  0.15000000000E+04  0.10566000000E+00 0.  1.
        994   -1    0    0    0    0 -0.00000000000E+00 -0.00000000000E+00  0.11368683772E-12  0.17120000000E+03  0.17120000000E+03 0.  0.
         13    1    1    2    0    0 -0.13281037989E+02  0.18694476683E+01  0.46901294218E+02  0.48781383416E+02  0.10566000000E+00 0.  1.
        994    1    1    2    0    0  0.15995821274E+02 -0.87448849051E+01  0.29261485236E+01  0.17219274565E+03  0.17120000000E+03 0.  0.
        998    1    1    2    0    0 -0.27147832860E+01  0.68754372368E+01  0.14501725535E+04  0.14502258709E+04  0.10000000000E+02 0.  1.
</event>
<event>
 5    1  0.1334136E-008  0.3785604E+03  0.7957747E-01  0.3457451E+00
         13   -1    0    0    0    0  0.00000000000E+00  0.00000000000E+00  0.14999999963E+04  0.15000000000E+04  0.10566000000E+00 0. -1.
        994   -1    0    0    0    0 -0.00000000000E+00 -0.00000000000E+00  0.11368683772E-12  0.17120000000E+03  0.17120000000E+03 0.  0.
         13    1    1    2    0    0 -0.14070497020E+02 -0.42437095931E+02  0.18377937410E+03  0.18913951334E+03  0.10566000000E+00 0. -1.
        994    1    1    2    0    0  0.14325022689E+02  0.39477300255E+02  0.10808520381E+02  0.17660670322E+03  0.17120000000E+03 0.  0.
        998    1    1    2    0    0 -0.25452566901E+00  0.29597956763E+01  0.13054121018E+04  0.13054537834E+04  0.10000000000E+02 0.  0.
</event>
<event>
 5    1  0.1334136E-008  0.3816247E+03  0.7957747E-01  0.3444115E+00
         13   -1    0    0    0    0  0.00000000000E+00  0.00000000000E+00  0.14999999963E+04  0.15000000000E+04  0.10566000000E+00 0.  1.
        994   -1    0    0    0    0 -0.00000000000E+00 -0.00000000000E+00  0.11368683772E-12  0.17120000000E+03  0.17120000000E+03 0.  0.
         13    1    1    2    0    0  0.67787763215E+01 -0.16319733028E+02  0.48038831162E+02  0.51186189133E+02  0.10566000000E+00 0.  1.
        994    1    1    2    0    0  0.50828632714E+02  0.23026288344E+02  0.13738773657E+02  0.18058780070E+03  0.17120000000E+03 0.  0.
        998    1    1    2    0    0 -0.57607409036E+02 -0.67065553159E+01  0.14382223915E+04  0.14394260102E+04  0.10000000000E+02 0.  1.
</event>
<event>
 5    1  0.1334136E-008  0.3778932E+03  0.7957747E-01  0.3460384E+00
         13   -1    0    0    0    0  0.00000000000E+00  0.00000000000E+00  0.14999999963E+04  0.15000000000E+04  0.10566000000E+00 0.  1.
        994   -1    0    0    0    0 -0.00000000000E+00 -0.00000000000E+00  0.11368683772E-12  0.17120000000E+03  0.17120000000E+03 0.  0.
         13    1    1    2    0    0  0.14515728144E+02 -0.23209015097E+02  0.72439757313E+02  0.77439617438E+02  0.10566000000E+00 0.  1.
        994    1    1    2    0    0 -0.36512940448E+02 -0.11368798927E+02  0.10139400052E+02  0.17571195703E+03  0.17120000000E+03 0.  0.
        998    1    1    2    0    0  0.21997212305E+02  0.34577814024E+02  0.14174208389E+04  0.14180484255E+04  0.10000000000E+02 0.  1.
</event>
<event>
 5    1  0.1334136E-008  0.3725300E+03  0.7957747E-01  0.3484344E+00
         13   -1    0    0    0    0  0.00000000000E+00  0.00000000000E+00  0.14999999963E+04  0.15000000000E+04  0.10566000000E+00 0.  1.
        994   -1    0    0    0    0 -0.00000000000E+00 -0.00000000000E+00  0.11368683772E-12  0.17120000000E+03  0.17120000000E+03 0.  0.
         13    1    1    2    0    0 -0.15080196225E+03  0.19038018240E+02  0.78701107329E+03  0.80155481322E+03  0.10566000000E+00 0.  1.
        994    1    1    2    0    0  0.13610279642E+03 -0.48753918360E+02  0.83383458378E+02  0.23908817804E+03  0.17120000000E+03 0.  0.
        998    1    1    2    0    0  0.14699165837E+02  0.29715900120E+02  0.62960546462E+03  0.63055700874E+03  0.10000000000E+02 0.  1.
</event>
<event>
 5    1  0.1334136E-008  0.3850221E+03  0.7957747E-01  0.3429579E+00
         13   -1    0    0    0    0  0.00000000000E+00  0.00000000000E+00  0.14999999963E+04  0.15000000000E+04  0.10566000000E+00 0. -1.
        994   -1    0    0    0    0 -0.00000000000E+00 -0.00000000000E+00  0.11368683772E-12  0.17120000000E+03  0.17120000000E+03 0.  0.
         13    1    1    2    0    0  0.92021787082E-01 -0.18037934191E+02  0.10564821249E+03  0.10717710345E+03  0.10566000000E+00 0. -1.
        994    1    1    2    0    0 -0.66863045177E+00  0.54591990864E+01  0.17186604475E+01  0.17129694602E+03  0.17120000000E+03 0.  0.
        998    1    1    2    0    0  0.57660866469E+00  0.12578735104E+02  0.13926331233E+04  0.13927259505E+04  0.10000000000E+02 0. -1.
</event>
<event>
 5    1  0.1334136E-008  0.3746798E+03  0.7957747E-01  0.3474656E+00
         13   -1    0    0    0    0  0.00000000000E+00  0.00000000000E+00  0.14999999963E+04  0.15000000000E+04  0.10566000000E+00 0.  1.
        994   -1    0    0    0    0 -0.00000000000E+00 -0.00000000000E+00  0.11368683772E-12  0.17120000000E+03  0.17120000000E+03 0.  0.
         13    1    1    2    0    0 -0.10076322471E+02 -0.26999944176E+02  0.25128136737E+02  0.38235633642E+02  0.10566000000E+00 0.  1.
        994    1    1    2    0    0  0.38064986816E+02  0.11853733639E+02  0.19105707023E+02  0.17681606902E+03  0.17120000000E+03 0.  0.
        998    1    1    2    0    0 -0.27988664345E+02  0.15146210538E+02  0.14557661525E+04  0.14561482973E+04  0.10000000000E+02 0.  1.
</event>
<event>
 5    1  0.1334136E-008  0.3778139E+03  0.7957747E-01  0.3460733E+00
         13   -1    0    0    0    0  0.00000000000E+00  0.00000000000E+00  0.14999999963E+04  0.15000000000E+04  0.10566000000E+00 0. -1.
        994   -1    0    0    0    0 -0.00000000000E+00 -0.00000000000E+00  0.11368683772E-12  0.17120000000E+03  0.17120000000E+03 0.  0.
         13    1    1    2    0    0  0.27449005944E+02  0.40649892736E+02  0.25229093443E+03  0.25701476313E+03  0.10566000000E+00 0. -1.
        994    1    1    2    0    0 -0.28757655029E+01 -0.16001655975E+02  0.61313283929E+01  0.17207950549E+03  0.17120000000E+03 0.  0.
        998    1    1    2    0    0 -0.24573240441E+02 -0.24648236761E+02  0.12415777335E+04  0.12421057314E+04  0.10000000000E+02 0. -1.
</event>
<event>
 5    1  0.1334136E-008  0.3587503E+03  0.7957747E-01  0.3549246E+00
         13   -1    0    0    0    0  0.00000000000E+00  0.00000000000E+00  0.14999999963E+04  0.15000000000E+04  0.10566000000E+00 0. -1.
        994   -1    0    0    0    0 -0.00000000000E+00 -0.00000000000E+00  0.11368683772E-12  0.17120000000E+03  0.17120000000E+03 0.  0.
         13    1    1    2    0    0 -0.27433705386E+03  0.55875134685E+02  0.86338365001E+03  0.90764210351E+03  0.10566000000E+00 0. -1.
        994    1    1    2    0    0  0.28422148782E+03 -0.50271892081E+02  0.38191394894E+03  0.50840615817E+03  0.17120000000E+03 0.  0.
        998    1    1    2    0    0 -0.98844339524E+01 -0.56032426039E+01  0.25470239733E+03  0.25515173832E+03  0.10000000000E+02 0. -1.
</event>
<event>
 5    1  0.1334136E-008  0.3855244E+03  0.7957747E-01  0.3427451E+00
         13   -1    0    0    0    0  0.00000000000E+00  0.00000000000E+00  0.14999999963E+04  0.15000000000E+04  0.10566000000E+00 0. -1.
        994   -1    0    0    0    0 -0.00000000000E+00 -0.00000000000E+00  0.11368683772E-12  0.17120000000E+03  0.17120000000E+03 0.  0.
         13    1    1    2    0    0  0.82499875148E+01 -0.11651490203E+02  0.76934142953E+02  0.78247639159E+02  0.10566000000E+00 0. -1.
        994    1    1    2    0    0 -0.37616935500E+01  0.42049245562E+01  0.14745393355E+01  0.17129928778E+03  0.17120000000E+03 0.  0.
        998    1    1    2    0    0 -0.44882939648E+01  0.74465656470E+01  0.14215913140E+04  0.14216530731E+04  0.10000000000E+02 0. -1.
</event>
<event>
 5    1  0.1334136E-008  0.3819790E+03  0.7957747E-01  0.3442587E+00
         13   -1    0    0    0    0  0.00000000000E+00  0.00000000000E+00  0.14999999963E+04  0.15000000000E+04  0.10566000000E+00 0.  1.
        994   -1    0    0    0    0 -0.00000000000E+00 -0.00000000000E+00  0.11368683772E-12  0.17120000000E+03  0.17120000000E+03 0.  0.
         13    1    1    2    0    0  0.30631179646E+02  0.78119001161E+01  0.14554900676E+03  0.14894233610E+03  0.10566000000E+00 0.  1.
        994    1    1    2    0    0 -0.27516033024E+02 -0.16974333383E+02  0.66167663365E+01  0.17435160356E+03  0.17120000000E+03 0.  0.
        998    1    1    2    0    0 -0.31151466215E+01  0.91624332666E+01  0.13478342232E+04  0.13479060603E+04  0.10000000000E+02 0.  1.
</event>
<event>
 5    1  0.1334136E-008  0.3846184E+03  0.7957747E-01  0.3431292E+00
         13   -1    0    0    0    0  0.00000000000E+00  0.00000000000E+00  0.14999999963E+04  0.15000000000E+04  0.10566000000E+00 0.  1.
        994   -1    0    0    0    0 -0.00000000000E+00 -0.00000000000E+00  0.11368683772E-12  0.17120000000E+03  0.17120000000E+03 0.  0.
         13    1    1    2    0    0 -0.18898625741E+02  0.10488288372E+02  0.12598015815E+03  0.12782086551E+03  0.10566000000E+00 0.  1.
        994    1    1    2    0    0  0.17025212918E+02 -0.14036449062E+01  0.27812069802E+01  0.17207266839E+03  0.17120000000E+03 0.  0.
        998    1    1    2    0    0  0.18734128234E+01 -0.90846434661E+01  0.13712386311E+04  0.13713064661E+04  0.10000000000E+02 0.  1.
</event>
<event>
 5    1  0.1334136E-008  0.3706390E+03  0.7957747E-01  0.3492959E+00
         13   -1    0    0    0    0  0.00000000000E+00  0.00000000000E+00  0.14999999963E+04  0.15000000000E+04  0.10566000000E+00 0. -1.
        994   -1    0    0    0    0 -0.00000000000E+00 -0.00000000000E+00  0.11368683772E-12  0.17120000000E+03  0.17120000000E+03 0.  0.
         13    1    1    2    0    0 -0.13940138931E+02  0.20597189051E+02  0.30382871490E+02  0.39264509602E+02  0.10566000000E+00 0. -1.
        994    1    1    2    0    0  0.15020234115E+02 -0.19490926901E+02  0.11027276596E+02  0.17331054351E+03  0.17120000000E+03 0.  0.
        998    1    1    2    0    0 -0.10800951845E+01 -0.11062621508E+01  0.14585898482E+04  0.14586249469E+04  0.10000000000E+02 0. -1.
</event>
<event>
 5    1  0.1363986E-008  0.3861472E+03  0.7957747E-01  0.3424821E+00
         13   -1    0    0    0    0  0.00000000000E+00  0.00000000000E+00  0.14999999963E+04  0.15000000000E+04  0.10566000000E+00 0.  1.
        994   -1    0    0    0    0 -0.00000000000E+00 -0.00000000000E+00  0.11368683772E-12  0.17120000000E+03  0.17120000000E+03 0.  0.
         13    1    1    2    0    0  0.55406739828E+01 -0.95149249718E+01  0.56753322840E+02  0.57811622385E+02  0.10566000000E+00 0.  1.
        994    1    1    2    0    0 -0.60739315443E+00  0.11485415842E+02  0.14951838912E+01  0.17159242197E+03  0.17120000000E+03 0.  0.
        998    1    1    2    0    0 -0.49332808284E+01 -0.19704908701E+01  0.14417514895E+04  0.14417959556E+04  0.10000000000E+02 0.  1.
</event>
<event>
 5    1  0.1334136E-008  0.3841691E+03  0.7957747E-01  0.3433204E+00
         13   -1    0    0    0    0  0.00000000000E+00  0.00000000000E+00  0.14999999963E+04  0.15000000000E+04  0.10566000000E+00 0.  1.
        994   -1    0    0    0    0 -0.00000000000E+00 -0.00000000000E+00  0.11368683772E-12  0.17120000000E+03  0.17120000000E+03 0.  0.
         13    1    1    2    0    0 -0.85881766790E+01  0.98533176193E+01  0.41292144449E+02  0.43311626660E+02  0.10566000000E+00 0.  1.
        994    1    1    2    0    0  0.58439509823E+01 -0.70087532179E+01  0.23178760763E+01  0.17145870329E+03  0.17120000000E+03 0.  0.
        998    1    1    2    0    0  0.27442256966E+01 -0.28445644015E+01  0.14563899758E+04  0.14564296700E+04  0.10000000000E+02 0.  1.
</event>
<event>
 5    1  0.1334136E-008  0.3813715E+03  0.7957747E-01  0.3445208E+00
         13   -1    0    0    0    0  0.00000000000E+00  0.00000000000E+00  0.14999999963E+04  0.15000000000E+04  0.10566000000E+00 0.  1.
        994   -1    0    0    0    0 -0.00000000000E+00 -0.00000000000E+00  0.11368683772E-12  0.17120000000E+03  0.17120000000E+03 0.  0.
         13    1    1    2    0    0 -0.13016058781E+01  0.33314759964E+02  0.13652987719E+03  0.14054175870E+03  0.10566000000E+00 0.  1.
        994    1    1    2    0    0  0.62777219707E+01 -0.44717811996E+02  0.10258100047E+02  0.17735208237E+03  0.17120000000E+03 0.  0.
        998    1    1    2    0    0 -0.49761160926E+01  0.11403052032E+02  0.13532120190E+04  0.13533061589E+04  0.10000000000E+02 0.  1.
</event>
<event>
 5    1  0.1334136E-008  0.3854783E+03  0.7957747E-01  0.3427646E+00
         13   -1    0    0    0    0  0.00000000000E+00  0.00000000000E+00  0.14999999963E+04  0.15000000000E+04  0.10566000000E+00 0. -1.
        994   -1    0    0    0    0 -0.00000000000E+00 -0.00000000000E+00  0.11368683772E-12  0.17120000000E+03  0.17120000000E+03 0.  0.
         13    1    1    2    0    0  0.17795774895E+00 -0.12545247733E+02  0.54886300056E+02  0.56302149227E+02  0.10566000000E+00 0. -1.
        994    1    1    2    0    0  0.52877134807E+02  0.17878988693E+02  0.11690938787E+02  0.18044879515E+03  0.17120000000E+03 0.  0.
        998    1    1    2    0    0 -0.53055092556E+02 -0.53337409598E+01  0.14334227574E+04  0.14344490556E+04  0.10000000000E+02 0. -1.
</event>
<event>
 5    1  0.1334136E-008  0.3696665E+03  0.7957747E-01  0.3497425E+00
         13   -1    0    0    0    0  0.00000000000E+00  0.00000000000E+00  0.14999999963E+04  0.15000000000E+04  0.10566000000E+00 0. -1.
        994   -1    0    0    0    0 -0.00000000000E+00 -0.00000000000E+00  0.11368683772E-12  0.17120000000E+03  0.17120000000E+03 0.  0.
         13    1    1    2    0    0 -0.38634002508E+02  0.21017515166E+01  0.63247536447E+02  0.74143546852E+02  0.10566000000E+00 0. -1.
        994    1    1    2    0    0  0.37716190236E+02  0.14397001159E+01  0.15753505402E+02  0.17601760331E+03  0.17120000000E+03 0.  0.
        998    1    1    2    0    0  0.91781227204E+00 -0.35414516325E+01  0.14209989544E+04  0.14210388498E+04  0.10000000000E+02 0. -1.
</event>
<event>
 5    1  0.1334136E-008  0.3833589E+03  0.7957747E-01  0.3436662E+00
         13   -1    0    0    0    0  0.00000000000E+00  0.00000000000E+00  0.14999999963E+04  0.15000000000E+04  0.10566000000E+00 0.  1.
        994   -1    0    0    0    0 -0.00000000000E+00 -0.00000000000E+00  0.11368683772E-12  0.17120000000E+03  0.17120000000E+03 0.  0.
         13    1    1    2    0    0 -0.17496451049E+02  0.93812035868E+01  0.83488636473E+02  0.85816643865E+02  0.10566000000E+00 0.  1.
        994    1    1    2    0    0  0.43041880653E+01 -0.30567250739E+01  0.25392429559E+01  0.17130019661E+03  0.17120000000E+03 0.  0.
        998    1    1    2    0    0  0.13192262983E+02 -0.63244785129E+01  0.14139721168E+04  0.14140831595E+04  0.10000000000E+02 0.  1.
</event>
<event>
 5    1  0.1334136E-008  0.3828574E+03  0.7957747E-01  0.3438810E+00
         13   -1    0    0    0    0  0.00000000000E+00  0.00000000000E+00  0.14999999963E+04  0.15000000000E+04  0.10566000000E+00 0. -1.
        994   -1    0    0    0    0 -0.00000000000E+00 -0.00000000000E+00  0.11368683772E-12  0.17120000000E+03  0.17120000000E+03 0.  0.
         13    1    1    2    0    0 -0.16293165415E+02  0.29518954079E+02  0.19726589442E+03  0.20012666027E+03  0.10566000000E+00 0. -1.
        994    1    1    2    0    0  0.11023597066E+02 -0.24404855396E+02  0.50761291336E+01  0.17335606060E+03  0.17120000000E+03 0.  0.
        998    1    1    2    0    0  0.52695683491E+01 -0.51140986822E+01  0.12976579727E+04  0.12977172791E+04  0.10000000000E+02 0. -1.
</event>
<event>
 5    1  0.1334136E-008  0.3867512E+03  0.7957747E-01  0.3422279E+00
         13   -1    0    0    0    0  0.00000000000E+00  0.00000000000E+00  0.14999999963E+04  0.15000000000E+04  0.10566000000E+00 0.  1.
        994   -1    0    0    0    0 -0.00000000000E+00 -0.00000000000E+00  0.11368683772E-12  0.17120000000E+03  0.17120000000E+03 0.  0.
         13    1    1    2    0    0  0.69370188966E+01 -0.19634756909E+02  0.19012364983E+01  0.20911044314E+02  0.10566000000E+00 0.  1.
        994    1    1    2    0    0 -0.55409598498E+01  0.17848940478E+02  0.21385174771E+02  0.17353977242E+03  0.17120000000E+03 0.  0.
        998    1    1    2    0    0 -0.13960590468E+01  0.17858164304E+01  0.14767135850E+04  0.14767491833E+04  0.10000000000E+02 0.  1.
</event>
<event>
 5    1  0.1334136E-008  0.4182338E+03  0.7957747E-01  0.3299896E+00
         13   -1    0    0    0    0  0.00000000000E+00  0.00000000000E+00  0.14999999963E+04  0.15000000000E+04  0.10566000000E+00 0.  1.
        994   -1    0    0    0    0 -0.00000000000E+00 -0.00000000000E+00  0.11368683772E-12  0.17120000000E+03  0.17120000000E+03 0.  0.
         13    1    1    2    0    0  0.21720327753E+02 -0.13802090057E+02 -0.92429091333E+01  0.27344338736E+02  0.10566000000E+00 0.  1.
        994    1    1    2    0    0 -0.73766888375E+02  0.35987116338E+02  0.68302708052E+02  0.20177047923E+03  0.17120000000E+03 0.  0.
        998    1    1    2    0    0  0.52046560621E+02 -0.22185026281E+02  0.14409401974E+04  0.14420851820E+04  0.10000000000E+02 0.  1.
</event>
<event>
 5    1  0.1334136E-008  0.3848272E+03  0.7957747E-01  0.3430405E+00
         13   -1    0    0    0    0  0.00000000000E+00  0.00000000000E+00  0.14999999963E+04  0.15000000000E+04  0.10566000000E+00 0. -1.
        994   -1    0    0    0    0 -0.00000000000E+00 -0.00000000000E+00  0.11368683772E-12  0.17120000000E+03  0.17120000000E+03 0.  0.
         13    1    1    2    0    0 -0.10017376856E+02  0.17062080105E+02  0.10504212661E+03  0.10688929761E+03  0.10566000000E+00 0. -1.
        994    1    1    2    0    0  0.60714019243E+01 -0.23269257661E+02  0.36212352679E+01  0.17291869077E+03  0.17120000000E+03 0.  0.
        998    1    1    2    0    0  0.39459749316E+01  0.62071775561E+01  0.13913366344E+04  0.13913920116E+04  0.10000000000E+02 0. -1.
</event>
<event>
 5    1  0.1334136E-008  0.3843922E+03  0.7957747E-01  0.3432254E+00
         13   -1    0    0    0    0  0.00000000000E+00  0.00000000000E+00  0.14999999963E+04  0.15000000000E+04  0.10566000000E+00 0.  1.
        994   -1    0    0    0    0 -0.00000000000E+00 -0.00000000000E+00  0.11368683772E-12  0.17120000000E+03  0.17120000000E+03 0.  0.
         13    1    1    2    0    0  0.16875126308E+02  0.14887966368E+02  0.11713140941E+03  0.11927363357E+03  0.10566000000E+00 0.  1.
        994    1    1    2    0    0 -0.21733696085E+02 -0.18001212987E+02  0.45608449588E+01  0.17357026969E+03  0.17120000000E+03 0.  0.
        998    1    1    2    0    0  0.48585697777E+01  0.31132466190E+01  0.13783077419E+04  0.13783560967E+04  0.10000000000E+02 0.  1.
</event>
<event>
 5    1  0.1334136E-008  0.3852079E+03  0.7957747E-01  0.3428791E+00
         13   -1    0    0    0    0  0.00000000000E+00  0.00000000000E+00  0.14999999963E+04  0.15000000000E+04  0.10566000000E+00 0. -1.
        994   -1    0    0    0    0 -0.00000000000E+00 -0.00000000000E+00  0.11368683772E-12  0.17120000000E+03  0.17120000000E+03 0.  0.
         13    1    1    2    0    0 -0.63939302995E+01  0.88391580529E+01  0.40102013278E+02  0.41559543943E+02  0.10566000000E+00 0. -1.
        994    1    1    2    0    0  0.88046962464E+01  0.42145835122E+01  0.18401774016E+01  0.17148793439E+03  0.17120000000E+03 0.  0.
        998    1    1    2    0    0 -0.24107659469E+01 -0.13053741565E+02  0.14580578056E+04  0.14581525217E+04  0.10000000000E+02 0. -1.
</event>
<event>
 5    1  0.1334136E-008  0.3794198E+03  0.7957747E-01  0.3453689E+00
         13   -1    0    0    0    0  0.00000000000E+00  0.00000000000E+00  0.14999999963E+04  0.15000000000E+04  0.10566000000E+00 0. -1.
        994   -1    0    0    0    0 -0.00000000000E+00 -0.00000000000E+00  0.11368683772E-12  0.17120000000E+03  0.17120000000E+03 0.  0.
         13    1    1    2    0    0  0.49328726912E+02  0.41116237032E+02  0.32262043685E+03  0.32894957924E+03  0.10566000000E+00 0. -1.
        994    1    1    2    0    0 -0.45867188767E+02 -0.67174436021E+02  0.26914910874E+02  0.19144204420E+03  0.17120000000E+03 0.  0.
        998    1    1    2    0    0 -0.34615381449E+01  0.26058198989E+02  0.11504646486E+04  0.11508083766E+04  0.10000000000E+02 0. -1.
</event>
<event>
 5    1  0.1334136E-008  0.3861681E+03  0.7957747E-01  0.3424733E+00
         13   -1    0    0    0    0  0.00000000000E+00  0.00000000000E+00  0.14999999963E+04  0.15000000000E+04  0.10566000000E+00 0.  1.
        994   -1    0    0    0    0 -0.00000000000E+00 -0.00000000000E+00  0.11368683772E-12  0.17120000000E+03  0.17120000000E+03 0.  0.
         13    1    1    2    0    0 -0.18211277704E+02 -0.73920471775E+01  0.10744737832E+03  0.10923023057E+03  0.10566000000E+00 0.  1.
        994    1    1    2    0    0  0.72559777879E+02  0.15659495052E+02  0.19316328684E+02  0.18759717936E+03  0.17120000000E+03 0.  0.
        998    1    1    2    0    0 -0.54348500175E+02 -0.82674478741E+01  0.13732362893E+04  0.13743725901E+04  0.10000000000E+02 0.  1.
</event>
<event>
 5    1  0.1334136E-008  0.3781622E+03  0.7957747E-01  0.3459200E+00
         13   -1    0    0    0    0  0.00000000000E+00  0.00000000000E+00  0.14999999963E+04  0.15000000000E+04  0.10566000000E+00 0. -1.
        994   -1    0    0    0    0 -0.00000000000E+00 -0.00000000000E+00  0.11368683772E-12  0.17120000000E+03  0.17120000000E+03 0.  0.
         13    1    1    2    0    0 -0.87641841760E+01 -0.59121062863E+01  0.87448449001E+01  0.13720328034E+02  0.10566000000E+00 0. -1.
        994    1    1    2    0    0  0.80860840209E+01  0.24163649119E+01  0.53033021525E+01  0.17148990812E+03  0.17120000000E+03 0.  0.
        998    1    1    2    0    0  0.67810015509E+00  0.34957413744E+01  0.14859518492E+04  0.14859897638E+04  0.10000000000E+02 0. -1.
</event>
<event>
 5    1  0.1334136E-008  0.3770064E+03  0.7957747E-01  0.3464298E+00
         13   -1    0    0    0    0  0.00000000000E+00  0.00000000000E+00  0.14999999963E+04  0.15000000000E+04  0.10566000000E+00 0.  1.
        994   -1    0    0    0    0 -0.00000000000E+00 -0.00000000000E+00  0.11368683772E-12  0.17120000000E+03  0.17120000000E+03 0.  0.
         13    1    1    2    0    0 -0.83485747826E-01  0.30767391994E+02  0.72969528093E+02  0.79190924821E+02  0.10566000000E+00 0.  1.
        994    1    1    2    0    0 -0.76616362075E+02 -0.49585704125E+02  0.34311075779E+02  0.19701649401E+03  0.17120000000E+03 0.  0.
        998    1    1    2    0    0  0.76699847823E+02  0.18818312131E+02  0.13927193924E+04  0.13949925812E+04  0.10000000000E+02 0.  1.
</event>
<event>
 5    1  0.1334136E-008  0.3785826E+03  0.7957747E-01  0.3457354E+00
         13   -1    0    0    0    0  0.00000000000E+00  0.00000000000E+00  0.14999999963E+04  0.15000000000E+04  0.10566000000E+00 0. -1.
        994   -1    0    0    0    0 -0.00000000000E+00 -0.00000000000E+00  0.11368683772E-12  0.17120000000E+03  0.17120000000E+03 0.  0.
         13    1    1    2    0    0  0.15410685473E+02  0.62008384858E+01  0.16827227655E+01  0.16696776473E+02  0.10566000000E+00 0. -1.
        994    1    1    2    0    0 -0.21063628980E+02 -0.13288510086E+02  0.17789868050E+02  0.17391429030E+03  0.17120000000E+03 0.  0.
        998    1    1    2    0    0  0.56529435071E+01  0.70876716004E+01  0.14805274055E+04  0.14805889332E+04  0.10000000000E+02 0. -1.
</event>
<event>
 5    1  0.1334136E-008  0.3810002E+03  0.7957747E-01  0.3446815E+00
         13   -1    0    0    0    0  0.00000000000E+00  0.00000000000E+00  0.14999999963E+04  0.15000000000E+04  0.10566000000E+00 0.  1.
        994   -1    0    0    0    0 -0.00000000000E+00 -0.00000000000E+00  0.11368683772E-12  0.17120000000E+03  0.17120000000E+03 0.  0.
         13    1    1    2    0    0  0.20460035912E+02  0.47227593248E+01  0.62073298552E+02  0.65528795825E+02  0.10566000000E+00 0.  1.
        994    1    1    2    0    0 -0.27223725889E+01 -0.44821095796E+01  0.37207621033E+01  0.17132070712E+03  0.17120000000E+03 0.  0.
        998    1    1    2    0    0 -0.17737663323E+02 -0.24064974516E+00  0.14342059356E+04  0.14343504971E+04  0.10000000000E+02 0.  1.
</event>
<event>
 5    1  0.1334136E-008  0.3846619E+03  0.7957747E-01  0.3431107E+00
         13   -1    0    0    0    0  0.00000000000E+00  0.00000000000E+00  0.14999999963E+04  0.15000000000E+04  0.10566000000E+00 0. -1.
        994   -1    0    0    0    0 -0.00000000000E+00 -0.00000000000E+00  0.11368683772E-12  0.17120000000E+03  0.17120000000E+03 0.  0.
         13    1    1    2    0    0 -0.51962616159E+01  0.19113264822E+02  0.10918563135E+03  0.11096770379E+03  0.10566000000E+00 0. -1.
        994    1    1    2    0    0  0.80336794239E+01 -0.10505753928E+02  0.23741490767E+01  0.17172649025E+03  0.17120000000E+03 0.  0.
        998    1    1    2    0    0 -0.28374178080E+01 -0.86075108938E+01  0.13884402159E+04  0.13885058060E+04  0.10000000000E+02 0. -1.
</event>
<event>
 5    1  0.1334136E-008  0.3723815E+03  0.7957747E-01  0.3485017E+00
         13   -1    0    0    0    0  0.00000000000E+00  0.00000000000E+00  0.14999999963E+04  0.15000000000E+04  0.10566000000E+00 0.  1.
        994   -1    0    0    0    0 -0.00000000000E+00 -0.00000000000E+00  0.11368683772E-12  0.17120000000E+03  0.17120000000E+03 0.  0.
         13    1    1    2    0    0  0.55992519613E+02 -0.11289758174E+02  0.14930511727E+03  0.15985821874E+03  0.10566000000E+00 0.  1.
        994    1    1    2    0    0  0.21876362313E+01  0.15990413040E+02  0.13122455487E+02  0.17245903253E+03  0.17120000000E+03 0.  0.
        998    1    1    2    0    0 -0.58180155844E+02 -0.47006548665E+01  0.13375724235E+04  0.13388827487E+04  0.10000000000E+02 0.  1.
</event>
<event>
 5    1  0.1334136E-008  0.3809056E+03  0.7957747E-01  0.3447225E+00
         13   -1    0    0    0    0  0.00000000000E+00  0.00000000000E+00  0.14999999963E+04  0.15000000000E+04  0.10566000000E+00 0.  1.
        994   -1    0    0    0    0 -0.00000000000E+00 -0.00000000000E+00  0.11368683772E-12  0.17120000000E+03  0.17120000000E+03 0.  0.
         13    1    1    2    0    0 -0.26186546452E+01 -0.34556050948E+02  0.18574696647E+03  0.18895217577E+03  0.10566000000E+00 0.  1.
        994    1    1    2    0    0 -0.11435403026E+02  0.35265038093E+01  0.41541281008E+01  0.17166799775E+03  0.17120000000E+03 0.  0.
        998    1    1    2    0    0  0.14054057671E+02  0.31029547139E+02  0.13100989017E+04  0.13105798265E+04  0.10000000000E+02 0.  1.
</event>
<event>
 5    1  0.1334136E-008  0.3768776E+03  0.7957747E-01  0.3464868E+00
         13   -1    0    0    0    0  0.00000000000E+00  0.00000000000E+00  0.14999999963E+04  0.15000000000E+04  0.10566000000E+00 0. -1.
        994   -1    0    0    0    0 -0.00000000000E+00 -0.00000000000E+00  0.11368683772E-12  0.17120000000E+03  0.17120000000E+03 0.  0.
         13    1    1    2    0    0  0.14787657043E+03  0.14178531242E+03  0.82255418707E+03  0.84768269814E+03  0.10566000000E+00 0. -1.
        994    1    1    2    0    0 -0.18323522995E+03 -0.13741711413E+03  0.21041964200E+03  0.35502743343E+03  0.17120000000E+03 0.  0.
        998    1    1    2    0    0  0.35358659518E+02 -0.43681982923E+01  0.46702616721E+03  0.46848986843E+03  0.10000000000E+02 0. -1.
</event>
<event>
 5    1  0.1334136E-008  0.3709270E+03  0.7957747E-01  0.3491642E+00
         13   -1    0    0    0    0  0.00000000000E+00  0.00000000000E+00  0.14999999963E+04  0.15000000000E+04  0.10566000000E+00 0.  1.
        994   -1    0    0    0    0 -0.00000000000E+00 -0.00000000000E+00  0.11368683772E-12  0.17120000000E+03  0.17120000000E+03 0.  0.
         13    1    1    2    0    0 -0.10320381355E+03 -0.71722097166E+01  0.53430251249E+03  0.54422573785E+03  0.10566000000E+00 0.  1.
        994    1    1    2    0    0  0.72299003642E+02  0.20556768498E+02  0.28517443514E+02  0.18913595968E+03  0.17120000000E+03 0.  0.
        998    1    1    2    0    0  0.30904809910E+02 -0.13384558781E+02  0.93718004028E+03  0.93783830247E+03  0.10000000000E+02 0.  1.
</event>
<event>
 5    1  0.1334136E-008  0.3823114E+03  0.7957747E-01  0.3441156E+00
         13   -1    0    0    0    0  0.00000000000E+00  0.00000000000E+00  0.14999999963E+04  0.15000000000E+04  0.10566000000E+00 0.  1.
        994   -1    0    0    0    0 -0.00000000000E+00 -0.00000000000E+00  0.11368683772E-12  0.17120000000E+03  0.17120000000E+03 0.  0.
         13    1    1    2    0    0  0.84569489680E+01  0.18128941696E+02  0.74794816379E+02  0.77423860884E+02  0.10566000000E+00 0.  1.
        994    1    1    2    0    0  0.89356550678E+01  0.67161359270E+01  0.33855577739E+01  0.17159794409E+03  0.17120000000E+03 0.  0.
        998    1    1    2    0    0 -0.17392604036E+02 -0.24845077623E+02  0.14218196221E+04  0.14221781950E+04  0.10000000000E+02 0.  1.
</event>
<event>
 5    1  0.1334136E-008  0.3853695E+03  0.7957747E-01  0.3428107E+00
         13   -1    0    0    0    0  0.00000000000E+00  0.00000000000E+00  0.14999999963E+04  0.15000000000E+04  0.10566000000E+00 0.  1.
        994   -1    0    0    0    0 -0.00000000000E+00 -0.00000000000E+00  0.11368683772E-12  0.17120000000E+03  0.17120000000E+03 0.  0.
         13    1    1    2    0    0 -0.95161579168E+01 -0.52376087104E+01  0.40752750987E+02  0.42175676444E+02  0.10566000000E+00 0.  1.
        994    1    1    2    0    0  0.71728592515E+01  0.29402822954E+01  0.16442272728E+01  0.17138330914E+03  0.17120000000E+03 0.  0.
        998    1    1    2    0    0  0.23432986652E+01  0.22973264149E+01  0.14576030180E+04  0.14576410144E+04  0.10000000000E+02 0.  1.
</event>
<event>
 5    1  0.1334136E-008  0.3790021E+03  0.7957747E-01  0.3455515E+00
         13   -1    0    0    0    0  0.00000000000E+00  0.00000000000E+00  0.14999999963E+04  0.15000000000E+04  0.10566000000E+00 0. -1.
        994   -1    0    0    0    0 -0.00000000000E+00 -0.00000000000E+00  0.11368683772E-12  0.17120000000E+03  0.17120000000E+03 0.  0.
         13    1    1    2    0    0 -0.41424205827E+02  0.53458517226E+01  0.19567484697E+03  0.20008298243E+03  0.10566000000E+00 0. -1.
        994    1    1    2    0    0  0.19675640235E+02  0.14471466184E+02  0.66411433068E+01  0.17306096884E+03  0.17120000000E+03 0.  0.
        998    1    1    2    0    0  0.21748565592E+02 -0.19817317907E+02  0.12976840060E+04  0.12980560487E+04  0.10000000000E+02 0. -1.
</event>
<event>
 5    1  0.1334136E-008  0.3778310E+03  0.7957747E-01  0.3460658E+00
         13   -1    0    0    0    0  0.00000000000E+00  0.00000000000E+00  0.14999999963E+04  0.15000000000E+04  0.10566000000E+00 0.  1.
        994   -1    0    0    0    0 -0.00000000000E+00 -0.00000000000E+00  0.11368683772E-12  0.17120000000E+03  0.17120000000E+03 0.  0.
         13    1    1    2    0    0  0.96932087274E+00 -0.91969604880E+02  0.55099238980E+03  0.55861612274E+03  0.10566000000E+00 0.  1.
        994    1    1    2    0    0  0.60239040100E+01  0.85486081803E+02  0.30373296779E+02  0.19384564674E+03  0.17120000000E+03 0.  0.
        998    1    1    2    0    0 -0.69932248827E+01  0.64835230772E+01  0.91863430970E+03  0.91873823052E+03  0.10000000000E+02 0.  1.
</event>
<event>
 5    1  0.1334136E-008  0.3788310E+03  0.7957747E-01  0.3456264E+00
         13   -1    0    0    0    0  0.00000000000E+00  0.00000000000E+00  0.14999999963E+04  0.15000000000E+04  0.10566000000E+00 0. -1.
        994   -1    0    0    0    0 -0.00000000000E+00 -0.00000000000E+00  0.11368683772E-12  0.17120000000E+03  0.17120000000E+03 0.  0.
         13    1    1    2    0    0  0.25489521266E+02 -0.18153980907E+01  0.71192500976E+02  0.75639901665E+02  0.10566000000E+00 0. -1.
        994    1    1    2    0    0 -0.12333889272E+01  0.29048289397E+02  0.75664242086E+01  0.17381603821E+03  0.17120000000E+03 0.  0.
        998    1    1    2    0    0 -0.24256132339E+02 -0.27232891307E+02  0.14212410711E+04  0.14217440601E+04  0.10000000000E+02 0. -1.
</event>
<event>
 5    1  0.1334136E-008  0.3850026E+03  0.7957747E-01  0.3429661E+00
         13   -1    0    0    0    0  0.00000000000E+00  0.00000000000E+00  0.14999999963E+04  0.15000000000E+04  0.10566000000E+00 0. -1.
        994   -1    0    0    0    0 -0.00000000000E+00 -0.00000000000E+00  0.11368683772E-12  0.17120000000E+03  0.17120000000E+03 0.  0.
         13    1    1    2    0    0  0.81422803106E+01 -0.19231042259E+02  0.12323494839E+03  0.12499197328E+03  0.10566000000E+00 0. -1.
        994    1    1    2    0    0 -0.40458091691E+01  0.22975835709E+02  0.34207272194E+01  0.17281608424E+03  0.17120000000E+03 0.  0.
        998    1    1    2    0    0 -0.40964711415E+01 -0.37447934504E+01  0.13733443207E+04  0.13733919425E+04  0.10000000000E+02 0. -1.
</event>
<event>
 5    1  0.1334136E-008  0.3840384E+03  0.7957747E-01  0.3433761E+00
         13   -1    0    0    0    0  0.00000000000E+00  0.00000000000E+00  0.14999999963E+04  0.15000000000E+04  0.10566000000E+00 0.  1.
        994   -1    0    0    0    0 -0.00000000000E+00 -0.00000000000E+00  0.11368683772E-12  0.17120000000E+03  0.17120000000E+03 0.  0.
         13    1    1    2    0    0  0.37589621732E+01  0.12817322998E+02  0.42762031358E+02  0.44799732760E+02  0.10566000000E+00 0.  1.
        994    1    1    2    0    0 -0.36747877815E+01 -0.32561959629E+01  0.21878392524E+01  0.17128436449E+03  0.17120000000E+03 0.  0.
        998    1    1    2    0    0 -0.84174391702E-01 -0.95611270353E+01  0.14550501257E+04  0.14551159028E+04  0.10000000000E+02 0.  1.
</event>
<event>
 5    1  0.1334136E-008  0.3712449E+03  0.7957747E-01  0.3490189E+00
         13   -1    0    0    0    0  0.00000000000E+00  0.00000000000E+00  0.14999999963E+04  0.15000000000E+04  0.10566000000E+00 0. -1.
        994   -1    0    0    0    0 -0.00000000000E+00 -0.00000000000E+00  0.11368683772E-12  0.17120000000E+03  0.17120000000E+03 0.  0.
         13    1    1    2    0    0 -0.48571009609E+02 -0.62189649864E+02  0.29372056208E+03  0.30413561988E+03  0.10566000000E+00 0. -1.
        994    1    1    2    0    0  0.49788864271E+02  0.57419502580E+02  0.28776228452E+02  0.18950842094E+03  0.17120000000E+03 0.  0.
        998    1    1    2    0    0 -0.12178546624E+01  0.47701472840E+01  0.11775032057E+04  0.11775559592E+04  0.10000000000E+02 0.  0.
</event>
<event>
 5    1  0.1334136E-008  0.3762683E+03  0.7957747E-01  0.3467570E+00
         13   -1    0    0    0    0  0.00000000000E+00  0.00000000000E+00  0.14999999963E+04  0.15000000000E+04  0.10566000000E+00 0.  1.
        994   -1    0    0    0    0 -0.00000000000E+00 -0.00000000000E+00  0.11368683772E-12  0.17120000000E+03  0.17120000000E+03 0.  0.
         13    1    1    2    0    0  0.10705966368E+02  0.16984249010E+03  0.99997106909E+03  0.10143486774E+04  0.10566000000E+00 0.  1.
        994    1    1    2    0    0 -0.13851146583E+02 -0.15470858772E+03  0.92620742408E+02  0.24902739468E+03  0.17120000000E+03 0.  0.
        998    1    1    2    0    0  0.31451802153E+01 -0.15133902382E+02  0.40740818478E+03  0.40782392793E+03  0.10000000000E+02 0.  0.
</event>
<event>
 5    1  0.1334136E-008  0.3836203E+03  0.7957747E-01  0.3435545E+00
         13   -1    0    0    0    0  0.00000000000E+00  0.00000000000E+00  0.14999999963E+04  0.15000000000E+04  0.10566000000E+00 0.  1.
        994   -1    0    0    0    0 -0.00000000000E+00 -0.00000000000E+00  0.11368683772E-12  0.17120000000E+03  0.17120000000E+03 0.  0.
         13    1    1    2    0    0  0.12578990411E+02 -0.17789875462E+02  0.97584153303E+02  0.99986943191E+02  0.10566000000E+00 0.  1.
        994    1    1    2    0    0 -0.13418421724E+02  0.15274746070E+02  0.36834406170E+01  0.17244239515E+03  0.17120000000E+03 0.  0.
        998    1    1    2    0    0  0.83943131263E+00  0.25151293912E+01  0.13987324024E+04  0.13987706617E+04  0.10000000000E+02 0.  1.
</event>
<event>
 5    1  0.1334136E-008  0.3930457E+03  0.7957747E-01  0.3396250E+00
         13   -1    0    0    0    0  0.00000000000E+00  0.00000000000E+00  0.14999999963E+04  0.15000000000E+04  0.10566000000E+00 0.  1.
        994   -1    0    0    0    0 -0.00000000000E+00 -0.00000000000E+00  0.11368683772E-12  0.17120000000E+03  0.17120000000E+03 0.  0.
         13    1    1    2    0    0  0.45240423044E+02 -0.45341779868E+02  0.73610083896E+02  0.97575757717E+02  0.10566000000E+00 0.  1.
        994    1    1    2    0    0 -0.49433279120E+02  0.50149260739E+02  0.42820899441E+02  0.19000438644E+03  0.17120000000E+03 0.  0.
        998    1    1    2    0    0  0.41928560757E+01 -0.48074808714E+01  0.13835690129E+04  0.13836198558E+04  0.10000000000E+02 0.  1.
</event>
<event>
 5    1  0.1334136E-008  0.3845428E+03  0.7957747E-01  0.3431613E+00
         13   -1    0    0    0    0  0.00000000000E+00  0.00000000000E+00  0.14999999963E+04  0.15000000000E+04  0.10566000000E+00 0. -1.
        994   -1    0    0    0    0 -0.00000000000E+00 -0.00000000000E+00  0.11368683772E-12  0.17120000000E+03  0.17120000000E+03 0.  0.
         13    1    1    2    0    0  0.17926671400E+02  0.55101526175E+01  0.99689876104E+02  0.10143870016E+03  0.10566000000E+00 0. -1.
        994    1    1    2    0    0 -0.38338810671E+01 -0.36926138801E+01  0.19506056374E+01  0.17129383790E+03  0.17120000000E+03 0.  0.
        998    1    1    2    0    0 -0.14092790333E+02 -0.18175387374E+01  0.13983595145E+04  0.13984674619E+04  0.10000000000E+02 0. -1.
</event>
<event>
 5    1  0.1334136E-008  0.3832509E+03  0.7957747E-01  0.3437124E+00
         13   -1    0    0    0    0  0.00000000000E+00  0.00000000000E+00  0.14999999963E+04  0.15000000000E+04  0.10566000000E+00 0. -1.
        994   -1    0    0    0    0 -0.00000000000E+00 -0.00000000000E+00  0.11368683772E-12  0.17120000000E+03  0.17120000000E+03 0.  0.
         13    1    1    2    0    0 -0.90989928865E+01 -0.48910177852E+01  0.20093860896E+02  0.22593984515E+02  0.10566000000E+00 0. -1.
        994    1    1    2    0    0  0.11299285560E+02  0.53366300013E+01  0.30176532397E+01  0.17168197257E+03  0.17120000000E+03 0.  0.
        998    1    1    2    0    0 -0.22002926737E+01 -0.44561221616E+00  0.14768884821E+04  0.14769240429E+04  0.10000000000E+02 0. -1.
</event>
<event>
 5    1  0.1334136E-008  0.3790201E+03  0.7957747E-01  0.3455436E+00
         13   -1    0    0    0    0  0.00000000000E+00  0.00000000000E+00  0.14999999963E+04  0.15000000000E+04  0.10566000000E+00 0. -1.
        994   -1    0    0    0    0 -0.00000000000E+00 -0.00000000000E+00  0.11368683772E-12  0.17120000000E+03  0.17120000000E+03 0.  0.
         13    1    1    2    0    0 -0.38714420865E+01  0.12528484631E+03  0.74185385328E+03  0.75236854770E+03  0.10566000000E+00 0. -1.
        994    1    1    2    0    0  0.18444684593E+02 -0.13027923018E+03  0.65072391667E+02  0.22551439059E+03  0.17120000000E+03 0.  0.
        998    1    1    2    0    0 -0.14573242506E+02  0.49943838696E+01  0.69307375134E+03  0.69331706171E+03  0.10000000000E+02 0.  1.
</event>
<event>
 5    1  0.1334136E-008  0.3750010E+03  0.7957747E-01  0.3473218E+00
         13   -1    0    0    0    0  0.00000000000E+00  0.00000000000E+00  0.14999999963E+04  0.15000000000E+04  0.10566000000E+00 0. -1.
        994   -1    0    0    0    0 -0.00000000000E+00 -0.00000000000E+00  0.11368683772E-12  0.17120000000E+03  0.17120000000E+03 0.  0.
         13    1    1    2    0    0 -0.20043689888E-01 -0.16450589088E+02  0.17255881922E+02  0.23841118012E+02  0.10566000000E+00 0. -1.
        994    1    1    2    0    0 -0.10083257277E+01  0.14427550994E+02  0.73895154942E+01  0.17196864798E+03  0.17120000000E+03 0.  0.
        998    1    1    2    0    0  0.10283694176E+01  0.20230380943E+01  0.14753545989E+04  0.14753902340E+04  0.10000000000E+02 0. -1.
</event>
<event>
 5    1  0.1334136E-008  0.3844896E+03  0.7957747E-01  0.3431840E+00
         13   -1    0    0    0    0  0.00000000000E+00  0.00000000000E+00  0.14999999963E+04  0.15000000000E+04  0.10566000000E+00 0. -1.
        994   -1    0    0    0    0 -0.00000000000E+00 -0.00000000000E+00  0.11368683772E-12  0.17120000000E+03  0.17120000000E+03 0.  0.
         13    1    1    2    0    0  0.14774434564E+03 -0.30420137057E+02  0.41356139209E+03  0.44021223586E+03  0.10566000000E+00 0. -1.
        994    1    1    2    0    0 -0.14557166929E+03  0.31278340225E+02  0.10588562430E+03  0.25038101146E+03  0.17120000000E+03 0.  0.
        998    1    1    2    0    0 -0.21726763448E+01 -0.85820316804E+00  0.98055297989E+03  0.98060675268E+03  0.10000000000E+02 0.  0.
</event>
<event>
 5    1  0.1334136E-008  0.3776144E+03  0.7957747E-01  0.3461612E+00
         13   -1    0    0    0    0  0.00000000000E+00  0.00000000000E+00  0.14999999963E+04  0.15000000000E+04  0.10566000000E+00 0. -1.
        994   -1    0    0    0    0 -0.00000000000E+00 -0.00000000000E+00  0.11368683772E-12  0.17120000000E+03  0.17120000000E+03 0.  0.
         13    1    1    2    0    0 -0.13156216050E+02 -0.29437416622E+02  0.88782956357E+02  0.94456720363E+02  0.10566000000E+00 0. -1.
        994    1    1    2    0    0  0.36847133891E+01  0.38194653391E+02  0.10319638143E+02  0.17575079969E+03  0.17120000000E+03 0.  0.
        998    1    1    2    0    0  0.94715026610E+01 -0.87572367692E+01  0.14008974018E+04  0.14009924799E+04  0.10000000000E+02 0. -1.
</event>
<event>
 5    1  0.1334136E-008  0.3793794E+03  0.7957747E-01  0.3453865E+00
         13   -1    0    0    0    0  0.00000000000E+00  0.00000000000E+00  0.14999999963E+04  0.15000000000E+04  0.10566000000E+00 0. -1.
        994   -1    0    0    0    0 -0.00000000000E+00 -0.00000000000E+00  0.11368683772E-12  0.17120000000E+03  0.17120000000E+03 0.  0.
         13    1    1    2    0    0 -0.31702658404E+02 -0.21769964645E+02  0.39712676919E+02  0.55281984250E+02  0.10566000000E+00 0. -1.
        994    1    1    2    0    0  0.21602040219E+02  0.24728569600E+02  0.19894390192E+02  0.17545192235E+03  0.17120000000E+03 0.  0.
        998    1    1    2    0    0  0.10100618185E+02 -0.29586049551E+01  0.14403929292E+04  0.14404660934E+04  0.10000000000E+02 0. -1.
</event>
<event>
 5    1  0.1334136E-008  0.3750713E+03  0.7957747E-01  0.3472904E+00
         13   -1    0    0    0    0  0.00000000000E+00  0.00000000000E+00  0.14999999963E+04  0.15000000000E+04  0.10566000000E+00 0.  1.
        994   -1    0    0    0    0 -0.00000000000E+00 -0.00000000000E+00  0.11368683772E-12  0.17120000000E+03  0.17120000000E+03 0.  0.
         13    1    1    2    0    0  0.46515822488E+02  0.20894999443E+01  0.19536714888E+03  0.20083929341E+03  0.10566000000E+00 0.  1.
        994    1    1    2    0    0  0.50058740914E+01 -0.10407056532E+02  0.70954739467E+01  0.17173570203E+03  0.17120000000E+03 0.  0.
        998    1    1    2    0    0 -0.51521696579E+02  0.83175565878E+01  0.12975373734E+04  0.12986250046E+04  0.10000000000E+02 0.  1.
</event>
<event>
 5    1  0.1334136E-008  0.3860053E+03  0.7957747E-01  0.3425420E+00
         13   -1    0    0    0    0  0.00000000000E+00  0.00000000000E+00  0.14999999963E+04  0.15000000000E+04  0.10566000000E+00 0. -1.
        994   -1    0    0    0    0 -0.00000000000E+00 -0.00000000000E+00  0.11368683772E-12  0.17120000000E+03  0.17120000000E+03 0.  0.
         13    1    1    2    0    0 -0.10309672442E+02  0.43698882538E+01  0.60978522227E+02  0.61998198411E+02  0.10566000000E+00 0. -1.
        994    1    1    2    0    0 -0.92897983152E+01 -0.13059406050E+02  0.19742186891E+01  0.17195983827E+03  0.17120000000E+03 0.  0.
        998    1    1    2    0    0  0.19599470757E+02  0.86895177960E+01  0.14370472554E+04  0.14372419633E+04  0.10000000000E+02 0. -1.
</event>
<event>
 5    1  0.1712362E-008  0.3863238E+03  0.7957747E-01  0.3424077E+00
         13   -1    0    0    0    0  0.00000000000E+00  0.00000000000E+00  0.14999999963E+04  0.15000000000E+04  0.10566000000E+00 0. -1.
        994   -1    0    0    0    0 -0.00000000000E+00 -0.00000000000E+00  0.11368683772E-12  0.17120000000E+03  0.17120000000E+03 0.  0.
         13    1    1    2    0    0  0.10608009277E+01 -0.11757382842E+02  0.69724760650E+02  0.70717146165E+02  0.10566000000E+00 0. -1.
        994    1    1    2    0    0 -0.76638404648E+00  0.12939478388E+02  0.15246699066E+01  0.17169677360E+03  0.17120000000E+03 0.  0.
        998    1    1    2    0    0 -0.29441688118E+00 -0.11820955465E+01  0.14287505657E+04  0.14287860802E+04  0.10000000000E+02 0. -1.
</event>
<event>
 5    1  0.1334136E-008  0.3803712E+03  0.7957747E-01  0.3449544E+00
         13   -1    0    0    0    0  0.00000000000E+00  0.00000000000E+00  0.14999999963E+04  0.15000000000E+04  0.10566000000E+00 0.  1.
        994   -1    0    0    0    0 -0.00000000000E+00 -0.00000000000E+00  0.11368683772E-12  0.17120000000E+03  0.17120000000E+03 0.  0.
         13    1    1    2    0    0 -0.14795627700E+02  0.29302088729E+02  0.13488559254E+03  0.13882239460E+03  0.10566000000E+00 0.  1.
        994    1    1    2    0    0  0.11834317296E+02 -0.16282849164E+02  0.52998650855E+01  0.17246075151E+03  0.17120000000E+03 0.  0.
        998    1    1    2    0    0  0.29613104038E+01 -0.13019239566E+02  0.13598145386E+04  0.13599168539E+04  0.10000000000E+02 0.  1.
</event>
<event>
 5    1  0.1334136E-008  0.3837928E+03  0.7957747E-01  0.3434808E+00
         13   -1    0    0    0    0  0.00000000000E+00  0.00000000000E+00  0.14999999963E+04  0.15000000000E+04  0.10566000000E+00 0. -1.
        994   -1    0    0    0    0 -0.00000000000E+00 -0.00000000000E+00  0.11368683772E-12  0.17120000000E+03  0.17120000000E+03 0.  0.
         13    1    1    2    0    0  0.72503414116E+01  0.23811903143E+02  0.14812459283E+03  0.15020146586E+03  0.10566000000E+00 0. -1.
        994    1    1    2    0    0 -0.19484993899E+01 -0.67119705521E+01  0.23919641200E+01  0.17135929707E+03  0.17120000000E+03 0.  0.
        998    1    1    2    0    0 -0.53018420217E+01 -0.17099932591E+02  0.13494834393E+04  0.13496392371E+04  0.10000000000E+02 0. -1.
</event>
<event>
 5    1  0.1334136E-008  0.3838944E+03  0.7957747E-01  0.3434375E+00
         13   -1    0    0    0    0  0.00000000000E+00  0.00000000000E+00  0.14999999963E+04  0.15000000000E+04  0.10566000000E+00 0. -1.
        994   -1    0    0    0    0 -0.00000000000E+00 -0.00000000000E+00  0.11368683772E-12  0.17120000000E+03  0.17120000000E+03 0.  0.
         13    1    1    2    0    0 -0.21413323015E+00 -0.10568132305E+02  0.24631959272E+02  0.26804399920E+02  0.10566000000E+00 0. -1.
        994    1    1    2    0    0  0.30727564769E+01  0.10850592258E+02  0.25999119833E+01  0.17159072448E+03  0.17120000000E+03 0.  0.
        998    1    1    2    0    0 -0.28586232468E+01 -0.28245995253E+00  0.14727681250E+04  0.14728048756E+04  0.10000000000E+02 0. -1.
</event>
<event>
 5    1  0.1334136E-008  0.3837461E+03  0.7957747E-01  0.3435008E+00
         13   -1    0    0    0    0  0.00000000000E+00  0.00000000000E+00  0.14999999963E+04  0.15000000000E+04  0.10566000000E+00 0.  1.
        994   -1    0    0    0    0 -0.00000000000E+00 -0.00000000000E+00  0.11368683772E-12  0.17120000000E+03  0.17120000000E+03 0.  0.
         13    1    1    2    0    0 -0.96258119748E+01 -0.61732238203E+01  0.28973803968E+02  0.31148955503E+02  0.10566000000E+00 0.  1.
        994    1    1    2    0    0  0.64810271000E+01 -0.65944136854E+01  0.25363205426E+01  0.17146825632E+03  0.17120000000E+03 0.  0.
        998    1    1    2    0    0  0.31447848748E+01  0.12767637506E+02  0.14684898718E+04  0.14685827882E+04  0.10000000000E+02 0.  1.
</event>
<event>
 5    1  0.1334136E-008  0.3763783E+03  0.7957747E-01  0.3467081E+00
         13   -1    0    0    0    0  0.00000000000E+00  0.00000000000E+00  0.14999999963E+04  0.15000000000E+04  0.10566000000E+00 0. -1.
        994   -1    0    0    0    0 -0.00000000000E+00 -0.00000000000E+00  0.11368683772E-12  0.17120000000E+03  0.17120000000E+03 0.  0.
         13    1    1    2    0    0  0.19474901341E+02  0.28475346283E+01  0.29009637511E+02  0.35056389835E+02  0.10566000000E+00 0. -1.
        994    1    1    2    0    0 -0.24861644172E+02 -0.53521942164E+01  0.81639865223E+01  0.17327099587E+03  0.17120000000E+03 0.  0.
        998    1    1    2    0    0  0.53867428310E+01  0.25046595881E+01  0.14628263722E+04  0.14628726143E+04  0.10000000000E+02 0. -1.
</event>
<event>
 5    1  0.1334136E-008  0.3758568E+03  0.7957747E-01  0.3469400E+00
         13   -1    0    0    0    0  0.00000000000E+00  0.00000000000E+00  0.14999999963E+04  0.15000000000E+04  0.10566000000E+00 0. -1.
        994   -1    0    0    0    0 -0.00000000000E+00 -0.00000000000E+00  0.11368683772E-12  0.17120000000E+03  0.17120000000E+03 0.  0.
         13    1    1    2    0    0 -0.16676733193E+02 -0.61245475781E+01  0.23227821594E+02  0.29243227816E+02  0.10566000000E+00 0. -1.
        994    1    1    2    0    0  0.64848477103E+01 -0.10482764226E+02  0.67545813658E+01  0.17177603432E+03  0.17120000000E+03 0.  0.
        998    1    1    2    0    0  0.10191885483E+02  0.16607311804E+02  0.14700175933E+04  0.14701807379E+04  0.10000000000E+02 0. -1.
</event>
<event>
 5    1  0.1334136E-008  0.3846861E+03  0.7957747E-01  0.3431004E+00
         13   -1    0    0    0    0  0.00000000000E+00  0.00000000000E+00  0.14999999963E+04  0.15000000000E+04  0.10566000000E+00 0. -1.
        994   -1    0    0    0    0 -0.00000000000E+00 -0.00000000000E+00  0.11368683772E-12  0.17120000000E+03  0.17120000000E+03 0.  0.
         13    1    1    2    0    0 -0.14663091665E+03  0.13272853760E+03  0.11465661868E+04  0.11634996873E+04  0.10566000000E+00 0. -1.
        994    1    1    2    0    0  0.15603667504E+03 -0.13219519762E+03  0.15436391716E+03  0.30815689698E+03  0.17120000000E+03 0.  0.
        998    1    1    2    0    0 -0.94057583990E+01 -0.53333998047E+00  0.19906989228E+03  0.19954341572E+03  0.10000000000E+02 0. -1.
</event>
<event>
 5    1  0.1334136E-008  0.3857331E+03  0.7957747E-01  0.3426569E+00
         13   -1    0    0    0    0  0.00000000000E+00  0.00000000000E+00  0.14999999963E+04  0.15000000000E+04  0.10566000000E+00 0.  1.
        994   -1    0    0    0    0 -0.00000000000E+00 -0.00000000000E+00  0.11368683772E-12  0.17120000000E+03  0.17120000000E+03 0.  0.
         13    1    1    2    0    0 -0.60245514777E+01 -0.14003354843E+02  0.88275849304E+02  0.89582508905E+02  0.10566000000E+00 0.  1.
        994    1    1    2    0    0  0.48540539571E+01  0.14729357884E+02  0.20560995610E+01  0.17191330190E+03  0.17120000000E+03 0.  0.
        998    1    1    2    0    0  0.11704975206E+01 -0.72600304093E+00  0.14096680474E+04  0.14097041892E+04  0.10000000000E+02 0.  0.
</event>
<event>
 5    1  0.1334136E-008  0.3784966E+03  0.7957747E-01  0.3457731E+00
         13   -1    0    0    0    0  0.00000000000E+00  0.00000000000E+00  0.14999999963E+04  0.15000000000E+04  0.10566000000E+00 0. -1.
        994   -1    0    0    0    0 -0.00000000000E+00 -0.00000000000E+00  0.11368683772E-12  0.17120000000E+03  0.17120000000E+03 0.  0.
         13    1    1    2    0    0 -0.32318248886E+02  0.22620370970E+01  0.11933142620E+03  0.12365106738E+03  0.10566000000E+00 0. -1.
        994    1    1    2    0    0 -0.45706193090E+01 -0.15995845770E+02  0.58243278919E+01  0.17210496924E+03  0.17120000000E+03 0.  0.
        998    1    1    2    0    0  0.36888868195E+02  0.13733808673E+02  0.13748442422E+04  0.13754439634E+04  0.10000000000E+02 0. -1.
</event>
<event>
 5    1  0.1334136E-008  0.3813443E+03  0.7957747E-01  0.3445326E+00
         13   -1    0    0    0    0  0.00000000000E+00  0.00000000000E+00  0.14999999963E+04  0.15000000000E+04  0.10566000000E+00 0. -1.
        994   -1    0    0    0    0 -0.00000000000E+00 -0.00000000000E+00  0.11368683772E-12  0.17120000000E+03  0.17120000000E+03 0.  0.
         13    1    1    2    0    0  0.29539092840E+02 -0.81764164935E+01  0.17091564146E+03  0.17364210161E+03  0.10566000000E+00 0. -1.
        994    1    1    2    0    0  0.12809819468E+02 -0.18044002801E+01  0.40132472858E+01  0.17173495127E+03  0.17120000000E+03 0.  0.
        998    1    1    2    0    0 -0.42348912308E+02  0.99808167737E+01  0.13250711075E+04  0.13258229471E+04  0.10000000000E+02 0. -1.
</event>
<event>
 5    1  0.1334136E-008  0.3795859E+03  0.7957747E-01  0.3452964E+00
         13   -1    0    0    0    0  0.00000000000E+00  0.00000000000E+00  0.14999999963E+04  0.15000000000E+04  0.10566000000E+00 0. -1.
        994   -1    0    0    0    0 -0.00000000000E+00 -0.00000000000E+00  0.11368683772E-12  0.17120000000E+03  0.17120000000E+03 0.  0.
         13    1    1    2    0    0 -0.15443460489E+02  0.29049915105E+02  0.11328913993E+03  0.11796965046E+03  0.10566000000E+00 0. -1.
        994    1    1    2    0    0  0.18044788397E+02 -0.30544909653E+02  0.85670170811E+01  0.17504696420E+03  0.17120000000E+03 0.  0.
        998    1    1    2    0    0 -0.26013279080E+01  0.14949945482E+01  0.13781438393E+04  0.13781833853E+04  0.10000000000E+02 0. -1.
</event>
<event>
 5    1  0.1334136E-008  0.3854378E+03  0.7957747E-01  0.3427818E+00
         13   -1    0    0    0    0  0.00000000000E+00  0.00000000000E+00  0.14999999963E+04  0.15000000000E+04  0.10566000000E+00 0.  1.
        994   -1    0    0    0    0 -0.00000000000E+00 -0.00000000000E+00  0.11368683772E-12  0.17120000000E+03  0.17120000000E+03 0.  0.
         13    1    1    2    0    0 -0.99390244231E+01  0.95541674192E+01  0.82249005102E+02  0.83396500682E+02  0.10566000000E+00 0.  1.
        994    1    1    2    0    0 -0.15424565731E+02  0.65483878228E+01  0.23356105360E+01  0.17203398992E+03  0.17120000000E+03 0.  0.
        998    1    1    2    0    0  0.25363590154E+02 -0.16102555242E+02  0.14154153806E+04  0.14157695094E+04  0.10000000000E+02 0.  1.
</event>
<event>
 5    1  0.1334136E-008  0.3792889E+03  0.7957747E-01  0.3454261E+00
         13   -1    0    0    0    0  0.00000000000E+00  0.00000000000E+00  0.14999999963E+04  0.15000000000E+04  0.10566000000E+00 0. -1.
        994   -1    0    0    0    0 -0.00000000000E+00 -0.00000000000E+00  0.11368683772E-12  0.17120000000E+03  0.17120000000E+03 0.  0.
         13    1    1    2    0    0 -0.35912345686E+02 -0.12379275457E+02  0.18935836931E+03  0.19313090437E+03  0.10566000000E+00 0. -1.
        994    1    1    2    0    0  0.18366840165E+01 -0.12123308105E+02  0.49964610931E+01  0.17171124783E+03  0.17120000000E+03 0.  0.
        998    1    1    2    0    0  0.34075661670E+02  0.24502583561E+02  0.13056451659E+04  0.13063578478E+04  0.10000000000E+02 0.  1.
</event>
<event>
 5    1  0.1334136E-008  0.3848534E+03  0.7957747E-01  0.3430294E+00
         13   -1    0    0    0    0  0.00000000000E+00  0.00000000000E+00  0.14999999963E+04  0.15000000000E+04  0.10566000000E+00 0. -1.
        994   -1    0    0    0    0 -0.00000000000E+00 -0.00000000000E+00  0.11368683772E-12  0.17120000000E+03  0.17120000000E+03 0.  0.
         13    1    1    2    0    0 -0.16870884182E+01  0.19926642664E+02  0.11398295604E+03  0.11572399400E+03  0.10566000000E+00 0. -1.
        994    1    1    2    0    0  0.23231674289E+01 -0.16019117859E+02  0.25654869608E+01  0.17198264729E+03  0.17120000000E+03 0.  0.
        998    1    1    2    0    0 -0.63607901065E+00 -0.39075248047E+01  0.13834515533E+04  0.13834933587E+04  0.10000000000E+02 0.  0.
</event>
<event>
 5    1  0.1334136E-008  0.3737489E+03  0.7957747E-01  0.3478837E+00
         13   -1    0    0    0    0  0.00000000000E+00  0.00000000000E+00  0.14999999963E+04  0.15000000000E+04  0.10566000000E+00 0. -1.
        994   -1    0    0    0    0 -0.00000000000E+00 -0.00000000000E+00  0.11368683772E-12  0.17120000000E+03  0.17120000000E+03 0.  0.
         13    1    1    2    0    0 -0.57320678790E+02 -0.59115215463E+02  0.29139070616E+03  0.30280162437E+03  0.10566000000E+00 0. -1.
        994    1    1    2    0    0  0.79814127323E+02  0.82254467397E+02  0.53581697996E+02  0.21287679697E+03  0.17120000000E+03 0.  0.
        998    1    1    2    0    0 -0.22493448533E+02 -0.23139251934E+02  0.11550275921E+04  0.11555215787E+04  0.10000000000E+02 0. -1.
</event>
<event>
 5    1  0.1334136E-008  0.3813654E+03  0.7957747E-01  0.3445235E+00
         13   -1    0    0    0    0  0.00000000000E+00  0.00000000000E+00  0.14999999963E+04  0.15000000000E+04  0.10566000000E+00 0.  1.
        994   -1    0    0    0    0 -0.00000000000E+00 -0.00000000000E+00  0.11368683772E-12  0.17120000000E+03  0.17120000000E+03 0.  0.
         13    1    1    2    0    0  0.76423990094E+01  0.11398838398E+02  0.26201324366E+02  0.29578038171E+02  0.10566000000E+00 0.  1.
        994    1    1    2    0    0 -0.16710761040E+01 -0.71227605197E+01  0.36236289493E+01  0.17139456496E+03  0.17120000000E+03 0.  0.
        998    1    1    2    0    0 -0.59713229055E+01 -0.42760778782E+01  0.14701750430E+04  0.14702273969E+04  0.10000000000E+02 0.  1.
</event>
<event>
 5    1  0.1334136E-008  0.3786972E+03  0.7957747E-01  0.3456851E+00
         13   -1    0    0    0    0  0.00000000000E+00  0.00000000000E+00  0.14999999963E+04  0.15000000000E+04  0.10566000000E+00 0.  1.
        994   -1    0    0    0    0 -0.00000000000E+00 -0.00000000000E+00  0.11368683772E-12  0.17120000000E+03  0.17120000000E+03 0.  0.
         13    1    1    2    0    0 -0.87916360610E+01 -0.55571273929E+01  0.93254245247E+01  0.13969582531E+02  0.10566000000E+00 0.  1.
        994    1    1    2    0    0  0.33733087483E+01 -0.84362364426E+01  0.50694465505E+01  0.17151585520E+03  0.17120000000E+03 0.  0.
        998    1    1    2    0    0  0.54183273127E+01  0.13993363835E+02  0.14856051252E+04  0.14857145623E+04  0.10000000000E+02 0.  1.
</event>
<event>
 5    1  0.1801201E-008  0.3863444E+03  0.7957747E-01  0.3423990E+00
         13   -1    0    0    0    0  0.00000000000E+00  0.00000000000E+00  0.14999999963E+04  0.15000000000E+04  0.10566000000E+00 0.  1.
        994   -1    0    0    0    0 -0.00000000000E+00 -0.00000000000E+00  0.11368683772E-12  0.17120000000E+03  0.17120000000E+03 0.  0.
         13    1    1    2    0    0  0.30103207713E+01 -0.99315766781E+01  0.53191545863E+02  0.54194556570E+02  0.10566000000E+00 0.  1.
        994    1    1    2    0    0 -0.15500845702E+02  0.12403812723E+02  0.22557331890E+01  0.17236200022E+03  0.17120000000E+03 0.  0.
        998    1    1    2    0    0  0.12490524930E+02 -0.24722360447E+01  0.14445527172E+04  0.14446434432E+04  0.10000000000E+02 0.  1.
</event>
<event>
 5    1  0.1334136E-008  0.3828707E+03  0.7957747E-01  0.3438753E+00
         13   -1    0    0    0    0  0.00000000000E+00  0.00000000000E+00  0.14999999963E+04  0.15000000000E+04  0.10566000000E+00 0.  1.
        994   -1    0    0    0    0 -0.00000000000E+00 -0.00000000000E+00  0.11368683772E-12  0.17120000000E+03  0.17120000000E+03 0.  0.
         13    1    1    2    0    0  0.10574379467E+02  0.29731770630E+02  0.16814074708E+03  0.17107635044E+03  0.10566000000E+00 0.  1.
        994    1    1    2    0    0  0.54098368664E+01 -0.34181446529E+02  0.66671475273E+01  0.17478995531E+03  0.17120000000E+03 0.  0.
        998    1    1    2    0    0 -0.15984216334E+02  0.44496758982E+01  0.13251921017E+04  0.13253336943E+04  0.10000000000E+02 0.  1.
</event>
<event>
 5    1  0.1334136E-008  0.3845317E+03  0.7957747E-01  0.3431661E+00
         13   -1    0    0    0    0  0.00000000000E+00  0.00000000000E+00  0.14999999963E+04  0.15000000000E+04  0.10566000000E+00 0. -1.
        994   -1    0    0    0    0 -0.00000000000E+00 -0.00000000000E+00  0.11368683772E-12  0.17120000000E+03  0.17120000000E+03 0.  0.
         13    1    1    2    0    0 -0.14227225425E+02  0.47304970141E+00  0.53658080897E+02  0.55514309227E+02  0.10566000000E+00 0. -1.
        994    1    1    2    0    0  0.11073005878E+02 -0.93776850128E+00  0.22696641299E+01  0.17157529614E+03  0.17120000000E+03 0.  0.
        998    1    1    2    0    0  0.31542195474E+01  0.46471879986E+00  0.14440722513E+04  0.14441103946E+04  0.10000000000E+02 0. -1.
</event>
<event>
 5    1  0.1334136E-008  0.3604307E+03  0.7957747E-01  0.3541060E+00
         13   -1    0    0    0    0  0.00000000000E+00  0.00000000000E+00  0.14999999963E+04  0.15000000000E+04  0.10566000000E+00 0. -1.
        994   -1    0    0    0    0 -0.00000000000E+00 -0.00000000000E+00  0.11368683772E-12  0.17120000000E+03  0.17120000000E+03 0.  0.
         13    1    1    2    0    0  0.22187640632E+03  0.21479059335E+03  0.71757196237E+03  0.78120014786E+03  0.10566000000E+00 0. -1.
        994    1    1    2    0    0 -0.21653425825E+03 -0.22688441717E+03  0.54311301444E+03  0.65011138292E+03  0.17120000000E+03 0.  0.
        998    1    1    2    0    0 -0.53421480758E+01  0.12093823829E+02  0.23931501947E+03  0.23988846922E+03  0.10000000000E+02 0.  1.
</event>
<event>
 5    1  0.1334136E-008  0.3710457E+03  0.7957747E-01  0.3491099E+00
         13   -1    0    0    0    0  0.00000000000E+00  0.00000000000E+00  0.14999999963E+04  0.15000000000E+04  0.10566000000E+00 0. -1.
        994   -1    0    0    0    0 -0.00000000000E+00 -0.00000000000E+00  0.11368683772E-12  0.17120000000E+03  0.17120000000E+03 0.  0.
         13    1    1    2    0    0 -0.31924438788E+01 -0.30412690751E+02  0.33587357020E+02  0.45422958648E+02  0.10566000000E+00 0. -1.
        994    1    1    2    0    0  0.92005908470E+01  0.48816835634E+02  0.20202396181E+02  0.17940265083E+03  0.17120000000E+03 0.  0.
        998    1    1    2    0    0 -0.60081469682E+01 -0.18404144883E+02  0.14462102431E+04  0.14463743905E+04  0.10000000000E+02 0. -1.
</event>
<event>
 5    1  0.1334136E-008  0.3737212E+03  0.7957747E-01  0.3478962E+00
         13   -1    0    0    0    0  0.00000000000E+00  0.00000000000E+00  0.14999999963E+04  0.15000000000E+04  0.10566000000E+00 0. -1.
        994   -1    0    0    0    0 -0.00000000000E+00 -0.00000000000E+00  0.11368683772E-12  0.17120000000E+03  0.17120000000E+03 0.  0.
         13    1    1    2    0    0 -0.47787930759E+02  0.49883431568E+02  0.22869038818E+03  0.23889610269E+03  0.10566000000E+00 0. -1.
        994    1    1    2    0    0 -0.19019004006E+02 -0.11304821987E+02  0.14655978048E+02  0.17324479561E+03  0.17120000000E+03 0.  0.
        998    1    1    2    0    0  0.66806934765E+02 -0.38578609580E+02  0.12566536301E+04  0.12590591017E+04  0.10000000000E+02 0. -1.
</event>
<event>
 5    1  0.1334136E-008  0.3834490E+03  0.7957747E-01  0.3436277E+00
         13   -1    0    0    0    0  0.00000000000E+00  0.00000000000E+00  0.14999999963E+04  0.15000000000E+04  0.10566000000E+00 0.  1.
        994   -1    0    0    0    0 -0.00000000000E+00 -0.00000000000E+00  0.11368683772E-12  0.17120000000E+03  0.17120000000E+03 0.  0.
         13    1    1    2    0    0 -0.12499755520E+02 -0.58171333856E+01  0.38535926231E+02  0.40928128511E+02  0.10566000000E+00 0.  1.
        994    1    1    2    0    0  0.64280473511E+01  0.13075772012E+02  0.31041269184E+01  0.17184694123E+03  0.17120000000E+03 0.  0.
        998    1    1    2    0    0  0.60717081691E+01 -0.72586386268E+01  0.14583599431E+04  0.14584249303E+04  0.10000000000E+02 0.  1.
</event>
<event>
 5    1  0.1334136E-008  0.3771097E+03  0.7957747E-01  0.3463841E+00
         13   -1    0    0    0    0  0.00000000000E+00  0.00000000000E+00  0.14999999963E+04  0.15000000000E+04  0.10566000000E+00 0.  1.
        994   -1    0    0    0    0 -0.00000000000E+00 -0.00000000000E+00  0.11368683772E-12  0.17120000000E+03  0.17120000000E+03 0.  0.
         13    1    1    2    0    0 -0.25224165295E+02  0.43316241655E+01  0.62370955824E+02  0.67417866898E+02  0.10566000000E+00 0.  1.
        994    1    1    2    0    0 -0.15441643522E+02 -0.26008840065E+02  0.86934850669E+01  0.17406872436E+03  0.17120000000E+03 0.  0.
        998    1    1    2    0    0  0.40665808817E+02  0.21677215899E+02  0.14289355554E+04  0.14297134087E+04  0.10000000000E+02 0.  1.
</event>
<event>
 5    1  0.1334136E-008  0.3817630E+03  0.7957747E-01  0.3443518E+00
         13   -1    0    0    0    0  0.00000000000E+00  0.00000000000E+00  0.14999999963E+04  0.15000000000E+04  0.10566000000E+00 0.  1.
        994   -1    0    0    0    0 -0.00000000000E+00 -0.00000000000E+00  0.11368683772E-12  0.17120000000E+03  0.17120000000E+03 0.  0.
         13    1    1    2    0    0  0.17614164694E+02 -0.40206929022E-01  0.49297833553E+02  0.52350243280E+02  0.10566000000E+00 0.  1.
        994    1    1    2    0    0  0.17144436645E+01  0.73897579936E+01  0.34371284964E+01  0.17140245533E+03  0.17120000000E+03 0.  0.
        998    1    1    2    0    0 -0.19328608359E+02 -0.73495510646E+01  0.14472650342E+04  0.14474473014E+04  0.10000000000E+02 0.  1.
</event>
<event>
 5    1  0.1334136E-008  0.3795173E+03  0.7957747E-01  0.3453263E+00
         13   -1    0    0    0    0  0.00000000000E+00  0.00000000000E+00  0.14999999963E+04  0.15000000000E+04  0.10566000000E+00 0. -1.
        994   -1    0    0    0    0 -0.00000000000E+00 -0.00000000000E+00  0.11368683772E-12  0.17120000000E+03  0.17120000000E+03 0.  0.
         13    1    1    2    0    0 -0.17616018257E+02  0.48081499377E+02  0.25832321488E+03  0.26334967095E+03  0.10566000000E+00 0. -1.
        994    1    1    2    0    0  0.30382894755E+02 -0.39090229563E+02  0.12628234963E+02  0.17866191161E+03  0.17120000000E+03 0.  0.
        998    1    1    2    0    0 -0.12766876498E+02 -0.89912698134E+01  0.12290485464E+04  0.12291884174E+04  0.10000000000E+02 0. -1.
</event>
<event>
 5    1  0.1334136E-008  0.3860855E+03  0.7957747E-01  0.3425081E+00
         13   -1    0    0    0    0  0.00000000000E+00  0.00000000000E+00  0.14999999963E+04  0.15000000000E+04  0.10566000000E+00 0. -1.
        994   -1    0    0    0    0 -0.00000000000E+00 -0.00000000000E+00  0.11368683772E-12  0.17120000000E+03  0.17120000000E+03 0.  0.
         13    1    1    2    0    0  0.11017933022E+02 -0.23354865423E+01  0.64694464649E+02  0.65667604385E+02  0.10566000000E+00 0. -1.
        994    1    1    2    0    0  0.26512899720E+01 -0.91370430474E+01  0.13888208591E+01  0.17146977494E+03  0.17120000000E+03 0.  0.
        998    1    1    2    0    0 -0.13669222994E+02  0.11472529590E+02  0.14339167108E+04  0.14340626207E+04  0.10000000000E+02 0. -1.
</event>
<event>
 5    1  0.1334136E-008  0.3758244E+03  0.7957747E-01  0.3469544E+00
         13   -1    0    0    0    0  0.00000000000E+00  0.00000000000E+00  0.14999999963E+04  0.15000000000E+04  0.10566000000E+00 0. -1.
        994   -1    0    0    0    0 -0.00000000000E+00 -0.00000000000E+00  0.11368683772E-12  0.17120000000E+03  0.17120000000E+03 0.  0.
         13    1    1    2    0    0 -0.18835379131E+02 -0.10677120583E+01  0.26739430575E+02  0.32724911422E+02  0.10566000000E+00 0. -1.
        994    1    1    2    0    0  0.82213711887E-01 -0.27112944250E+01  0.62809365457E+01  0.17133665119E+03  0.17120000000E+03 0.  0.
        998    1    1    2    0    0  0.18753165419E+02  0.37790064833E+01  0.14669796292E+04  0.14671384374E+04  0.10000000000E+02 0. -1.
</event>
<event>
 5    1  0.1334136E-008  0.3764953E+03  0.7957747E-01  0.3466562E+00
         13   -1    0    0    0    0  0.00000000000E+00  0.00000000000E+00  0.14999999963E+04  0.15000000000E+04  0.10566000000E+00 0.  1.
        994   -1    0    0    0    0 -0.00000000000E+00 -0.00000000000E+00  0.11368683772E-12  0.17120000000E+03  0.17120000000E+03 0.  0.
         13    1    1    2    0    0  0.45194676390E+02 -0.37296838870E+02  0.29992605429E+03  0.30559656767E+03  0.10566000000E+00 0.  1.
        994    1    1    2    0    0 -0.21463297752E+02  0.18764757142E+02  0.86667047618E+01  0.17377382148E+03  0.17120000000E+03 0.  0.
        998    1    1    2    0    0 -0.23731378638E+02  0.18532081728E+02  0.11914072372E+04  0.11918296109E+04  0.10000000000E+02 0.  0.
</event>
<event>
 5    1  0.1334136E-008  0.3759655E+03  0.7957747E-01  0.3468916E+00
         13   -1    0    0    0    0  0.00000000000E+00  0.00000000000E+00  0.14999999963E+04  0.15000000000E+04  0.10566000000E+00 0. -1.
        994   -1    0    0    0    0 -0.00000000000E+00 -0.00000000000E+00  0.11368683772E-12  0.17120000000E+03  0.17120000000E+03 0.  0.
         13    1    1    2    0    0  0.66985462199E+02 -0.18091031147E+02  0.35346450690E+03  0.36021036403E+03  0.10566000000E+00 0. -1.
        994    1    1    2    0    0 -0.46982687527E+02  0.18878868368E+02  0.14920187578E+02  0.17915310937E+03  0.17120000000E+03 0.  0.
        998    1    1    2    0    0 -0.20002774673E+02 -0.78783722168E+00  0.11316153018E+04  0.11318365266E+04  0.10000000000E+02 0. -1.
</event>
<event>
 5    1  0.1334136E-008  0.3817350E+03  0.7957747E-01  0.3443638E+00
         13   -1    0    0    0    0  0.00000000000E+00  0.00000000000E+00  0.14999999963E+04  0.15000000000E+04  0.10566000000E+00 0. -1.
        994   -1    0    0    0    0 -0.00000000000E+00 -0.00000000000E+00  0.11368683772E-12  0.17120000000E+03  0.17120000000E+03 0.  0.
         13    1    1    2    0    0  0.11568515826E+02 -0.77318479400E+01  0.30452272051E+02  0.33480801485E+02  0.10566000000E+00 0. -1.
        994    1    1    2    0    0  0.11625073897E+02 -0.15857694608E+01  0.37175515719E+01  0.17164182823E+03  0.17120000000E+03 0.  0.
        998    1    1    2    0    0 -0.23193589723E+02  0.93176174008E+01  0.14658301727E+04  0.14660773703E+04  0.10000000000E+02 0. -1.
</event>
<event>
 5    1  0.1334136E-008  0.3686732E+03  0.7957747E-01  0.3502011E+00
         13   -1    0    0    0    0  0.00000000000E+00  0.00000000000E+00  0.14999999963E+04  0.15000000000E+04  0.10566000000E+00 0.  1.
        994   -1    0    0    0    0 -0.00000000000E+00 -0.00000000000E+00  0.11368683772E-12  0.17120000000E+03  0.17120000000E+03 0.  0.
         13    1    1    2    0    0 -0.68303854188E+02 -0.22729600256E+02  0.40864714337E+03  0.41493921262E+03  0.10566000000E+00 0.  1.
        994    1    1    2    0    0 -0.21425339639E+02  0.10235789273E+02  0.12203380586E+02  0.17326909435E+03  0.17120000000E+03 0.  0.
        998    1    1    2    0    0  0.89729193828E+02  0.12493810983E+02  0.10791494723E+04  0.10829916930E+04  0.10000000000E+02 0.  1.
</event>
<event>
 5    1  0.1334136E-008  0.3813621E+03  0.7957747E-01  0.3445249E+00
         13   -1    0    0    0    0  0.00000000000E+00  0.00000000000E+00  0.14999999963E+04  0.15000000000E+04  0.10566000000E+00 0.  1.
        994   -1    0    0    0    0 -0.00000000000E+00 -0.00000000000E+00  0.11368683772E-12  0.17120000000E+03  0.17120000000E+03 0.  0.
         13    1    1    2    0    0 -0.11897017181E+02 -0.43706692921E+01  0.21729019116E+02  0.25155579970E+02  0.10566000000E+00 0.  1.
        994    1    1    2    0    0  0.12856667406E+02 -0.51729174554E+00  0.39982897869E+01  0.17172940287E+03  0.17120000000E+03 0.  0.
        998    1    1    2    0    0 -0.95965022492E+00  0.48879610376E+01  0.14742726874E+04  0.14743150172E+04  0.10000000000E+02 0.  1.
</event>
<event>
 5    1  0.1334136E-008  0.3766044E+03  0.7957747E-01  0.3466078E+00
         13   -1    0    0    0    0  0.00000000000E+00  0.00000000000E+00  0.14999999963E+04  0.15000000000E+04  0.10566000000E+00 0.  1.
        994   -1    0    0    0    0 -0.00000000000E+00 -0.00000000000E+00  0.11368683772E-12  0.17120000000E+03  0.17120000000E+03 0.  0.
         13    1    1    2    0    0  0.14516576172E+02  0.21025698642E+02  0.52452961974E+02  0.58344968687E+02  0.10566000000E+00 0.  1.
        994    1    1    2    0    0 -0.12064158912E+02 -0.18836006446E+02  0.75505880371E+01  0.17282011008E+03  0.17120000000E+03 0.  0.
        998    1    1    2    0    0 -0.24524172605E+01 -0.21896921957E+01  0.14399964463E+04  0.14400349212E+04  0.10000000000E+02 0.  1.
</event>
<event>
 5    1  0.1334136E-008  0.2879200E+03  0.7957747E-01  0.3986221E+00
         13   -1    0    0    0    0  0.00000000000E+00  0.00000000000E+00  0.14999999963E+04  0.15000000000E+04  0.10566000000E+00 0. -1.
        994   -1    0    0    0    0 -0.00000000000E+00 -0.00000000000E+00  0.11368683772E-12  0.17120000000E+03  0.17120000000E+03 0.  0.
         13    1    1    2    0    0  0.79265242210E+02  0.88650370016E+02  0.70935465830E+03  0.71925371681E+03  0.10566000000E+00 0. -1.
        994    1    1    2    0    0 -0.96149632007E+01 -0.65138166408E+02  0.27821532383E+02  0.18552332981E+03  0.17120000000E+03 0.  0.
        998    1    1    2    0    0 -0.69650279010E+02 -0.23512203609E+02  0.76282380560E+03  0.76642295338E+03  0.10000000000E+02 0. -1.
</event>
<event>
 5    1  0.1334136E-008  0.3845271E+03  0.7957747E-01  0.3431680E+00
         13   -1    0    0    0    0  0.00000000000E+00  0.00000000000E+00  0.14999999963E+04  0.15000000000E+04  0.10566000000E+00 0.  1.
        994   -1    0    0    0    0 -0.00000000000E+00 -0.00000000000E+00  0.11368683772E-12  0.17120000000E+03  0.17120000000E+03 0.  0.
         13    1    1    2    0    0  0.14430067247E+02 -0.18016597756E+02  0.12742737241E+03  0.12950123952E+03  0.10566000000E+00 0.  1.
        994    1    1    2    0    0 -0.13927548207E+02  0.24711277809E+02  0.45197756413E+01  0.17359289220E+03  0.17120000000E+03 0.  0.
        998    1    1    2    0    0 -0.50251904062E+00 -0.66946800531E+01  0.13680528482E+04  0.13681058683E+04  0.10000000000E+02 0.  1.
</event>
<event>
 5    1  0.1334136E-008  0.3855744E+03  0.7957747E-01  0.3427240E+00
         13   -1    0    0    0    0  0.00000000000E+00  0.00000000000E+00  0.14999999963E+04  0.15000000000E+04  0.10566000000E+00 0. -1.
        994   -1    0    0    0    0 -0.00000000000E+00 -0.00000000000E+00  0.11368683772E-12  0.17120000000E+03  0.17120000000E+03 0.  0.
         13    1    1    2    0    0 -0.14863772886E+02 -0.12713012687E+01  0.83571360012E+02  0.84892469216E+02  0.10566000000E+00 0. -1.
        994    1    1    2    0    0  0.89692535721E+01  0.26655921711E+01  0.16326982016E+01  0.17146328643E+03  0.17120000000E+03 0.  0.
        998    1    1    2    0    0  0.58945193142E+01 -0.13942909023E+01  0.14147959381E+04  0.14148442443E+04  0.10000000000E+02 0. -1.
</event>
<event>
 5    1  0.1334136E-008  0.3770864E+03  0.7957747E-01  0.3463944E+00
         13   -1    0    0    0    0  0.00000000000E+00  0.00000000000E+00  0.14999999963E+04  0.15000000000E+04  0.10566000000E+00 0.  1.
        994   -1    0    0    0    0 -0.00000000000E+00 -0.00000000000E+00  0.11368683772E-12  0.17120000000E+03  0.17120000000E+03 0.  0.
         13    1    1    2    0    0  0.32167368728E+02  0.36697874186E+02  0.27310156045E+03  0.27742737260E+03  0.10566000000E+00 0.  1.
        994    1    1    2    0    0 -0.95706403215E+01  0.13698295904E+02  0.65543363452E+01  0.17213843206E+03  0.17120000000E+03 0.  0.
        998    1    1    2    0    0 -0.22596728406E+02 -0.50396170091E+02  0.12203440995E+04  0.12216341953E+04  0.10000000000E+02 0.  1.
</event>
<event>
 5    1  0.1334136E-008  0.3770999E+03  0.7957747E-01  0.3463884E+00
         13   -1    0    0    0    0  0.00000000000E+00  0.00000000000E+00  0.14999999963E+04  0.15000000000E+04  0.10566000000E+00 0. -1.
        994   -1    0    0    0    0 -0.00000000000E+00 -0.00000000000E+00  0.11368683772E-12  0.17120000000E+03  0.17120000000E+03 0.  0.
         13    1    1    2    0    0  0.19559394001E+02 -0.15626770856E+02  0.56220320577E+02  0.61542680076E+02  0.10566000000E+00 0. -1.
        994    1    1    2    0    0  0.12897216736E+02  0.22022639829E+02  0.78058908179E+01  0.17326773155E+03  0.17120000000E+03 0.  0.
        998    1    1    2    0    0 -0.32456610738E+02 -0.63958689724E+01  0.14359737849E+04  0.14363895884E+04  0.10000000000E+02 0. -1.
</event>
<event>
 5    1  0.1334136E-008  0.3792921E+03  0.7957747E-01  0.3454247E+00
         13   -1    0    0    0    0  0.00000000000E+00  0.00000000000E+00  0.14999999963E+04  0.15000000000E+04  0.10566000000E+00 0.  1.
        994   -1    0    0    0    0 -0.00000000000E+00 -0.00000000000E+00  0.11368683772E-12  0.17120000000E+03  0.17120000000E+03 0.  0.
         13    1    1    2    0    0  0.20334789665E+01  0.34364452812E+02  0.29259973804E+02  0.45179728694E+02  0.10566000000E+00 0.  1.
        994    1    1    2    0    0 -0.59424563655E+01 -0.46262165037E+02  0.23843251383E+02  0.17903474897E+03  0.17120000000E+03 0.  0.
        998    1    1    2    0    0  0.39089773990E+01  0.11897712225E+02  0.14468967711E+04  0.14469855223E+04  0.10000000000E+02 0.  1.
</event>
<event>
 5    1  0.1334136E-008  0.3719710E+03  0.7957747E-01  0.3486881E+00
         13   -1    0    0    0    0  0.00000000000E+00  0.00000000000E+00  0.14999999963E+04  0.15000000000E+04  0.10566000000E+00 0. -1.
        994   -1    0    0    0    0 -0.00000000000E+00 -0.00000000000E+00  0.11368683772E-12  0.17120000000E+03  0.17120000000E+03 0.  0.
         13    1    1    2    0    0 -0.40724416682E+02 -0.35758884817E+01  0.11051403205E+03  0.11783304942E+03  0.10566000000E+00 0. -1.
        994    1    1    2    0    0 -0.36602851524E+01  0.96604006315E+01  0.86090657809E+01  0.17172733341E+03  0.17120000000E+03 0.  0.
        998    1    1    2    0    0  0.44384701835E+02 -0.60845121498E+01  0.13808768985E+04  0.13816396172E+04  0.10000000000E+02 0. -1.
</event>
<event>
 5    1  0.1334136E-008  0.3805803E+03  0.7957747E-01  0.3448636E+00
         13   -1    0    0    0    0  0.00000000000E+00  0.00000000000E+00  0.14999999963E+04  0.15000000000E+04  0.10566000000E+00 0.  1.
        994   -1    0    0    0    0 -0.00000000000E+00 -0.00000000000E+00  0.11368683772E-12  0.17120000000E+03  0.17120000000E+03 0.  0.
         13    1    1    2    0    0 -0.32260870240E+02 -0.34297596878E+02  0.24883503391E+03  0.25325081276E+03  0.10566000000E+00 0.  1.
        994    1    1    2    0    0  0.32841038387E+02  0.29464747152E+02  0.10363162620E+02  0.17709754450E+03  0.17120000000E+03 0.  0.
        998    1    1    2    0    0 -0.58016814673E+00  0.48328497250E+01  0.12408017997E+04  0.12408516427E+04  0.10000000000E+02 0.  1.
</event>
<event>
 5    1  0.1334136E-008  0.3715292E+03  0.7957747E-01  0.3488892E+00
         13   -1    0    0    0    0  0.00000000000E+00  0.00000000000E+00  0.14999999963E+04  0.15000000000E+04  0.10566000000E+00 0. -1.
        994   -1    0    0    0    0 -0.00000000000E+00 -0.00000000000E+00  0.11368683772E-12  0.17120000000E+03  0.17120000000E+03 0.  0.
         13    1    1    2    0    0  0.71339249572E+02 -0.67283090792E+02  0.29717276879E+03  0.31293444762E+03  0.10566000000E+00 0. -1.
        994    1    1    2    0    0 -0.42160679059E+02  0.11981756785E+03  0.70834394965E+02  0.22463464545E+03  0.17120000000E+03 0.  0.
        998    1    1    2    0    0 -0.29178570513E+02 -0.52534477060E+02  0.11319928325E+04  0.11336309069E+04  0.10000000000E+02 0. -1.
</event>
<event>
 5    1  0.1577251E-008  0.3861406E+03  0.7957747E-01  0.3424849E+00
         13   -1    0    0    0    0  0.00000000000E+00  0.00000000000E+00  0.14999999963E+04  0.15000000000E+04  0.10566000000E+00 0. -1.
        994   -1    0    0    0    0 -0.00000000000E+00 -0.00000000000E+00  0.11368683772E-12  0.17120000000E+03  0.17120000000E+03 0.  0.
         13    1    1    2    0    0  0.97337066349E+01  0.67092082436E+01  0.63685974159E+02  0.64774014765E+02  0.10566000000E+00 0. -1.
        994    1    1    2    0    0 -0.10659815336E+02 -0.85632843457E+01  0.16777444556E+01  0.17175335900E+03  0.17120000000E+03 0.  0.
        998    1    1    2    0    0  0.92610870151E+00  0.18540761021E+01  0.14346362777E+04  0.14346726262E+04  0.10000000000E+02 0. -1.
</event>
<event>
 5    1  0.1334136E-008  0.3854364E+03  0.7957747E-01  0.3427824E+00
         13   -1    0    0    0    0  0.00000000000E+00  0.00000000000E+00  0.14999999963E+04  0.15000000000E+04  0.10566000000E+00 0.  1.
        994   -1    0    0    0    0 -0.00000000000E+00 -0.00000000000E+00  0.11368683772E-12  0.17120000000E+03  0.17120000000E+03 0.  0.
         13    1    1    2    0    0  0.13396112146E+02  0.10716234410E+02  0.92067837005E+02  0.93652502771E+02  0.10566000000E+00 0.  1.
        994    1    1    2    0    0 -0.27167773952E+02 -0.96931994693E+01  0.41508507626E+01  0.17366264889E+03  0.17120000000E+03 0.  0.
        998    1    1    2    0    0  0.13771661806E+02 -0.10230349404E+01  0.14037813085E+04  0.14038848483E+04  0.10000000000E+02 0.  1.
</event>
<event>
 5    1  0.1334136E-008  0.3826017E+03  0.7957747E-01  0.3439908E+00
         13   -1    0    0    0    0  0.00000000000E+00  0.00000000000E+00  0.14999999963E+04  0.15000000000E+04  0.10566000000E+00 0. -1.
        994   -1    0    0    0    0 -0.00000000000E+00 -0.00000000000E+00  0.11368683772E-12  0.17120000000E+03  0.17120000000E+03 0.  0.
         13    1    1    2    0    0  0.11723786603E+02  0.13599286911E+02  0.60086441534E+02  0.62711876045E+02  0.10566000000E+00 0. -1.
        994    1    1    2    0    0  0.66320810483E+01 -0.26081608297E+01  0.29939096185E+01  0.17137441611E+03  0.17120000000E+03 0.  0.
        998    1    1    2    0    0 -0.18355867651E+02 -0.10991126081E+02  0.14369196451E+04  0.14371137078E+04  0.10000000000E+02 0. -1.
</event>
<event>
 5    1  0.1334136E-008  0.3855104E+03  0.7957747E-01  0.3427510E+00
         13   -1    0    0    0    0  0.00000000000E+00  0.00000000000E+00  0.14999999963E+04  0.15000000000E+04  0.10566000000E+00 0. -1.
        994   -1    0    0    0    0 -0.00000000000E+00 -0.00000000000E+00  0.11368683772E-12  0.17120000000E+03  0.17120000000E+03 0.  0.
         13    1    1    2    0    0 -0.12306589985E+02 -0.89411326076E+01  0.82215517748E+02  0.83610995282E+02  0.10566000000E+00 0. -1.
        994    1    1    2    0    0  0.12952000996E+02  0.50290177501E+01  0.20109889804E+01  0.17177464722E+03  0.17120000000E+03 0.  0.
        998    1    1    2    0    0 -0.64541101050E+00  0.39121148575E+01  0.14157734896E+04  0.14158143575E+04  0.10000000000E+02 0. -1.
</event>
<event>
 5    1  0.1334136E-008  0.3797707E+03  0.7957747E-01  0.3452157E+00
         13   -1    0    0    0    0  0.00000000000E+00  0.00000000000E+00  0.14999999963E+04  0.15000000000E+04  0.10566000000E+00 0. -1.
        994   -1    0    0    0    0 -0.00000000000E+00 -0.00000000000E+00  0.11368683772E-12  0.17120000000E+03  0.17120000000E+03 0.  0.
         13    1    1    2    0    0  0.23406989057E+01 -0.14225804628E+02 -0.10821643392E+01  0.14458030031E+02  0.10566000000E+00 0. -1.
        994    1    1    2    0    0 -0.68698321777E+01  0.19023655035E+02  0.17683844655E+02  0.17329527520E+03  0.17120000000E+03 0.  0.
        998    1    1    2    0    0  0.45291332720E+01 -0.47978504071E+01  0.14833983160E+04  0.14834466948E+04  0.10000000000E+02 0. -1.
</event>
<event>
 5    1  0.1334136E-008  0.3786907E+03  0.7957747E-01  0.3456879E+00
         13   -1    0    0    0    0  0.00000000000E+00  0.00000000000E+00  0.14999999963E+04  0.15000000000E+04  0.10566000000E+00 0. -1.
        994   -1    0    0    0    0 -0.00000000000E+00 -0.00000000000E+00  0.11368683772E-12  0.17120000000E+03  0.17120000000E+03 0.  0.
         13    1    1    2    0    0 -0.24069301009E+02  0.82014020183E+00  0.56853165923E+02  0.61743805523E+02  0.10566000000E+00 0. -1.
        994    1    1    2    0    0  0.23810985474E+02 -0.37063797120E+01  0.67476469474E+01  0.17301927933E+03  0.17120000000E+03 0.  0.
        998    1    1    2    0    0  0.25831553559E+00  0.28862395102E+01  0.14363991834E+04  0.14364369151E+04  0.10000000000E+02 0. -1.
</event>
<event>
 5    1  0.1334136E-008  0.3846492E+03  0.7957747E-01  0.3431162E+00
         13   -1    0    0    0    0  0.00000000000E+00  0.00000000000E+00  0.14999999963E+04  0.15000000000E+04  0.10566000000E+00 0. -1.
        994   -1    0    0    0    0 -0.00000000000E+00 -0.00000000000E+00  0.11368683772E-12  0.17120000000E+03  0.17120000000E+03 0.  0.
         13    1    1    2    0    0 -0.13099652012E+02  0.15605814207E+01  0.45185643520E+02  0.47072176937E+02  0.10566000000E+00 0. -1.
        994    1    1    2    0    0  0.21298068626E+02  0.28215960175E+01  0.33255642743E+01  0.17257482003E+03  0.17120000000E+03 0.  0.
        998    1    1    2    0    0 -0.81984166143E+01 -0.43821774382E+01  0.14514887885E+04  0.14515530030E+04  0.10000000000E+02 0. -1.
</event>
<event>
 5    1  0.1742061E-008  0.3853591E+03  0.7957747E-01  0.3428151E+00
         13   -1    0    0    0    0  0.00000000000E+00  0.00000000000E+00  0.14999999963E+04  0.15000000000E+04  0.10566000000E+00 0.  1.
        994   -1    0    0    0    0 -0.00000000000E+00 -0.00000000000E+00  0.11368683772E-12  0.17120000000E+03  0.17120000000E+03 0.  0.
         13    1    1    2    0    0 -0.40386267445E+01  0.97371321673E+01  0.38162487095E+02  0.39591777355E+02  0.10566000000E+00 0.  1.
        994    1    1    2    0    0  0.14569359995E+00 -0.83672296811E+01  0.16820238084E+01  0.17141266279E+03  0.17120000000E+03 0.  0.
        998    1    1    2    0    0  0.38929331445E+01 -0.13699024862E+01  0.14601554854E+04  0.14601955599E+04  0.10000000000E+02 0.  1.
</event>
<event>
 5    1  0.1334136E-008  0.3816860E+03  0.7957747E-01  0.3443850E+00
         13   -1    0    0    0    0  0.00000000000E+00  0.00000000000E+00  0.14999999963E+04  0.15000000000E+04  0.10566000000E+00 0.  1.
        994   -1    0    0    0    0 -0.00000000000E+00 -0.00000000000E+00  0.11368683772E-12  0.17120000000E+03  0.17120000000E+03 0.  0.
         13    1    1    2    0    0  0.24515186189E+02 -0.19333956387E+02  0.12449392036E+03  0.12834930305E+03  0.10566000000E+00 0.  1.
        994    1    1    2    0    0 -0.38037687950E+02  0.25692463379E+02  0.10320747539E+02  0.17754696902E+03  0.17120000000E+03 0.  0.
        998    1    1    2    0    0  0.13522501761E+02 -0.63585069913E+01  0.13651853284E+04  0.13653037279E+04  0.10000000000E+02 0.  1.
</event>
<event>
 5    1  0.1334136E-008  0.3749865E+03  0.7957747E-01  0.3473283E+00
         13   -1    0    0    0    0  0.00000000000E+00  0.00000000000E+00  0.14999999963E+04  0.15000000000E+04  0.10566000000E+00 0. -1.
        994   -1    0    0    0    0 -0.00000000000E+00 -0.00000000000E+00  0.11368683772E-12  0.17120000000E+03  0.17120000000E+03 0.  0.
         13    1    1    2    0    0 -0.69533891692E+01 -0.50979389054E+02  0.20555857534E+03  0.21189994523E+03  0.10566000000E+00 0. -1.
        994    1    1    2    0    0  0.16645739821E+02  0.19966146542E+02  0.89861060122E+01  0.17339526454E+03  0.17120000000E+03 0.  0.
        998    1    1    2    0    0 -0.96923506523E+01  0.31013242512E+02  0.12854553149E+04  0.12859047902E+04  0.10000000000E+02 0. -1.
</event>
<event>
 5    1  0.4698944E-008  0.3863935E+03  0.7957747E-01  0.3423783E+00
         13   -1    0    0    0    0  0.00000000000E+00  0.00000000000E+00  0.14999999963E+04  0.15000000000E+04  0.10566000000E+00 0. -1.
        994   -1    0    0    0    0 -0.00000000000E+00 -0.00000000000E+00  0.11368683772E-12  0.17120000000E+03  0.17120000000E+03 0.  0.
         13    1    1    2    0    0 -0.48179866932E+01  0.95036182030E+01  0.61562467374E+02  0.62477838535E+02  0.10566000000E+00 0. -1.
        994    1    1    2    0    0  0.74779562308E+01 -0.42722433348E+01  0.11827040219E+01  0.17142056668E+03  0.17120000000E+03 0.  0.
        998    1    1    2    0    0 -0.26599695376E+01 -0.52313748682E+01  0.14372548249E+04  0.14373015948E+04  0.10000000000E+02 0. -1.
</event>
<event>
 5    1  0.1334136E-008  0.3731123E+03  0.7957747E-01  0.3481709E+00
         13   -1    0    0    0    0  0.00000000000E+00  0.00000000000E+00  0.14999999963E+04  0.15000000000E+04  0.10566000000E+00 0.  1.
        994   -1    0    0    0    0 -0.00000000000E+00 -0.00000000000E+00  0.11368683772E-12  0.17120000000E+03  0.17120000000E+03 0.  0.
         13    1    1    2    0    0  0.19555971979E+02  0.31995546664E+02  0.86138189432E+02  0.93946526754E+02  0.10566000000E+00 0.  1.
        994    1    1    2    0    0 -0.92014417335E+01 -0.32545142375E+02  0.11574465728E+02  0.17489214127E+03  0.17120000000E+03 0.  0.
        998    1    1    2    0    0 -0.10354530246E+02  0.54959571119E+00  0.14022873411E+04  0.14023613320E+04  0.10000000000E+02 0.  1.
</event>
<event>
 5    1  0.1334136E-008  0.3724770E+03  0.7957747E-01  0.3484584E+00
         13   -1    0    0    0    0  0.00000000000E+00  0.00000000000E+00  0.14999999963E+04  0.15000000000E+04  0.10566000000E+00 0. -1.
        994   -1    0    0    0    0 -0.00000000000E+00 -0.00000000000E+00  0.11368683772E-12  0.17120000000E+03  0.17120000000E+03 0.  0.
         13    1    1    2    0    0 -0.83587381334E+02  0.59865829024E+01  0.44486940573E+03  0.45269359263E+03  0.10566000000E+00 0. -1.
        994    1    1    2    0    0 -0.42744910620E+01  0.26210437332E+02  0.14745703663E+02  0.17387390280E+03  0.17120000000E+03 0.  0.
        998    1    1    2    0    0  0.87861872396E+02 -0.32197020234E+02  0.10403848869E+04  0.10446325046E+04  0.10000000000E+02 0. -1.
</event>
<event>
 5    1  0.1334136E-008  0.3736877E+03  0.7957747E-01  0.3479113E+00
         13   -1    0    0    0    0  0.00000000000E+00  0.00000000000E+00  0.14999999963E+04  0.15000000000E+04  0.10566000000E+00 0. -1.
        994   -1    0    0    0    0 -0.00000000000E+00 -0.00000000000E+00  0.11368683772E-12  0.17120000000E+03  0.17120000000E+03 0.  0.
         13    1    1    2    0    0 -0.52083585816E+02  0.16221261668E+02  0.31074286109E+03  0.31549479572E+03  0.10566000000E+00 0. -1.
        994    1    1    2    0    0 -0.10287744648E+02  0.40343790687E+02  0.13295865363E+02  0.17669091423E+03  0.17120000000E+03 0.  0.
        998    1    1    2    0    0  0.62371330464E+02 -0.56565052355E+02  0.11759612698E+04  0.11790142900E+04  0.10000000000E+02 0. -1.
</event>
<event>
 5    1  0.1334136E-008  0.3844528E+03  0.7957747E-01  0.3431996E+00
         13   -1    0    0    0    0  0.00000000000E+00  0.00000000000E+00  0.14999999963E+04  0.15000000000E+04  0.10566000000E+00 0. -1.
        994   -1    0    0    0    0 -0.00000000000E+00 -0.00000000000E+00  0.11368683772E-12  0.17120000000E+03  0.17120000000E+03 0.  0.
         13    1    1    2    0    0 -0.23033204238E+02  0.17046719237E+02  0.13606443390E+03  0.13904912970E+03  0.10566000000E+00 0. -1.
        994    1    1    2    0    0  0.77471643086E+02 -0.24187613749E+02  0.23912672729E+02  0.19096636368E+03  0.17120000000E+03 0.  0.
        998    1    1    2    0    0 -0.54438438849E+02  0.71408945119E+01  0.13400228897E+04  0.13411845066E+04  0.10000000000E+02 0. -1.
</event>
<event>
 5    1  0.1334136E-008  0.3795683E+03  0.7957747E-01  0.3453040E+00
         13   -1    0    0    0    0  0.00000000000E+00  0.00000000000E+00  0.14999999963E+04  0.15000000000E+04  0.10566000000E+00 0.  1.
        994   -1    0    0    0    0 -0.00000000000E+00 -0.00000000000E+00  0.11368683772E-12  0.17120000000E+03  0.17120000000E+03 0.  0.
         13    1    1    2    0    0 -0.79850324405E+02 -0.21175420936E+03  0.11097022724E+04  0.11325436256E+04  0.10566000000E+00 0.  1.
        994    1    1    2    0    0  0.65693181774E+02  0.21231004370E+03  0.19280382112E+03  0.34040255908E+03  0.17120000000E+03 0.  0.
        998    1    1    2    0    0  0.14157142631E+02 -0.55583433694E+00  0.19749390279E+03  0.19825381530E+03  0.10000000000E+02 0. -1.
</event>
<event>
 5    1  0.1334136E-008  0.3841521E+03  0.7957747E-01  0.3433276E+00
         13   -1    0    0    0    0  0.00000000000E+00  0.00000000000E+00  0.14999999963E+04  0.15000000000E+04  0.10566000000E+00 0. -1.
        994   -1    0    0    0    0 -0.00000000000E+00 -0.00000000000E+00  0.11368683772E-12  0.17120000000E+03  0.17120000000E+03 0.  0.
         13    1    1    2    0    0 -0.33105799714E+00  0.13706943263E+02  0.45157767885E+02  0.47193485328E+02  0.10566000000E+00 0. -1.
        994    1    1    2    0    0  0.15568074951E+01 -0.10147720795E+02  0.23993489796E+01  0.17152433286E+03  0.17120000000E+03 0.  0.
        998    1    1    2    0    0 -0.12257494980E+01 -0.35592224675E+01  0.14524428794E+04  0.14524821818E+04  0.10000000000E+02 0. -1.
</event>
<event>
 5    1  0.1334136E-008  0.3836372E+03  0.7957747E-01  0.3435473E+00
         13   -1    0    0    0    0  0.00000000000E+00  0.00000000000E+00  0.14999999963E+04  0.15000000000E+04  0.10566000000E+00 0. -1.
        994   -1    0    0    0    0 -0.00000000000E+00 -0.00000000000E+00  0.11368683772E-12  0.17120000000E+03  0.17120000000E+03 0.  0.
         13    1    1    2    0    0  0.17627246969E+02 -0.37951948960E+01  0.72930113077E+02  0.75126133253E+02  0.10566000000E+00 0. -1.
        994    1    1    2    0    0 -0.18735045877E+01  0.11676564093E+02  0.27703646222E+01  0.17163032101E+03  0.17120000000E+03 0.  0.
        998    1    1    2    0    0 -0.15753742381E+02 -0.78813691971E+01  0.14242995186E+04  0.14244435457E+04  0.10000000000E+02 0. -1.
</event>
<event>
 5    1  0.1334136E-008  0.3850780E+03  0.7957747E-01  0.3429341E+00
         13   -1    0    0    0    0  0.00000000000E+00  0.00000000000E+00  0.14999999963E+04  0.15000000000E+04  0.10566000000E+00 0.  1.
        994   -1    0    0    0    0 -0.00000000000E+00 -0.00000000000E+00  0.11368683772E-12  0.17120000000E+03  0.17120000000E+03 0.  0.
         13    1    1    2    0    0  0.81817144978E+01  0.12953111770E+02  0.78056875059E+02  0.79546278761E+02  0.10566000000E+00 0.  1.
        994    1    1    2    0    0  0.97125789802E+01 -0.89777484847E+01  0.21667562725E+01  0.17172381603E+03  0.17120000000E+03 0.  0.
        998    1    1    2    0    0 -0.17894293478E+02 -0.39753632856E+01  0.14197763649E+04  0.14199299052E+04  0.10000000000E+02 0.  1.
</event>
<event>
 5    1  0.1334136E-008  0.3814605E+03  0.7957747E-01  0.3444823E+00
         13   -1    0    0    0    0  0.00000000000E+00  0.00000000000E+00  0.14999999963E+04  0.15000000000E+04  0.10566000000E+00 0.  1.
        994   -1    0    0    0    0 -0.00000000000E+00 -0.00000000000E+00  0.11368683772E-12  0.17120000000E+03  0.17120000000E+03 0.  0.
         13    1    1    2    0    0 -0.30339433874E+02 -0.17346065542E+02  0.16477718972E+03  0.16844257376E+03  0.10566000000E+00 0.  1.
        994    1    1    2    0    0  0.31156114693E+02  0.95052611602E+01  0.69356954845E+01  0.17440928113E+03  0.17120000000E+03 0.  0.
        998    1    1    2    0    0 -0.81668081871E+00  0.78408043815E+01  0.13282871111E+04  0.13283481451E+04  0.10000000000E+02 0.  1.
</event>
<event>
 5    1  0.1334136E-008  0.3841796E+03  0.7957747E-01  0.3433159E+00
         13   -1    0    0    0    0  0.00000000000E+00  0.00000000000E+00  0.14999999963E+04  0.15000000000E+04  0.10566000000E+00 0.  1.
        994   -1    0    0    0    0 -0.00000000000E+00 -0.00000000000E+00  0.11368683772E-12  0.17120000000E+03  0.17120000000E+03 0.  0.
         13    1    1    2    0    0  0.98362061455E+01 -0.37906774941E+01  0.26420679190E+02  0.28446153344E+02  0.10566000000E+00 0.  1.
        994    1    1    2    0    0 -0.87298633189E+01  0.51259319651E+01  0.23759902006E+01  0.17151551248E+03  0.17120000000E+03 0.  0.
        998    1    1    2    0    0 -0.11063428267E+01 -0.13352544710E+01  0.14712033269E+04  0.14712383342E+04  0.10000000000E+02 0.  1.
</event>
<event>
 5    1  0.1334136E-008  0.3770195E+03  0.7957747E-01  0.3464240E+00
         13   -1    0    0    0    0  0.00000000000E+00  0.00000000000E+00  0.14999999963E+04  0.15000000000E+04  0.10566000000E+00 0. -1.
        994   -1    0    0    0    0 -0.00000000000E+00 -0.00000000000E+00  0.11368683772E-12  0.17120000000E+03  0.17120000000E+03 0.  0.
         13    1    1    2    0    0 -0.39948008766E+02  0.94371351170E+02  0.59187925666E+03  0.60068532607E+03  0.10566000000E+00 0. -1.
        994    1    1    2    0    0  0.38391130417E+02 -0.89133621258E+02  0.38136450967E+02  0.20045575628E+03  0.17120000000E+03 0.  0.
        998    1    1    2    0    0  0.15568783486E+01 -0.52377299117E+01  0.86998428865E+03  0.87005891765E+03  0.10000000000E+02 0.  0.
</event>
<event>
 5    1  0.1334136E-008  0.3816842E+03  0.7957747E-01  0.3443858E+00
         13   -1    0    0    0    0  0.00000000000E+00  0.00000000000E+00  0.14999999963E+04  0.15000000000E+04  0.10566000000E+00 0. -1.
        994   -1    0    0    0    0 -0.00000000000E+00 -0.00000000000E+00  0.11368683772E-12  0.17120000000E+03  0.17120000000E+03 0.  0.
         13    1    1    2    0    0 -0.66950547066E+01 -0.17928889441E+02  0.54767139462E+02  0.58014821925E+02  0.10566000000E+00 0. -1.
        994    1    1    2    0    0  0.23977313870E+01  0.11679472740E+02  0.37581436658E+01  0.17165582671E+03  0.17120000000E+03 0.  0.
        998    1    1    2    0    0  0.42973233195E+01  0.62494167004E+01  0.14414747132E+04  0.14415293514E+04  0.10000000000E+02 0. -1.
</event>
<event>
 5    1  0.1334136E-008  0.3771312E+03  0.7957747E-01  0.3463746E+00
         13   -1    0    0    0    0  0.00000000000E+00  0.00000000000E+00  0.14999999963E+04  0.15000000000E+04  0.10566000000E+00 0. -1.
        994   -1    0    0    0    0 -0.00000000000E+00 -0.00000000000E+00  0.11368683772E-12  0.17120000000E+03  0.17120000000E+03 0.  0.
         13    1    1    2    0    0 -0.34078964338E+02 -0.66448397454E+01  0.12299792899E+03  0.12780466113E+03  0.10566000000E+00 0. -1.
        994    1    1    2    0    0 -0.11527358007E+02  0.16524366189E+02  0.69595832266E+01  0.17252191298E+03  0.17120000000E+03 0.  0.
        998    1    1    2    0    0  0.45606322345E+02 -0.98795264435E+01  0.13700424841E+04  0.13708734259E+04  0.10000000000E+02 0. -1.
</event>
<event>
 5    1  0.1334136E-008  0.3853582E+03  0.7957747E-01  0.3428154E+00
         13   -1    0    0    0    0  0.00000000000E+00  0.00000000000E+00  0.14999999963E+04  0.15000000000E+04  0.10566000000E+00 0.  1.
        994   -1    0    0    0    0 -0.00000000000E+00 -0.00000000000E+00  0.11368683772E-12  0.17120000000E+03  0.17120000000E+03 0.  0.
         13    1    1    2    0    0  0.62722742345E+01 -0.88778820302E+01  0.41021045416E+02  0.42436959652E+02  0.10566000000E+00 0.  1.
        994    1    1    2    0    0 -0.52341420025E+01  0.36545978600E+01  0.15862694483E+01  0.17132632191E+03  0.17120000000E+03 0.  0.
        998    1    1    2    0    0 -0.10381322320E+01  0.52232841702E+01  0.14573926814E+04  0.14574367184E+04  0.10000000000E+02 0.  1.
</event>
<event>
 5    1  0.1334136E-008  0.3790035E+03  0.7957747E-01  0.3455509E+00
         13   -1    0    0    0    0  0.00000000000E+00  0.00000000000E+00  0.14999999963E+04  0.15000000000E+04  0.10566000000E+00 0. -1.
        994   -1    0    0    0    0 -0.00000000000E+00 -0.00000000000E+00  0.11368683772E-12  0.17120000000E+03  0.17120000000E+03 0.  0.
         13    1    1    2    0    0 -0.10903148304E+02 -0.90381590243E+01  0.19372906288E+02  0.23997658710E+02  0.10566000000E+00 0. -1.
        994    1    1    2    0    0  0.13332252058E+02  0.85938476298E+01  0.54813134150E+01  0.17202060330E+03  0.17120000000E+03 0.  0.
        998    1    1    2    0    0 -0.24291037539E+01  0.44431139448E+00  0.14751457766E+04  0.14751817380E+04  0.10000000000E+02 0. -1.
</event>
<event>
 5    1  0.1334136E-008  0.3738090E+03  0.7957747E-01  0.3478567E+00
         13   -1    0    0    0    0  0.00000000000E+00  0.00000000000E+00  0.14999999963E+04  0.15000000000E+04  0.10566000000E+00 0.  1.
        994   -1    0    0    0    0 -0.00000000000E+00 -0.00000000000E+00  0.11368683772E-12  0.17120000000E+03  0.17120000000E+03 0.  0.
         13    1    1    2    0    0 -0.51468786881E+02  0.79466788545E+02  0.45010349148E+03  0.45995344407E+03  0.10566000000E+00 0.  1.
        994    1    1    2    0    0  0.60517339521E+02 -0.66596474532E+02  0.35452185606E+02  0.19663096467E+03  0.17120000000E+03 0.  0.
        998    1    1    2    0    0 -0.90485526398E+01 -0.12870314013E+02  0.10144443192E+04  0.10146155913E+04  0.10000000000E+02 0.  1.
</event>
<event>
 5    1  0.1334136E-008  0.3854187E+03  0.7957747E-01  0.3427898E+00
         13   -1    0    0    0    0  0.00000000000E+00  0.00000000000E+00  0.14999999963E+04  0.15000000000E+04  0.10566000000E+00 0.  1.
        994   -1    0    0    0    0 -0.00000000000E+00 -0.00000000000E+00  0.11368683772E-12  0.17120000000E+03  0.17120000000E+03 0.  0.
         13    1    1    2    0    0  0.99163391825E+01 -0.46711528624E+01  0.41971838725E+02  0.43379717171E+02  0.10566000000E+00 0.  1.
        994    1    1    2    0    0 -0.62589331912E+01  0.78111745165E+01  0.17514877028E+01  0.17150130146E+03  0.17120000000E+03 0.  0.
        998    1    1    2    0    0 -0.36574059913E+01 -0.31400216541E+01  0.14562766699E+04  0.14563189814E+04  0.10000000000E+02 0.  1.
</event>
<event>
 5    1  0.1334136E-008  0.3843487E+03  0.7957747E-01  0.3432439E+00
         13   -1    0    0    0    0  0.00000000000E+00  0.00000000000E+00  0.14999999963E+04  0.15000000000E+04  0.10566000000E+00 0.  1.
        994   -1    0    0    0    0 -0.00000000000E+00 -0.00000000000E+00  0.11368683772E-12  0.17120000000E+03  0.17120000000E+03 0.  0.
         13    1    1    2    0    0  0.84750843490E+01 -0.15335110587E+02  0.76361463108E+02  0.78345879812E+02  0.10566000000E+00 0.  1.
        994    1    1    2    0    0 -0.42039956770E+01  0.15132469923E+02  0.27671961527E+01  0.17194116029E+03  0.17120000000E+03 0.  0.
        998    1    1    2    0    0 -0.42710886720E+01  0.20264066470E+00  0.14208713370E+04  0.14209129599E+04  0.10000000000E+02 0.  1.
</event>
<event>
 5    1  0.1334136E-008  0.3701152E+03  0.7957747E-01  0.3495361E+00
         13   -1    0    0    0    0  0.00000000000E+00  0.00000000000E+00  0.14999999963E+04  0.15000000000E+04  0.10566000000E+00 0. -1.
        994   -1    0    0    0    0 -0.00000000000E+00 -0.00000000000E+00  0.11368683772E-12  0.17120000000E+03  0.17120000000E+03 0.  0.
         13    1    1    2    0    0 -0.12144286913E+03 -0.59645559394E+02  0.66523809060E+03  0.67885763719E+03  0.10566000000E+00 0. -1.
        994    1    1    2    0    0  0.97198919687E+02  0.67762740992E+02  0.59423269885E+02  0.21651786083E+03  0.17120000000E+03 0.  0.
        998    1    1    2    0    0  0.24243949442E+02 -0.81171815971E+01  0.77533863579E+03  0.77582450198E+03  0.10000000000E+02 0. -1.
</event>
<event>
 5    1  0.1334136E-008  0.3840859E+03  0.7957747E-01  0.3433558E+00
         13   -1    0    0    0    0  0.00000000000E+00  0.00000000000E+00  0.14999999963E+04  0.15000000000E+04  0.10566000000E+00 0.  1.
        994   -1    0    0    0    0 -0.00000000000E+00 -0.00000000000E+00  0.11368683772E-12  0.17120000000E+03  0.17120000000E+03 0.  0.
         13    1    1    2    0    0 -0.14474418117E+02  0.13430516650E+02  0.92588247098E+02  0.94670387250E+02  0.10566000000E+00 0.  1.
        994    1    1    2    0    0  0.10115878996E+02 -0.87331774041E+01  0.26739809520E+01  0.17174163610E+03  0.17120000000E+03 0.  0.
        998    1    1    2    0    0  0.43585391204E+01 -0.46973392458E+01  0.14047377682E+04  0.14047879767E+04  0.10000000000E+02 0.  1.
</event>
<event>
 5    1  0.1334136E-008  0.3712079E+03  0.7957747E-01  0.3490358E+00
         13   -1    0    0    0    0  0.00000000000E+00  0.00000000000E+00  0.14999999963E+04  0.15000000000E+04  0.10566000000E+00 0.  1.
        994   -1    0    0    0    0 -0.00000000000E+00 -0.00000000000E+00  0.11368683772E-12  0.17120000000E+03  0.17120000000E+03 0.  0.
         13    1    1    2    0    0 -0.24804890790E+02 -0.15400597278E+02  0.45068326046E+02  0.53699405772E+02  0.10566000000E+00 0.  1.
        994    1    1    2    0    0  0.23142910582E+02  0.12860540250E+02  0.11056553797E+02  0.17358765851E+03  0.17120000000E+03 0.  0.
        998    1    1    2    0    0  0.16619802080E+01  0.25400570286E+01  0.14438751164E+04  0.14439129357E+04  0.10000000000E+02 0.  1.
</event>
<event>
 5    1  0.1334136E-008  0.3732601E+03  0.7957747E-01  0.3481041E+00
         13   -1    0    0    0    0  0.00000000000E+00  0.00000000000E+00  0.14999999963E+04  0.15000000000E+04  0.10566000000E+00 0. -1.
        994   -1    0    0    0    0 -0.00000000000E+00 -0.00000000000E+00  0.11368683772E-12  0.17120000000E+03  0.17120000000E+03 0.  0.
         13    1    1    2    0    0 -0.14320033042E+02  0.15715650240E+01  0.10105629974E+02  0.17597388561E+02  0.10566000000E+00 0. -1.
        994    1    1    2    0    0  0.19067925819E+02  0.90267268057E+00  0.88219047536E+01  0.17248671432E+03  0.17120000000E+03 0.  0.
        998    1    1    2    0    0 -0.47478927771E+01 -0.24742377045E+01  0.14810724616E+04  0.14811158971E+04  0.10000000000E+02 0. -1.
</event>
<event>
 5    1  0.1334136E-008  0.3766929E+03  0.7957747E-01  0.3465686E+00
         13   -1    0    0    0    0  0.00000000000E+00  0.00000000000E+00  0.14999999963E+04  0.15000000000E+04  0.10566000000E+00 0.  1.
        994   -1    0    0    0    0 -0.00000000000E+00 -0.00000000000E+00  0.11368683772E-12  0.17120000000E+03  0.17120000000E+03 0.  0.
         13    1    1    2    0    0 -0.12485080233E+03 -0.11490589844E+03  0.99888719858E+03  0.10131962964E+04  0.10566000000E+00 0.  1.
        994    1    1    2    0    0  0.11161874299E+03  0.10936220712E+03  0.93380201748E+02  0.24989625489E+03  0.17120000000E+03 0.  0.
        998    1    1    2    0    0  0.13232059349E+02  0.55436913180E+01  0.40773259595E+03  0.40810744873E+03  0.10000000000E+02 0.  1.
</event>
<event>
 5    1  0.1334136E-008  0.3841342E+03  0.7957747E-01  0.3433352E+00
         13   -1    0    0    0    0  0.00000000000E+00  0.00000000000E+00  0.14999999963E+04  0.15000000000E+04  0.10566000000E+00 0. -1.
        994   -1    0    0    0    0 -0.00000000000E+00 -0.00000000000E+00  0.11368683772E-12  0.17120000000E+03  0.17120000000E+03 0.  0.
         13    1    1    2    0    0  0.19090394020E+02 -0.18303382357E+02  0.15612451686E+03  0.15834876974E+03  0.10566000000E+00 0. -1.
        994    1    1    2    0    0 -0.15979928955E+02  0.19704020624E+02  0.41860144063E+01  0.17312010072E+03  0.17120000000E+03 0.  0.
        998    1    1    2    0    0 -0.31104650646E+01 -0.14006382673E+01  0.13396894650E+04  0.13397311295E+04  0.10000000000E+02 0. -1.
</event>
<event>
 5    1  0.1334136E-008  0.3850746E+03  0.7957747E-01  0.3429356E+00
         13   -1    0    0    0    0  0.00000000000E+00  0.00000000000E+00  0.14999999963E+04  0.15000000000E+04  0.10566000000E+00 0.  1.
        994   -1    0    0    0    0 -0.00000000000E+00 -0.00000000000E+00  0.11368683772E-12  0.17120000000E+03  0.17120000000E+03 0.  0.
         13    1    1    2    0    0 -0.11650633256E+02  0.90269116544E+01  0.77162335564E+02  0.78557364919E+02  0.10566000000E+00 0.  1.
        994    1    1    2    0    0 -0.77759885002E+01  0.22522812387E+01  0.18085930544E+01  0.17140084532E+03  0.17120000000E+03 0.  0.
        998    1    1    2    0    0  0.19426621756E+02 -0.11279192893E+02  0.14210290677E+04  0.14212417898E+04  0.10000000000E+02 0.  1.
</event>
<event>
 5    1  0.1334136E-008  0.3826749E+03  0.7957747E-01  0.3439594E+00
         13   -1    0    0    0    0  0.00000000000E+00  0.00000000000E+00  0.14999999963E+04  0.15000000000E+04  0.10566000000E+00 0. -1.
        994   -1    0    0    0    0 -0.00000000000E+00 -0.00000000000E+00  0.11368683772E-12  0.17120000000E+03  0.17120000000E+03 0.  0.
         13    1    1    2    0    0  0.11519164099E+02  0.10119258186E+02  0.41922872488E+02  0.44638872403E+02  0.10566000000E+00 0. -1.
        994    1    1    2    0    0 -0.80071126240E+01 -0.25690497921E+00  0.30016400185E+01  0.17141362167E+03  0.17120000000E+03 0.  0.
        998    1    1    2    0    0 -0.35120514748E+01 -0.98623532071E+01  0.14550754838E+04  0.14551475059E+04  0.10000000000E+02 0. -1.
</event>
<event>
 5    1  0.1334136E-008  0.3820190E+03  0.7957747E-01  0.3442414E+00
         13   -1    0    0    0    0  0.00000000000E+00  0.00000000000E+00  0.14999999963E+04  0.15000000000E+04  0.10566000000E+00 0. -1.
        994   -1    0    0    0    0 -0.00000000000E+00 -0.00000000000E+00  0.11368683772E-12  0.17120000000E+03  0.17120000000E+03 0.  0.
         13    1    1    2    0    0  0.22248412833E+01  0.10019607498E+02  0.14212590930E+02  0.17531439134E+02  0.10566000000E+00 0. -1.
        994    1    1    2    0    0 -0.31740115178E+02 -0.36032922466E+02  0.10812563180E+02  0.17813522374E+03  0.17120000000E+03 0.  0.
        998    1    1    2    0    0  0.29515273894E+02  0.26013314968E+02  0.14749748422E+04  0.14755333371E+04  0.10000000000E+02 0. -1.
</event>
<event>
 5    1  0.1334136E-008  0.3781001E+03  0.7957747E-01  0.3459473E+00
         13   -1    0    0    0    0  0.00000000000E+00  0.00000000000E+00  0.14999999963E+04  0.15000000000E+04  0.10566000000E+00 0. -1.
        994   -1    0    0    0    0 -0.00000000000E+00 -0.00000000000E+00  0.11368683772E-12  0.17120000000E+03  0.17120000000E+03 0.  0.
         13    1    1    2    0    0 -0.57228931991E+01  0.28288312431E+02  0.76416078984E+02  0.81684811428E+02  0.10566000000E+00 0. -1.
        994    1    1    2    0    0  0.82292795482E+01 -0.27628350063E+02  0.78960458578E+01  0.17378962659E+03  0.17120000000E+03 0.  0.
        998    1    1    2    0    0 -0.25063863490E+01 -0.65996236887E+00  0.14156878714E+04  0.14157255620E+04  0.10000000000E+02 0.  0.
</event>
<event>
 5    1  0.1334136E-008  0.4236036E+03  0.7957747E-01  0.3280818E+00
         13   -1    0    0    0    0  0.00000000000E+00  0.00000000000E+00  0.14999999963E+04  0.15000000000E+04  0.10566000000E+00 0.  1.
        994   -1    0    0    0    0 -0.00000000000E+00 -0.00000000000E+00  0.11368683772E-12  0.17120000000E+03  0.17120000000E+03 0.  0.
         13    1    1    2    0    0 -0.10359851760E+03 -0.47372341520E+02  0.21693297834E+03  0.24502391688E+03  0.10566000000E+00 0.  1.
        994    1    1    2    0    0 -0.74258735158E+01 -0.95079442759E+02  0.83450933567E+02  0.21299939518E+03  0.17120000000E+03 0.  0.
        998    1    1    2    0    0  0.11102439112E+03  0.14245178428E+03  0.11996160844E+04  0.12131766879E+04  0.10000000000E+02 0.  1.
</event>
<event>
 5    1  0.1334136E-008  0.3722579E+03  0.7957747E-01  0.3485578E+00
         13   -1    0    0    0    0  0.00000000000E+00  0.00000000000E+00  0.14999999963E+04  0.15000000000E+04  0.10566000000E+00 0.  1.
        994   -1    0    0    0    0 -0.00000000000E+00 -0.00000000000E+00  0.11368683772E-12  0.17120000000E+03  0.17120000000E+03 0.  0.
         13    1    1    2    0    0  0.16540006892E+02  0.13133684813E+02  0.23026309216E+02  0.31245601049E+02  0.10566000000E+00 0.  1.
        994    1    1    2    0    0 -0.24655655843E+02 -0.23637716629E+02  0.12106871639E+02  0.17499331231E+03  0.17120000000E+03 0.  0.
        998    1    1    2    0    0  0.81156489517E+01  0.10504031816E+02  0.14648668154E+04  0.14649610866E+04  0.10000000000E+02 0.  1.
</event>
<event>
 5    1  0.1334136E-008  0.3793202E+03  0.7957747E-01  0.3454124E+00
         13   -1    0    0    0    0  0.00000000000E+00  0.00000000000E+00  0.14999999963E+04  0.15000000000E+04  0.10566000000E+00 0.  1.
        994   -1    0    0    0    0 -0.00000000000E+00 -0.00000000000E+00  0.11368683772E-12  0.17120000000E+03  0.17120000000E+03 0.  0.
         13    1    1    2    0    0  0.22605637174E+02 -0.27792378380E+02  0.15523716045E+03  0.15931735084E+03  0.10566000000E+00 0.  1.
        994    1    1    2    0    0 -0.15849194866E+02 -0.39110340260E+01  0.53700686267E+01  0.17206036964E+03  0.17120000000E+03 0.  0.
        998    1    1    2    0    0 -0.67564423073E+01  0.31703412406E+02  0.13393927672E+04  0.13398222795E+04  0.10000000000E+02 0.  1.
</event>
<event>
 5    1  0.1334136E-008  0.3845309E+03  0.7957747E-01  0.3431664E+00
         13   -1    0    0    0    0  0.00000000000E+00  0.00000000000E+00  0.14999999963E+04  0.15000000000E+04  0.10566000000E+00 0. -1.
        994   -1    0    0    0    0 -0.00000000000E+00 -0.00000000000E+00  0.11368683772E-12  0.17120000000E+03  0.17120000000E+03 0.  0.
         13    1    1    2    0    0 -0.27055328736E+01  0.14969537588E+02  0.62438852322E+02  0.64265297066E+02  0.10566000000E+00 0. -1.
        994    1    1    2    0    0  0.18204515543E+01 -0.82608919144E+01  0.20989291672E+01  0.17142170773E+03  0.17120000000E+03 0.  0.
        998    1    1    2    0    0  0.88508131936E+00 -0.67086456738E+01  0.14354622148E+04  0.14355129952E+04  0.10000000000E+02 0. -1.
</event>
<event>
 5    1  0.1334136E-008  0.3800861E+03  0.7957747E-01  0.3450784E+00
         13   -1    0    0    0    0  0.00000000000E+00  0.00000000000E+00  0.14999999963E+04  0.15000000000E+04  0.10566000000E+00 0.  1.
        994   -1    0    0    0    0 -0.00000000000E+00 -0.00000000000E+00  0.11368683772E-12  0.17120000000E+03  0.17120000000E+03 0.  0.
         13    1    1    2    0    0 -0.23172608400E+02 -0.37112989386E+02  0.25781533751E+03  0.26150163132E+03  0.10566000000E+00 0.  1.
        994    1    1    2    0    0  0.41723308592E+02 -0.70056997667E+01  0.10094827076E+02  0.17663878352E+03  0.17120000000E+03 0.  0.
        998    1    1    2    0    0 -0.18550700192E+02  0.44118689153E+02  0.12320898317E+04  0.12330595852E+04  0.10000000000E+02 0. -1.
</event>
<event>
 5    1  0.1334136E-008  0.3804988E+03  0.7957747E-01  0.3448989E+00
         13   -1    0    0    0    0  0.00000000000E+00  0.00000000000E+00  0.14999999963E+04  0.15000000000E+04  0.10566000000E+00 0. -1.
        994   -1    0    0    0    0 -0.00000000000E+00 -0.00000000000E+00  0.11368683772E-12  0.17120000000E+03  0.17120000000E+03 0.  0.
         13    1    1    2    0    0 -0.11561524242E+03 -0.16582678630E+03  0.10470175201E+04  0.10663541184E+04  0.10566000000E+00 0. -1.
        994    1    1    2    0    0  0.13645279540E+03  0.15724340341E+03  0.16547905142E+03  0.31628722666E+03  0.17120000000E+03 0.  0.
        998    1    1    2    0    0 -0.20837552981E+02  0.85833828863E+01  0.28750342481E+03  0.28855865496E+03  0.10000000000E+02 0.  1.
</event>
<event>
 5    1  0.1334136E-008  0.3699631E+03  0.7957747E-01  0.3496060E+00
         13   -1    0    0    0    0  0.00000000000E+00  0.00000000000E+00  0.14999999963E+04  0.15000000000E+04  0.10566000000E+00 0. -1.
        994   -1    0    0    0    0 -0.00000000000E+00 -0.00000000000E+00  0.11368683772E-12  0.17120000000E+03  0.17120000000E+03 0.  0.
         13    1    1    2    0    0 -0.74102808113E+02 -0.11555067518E+03  0.69846248307E+03  0.71182373950E+03  0.10566000000E+00 0. -1.
        994    1    1    2    0    0  0.52596923718E+02  0.10207949423E+03  0.56375835229E+02  0.21371554535E+03  0.17120000000E+03 0.  0.
        998    1    1    2    0    0  0.21505884395E+02  0.13471180953E+02  0.74516167798E+03  0.74566071515E+03  0.10000000000E+02 0. -1.
</event>
<event>
 5    1  0.1334136E-008  0.3847063E+03  0.7957747E-01  0.3430919E+00
         13   -1    0    0    0    0  0.00000000000E+00  0.00000000000E+00  0.14999999963E+04  0.15000000000E+04  0.10566000000E+00 0. -1.
        994   -1    0    0    0    0 -0.00000000000E+00 -0.00000000000E+00  0.11368683772E-12  0.17120000000E+03  0.17120000000E+03 0.  0.
         13    1    1    2    0    0 -0.18402839138E+02 -0.59955268709E+01  0.10583199609E+03  0.10758732914E+03  0.10566000000E+00 0. -1.
        994    1    1    2    0    0  0.93432734464E+01  0.91058227423E+01  0.23365058983E+01  0.17171229434E+03  0.17120000000E+03 0.  0.
        998    1    1    2    0    0  0.90595656914E+01 -0.31102958714E+01  0.13918314943E+04  0.13919003765E+04  0.10000000000E+02 0. -1.
</event>
<event>
 5    1  0.1334136E-008  0.3786538E+03  0.7957747E-01  0.3457041E+00
         13   -1    0    0    0    0  0.00000000000E+00  0.00000000000E+00  0.14999999963E+04  0.15000000000E+04  0.10566000000E+00 0.  1.
        994   -1    0    0    0    0 -0.00000000000E+00 -0.00000000000E+00  0.11368683772E-12  0.17120000000E+03  0.17120000000E+03 0.  0.
         13    1    1    2    0    0  0.85074985318E+01 -0.12503669127E+02  0.21052672088E+02  0.25921910404E+02  0.10566000000E+00 0.  1.
        994    1    1    2    0    0 -0.92366776698E+01  0.21008524009E+02  0.65847356715E+01  0.17285679923E+03  0.17120000000E+03 0.  0.
        998    1    1    2    0    0  0.72917913799E+00 -0.85048548819E+01  0.14723625885E+04  0.14724212904E+04  0.10000000000E+02 0.  1.
</event>
<event>
 5    1  0.1334136E-008  0.3736401E+03  0.7957747E-01  0.3479327E+00
         13   -1    0    0    0    0  0.00000000000E+00  0.00000000000E+00  0.14999999963E+04  0.15000000000E+04  0.10566000000E+00 0.  1.
        994   -1    0    0    0    0 -0.00000000000E+00 -0.00000000000E+00  0.11368683772E-12  0.17120000000E+03  0.17120000000E+03 0.  0.
         13    1    1    2    0    0  0.81741984831E+01 -0.38199087052E+02  0.90899009891E+02  0.98937500149E+02  0.10566000000E+00 0.  1.
        994    1    1    2    0    0  0.17431742318E+01  0.52203757461E+02  0.16753285814E+02  0.17977314464E+03  0.17120000000E+03 0.  0.
        998    1    1    2    0    0 -0.99173727149E+01 -0.14004670409E+02  0.13923477006E+04  0.13924893552E+04  0.10000000000E+02 0.  1.
</event>
<event>
 5    1  0.1334136E-008  0.3833158E+03  0.7957747E-01  0.3436847E+00
         13   -1    0    0    0    0  0.00000000000E+00  0.00000000000E+00  0.14999999963E+04  0.15000000000E+04  0.10566000000E+00 0. -1.
        994   -1    0    0    0    0 -0.00000000000E+00 -0.00000000000E+00  0.11368683772E-12  0.17120000000E+03  0.17120000000E+03 0.  0.
         13    1    1    2    0    0  0.52832259249E+00  0.29514140580E+02  0.16260675389E+03  0.16526442809E+03  0.10566000000E+00 0. -1.
        994    1    1    2    0    0  0.13958485046E+01 -0.27005627087E+02  0.48904331868E+01  0.17339148948E+03  0.17120000000E+03 0.  0.
        998    1    1    2    0    0 -0.19241710971E+01 -0.25085134930E+01  0.13325028092E+04  0.13325440824E+04  0.10000000000E+02 0. -1.
</event>
<event>
 5    1  0.1334136E-008  0.3814687E+03  0.7957747E-01  0.3444788E+00
         13   -1    0    0    0    0  0.00000000000E+00  0.00000000000E+00  0.14999999963E+04  0.15000000000E+04  0.10566000000E+00 0.  1.
        994   -1    0    0    0    0 -0.00000000000E+00 -0.00000000000E+00  0.11368683772E-12  0.17120000000E+03  0.17120000000E+03 0.  0.
         13    1    1    2    0    0  0.46378137157E+01  0.92807479796E+01  0.14692467207E+02  0.17986699413E+02  0.10566000000E+00 0.  1.
        994    1    1    2    0    0 -0.70973520424E+01  0.28883484049E+01  0.35889549020E+01  0.17140897164E+03  0.17120000000E+03 0.  0.
        998    1    1    2    0    0  0.24595383267E+01 -0.12169096385E+02  0.14817185742E+04  0.14818043289E+04  0.10000000000E+02 0.  1.
</event>
<event>
 5    1  0.1334136E-008  0.3812494E+03  0.7957747E-01  0.3445736E+00
         13   -1    0    0    0    0  0.00000000000E+00  0.00000000000E+00  0.14999999963E+04  0.15000000000E+04  0.10566000000E+00 0. -1.
        994   -1    0    0    0    0 -0.00000000000E+00 -0.00000000000E+00  0.11368683772E-12  0.17120000000E+03  0.17120000000E+03 0.  0.
         13    1    1    2    0    0  0.41762609419E+02  0.28016643256E+02  0.28620497266E+03  0.29058965120E+03  0.10566000000E+00 0. -1.
        994    1    1    2    0    0 -0.46069502169E+02 -0.26387925532E+02  0.12945301274E+02  0.17971016240E+03  0.17120000000E+03 0.  0.
        998    1    1    2    0    0  0.43068927503E+01 -0.16287177237E+01  0.12008497223E+04  0.12009001864E+04  0.10000000000E+02 0.  0.
</event>
<event>
 5    1  0.1334136E-008  0.3801800E+03  0.7957747E-01  0.3450375E+00
         13   -1    0    0    0    0  0.00000000000E+00  0.00000000000E+00  0.14999999963E+04  0.15000000000E+04  0.10566000000E+00 0.  1.
        994   -1    0    0    0    0 -0.00000000000E+00 -0.00000000000E+00  0.11368683772E-12  0.17120000000E+03  0.17120000000E+03 0.  0.
         13    1    1    2    0    0 -0.36597438903E+02 -0.14243448094E+01  0.17967772823E+03  0.18337256741E+03  0.10566000000E+00 0.  1.
        994    1    1    2    0    0  0.87989108404E+01  0.76640228054E+01  0.44973453140E+01  0.17165612192E+03  0.17120000000E+03 0.  0.
        998    1    1    2    0    0  0.27798528063E+02 -0.62396779959E+01  0.13158249227E+04  0.13161713107E+04  0.10000000000E+02 0.  1.
</event>
<event>
 5    1  0.1334136E-008  0.3763399E+03  0.7957747E-01  0.3467252E+00
         13   -1    0    0    0    0  0.00000000000E+00  0.00000000000E+00  0.14999999963E+04  0.15000000000E+04  0.10566000000E+00 0. -1.
        994   -1    0    0    0    0 -0.00000000000E+00 -0.00000000000E+00  0.11368683772E-12  0.17120000000E+03  0.17120000000E+03 0.  0.
         13    1    1    2    0    0 -0.28623777887E+02 -0.59433526539E+01  0.85516353871E+02  0.90375339804E+02  0.10566000000E+00 0. -1.
        994    1    1    2    0    0 -0.32716396531E+02 -0.32235015136E+01  0.96581249599E+01  0.17459516872E+03  0.17120000000E+03 0.  0.
        998    1    1    2    0    0  0.61340174418E+02  0.91668541675E+01  0.14048255174E+04  0.14062294915E+04  0.10000000000E+02 0. -1.
</event>
<event>
 5    1  0.1334136E-008  0.3754548E+03  0.7957747E-01  0.3471191E+00
         13   -1    0    0    0    0  0.00000000000E+00  0.00000000000E+00  0.14999999963E+04  0.15000000000E+04  0.10566000000E+00 0.  1.
        994   -1    0    0    0    0 -0.00000000000E+00 -0.00000000000E+00  0.11368683772E-12  0.17120000000E+03  0.17120000000E+03 0.  0.
         13    1    1    2    0    0  0.51311348399E+02 -0.40487189195E+02  0.35688563390E+03  0.36282149028E+03  0.10566000000E+00 0.  1.
        994    1    1    2    0    0 -0.12927135519E+02  0.29417230506E+02  0.99576290076E+01  0.17447371911E+03  0.17120000000E+03 0.  0.
        998    1    1    2    0    0 -0.38384212880E+02  0.11069958688E+02  0.11331567334E+04  0.11339047906E+04  0.10000000000E+02 0.  1.
</event>
<event>
 5    1  0.1334136E-008  0.3804245E+03  0.7957747E-01  0.3449312E+00
         13   -1    0    0    0    0  0.00000000000E+00  0.00000000000E+00  0.14999999963E+04  0.15000000000E+04  0.10566000000E+00 0.  1.
        994   -1    0    0    0    0 -0.00000000000E+00 -0.00000000000E+00  0.11368683772E-12  0.17120000000E+03  0.17120000000E+03 0.  0.
         13    1    1    2    0    0  0.10436956136E+02  0.10366623395E+02  0.26381767716E+02  0.30206055119E+02  0.10566000000E+00 0.  1.
        994    1    1    2    0    0 -0.12030290298E+02  0.39611309592E+01  0.44547028567E+01  0.17172566151E+03  0.17120000000E+03 0.  0.
        998    1    1    2    0    0  0.15933341627E+01 -0.14327754354E+02  0.14691635257E+04  0.14692682834E+04  0.10000000000E+02 0.  1.
</event>
<event>
 5    1  0.1334136E-008  0.3862379E+03  0.7957747E-01  0.3424439E+00
         13   -1    0    0    0    0  0.00000000000E+00  0.00000000000E+00  0.14999999963E+04  0.15000000000E+04  0.10566000000E+00 0. -1.
        994   -1    0    0    0    0 -0.00000000000E+00 -0.00000000000E+00  0.11368683772E-12  0.17120000000E+03  0.17120000000E+03 0.  0.
         13    1    1    2    0    0  0.32995460389E+01 -0.10462442459E+02  0.57645095961E+02  0.58679791741E+02  0.10566000000E+00 0. -1.
        994    1    1    2    0    0 -0.41254976895E+01  0.12377626363E+02  0.15745580839E+01  0.17170365342E+03  0.17120000000E+03 0.  0.
        998    1    1    2    0    0  0.82595165059E+00 -0.19151839044E+01  0.14407803422E+04  0.14408165548E+04  0.10000000000E+02 0. -1.
</event>
<event>
 5    1  0.1334136E-008  0.3841952E+03  0.7957747E-01  0.3433093E+00
         13   -1    0    0    0    0  0.00000000000E+00  0.00000000000E+00  0.14999999963E+04  0.15000000000E+04  0.10566000000E+00 0. -1.
        994   -1    0    0    0    0 -0.00000000000E+00 -0.00000000000E+00  0.11368683772E-12  0.17120000000E+03  0.17120000000E+03 0.  0.
         13    1    1    2    0    0  0.24206755987E+01 -0.17849629341E+02  0.78368919314E+02  0.80412484208E+02  0.10566000000E+00 0. -1.
        994    1    1    2    0    0  0.41272717415E+01  0.14732997419E+02  0.28025093519E+01  0.17190517631E+03  0.17120000000E+03 0.  0.
        998    1    1    2    0    0 -0.65479473401E+01  0.31166319224E+01  0.14188285676E+04  0.14188823395E+04  0.10000000000E+02 0. -1.
</event>
<event>
 5    1  0.1334136E-008  0.3843178E+03  0.7957747E-01  0.3432571E+00
         13   -1    0    0    0    0  0.00000000000E+00  0.00000000000E+00  0.14999999963E+04  0.15000000000E+04  0.10566000000E+00 0.  1.
        994   -1    0    0    0    0 -0.00000000000E+00 -0.00000000000E+00  0.11368683772E-12  0.17120000000E+03  0.17120000000E+03 0.  0.
         13    1    1    2    0    0 -0.11709511078E+02  0.50647181230E+01  0.40361976975E+02  0.42330418952E+02  0.10566000000E+00 0.  1.
        994    1    1    2    0    0  0.95900871050E+01 -0.70185961869E+01  0.24348498495E+01  0.17162924855E+03  0.17120000000E+03 0.  0.
        998    1    1    2    0    0  0.21194239726E+01  0.19538780639E+01  0.14572031695E+04  0.14572403325E+04  0.10000000000E+02 0.  1.
</event>
<event>
 5    1  0.1334136E-008  0.3828970E+03  0.7957747E-01  0.3438640E+00
         13   -1    0    0    0    0  0.00000000000E+00  0.00000000000E+00  0.14999999963E+04  0.15000000000E+04  0.10566000000E+00 0. -1.
        994   -1    0    0    0    0 -0.00000000000E+00 -0.00000000000E+00  0.11368683772E-12  0.17120000000E+03  0.17120000000E+03 0.  0.
         13    1    1    2    0    0  0.11454700607E+01 -0.26504296163E+02  0.12900790845E+03  0.13170740838E+03  0.10566000000E+00 0. -1.
        994    1    1    2    0    0  0.71973663428E+01  0.18190487740E+02  0.39460454293E+01  0.17235923880E+03  0.17120000000E+03 0.  0.
        998    1    1    2    0    0 -0.83428364035E+01  0.83138084226E+01  0.13670460424E+04  0.13671333528E+04  0.10000000000E+02 0. -1.
</event>
<event>
 5    1  0.1334136E-008  0.3812020E+03  0.7957747E-01  0.3445942E+00
         13   -1    0    0    0    0  0.00000000000E+00  0.00000000000E+00  0.14999999963E+04  0.15000000000E+04  0.10566000000E+00 0.  1.
        994   -1    0    0    0    0 -0.00000000000E+00 -0.00000000000E+00  0.11368683772E-12  0.17120000000E+03  0.17120000000E+03 0.  0.
         13    1    1    2    0    0  0.28140070062E+02 -0.53293368645E+01  0.13003006933E+03  0.13314689432E+03  0.10566000000E+00 0.  1.
        994    1    1    2    0    0 -0.13496021763E+01 -0.15269480824E+02  0.43104232277E+01  0.17193893747E+03  0.17120000000E+03 0.  0.
        998    1    1    2    0    0 -0.26790467886E+02  0.20598817688E+02  0.13656595037E+04  0.13661141682E+04  0.10000000000E+02 0.  1.
</event>
<event>
 5    1  0.1334136E-008  0.3391620E+03  0.7957747E-01  0.3650847E+00
         13   -1    0    0    0    0  0.00000000000E+00  0.00000000000E+00  0.14999999963E+04  0.15000000000E+04  0.10566000000E+00 0. -1.
        994   -1    0    0    0    0 -0.00000000000E+00 -0.00000000000E+00  0.11368683772E-12  0.17120000000E+03  0.17120000000E+03 0.  0.
         13    1    1    2    0    0 -0.88126451317E+02  0.24747682850E+03  0.76863807296E+03  0.81229031167E+03  0.10566000000E+00 0. -1.
        994    1    1    2    0    0  0.10219150771E+03 -0.23831305657E+03  0.31629348724E+03  0.44338158200E+03  0.17120000000E+03 0.  0.
        998    1    1    2    0    0 -0.14065056393E+02 -0.91637719260E+01  0.41506843607E+03  0.41552810633E+03  0.10000000000E+02 0. -1.
</event>
<event>
 5    1  0.1334136E-008  0.3749928E+03  0.7957747E-01  0.3473255E+00
         13   -1    0    0    0    0  0.00000000000E+00  0.00000000000E+00  0.14999999963E+04  0.15000000000E+04  0.10566000000E+00 0. -1.
        994   -1    0    0    0    0 -0.00000000000E+00 -0.00000000000E+00  0.11368683772E-12  0.17120000000E+03  0.17120000000E+03 0.  0.
         13    1    1    2    0    0 -0.15773965606E+02  0.37978796361E+02  0.10920350366E+03  0.11669028811E+03  0.10566000000E+00 0. -1.
        994    1    1    2    0    0  0.30355770117E+02 -0.46260371010E+02  0.17161385625E+02  0.18073585107E+03  0.17120000000E+03 0.  0.
        998    1    1    2    0    0 -0.14581804511E+02  0.82815746484E+01  0.13736351070E+04  0.13737738608E+04  0.10000000000E+02 0. -1.
</event>
<event>
 5    1  0.1334136E-008  0.3832457E+03  0.7957747E-01  0.3437147E+00
         13   -1    0    0    0    0  0.00000000000E+00  0.00000000000E+00  0.14999999963E+04  0.15000000000E+04  0.10566000000E+00 0.  1.
        994   -1    0    0    0    0 -0.00000000000E+00 -0.00000000000E+00  0.11368683772E-12  0.17120000000E+03  0.17120000000E+03 0.  0.
         13    1    1    2    0    0  0.48092191619E+01 -0.88406757280E+01  0.19102540297E+02  0.21591765702E+02  0.10566000000E+00 0.  1.
        994    1    1    2    0    0 -0.33455721318E+00  0.11841352838E+02  0.29678858464E+01  0.17163501365E+03  0.17120000000E+03 0.  0.
        998    1    1    2    0    0 -0.44746619487E+01 -0.30006771101E+01  0.14779295701E+04  0.14779732206E+04  0.10000000000E+02 0.  1.
</event>
<event>
 5    1  0.1334136E-008  0.2412995E+03  0.7957747E-01  0.4431116E+00
         13   -1    0    0    0    0  0.00000000000E+00  0.00000000000E+00  0.14999999963E+04  0.15000000000E+04  0.10566000000E+00 0.  1.
        994   -1    0    0    0    0 -0.00000000000E+00 -0.00000000000E+00  0.11368683772E-12  0.17120000000E+03  0.17120000000E+03 0.  0.
         13    1    1    2    0    0  0.14730526514E+03 -0.12537655248E+03  0.38026664033E+03  0.42663901599E+03  0.10566000000E+00 0.  1.
        994    1    1    2    0    0 -0.41854981081E+02  0.72177914364E+02  0.94695703074E+02  0.21269275245E+03  0.17120000000E+03 0.  0.
        998    1    1    2    0    0 -0.10545028406E+03  0.53198638118E+02  0.10250376529E+04  0.10318682316E+04  0.10000000000E+02 0.  1.
</event>
<event>
 5    1  0.1334136E-008  0.3838648E+03  0.7957747E-01  0.3434501E+00
         13   -1    0    0    0    0  0.00000000000E+00  0.00000000000E+00  0.14999999963E+04  0.15000000000E+04  0.10566000000E+00 0.  1.
        994   -1    0    0    0    0 -0.00000000000E+00 -0.00000000000E+00  0.11368683772E-12  0.17120000000E+03  0.17120000000E+03 0.  0.
         13    1    1    2    0    0  0.24432316682E+02  0.51968534381E+01  0.12876462520E+03  0.13116510683E+03  0.10566000000E+00 0.  1.
        994    1    1    2    0    0 -0.23254402656E+02 -0.27217420495E+02  0.64364599094E+01  0.17502120796E+03  0.17120000000E+03 0.  0.
        998    1    1    2    0    0 -0.11779140270E+01  0.22020567057E+02  0.13647989112E+04  0.13650136852E+04  0.10000000000E+02 0.  1.
</event>
<event>
 5    1  0.1334136E-008  0.3777009E+03  0.7957747E-01  0.3461231E+00
         13   -1    0    0    0    0  0.00000000000E+00  0.00000000000E+00  0.14999999963E+04  0.15000000000E+04  0.10566000000E+00 0.  1.
        994   -1    0    0    0    0 -0.00000000000E+00 -0.00000000000E+00  0.11368683772E-12  0.17120000000E+03  0.17120000000E+03 0.  0.
         13    1    1    2    0    0 -0.14306325622E+02  0.41152353620E+01  0.44163230224E+00  0.14893364899E+02  0.10566000000E+00 0.  1.
        994    1    1    2    0    0  0.14402354257E+02 -0.22878641755E+01  0.15834629215E+02  0.17254807334E+03  0.17120000000E+03 0.  0.
        998    1    1    2    0    0 -0.96028635485E-01 -0.18273711865E+01  0.14837237348E+04  0.14837585618E+04  0.10000000000E+02 0.  1.
</event>
<event>
 5    1  0.1334136E-008  0.3818055E+03  0.7957747E-01  0.3443334E+00
         13   -1    0    0    0    0  0.00000000000E+00  0.00000000000E+00  0.14999999963E+04  0.15000000000E+04  0.10566000000E+00 0.  1.
        994   -1    0    0    0    0 -0.00000000000E+00 -0.00000000000E+00  0.11368683772E-12  0.17120000000E+03  0.17120000000E+03 0.  0.
         13    1    1    2    0    0  0.92764904054E+01  0.30875125868E+02  0.14969330702E+03  0.15312551715E+03  0.10566000000E+00 0.  1.
        994    1    1    2    0    0 -0.11304744846E+02 -0.26539616811E+02  0.59947164306E+01  0.17371679580E+03  0.17120000000E+03 0.  0.
        998    1    1    2    0    0  0.20282544402E+01 -0.43355090575E+01  0.13443119728E+04  0.13443576871E+04  0.10000000000E+02 0.  1.
</event>
<event>
 5    1  0.1334136E-008  0.3780634E+03  0.7957747E-01  0.3459634E+00
         13   -1    0    0    0    0  0.00000000000E+00  0.00000000000E+00  0.14999999963E+04  0.15000000000E+04  0.10566000000E+00 0.  1.
        994   -1    0    0    0    0 -0.00000000000E+00 -0.00000000000E+00  0.11368683772E-12  0.17120000000E+03  0.17120000000E+03 0.  0.
         13    1    1    2    0    0 -0.28119233424E+02  0.28952760668E+02  0.17025606411E+03  0.17497454720E+03  0.10566000000E+00 0.  1.
        994    1    1    2    0    0  0.39604874223E+01 -0.11643245440E+02  0.56229644608E+01  0.17173324767E+03  0.17120000000E+03 0.  0.
        998    1    1    2    0    0  0.24158746002E+02 -0.17309515228E+02  0.13241209677E+04  0.13244922051E+04  0.10000000000E+02 0.  1.
</event>
<event>
 5    1  0.1334136E-008  0.3833626E+03  0.7957747E-01  0.3436646E+00
         13   -1    0    0    0    0  0.00000000000E+00  0.00000000000E+00  0.14999999963E+04  0.15000000000E+04  0.10566000000E+00 0. -1.
        994   -1    0    0    0    0 -0.00000000000E+00 -0.00000000000E+00  0.11368683772E-12  0.17120000000E+03  0.17120000000E+03 0.  0.
         13    1    1    2    0    0 -0.28769151502E+02  0.11990877652E+02  0.16803139324E+03  0.17089764627E+03  0.10566000000E+00 0. -1.
        994    1    1    2    0    0  0.29330770318E+02 -0.30060308142E+02  0.82990805858E+01  0.17647161514E+03  0.17120000000E+03 0.  0.
        998    1    1    2    0    0 -0.56161881619E+00  0.18069430490E+02  0.13236695225E+04  0.13238307386E+04  0.10000000000E+02 0. -1.
</event>
<event>
 5    1  0.1334136E-008  0.3850030E+03  0.7957747E-01  0.3429659E+00
         13   -1    0    0    0    0  0.00000000000E+00  0.00000000000E+00  0.14999999963E+04  0.15000000000E+04  0.10566000000E+00 0. -1.
        994   -1    0    0    0    0 -0.00000000000E+00 -0.00000000000E+00  0.11368683772E-12  0.17120000000E+03  0.17120000000E+03 0.  0.
         13    1    1    2    0    0  0.13335556651E+01  0.20186335554E+02  0.12046950235E+03  0.12215636977E+03  0.10566000000E+00 0. -1.
        994    1    1    2    0    0 -0.28550534672E+01 -0.17481711004E+02  0.26611664918E+01  0.17213449206E+03  0.17120000000E+03 0.  0.
        998    1    1    2    0    0  0.15214978021E+01 -0.27046245499E+01  0.13768693274E+04  0.13769091382E+04  0.10000000000E+02 0.  0.
</event>
<event>
 5    1  0.1334136E-008  0.3849959E+03  0.7957747E-01  0.3429689E+00
         13   -1    0    0    0    0  0.00000000000E+00  0.00000000000E+00  0.14999999963E+04  0.15000000000E+04  0.10566000000E+00 0. -1.
        994   -1    0    0    0    0 -0.00000000000E+00 -0.00000000000E+00  0.11368683772E-12  0.17120000000E+03  0.17120000000E+03 0.  0.
         13    1    1    2    0    0  0.10014641048E+01  0.12153684516E+02  0.44337408031E+02  0.45984039542E+02  0.10566000000E+00 0. -1.
        994    1    1    2    0    0  0.20352213582E+02 -0.15103850826E+02  0.37474666642E+01  0.17310639045E+03  0.17120000000E+03 0.  0.
        998    1    1    2    0    0 -0.21353677687E+02  0.29501663099E+01  0.14519151216E+04  0.14521095700E+04  0.10000000000E+02 0. -1.
</event>
<event>
 5    1  0.1334136E-008  0.3822964E+03  0.7957747E-01  0.3441220E+00
         13   -1    0    0    0    0  0.00000000000E+00  0.00000000000E+00  0.14999999963E+04  0.15000000000E+04  0.10566000000E+00 0. -1.
        994   -1    0    0    0    0 -0.00000000000E+00 -0.00000000000E+00  0.11368683772E-12  0.17120000000E+03  0.17120000000E+03 0.  0.
         13    1    1    2    0    0  0.25453720142E+01  0.18458246923E+02  0.58437234977E+02  0.61336020363E+02  0.10566000000E+00 0. -1.
        994    1    1    2    0    0 -0.78931902927E+01 -0.69054327823E+01  0.33433937320E+01  0.17155350692E+03  0.17120000000E+03 0.  0.
        998    1    1    2    0    0  0.53478182785E+01 -0.11552814141E+02  0.14382193676E+04  0.14383104727E+04  0.10000000000E+02 0. -1.
</event>
<event>
 5    1  0.1334136E-008  0.3797589E+03  0.7957747E-01  0.3452209E+00
         13   -1    0    0    0    0  0.00000000000E+00  0.00000000000E+00  0.14999999963E+04  0.15000000000E+04  0.10566000000E+00 0.  1.
        994   -1    0    0    0    0 -0.00000000000E+00 -0.00000000000E+00  0.11368683772E-12  0.17120000000E+03  0.17120000000E+03 0.  0.
         13    1    1    2    0    0  0.75003508011E+01  0.14435472121E+02  0.28993704148E+02  0.33245814199E+02  0.10566000000E+00 0.  1.
        994    1    1    2    0    0 -0.62412119469E+01 -0.14426685763E+02  0.50819531760E+01  0.17199519830E+03  0.17120000000E+03 0.  0.
        998    1    1    2    0    0 -0.12591388542E+01 -0.87863578389E-02  0.14659243390E+04  0.14659589875E+04  0.10000000000E+02 0.  1.
</event>
<event>
 5    1  0.1334136E-008  0.3696174E+03  0.7957747E-01  0.3497651E+00
         13   -1    0    0    0    0  0.00000000000E+00  0.00000000000E+00  0.14999999963E+04  0.15000000000E+04  0.10566000000E+00 0.  1.
        994   -1    0    0    0    0 -0.00000000000E+00 -0.00000000000E+00  0.11368683772E-12  0.17120000000E+03  0.17120000000E+03 0.  0.
         13    1    1    2    0    0 -0.41998789078E+02 -0.26023225145E+01  0.73612578906E+02  0.84790879838E+02  0.10566000000E+00 0.  1.
        994    1    1    2    0    0  0.48161237386E+02 -0.25644877799E+01  0.18902141489E+02  0.17886534694E+03  0.17120000000E+03 0.  0.
        998    1    1    2    0    0 -0.61624483074E+01  0.51668102944E+01  0.14074852759E+04  0.14075437732E+04  0.10000000000E+02 0.  1.
</event>
<event>
 5    1  0.1334136E-008  0.3799029E+03  0.7957747E-01  0.3451581E+00
         13   -1    0    0    0    0  0.00000000000E+00  0.00000000000E+00  0.14999999963E+04  0.15000000000E+04  0.10566000000E+00 0. -1.
        994   -1    0    0    0    0 -0.00000000000E+00 -0.00000000000E+00  0.11368683772E-12  0.17120000000E+03  0.17120000000E+03 0.  0.
         13    1    1    2    0    0 -0.12405781061E+02  0.46505053634E+01  0.19637614851E+02  0.23689189200E+02  0.10566000000E+00 0. -1.
        994    1    1    2    0    0 -0.17872410489E+01 -0.90456272586E+01  0.44665222337E+01  0.17150628975E+03  0.17120000000E+03 0.  0.
        998    1    1    2    0    0  0.14193022110E+02  0.43951218951E+01  0.14758958592E+04  0.14760045210E+04  0.10000000000E+02 0. -1.
</event>
<event>
 5    1  0.1334136E-008  0.3770733E+03  0.7957747E-01  0.3464002E+00
         13   -1    0    0    0    0  0.00000000000E+00  0.00000000000E+00  0.14999999963E+04  0.15000000000E+04  0.10566000000E+00 0. -1.
        994   -1    0    0    0    0 -0.00000000000E+00 -0.00000000000E+00  0.11368683772E-12  0.17120000000E+03  0.17120000000E+03 0.  0.
         13    1    1    2    0    0 -0.58621292598E+01  0.93787640400E+01  0.83039837111E+01  0.13830874299E+02  0.10566000000E+00 0. -1.
        994    1    1    2    0    0  0.57450282473E+01 -0.82933375706E+01  0.59615374905E+01  0.17160059652E+03  0.17120000000E+03 0.  0.
        998    1    1    2    0    0  0.11710101255E+00 -0.10854264694E+01  0.14857344751E+04  0.14857685292E+04  0.10000000000E+02 0. -1.
</event>
<event>
 5    1  0.1334136E-008  0.3689650E+03  0.7957747E-01  0.3500661E+00
         13   -1    0    0    0    0  0.00000000000E+00  0.00000000000E+00  0.14999999963E+04  0.15000000000E+04  0.10566000000E+00 0. -1.
        994   -1    0    0    0    0 -0.00000000000E+00 -0.00000000000E+00  0.11368683772E-12  0.17120000000E+03  0.17120000000E+03 0.  0.
         13    1    1    2    0    0 -0.54874911101E+02  0.87923521092E+02  0.40323923439E+03  0.41634564096E+03  0.10566000000E+00 0. -1.
        994    1    1    2    0    0  0.62814681645E+02 -0.78706326950E+02  0.45872640714E+02  0.20384825066E+03  0.17120000000E+03 0.  0.
        998    1    1    2    0    0 -0.79397705437E+01 -0.92171941417E+01  0.10508881212E+04  0.10510061084E+04  0.10000000000E+02 0. -1.
</event>
<event>
 5    1  0.1334136E-008  0.3852584E+03  0.7957747E-01  0.3428577E+00
         13   -1    0    0    0    0  0.00000000000E+00  0.00000000000E+00  0.14999999963E+04  0.15000000000E+04  0.10566000000E+00 0.  1.
        994   -1    0    0    0    0 -0.00000000000E+00 -0.00000000000E+00  0.11368683772E-12  0.17120000000E+03  0.17120000000E+03 0.  0.
         13    1    1    2    0    0  0.11273695603E+02 -0.52961369813E+01  0.48123981673E+02  0.49709898970E+02  0.10566000000E+00 0.  1.
        994    1    1    2    0    0 -0.16588510833E+02  0.14660330617E+02  0.31139638349E+01  0.17265352807E+03  0.17120000000E+03 0.  0.
        998    1    1    2    0    0  0.53148152300E+01 -0.93641936360E+01  0.14487620508E+04  0.14488365730E+04  0.10000000000E+02 0.  1.
</event>
<event>
 5    1  0.1334136E-008  0.3757560E+03  0.7957747E-01  0.3469849E+00
         13   -1    0    0    0    0  0.00000000000E+00  0.00000000000E+00  0.14999999963E+04  0.15000000000E+04  0.10566000000E+00 0. -1.
        994   -1    0    0    0    0 -0.00000000000E+00 -0.00000000000E+00  0.11368683772E-12  0.17120000000E+03  0.17120000000E+03 0.  0.
         13    1    1    2    0    0 -0.25823160258E+01 -0.26095651059E+02  0.47607065189E+02  0.54351588571E+02  0.10566000000E+00 0. -1.
        994    1    1    2    0    0  0.12222877398E+02  0.45073340090E+02  0.13721944676E+02  0.17798521423E+03  0.17120000000E+03 0.  0.
        998    1    1    2    0    0 -0.96405613725E+01 -0.18977689031E+02  0.14386709864E+04  0.14388631972E+04  0.10000000000E+02 0. -1.
</event>
<event>
 5    1  0.1334136E-008  0.3846605E+03  0.7957747E-01  0.3431113E+00
         13   -1    0    0    0    0  0.00000000000E+00  0.00000000000E+00  0.14999999963E+04  0.15000000000E+04  0.10566000000E+00 0.  1.
        994   -1    0    0    0    0 -0.00000000000E+00 -0.00000000000E+00  0.11368683772E-12  0.17120000000E+03  0.17120000000E+03 0.  0.
         13    1    1    2    0    0 -0.32668136765E+01 -0.16015726227E+02  0.73500652242E+02  0.75296298728E+02  0.10566000000E+00 0.  1.
        994    1    1    2    0    0 -0.66938353718E+01  0.13670476472E+02  0.25619480918E+01  0.17189442381E+03  0.17120000000E+03 0.  0.
        998    1    1    2    0    0  0.99606490483E+01  0.23452497558E+01  0.14239373959E+04  0.14240092775E+04  0.10000000000E+02 0.  1.
</event>
<event>
 5    1  0.1334136E-008  0.3808454E+03  0.7957747E-01  0.3447486E+00
         13   -1    0    0    0    0  0.00000000000E+00  0.00000000000E+00  0.14999999963E+04  0.15000000000E+04  0.10566000000E+00 0.  1.
        994   -1    0    0    0    0 -0.00000000000E+00 -0.00000000000E+00  0.11368683772E-12  0.17120000000E+03  0.17120000000E+03 0.  0.
         13    1    1    2    0    0 -0.65817731803E+00  0.12161271071E+02  0.18320212394E+02  0.21999342209E+02  0.10566000000E+00 0.  1.
        994    1    1    2    0    0  0.30300581576E+01 -0.11476199258E+02  0.41768194089E+01  0.17166179022E+03  0.17120000000E+03 0.  0.
        998    1    1    2    0    0 -0.23718808396E+01 -0.68507181266E+00  0.14775029645E+04  0.14775388676E+04  0.10000000000E+02 0.  1.
</event>
<event>
 5    1  0.1334136E-008  0.3831879E+03  0.7957747E-01  0.3437394E+00
         13   -1    0    0    0    0  0.00000000000E+00  0.00000000000E+00  0.14999999963E+04  0.15000000000E+04  0.10566000000E+00 0. -1.
        994   -1    0    0    0    0 -0.00000000000E+00 -0.00000000000E+00  0.11368683772E-12  0.17120000000E+03  0.17120000000E+03 0.  0.
         13    1    1    2    0    0  0.15189518458E+01 -0.17583876769E+02  0.58207293183E+02  0.60824337897E+02  0.10566000000E+00 0. -1.
        994    1    1    2    0    0 -0.88285934216E+00  0.20361240800E+02  0.39077317034E+01  0.17245309488E+03  0.17120000000E+03 0.  0.
        998    1    1    2    0    0 -0.63609250369E+00 -0.27773640306E+01  0.14378849714E+04  0.14379225672E+04  0.10000000000E+02 0. -1.
</event>
<event>
 5    1  0.1334136E-008  0.3835544E+03  0.7957747E-01  0.3435826E+00
         13   -1    0    0    0    0  0.00000000000E+00  0.00000000000E+00  0.14999999963E+04  0.15000000000E+04  0.10566000000E+00 0.  1.
        994   -1    0    0    0    0 -0.00000000000E+00 -0.00000000000E+00  0.11368683772E-12  0.17120000000E+03  0.17120000000E+03 0.  0.
         13    1    1    2    0    0  0.56363677702E+01 -0.10622711999E+02  0.28938864162E+02  0.31338150470E+02  0.10566000000E+00 0.  1.
        994    1    1    2    0    0 -0.26173523423E+01  0.19326098195E+02  0.36072748730E+01  0.17234500584E+03  0.17120000000E+03 0.  0.
        998    1    1    2    0    0 -0.30190154278E+01 -0.87033861957E+01  0.14674538572E+04  0.14675168437E+04  0.10000000000E+02 0.  1.
</event>
<event>
 5    1  0.1334136E-008  0.3852354E+03  0.7957747E-01  0.3428674E+00
         13   -1    0    0    0    0  0.00000000000E+00  0.00000000000E+00  0.14999999963E+04  0.15000000000E+04  0.10566000000E+00 0. -1.
        994   -1    0    0    0    0 -0.00000000000E+00 -0.00000000000E+00  0.11368683772E-12  0.17120000000E+03  0.17120000000E+03 0.  0.
         13    1    1    2    0    0  0.97659327066E+01 -0.86399523872E+01  0.54614209134E+02  0.56149311860E+02  0.10566000000E+00 0. -1.
        994    1    1    2    0    0 -0.94607945919E+01  0.99950388295E+01  0.21359775212E+01  0.17176556650E+03  0.17120000000E+03 0.  0.
        998    1    1    2    0    0 -0.30513811469E+00 -0.13550864423E+01  0.14432498096E+04  0.14432851216E+04  0.10000000000E+02 0. -1.
</event>
<event>
 5    1  0.1334136E-008  0.3751911E+03  0.7957747E-01  0.3472369E+00
         13   -1    0    0    0    0  0.00000000000E+00  0.00000000000E+00  0.14999999963E+04  0.15000000000E+04  0.10566000000E+00 0.  1.
        994   -1    0    0    0    0 -0.00000000000E+00 -0.00000000000E+00  0.11368683772E-12  0.17120000000E+03  0.17120000000E+03 0.  0.
         13    1    1    2    0    0 -0.16922765711E+02  0.55321806430E+01  0.21070467847E+02  0.27585517964E+02  0.10566000000E+00 0.  1.
        994    1    1    2    0    0  0.15614838452E+02 -0.54892595071E+01  0.75118066592E+01  0.17216219791E+03  0.17120000000E+03 0.  0.
        998    1    1    2    0    0  0.13079272592E+01 -0.42921135948E-01  0.14714177218E+04  0.14714522841E+04  0.10000000000E+02 0.  1.
</event>
<event>
 5    1  0.1334136E-008  0.3804565E+03  0.7957747E-01  0.3449173E+00
         13   -1    0    0    0    0  0.00000000000E+00  0.00000000000E+00  0.14999999963E+04  0.15000000000E+04  0.10566000000E+00 0. -1.
        994   -1    0    0    0    0 -0.00000000000E+00 -0.00000000000E+00  0.11368683772E-12  0.17120000000E+03  0.17120000000E+03 0.  0.
         13    1    1    2    0    0  0.10371727800E+02 -0.46988085268E+01  0.15240670614E+02  0.19024740312E+02  0.10566000000E+00 0. -1.
        994    1    1    2    0    0  0.21507884430E+01  0.57110319614E+01  0.40271899336E+01  0.17135606215E+03  0.17120000000E+03 0.  0.
        998    1    1    2    0    0 -0.12522516243E+02 -0.10122234346E+01  0.14807321357E+04  0.14808191975E+04  0.10000000000E+02 0. -1.
</event>
<event>
 5    1  0.1334136E-008  0.3731295E+03  0.7957747E-01  0.3481631E+00
         13   -1    0    0    0    0  0.00000000000E+00  0.00000000000E+00  0.14999999963E+04  0.15000000000E+04  0.10566000000E+00 0. -1.
        994   -1    0    0    0    0 -0.00000000000E+00 -0.00000000000E+00  0.11368683772E-12  0.17120000000E+03  0.17120000000E+03 0.  0.
         13    1    1    2    0    0 -0.79316654106E+02 -0.47196601435E+02  0.32216444898E+03  0.33512474418E+03  0.10566000000E+00 0. -1.
        994    1    1    2    0    0  0.61363414086E+02  0.14868424327E+02  0.26831608039E+02  0.18443403650E+03  0.17120000000E+03 0.  0.
        998    1    1    2    0    0  0.17953240021E+02  0.32328177108E+02  0.11510039393E+04  0.11516412193E+04  0.10000000000E+02 0. -1.
</event>
<event>
 5    1  0.1334136E-008  0.3840734E+03  0.7957747E-01  0.3433612E+00
         13   -1    0    0    0    0  0.00000000000E+00  0.00000000000E+00  0.14999999963E+04  0.15000000000E+04  0.10566000000E+00 0.  1.
        994   -1    0    0    0    0 -0.00000000000E+00 -0.00000000000E+00  0.11368683772E-12  0.17120000000E+03  0.17120000000E+03 0.  0.
         13    1    1    2    0    0  0.87336219077E+01  0.13524326649E+02  0.57241626685E+02  0.59462581112E+02  0.10566000000E+00 0.  1.
        994    1    1    2    0    0 -0.15009334486E+02 -0.19367872802E+02  0.40738327737E+01  0.17299257421E+03  0.17120000000E+03 0.  0.
        998    1    1    2    0    0  0.62757125784E+01  0.58435461521E+01  0.14386845368E+04  0.14387448447E+04  0.10000000000E+02 0.  1.
</event>
<event>
 5    1  0.1334136E-008  0.3838245E+03  0.7957747E-01  0.3434673E+00
         13   -1    0    0    0    0  0.00000000000E+00  0.00000000000E+00  0.14999999963E+04  0.15000000000E+04  0.10566000000E+00 0.  1.
        994   -1    0    0    0    0 -0.00000000000E+00 -0.00000000000E+00  0.11368683772E-12  0.17120000000E+03  0.17120000000E+03 0.  0.
         13    1    1    2    0    0  0.29789466729E+01 -0.21554433914E+02  0.11325171418E+03  0.11532315324E+03  0.10566000000E+00 0.  1.
        994    1    1    2    0    0  0.46510554173E+01  0.57333086250E+01  0.23948175815E+01  0.17137583930E+03  0.17120000000E+03 0.  0.
        998    1    1    2    0    0 -0.76300020902E+01  0.15821125289E+02  0.13843534645E+04  0.13845010075E+04  0.10000000000E+02 0.  1.
</event>
<event>
 5    1  0.1334136E-008  0.3848596E+03  0.7957747E-01  0.3430268E+00
         13   -1    0    0    0    0  0.00000000000E+00  0.00000000000E+00  0.14999999963E+04  0.15000000000E+04  0.10566000000E+00 0.  1.
        994   -1    0    0    0    0 -0.00000000000E+00 -0.00000000000E+00  0.11368683772E-12  0.17120000000E+03  0.17120000000E+03 0.  0.
         13    1    1    2    0    0  0.63857374746E+01  0.81331058365E+01  0.30849863037E+02  0.32536906231E+02  0.10566000000E+00 0.  1.
        994    1    1    2    0    0 -0.74584309505E+01 -0.61362041424E+01  0.20068300562E+01  0.17148396007E+03  0.17120000000E+03 0.  0.
        998    1    1    2    0    0  0.10726934759E+01 -0.19969016940E+01  0.14671433032E+04  0.14671791337E+04  0.10000000000E+02 0.  1.
</event>
<event>
 5    1  0.1334136E-008  0.3802070E+03  0.7957747E-01  0.3450257E+00
         13   -1    0    0    0    0  0.00000000000E+00  0.00000000000E+00  0.14999999963E+04  0.15000000000E+04  0.10566000000E+00 0.  1.
        994   -1    0    0    0    0 -0.00000000000E+00 -0.00000000000E+00  0.11368683772E-12  0.17120000000E+03  0.17120000000E+03 0.  0.
         13    1    1    2    0    0  0.12431591723E+02  0.37602572066E+02  0.15611348509E+03  0.16105877589E+03  0.10566000000E+00 0.  1.
        994    1    1    2    0    0  0.13873846075E+02 -0.65797798418E+02  0.19285235837E+02  0.18494105602E+03  0.17120000000E+03 0.  0.
        998    1    1    2    0    0 -0.26305437799E+02  0.28195226352E+02  0.13246012753E+04  0.13252001681E+04  0.10000000000E+02 0.  1.
</event>
<event>
 5    1  0.1334136E-008  0.3839196E+03  0.7957747E-01  0.3434267E+00
         13   -1    0    0    0    0  0.00000000000E+00  0.00000000000E+00  0.14999999963E+04  0.15000000000E+04  0.10566000000E+00 0.  1.
        994   -1    0    0    0    0 -0.00000000000E+00 -0.00000000000E+00  0.11368683772E-12  0.17120000000E+03  0.17120000000E+03 0.  0.
         13    1    1    2    0    0  0.25698625818E+01 -0.10129547379E+02  0.24698228911E+02  0.26818381740E+02  0.10566000000E+00 0.  1.
        994    1    1    2    0    0  0.90530424857E+00  0.56736848690E+01  0.22764379648E+01  0.17131150704E+03  0.17120000000E+03 0.  0.
        998    1    1    2    0    0 -0.34751668303E+01  0.44558625102E+01  0.14730253294E+04  0.14730701112E+04  0.10000000000E+02 0.  1.
</event>
<event>
 5    1  0.1334136E-008  0.3818364E+03  0.7957747E-01  0.3443201E+00
         13   -1    0    0    0    0  0.00000000000E+00  0.00000000000E+00  0.14999999963E+04  0.15000000000E+04  0.10566000000E+00 0.  1.
        994   -1    0    0    0    0 -0.00000000000E+00 -0.00000000000E+00  0.11368683772E-12  0.17120000000E+03  0.17120000000E+03 0.  0.
         13    1    1    2    0    0 -0.48435286040E+01  0.39294947057E+02  0.22248751636E+03  0.22598287265E+03  0.10566000000E+00 0.  1.
        994    1    1    2    0    0  0.34652977243E+02 -0.30795847377E+02  0.10383431625E+02  0.17766954916E+03  0.17120000000E+03 0.  0.
        998    1    1    2    0    0 -0.29809448639E+02 -0.84990996797E+01  0.12671290483E+04  0.12675475782E+04  0.10000000000E+02 0.  1.
</event>
<event>
 5    1  0.1334136E-008  0.3792730E+03  0.7957747E-01  0.3454330E+00
         13   -1    0    0    0    0  0.00000000000E+00  0.00000000000E+00  0.14999999963E+04  0.15000000000E+04  0.10566000000E+00 0.  1.
        994   -1    0    0    0    0 -0.00000000000E+00 -0.00000000000E+00  0.11368683772E-12  0.17120000000E+03  0.17120000000E+03 0.  0.
         13    1    1    2    0    0 -0.35576639031E+01 -0.42069022060E+02  0.17823223244E+03  0.18316440548E+03  0.10566000000E+00 0.  1.
        994    1    1    2    0    0  0.36712802242E+02  0.37701295283E+02  0.13836672274E+02  0.17963883493E+03  0.17120000000E+03 0.  0.
        998    1    1    2    0    0 -0.33155138339E+02  0.43677267774E+01  0.13079310916E+04  0.13083967596E+04  0.10000000000E+02 0.  1.
</event>
<event>
 5    1  0.1334136E-008  0.3141139E+03  0.7957747E-01  0.3800141E+00
         13   -1    0    0    0    0  0.00000000000E+00  0.00000000000E+00  0.14999999963E+04  0.15000000000E+04  0.10566000000E+00 0.  1.
        994   -1    0    0    0    0 -0.00000000000E+00 -0.00000000000E+00  0.11368683772E-12  0.17120000000E+03  0.17120000000E+03 0.  0.
         13    1    1    2    0    0  0.14162511036E+03 -0.15398621337E+03  0.76005570986E+03  0.78832361314E+03  0.10566000000E+00 0.  1.
        994    1    1    2    0    0 -0.10990274274E+03  0.13535638971E+03  0.13979485935E+03  0.28151733126E+03  0.17120000000E+03 0.  0.
        998    1    1    2    0    0 -0.31722367621E+02  0.18629823654E+02  0.60014942707E+03  0.60135905560E+03  0.10000000000E+02 0. -1.
</event>
<event>
 5    1  0.1334136E-008  0.3793668E+03  0.7957747E-01  0.3453920E+00
         13   -1    0    0    0    0  0.00000000000E+00  0.00000000000E+00  0.14999999963E+04  0.15000000000E+04  0.10566000000E+00 0. -1.
        994   -1    0    0    0    0 -0.00000000000E+00 -0.00000000000E+00  0.11368683772E-12  0.17120000000E+03  0.17120000000E+03 0.  0.
         13    1    1    2    0    0 -0.16896882708E+02  0.44512161244E+02  0.24811074944E+03  0.25263766999E+03  0.10566000000E+00 0. -1.
        994    1    1    2    0    0  0.39315459588E+02 -0.18392675133E+02  0.10790369212E+02  0.17694594635E+03  0.17120000000E+03 0.  0.
        998    1    1    2    0    0 -0.22418576880E+02 -0.26119486111E+02  0.12410988776E+04  0.12416163837E+04  0.10000000000E+02 0. -1.
</event>
<event>
 5    1  0.1334136E-008  0.3753628E+03  0.7957747E-01  0.3471602E+00
         13   -1    0    0    0    0  0.00000000000E+00  0.00000000000E+00  0.14999999963E+04  0.15000000000E+04  0.10566000000E+00 0. -1.
        994   -1    0    0    0    0 -0.00000000000E+00 -0.00000000000E+00  0.11368683772E-12  0.17120000000E+03  0.17120000000E+03 0.  0.
         13    1    1    2    0    0 -0.19890100728E+02 -0.19181378711E+02  0.56381937392E+02  0.62789134605E+02  0.10566000000E+00 0. -1.
        994    1    1    2    0    0  0.67254532416E+01  0.18363990556E+02  0.77920884725E+01  0.17248949102E+03  0.17120000000E+03 0.  0.
        998    1    1    2    0    0  0.13164647486E+02  0.81738815534E+00  0.14358259704E+04  0.14359213744E+04  0.10000000000E+02 0. -1.
</event>
<event>
 5    1  0.1334136E-008  0.3781338E+03  0.7957747E-01  0.3459325E+00
         13   -1    0    0    0    0  0.00000000000E+00  0.00000000000E+00  0.14999999963E+04  0.15000000000E+04  0.10566000000E+00 0. -1.
        994   -1    0    0    0    0 -0.00000000000E+00 -0.00000000000E+00  0.11368683772E-12  0.17120000000E+03  0.17120000000E+03 0.  0.
         13    1    1    2    0    0  0.44288339169E+02 -0.83143477347E+02  0.48387846208E+03  0.49296315486E+03  0.10566000000E+00 0. -1.
        994    1    1    2    0    0 -0.78400793977E+02  0.84779930953E+02  0.51327710791E+02  0.21278697113E+03  0.17120000000E+03 0.  0.
        998    1    1    2    0    0  0.34112454808E+02 -0.16364536064E+01  0.96479382340E+03  0.96544987401E+03  0.10000000000E+02 0. -1.
</event>
<event>
 5    1  0.1334136E-008  0.3726989E+03  0.7957747E-01  0.3483578E+00
         13   -1    0    0    0    0  0.00000000000E+00  0.00000000000E+00  0.14999999963E+04  0.15000000000E+04  0.10566000000E+00 0.  1.
        994   -1    0    0    0    0 -0.00000000000E+00 -0.00000000000E+00  0.11368683772E-12  0.17120000000E+03  0.17120000000E+03 0.  0.
         13    1    1    2    0    0 -0.63117043774E+01  0.10760736045E+02  0.62573047413E+01  0.13956936592E+02  0.10566000000E+00 0.  1.
        994    1    1    2    0    0  0.50453578283E+01 -0.10713916887E+02  0.83457472545E+01  0.17181191794E+03  0.17120000000E+03 0.  0.
        998    1    1    2    0    0  0.12663465491E+01 -0.46819157871E-01  0.14853969443E+04  0.14854311455E+04  0.10000000000E+02 0.  1.
</event>
<event>
 5    1  0.1334136E-008  0.3711363E+03  0.7957747E-01  0.3490685E+00
         13   -1    0    0    0    0  0.00000000000E+00  0.00000000000E+00  0.14999999963E+04  0.15000000000E+04  0.10566000000E+00 0. -1.
        994   -1    0    0    0    0 -0.00000000000E+00 -0.00000000000E+00  0.11368683772E-12  0.17120000000E+03  0.17120000000E+03 0.  0.
         13    1    1    2    0    0  0.40051035809E+02  0.35078064863E+02  0.11088600984E+03  0.12300518057E+03  0.10566000000E+00 0. -1.
        994    1    1    2    0    0 -0.32618432041E+02 -0.42679227056E+02  0.21738539049E+02  0.18074148005E+03  0.17120000000E+03 0.  0.
        998    1    1    2    0    0 -0.74326037683E+01  0.76011621933E+01  0.13673754474E+04  0.13674533394E+04  0.10000000000E+02 0. -1.
</event>
<event>
 5    1  0.1334136E-008  0.3314218E+03  0.7957747E-01  0.3694441E+00
         13   -1    0    0    0    0  0.00000000000E+00  0.00000000000E+00  0.14999999963E+04  0.15000000000E+04  0.10566000000E+00 0. -1.
        994   -1    0    0    0    0 -0.00000000000E+00 -0.00000000000E+00  0.11368683772E-12  0.17120000000E+03  0.17120000000E+03 0.  0.
         13    1    1    2    0    0 -0.14488257247E+03  0.15328980054E+03  0.86291024639E+03  0.88831459926E+03  0.10566000000E+00 0. -1.
        994    1    1    2    0    0  0.13596191788E+03 -0.14101011900E+03  0.15992946740E+03  0.30537906169E+03  0.17120000000E+03 0.  0.
        998    1    1    2    0    0  0.89206545958E+01 -0.12279681544E+02  0.47716028248E+03  0.47750633906E+03  0.10000000000E+02 0. -1.
</event>
<event>
 5    1  0.1334136E-008  0.3714334E+03  0.7957747E-01  0.3489329E+00
         13   -1    0    0    0    0  0.00000000000E+00  0.00000000000E+00  0.14999999963E+04  0.15000000000E+04  0.10566000000E+00 0. -1.
        994   -1    0    0    0    0 -0.00000000000E+00 -0.00000000000E+00  0.11368683772E-12  0.17120000000E+03  0.17120000000E+03 0.  0.
         13    1    1    2    0    0  0.37360020071E+02 -0.35050836388E+02  0.17375148821E+03  0.18114613728E+03  0.10566000000E+00 0. -1.
        994    1    1    2    0    0 -0.35449475301E+00  0.40850314902E+01  0.85796410984E+01  0.17146388363E+03  0.17120000000E+03 0.  0.
        998    1    1    2    0    0 -0.37005525318E+02  0.30965804898E+02  0.13176688670E+04  0.13185899791E+04  0.10000000000E+02 0. -1.
</event>
<event>
 5    1  0.1334136E-008  0.3837346E+03  0.7957747E-01  0.3435057E+00
         13   -1    0    0    0    0  0.00000000000E+00  0.00000000000E+00  0.14999999963E+04  0.15000000000E+04  0.10566000000E+00 0. -1.
        994   -1    0    0    0    0 -0.00000000000E+00 -0.00000000000E+00  0.11368683772E-12  0.17120000000E+03  0.17120000000E+03 0.  0.
         13    1    1    2    0    0  0.48602747584E+01  0.16270500290E+02  0.62998550859E+02  0.65247069090E+02  0.10566000000E+00 0. -1.
        994    1    1    2    0    0 -0.52381022225E+00 -0.12243142795E+02  0.27557232234E+01  0.17166013787E+03  0.17120000000E+03 0.  0.
        998    1    1    2    0    0 -0.43364645362E+01 -0.40273574947E+01  0.14342457222E+04  0.14342927930E+04  0.10000000000E+02 0. -1.
</event>
<event>
 5    1  0.1334136E-008  0.3853684E+03  0.7957747E-01  0.3428111E+00
         13   -1    0    0    0    0  0.00000000000E+00  0.00000000000E+00  0.14999999963E+04  0.15000000000E+04  0.10566000000E+00 0.  1.
        994   -1    0    0    0    0 -0.00000000000E+00 -0.00000000000E+00  0.11368683772E-12  0.17120000000E+03  0.17120000000E+03 0.  0.
         13    1    1    2    0    0 -0.40576125355E+01 -0.15298596250E+02  0.83081142094E+02  0.84575401875E+02  0.10566000000E+00 0.  1.
        994    1    1    2    0    0  0.55488369657E+01  0.15296168942E+02  0.23175183566E+01  0.17198713111E+03  0.17120000000E+03 0.  0.
        998    1    1    2    0    0 -0.14912244302E+01  0.24273074710E-02  0.14146013358E+04  0.14146374670E+04  0.10000000000E+02 0.  1.
</event>
<event>
 5    1  0.1334136E-008  0.3728018E+03  0.7957747E-01  0.3483113E+00
         13   -1    0    0    0    0  0.00000000000E+00  0.00000000000E+00  0.14999999963E+04  0.15000000000E+04  0.10566000000E+00 0.  1.
        994   -1    0    0    0    0 -0.00000000000E+00 -0.00000000000E+00  0.11368683772E-12  0.17120000000E+03  0.17120000000E+03 0.  0.
         13    1    1    2    0    0  0.33303137515E+02  0.36245632474E+01  0.62528785151E+02  0.70937272034E+02  0.10566000000E+00 0.  1.
        994    1    1    2    0    0 -0.50534181415E+02 -0.69545205234E+01  0.16775985180E+02  0.17942391849E+03  0.17120000000E+03 0.  0.
        998    1    1    2    0    0  0.17231043900E+02  0.33299572761E+01  0.14206952259E+04  0.14208388095E+04  0.10000000000E+02 0.  1.
</event>
<event>
 5    1  0.1334136E-008  0.3833476E+03  0.7957747E-01  0.3436711E+00
         13   -1    0    0    0    0  0.00000000000E+00  0.00000000000E+00  0.14999999963E+04  0.15000000000E+04  0.10566000000E+00 0. -1.
        994   -1    0    0    0    0 -0.00000000000E+00 -0.00000000000E+00  0.11368683772E-12  0.17120000000E+03  0.17120000000E+03 0.  0.
         13    1    1    2    0    0 -0.11560982128E+02  0.57736620720E+01  0.33823093563E+02  0.36207793411E+02  0.10566000000E+00 0. -1.
        994    1    1    2    0    0  0.48917765929E+01 -0.54337568549E+00  0.25328586884E+01  0.17128946292E+03  0.17120000000E+03 0.  0.
        998    1    1    2    0    0  0.66692055354E+01 -0.52302863865E+01  0.14636440440E+04  0.14637027437E+04  0.10000000000E+02 0. -1.
</event>
<event>
 5    1  0.1334136E-008  0.3755913E+03  0.7957747E-01  0.3470583E+00
         13   -1    0    0    0    0  0.00000000000E+00  0.00000000000E+00  0.14999999963E+04  0.15000000000E+04  0.10566000000E+00 0. -1.
        994   -1    0    0    0    0 -0.00000000000E+00 -0.00000000000E+00  0.11368683772E-12  0.17120000000E+03  0.17120000000E+03 0.  0.
         13    1    1    2    0    0 -0.41261859964E+02 -0.10016044949E+01  0.16177239975E+03  0.16695467883E+03  0.10566000000E+00 0. -1.
        994    1    1    2    0    0 -0.12126155616E+02 -0.14735741599E+02  0.76118488345E+01  0.17242843725E+03  0.17120000000E+03 0.  0.
        998    1    1    2    0    0  0.53388015581E+02  0.15737346094E+02  0.13306157477E+04  0.13318168839E+04  0.10000000000E+02 0. -1.
</event>
<event>
 5    1  0.1334136E-008  0.3802663E+03  0.7957747E-01  0.3450000E+00
         13   -1    0    0    0    0  0.00000000000E+00  0.00000000000E+00  0.14999999963E+04  0.15000000000E+04  0.10566000000E+00 0.  1.
        994   -1    0    0    0    0 -0.00000000000E+00 -0.00000000000E+00  0.11368683772E-12  0.17120000000E+03  0.17120000000E+03 0.  0.
         13    1    1    2    0    0  0.28547294618E+02  0.39022690648E+01  0.12083196572E+03  0.12421976831E+03  0.10566000000E+00 0.  1.
        994    1    1    2    0    0  0.96892178047E+01  0.76110113266E+01  0.45059534178E+01  0.17170192792E+03  0.17120000000E+03 0.  0.
        998    1    1    2    0    0 -0.38236512422E+02 -0.11513280391E+02  0.13746620771E+04  0.13752783038E+04  0.10000000000E+02 0.  1.
</event>
<event>
 5    1  0.1334136E-008  0.3757040E+03  0.7957747E-01  0.3470080E+00
         13   -1    0    0    0    0  0.00000000000E+00  0.00000000000E+00  0.14999999963E+04  0.15000000000E+04  0.10566000000E+00 0. -1.
        994   -1    0    0    0    0 -0.00000000000E+00 -0.00000000000E+00  0.11368683772E-12  0.17120000000E+03  0.17120000000E+03 0.  0.
         13    1    1    2    0    0 -0.64713255657E+02  0.30791673055E+02  0.39648374504E+03  0.40290855518E+03  0.10566000000E+00 0. -1.
        994    1    1    2    0    0  0.48400290481E+02 -0.30996759060E+00  0.14303735975E+02  0.17848451211E+03  0.17120000000E+03 0.  0.
        998    1    1    2    0    0  0.16312965176E+02 -0.30481705465E+02  0.10892125153E+04  0.10898069327E+04  0.10000000000E+02 0. -1.
</event>
<event>
 5    1  0.1334136E-008  0.3850216E+03  0.7957747E-01  0.3429581E+00
         13   -1    0    0    0    0  0.00000000000E+00  0.00000000000E+00  0.14999999963E+04  0.15000000000E+04  0.10566000000E+00 0.  1.
        994   -1    0    0    0    0 -0.00000000000E+00 -0.00000000000E+00  0.11368683772E-12  0.17120000000E+03  0.17120000000E+03 0.  0.
         13    1    1    2    0    0  0.16797671180E+02 -0.58929560917E+01  0.91013646085E+02  0.92738253306E+02  0.10566000000E+00 0.  1.
        994    1    1    2    0    0 -0.15899357447E+02  0.19805151699E+02  0.37434206475E+01  0.17311408608E+03  0.17120000000E+03 0.  0.
        998    1    1    2    0    0 -0.89831373251E+00 -0.13912195607E+02  0.14052429295E+04  0.14053476606E+04  0.10000000000E+02 0.  1.
</event>
<event>
 5    1  0.1334136E-008  0.3793078E+03  0.7957747E-01  0.3454178E+00
         13   -1    0    0    0    0  0.00000000000E+00  0.00000000000E+00  0.14999999963E+04  0.15000000000E+04  0.10566000000E+00 0. -1.
        994   -1    0    0    0    0 -0.00000000000E+00 -0.00000000000E+00  0.11368683772E-12  0.17120000000E+03  0.17120000000E+03 0.  0.
         13    1    1    2    0    0 -0.97195160701E+01 -0.24608377779E+02  0.76822979381E+02  0.81251600443E+02  0.10566000000E+00 0. -1.
        994    1    1    2    0    0 -0.36117799564E+01  0.18113857430E+02  0.56268466468E+01  0.17228539749E+03  0.17120000000E+03 0.  0.
        998    1    1    2    0    0  0.13331296027E+02  0.64945203497E+01  0.14175501703E+04  0.14176630021E+04  0.10000000000E+02 0. -1.
</event>
<event>
 5    1  0.1334136E-008  0.3817904E+03  0.7957747E-01  0.3443400E+00
         13   -1    0    0    0    0  0.00000000000E+00  0.00000000000E+00  0.14999999963E+04  0.15000000000E+04  0.10566000000E+00 0. -1.
        994   -1    0    0    0    0 -0.00000000000E+00 -0.00000000000E+00  0.11368683772E-12  0.17120000000E+03  0.17120000000E+03 0.  0.
         13    1    1    2    0    0 -0.79527344963E+01 -0.11524235530E+02  0.29368070089E+02  0.32535345324E+02  0.10566000000E+00 0. -1.
        994    1    1    2    0    0  0.29092850848E+02 -0.11553466999E+02  0.64952924628E+01  0.17415942522E+03  0.17120000000E+03 0.  0.
        998    1    1    2    0    0 -0.21140116352E+02  0.23077702529E+02  0.14641366337E+04  0.14645052295E+04  0.10000000000E+02 0. -1.
</event>
<event>
 5    1  0.1334136E-008  0.3834382E+03  0.7957747E-01  0.3436323E+00
         13   -1    0    0    0    0  0.00000000000E+00  0.00000000000E+00  0.14999999963E+04  0.15000000000E+04  0.10566000000E+00 0.  1.
        994   -1    0    0    0    0 -0.00000000000E+00 -0.00000000000E+00  0.11368683772E-12  0.17120000000E+03  0.17120000000E+03 0.  0.
         13    1    1    2    0    0  0.26287145356E+01 -0.16709025172E+02  0.59005501724E+02  0.61382098857E+02  0.10566000000E+00 0.  1.
        994    1    1    2    0    0  0.29953356475E+01  0.10916760675E+02  0.28312329784E+01  0.17159721320E+03  0.17120000000E+03 0.  0.
        998    1    1    2    0    0 -0.56240501830E+01  0.57922644967E+01  0.14381632616E+04  0.14382206879E+04  0.10000000000E+02 0.  1.
</event>
<event>
 5    1  0.1334136E-008  0.3794062E+03  0.7957747E-01  0.3453748E+00
         13   -1    0    0    0    0  0.00000000000E+00  0.00000000000E+00  0.14999999963E+04  0.15000000000E+04  0.10566000000E+00 0.  1.
        994   -1    0    0    0    0 -0.00000000000E+00 -0.00000000000E+00  0.11368683772E-12  0.17120000000E+03  0.17120000000E+03 0.  0.
         13    1    1    2    0    0  0.70451302460E+02 -0.55723791629E+01  0.37291077467E+03  0.37954827685E+03  0.10566000000E+00 0.  1.
        994    1    1    2    0    0 -0.82647408670E+02  0.18947201316E+01  0.27675350172E+02  0.19211858091E+03  0.17120000000E+03 0.  0.
        998    1    1    2    0    0  0.12196106210E+02  0.36776590313E+01  0.10994138714E+04  0.10995331422E+04  0.10000000000E+02 0.  1.
</event>
<event>
 5    1  0.1334136E-008  0.3813716E+03  0.7957747E-01  0.3445208E+00
         13   -1    0    0    0    0  0.00000000000E+00  0.00000000000E+00  0.14999999963E+04  0.15000000000E+04  0.10566000000E+00 0.  1.
        994   -1    0    0    0    0 -0.00000000000E+00 -0.00000000000E+00  0.11368683772E-12  0.17120000000E+03  0.17120000000E+03 0.  0.
         13    1    1    2    0    0  0.30930069769E+02  0.17334682646E+01  0.17842804459E+03  0.18109735611E+03  0.10566000000E+00 0.  1.
        994    1    1    2    0    0  0.12127622673E+02  0.21304545674E+02  0.54448504298E+01  0.17303193143E+03  0.17120000000E+03 0.  0.
        998    1    1    2    0    0 -0.43057692442E+02 -0.23038013939E+02  0.13161271013E+04  0.13170707125E+04  0.10000000000E+02 0.  1.
</event>
<event>
 5    1  0.1334136E-008  0.3775957E+03  0.7957747E-01  0.3461695E+00
         13   -1    0    0    0    0  0.00000000000E+00  0.00000000000E+00  0.14999999963E+04  0.15000000000E+04  0.10566000000E+00 0. -1.
        994   -1    0    0    0    0 -0.00000000000E+00 -0.00000000000E+00  0.11368683772E-12  0.17120000000E+03  0.17120000000E+03 0.  0.
         13    1    1    2    0    0 -0.57137720813E+01 -0.21309398887E+02  0.39904396041E+02  0.45597254958E+02  0.10566000000E+00 0. -1.
        994    1    1    2    0    0  0.10912343520E+02  0.39556914273E+02  0.11046870847E+02  0.17639530057E+03  0.17120000000E+03 0.  0.
        998    1    1    2    0    0 -0.51985714383E+01 -0.18247515387E+02  0.14490487294E+04  0.14492074445E+04  0.10000000000E+02 0. -1.
</event>
<event>
 5    1  0.1334136E-008  0.3830449E+03  0.7957747E-01  0.3438007E+00
         13   -1    0    0    0    0  0.00000000000E+00  0.00000000000E+00  0.14999999963E+04  0.15000000000E+04  0.10566000000E+00 0. -1.
        994   -1    0    0    0    0 -0.00000000000E+00 -0.00000000000E+00  0.11368683772E-12  0.17120000000E+03  0.17120000000E+03 0.  0.
         13    1    1    2    0    0 -0.21119566306E+02  0.11450519498E+02  0.11073830457E+03  0.11331431393E+03  0.10566000000E+00 0. -1.
        994    1    1    2    0    0  0.16360571353E+02  0.89217000536E+00  0.34929678173E+01  0.17201774643E+03  0.17120000000E+03 0.  0.
        998    1    1    2    0    0  0.47589949527E+01 -0.12342689503E+02  0.13857687239E+04  0.13858679396E+04  0.10000000000E+02 0. -1.
</event>
<event>
 5    1  0.1334136E-008  0.3853109E+03  0.7957747E-01  0.3428355E+00
         13   -1    0    0    0    0  0.00000000000E+00  0.00000000000E+00  0.14999999963E+04  0.15000000000E+04  0.10566000000E+00 0. -1.
        994   -1    0    0    0    0 -0.00000000000E+00 -0.00000000000E+00  0.11368683772E-12  0.17120000000E+03  0.17120000000E+03 0.  0.
         13    1    1    2    0    0  0.25819803252E+01 -0.10096391426E+02  0.36714622063E+02  0.38165146135E+02  0.10566000000E+00 0. -1.
        994    1    1    2    0    0 -0.70724671822E+01  0.58383389771E+01  0.17522461885E+01  0.17145441482E+03  0.17120000000E+03 0.  0.
        998    1    1    2    0    0  0.44904868570E+01  0.42580524490E+01  0.14615331280E+04  0.14615804390E+04  0.10000000000E+02 0. -1.
</event>
<event>
 5    1  0.1334136E-008  0.4116271E+03  0.7957747E-01  0.3324040E+00
         13   -1    0    0    0    0  0.00000000000E+00  0.00000000000E+00  0.14999999963E+04  0.15000000000E+04  0.10566000000E+00 0.  1.
        994   -1    0    0    0    0 -0.00000000000E+00 -0.00000000000E+00  0.11368683772E-12  0.17120000000E+03  0.17120000000E+03 0.  0.
         13    1    1    2    0    0  0.89850034511E+01  0.28661893478E+02 -0.14641285880E+01  0.30073065380E+02  0.10566000000E+00 0.  1.
        994    1    1    2    0    0 -0.45244556614E+01 -0.21161407674E+02  0.36850329770E+02  0.17645300416E+03  0.17120000000E+03 0.  0.
        998    1    1    2    0    0 -0.44605477897E+01 -0.75004858039E+01  0.14646137951E+04  0.14646739305E+04  0.10000000000E+02 0.  1.
</event>
<event>
 5    1  0.1334136E-008  0.3817066E+03  0.7957747E-01  0.3443761E+00
         13   -1    0    0    0    0  0.00000000000E+00  0.00000000000E+00  0.14999999963E+04  0.15000000000E+04  0.10566000000E+00 0.  1.
        994   -1    0    0    0    0 -0.00000000000E+00 -0.00000000000E+00  0.11368683772E-12  0.17120000000E+03  0.17120000000E+03 0.  0.
         13    1    1    2    0    0 -0.29205160677E+02 -0.71736400497E+01  0.13070033989E+03  0.13411559392E+03  0.10566000000E+00 0.  1.
        994    1    1    2    0    0  0.22240298193E+02  0.15865919298E+02  0.57591234549E+01  0.17346171267E+03  0.17120000000E+03 0.  0.
        998    1    1    2    0    0  0.69648624837E+01 -0.86922792479E+01  0.13635405329E+04  0.13636226934E+04  0.10000000000E+02 0.  1.
</event>
<event>
 5    1  0.1334136E-008  0.3853724E+03  0.7957747E-01  0.3428094E+00
         13   -1    0    0    0    0  0.00000000000E+00  0.00000000000E+00  0.14999999963E+04  0.15000000000E+04  0.10566000000E+00 0.  1.
        994   -1    0    0    0    0 -0.00000000000E+00 -0.00000000000E+00  0.11368683772E-12  0.17120000000E+03  0.17120000000E+03 0.  0.
         13    1    1    2    0    0 -0.10200694059E+02 -0.76361017527E+01  0.67656680693E+02  0.68846218601E+02  0.10566000000E+00 0.  1.
        994    1    1    2    0    0 -0.15693255018E+02 -0.78783231304E+01  0.24588354095E+01  0.17211575204E+03  0.17120000000E+03 0.  0.
        998    1    1    2    0    0  0.25893949077E+02  0.15514424883E+02  0.14298844802E+04  0.14302380294E+04  0.10000000000E+02 0.  1.
</event>
<event>
 5    1  0.1334136E-008  0.3806768E+03  0.7957747E-01  0.3448217E+00
         13   -1    0    0    0    0  0.00000000000E+00  0.00000000000E+00  0.14999999963E+04  0.15000000000E+04  0.10566000000E+00 0.  1.
        994   -1    0    0    0    0 -0.00000000000E+00 -0.00000000000E+00  0.11368683772E-12  0.17120000000E+03  0.17120000000E+03 0.  0.
         13    1    1    2    0    0 -0.53164898570E+01  0.41946965778E+02  0.25493417282E+03  0.25841682731E+03  0.10566000000E+00 0.  1.
        994    1    1    2    0    0 -0.23004890547E+02 -0.19148939611E+02  0.67859244665E+01  0.17392928347E+03  0.17120000000E+03 0.  0.
        998    1    1    2    0    0  0.28321380404E+02 -0.22798026168E+02  0.12382798990E+04  0.12388538892E+04  0.10000000000E+02 0.  1.
</event>
<event>
 5    1  0.1334136E-008  0.3859901E+03  0.7957747E-01  0.3425484E+00
         13   -1    0    0    0    0  0.00000000000E+00  0.00000000000E+00  0.14999999963E+04  0.15000000000E+04  0.10566000000E+00 0. -1.
        994   -1    0    0    0    0 -0.00000000000E+00 -0.00000000000E+00  0.11368683772E-12  0.17120000000E+03  0.17120000000E+03 0.  0.
         13    1    1    2    0    0  0.70042890311E+01  0.13978450572E+02  0.93578548121E+02  0.94875776559E+02  0.10566000000E+00 0. -1.
        994    1    1    2    0    0 -0.11423109066E+02 -0.24269629542E+02  0.35015504296E+01  0.17332398332E+03  0.17120000000E+03 0.  0.
        998    1    1    2    0    0  0.44188200345E+01  0.10291178969E+02  0.14029198977E+04  0.14030002401E+04  0.10000000000E+02 0. -1.
</event>
<event>
 5    1  0.1334136E-008  0.4056651E+03  0.7957747E-01  0.3346494E+00
         13   -1    0    0    0    0  0.00000000000E+00  0.00000000000E+00  0.14999999963E+04  0.15000000000E+04  0.10566000000E+00 0.  1.
        994   -1    0    0    0    0 -0.00000000000E+00 -0.00000000000E+00  0.11368683772E-12  0.17120000000E+03  0.17120000000E+03 0.  0.
         13    1    1    2    0    0 -0.45306336439E+02  0.24217924463E+02  0.28885657681E+02  0.58936952504E+02  0.10566000000E+00 0.  1.
        994    1    1    2    0    0  0.57852098580E+02 -0.29911289881E+02  0.48412186237E+02  0.18945904663E+03  0.17120000000E+03 0.  0.
        998    1    1    2    0    0 -0.12545762141E+02  0.56933654187E+01  0.14227021524E+04  0.14228040009E+04  0.10000000000E+02 0.  1.
</event>
<event>
 5    1  0.1334136E-008  0.3839881E+03  0.7957747E-01  0.3433975E+00
         13   -1    0    0    0    0  0.00000000000E+00  0.00000000000E+00  0.14999999963E+04  0.15000000000E+04  0.10566000000E+00 0.  1.
        994   -1    0    0    0    0 -0.00000000000E+00 -0.00000000000E+00  0.11368683772E-12  0.17120000000E+03  0.17120000000E+03 0.  0.
         13    1    1    2    0    0 -0.10131112795E+02  0.84835944107E+01  0.40362721512E+02  0.42470828488E+02  0.10566000000E+00 0.  1.
        994    1    1    2    0    0  0.26505258199E+01 -0.11072488347E+02  0.25611956265E+01  0.17159727564E+03  0.17120000000E+03 0.  0.
        998    1    1    2    0    0  0.74805869749E+01  0.25888939367E+01  0.14570760791E+04  0.14571318959E+04  0.10000000000E+02 0.  1.
</event>
<event>
 5    1  0.1334136E-008  0.2004163E+03  0.7957747E-01  0.5031801E+00
         13   -1    0    0    0    0  0.00000000000E+00  0.00000000000E+00  0.14999999963E+04  0.15000000000E+04  0.10566000000E+00 0.  1.
        994   -1    0    0    0    0 -0.00000000000E+00 -0.00000000000E+00  0.11368683772E-12  0.17120000000E+03  0.17120000000E+03 0.  0.
         13    1    1    2    0    0  0.10491471003E+03 -0.67132318720E+02  0.10703953330E+03  0.16422946584E+03  0.10566000000E+00 0.  1.
        994    1    1    2    0    0 -0.65150513848E+02  0.39662667011E+02  0.98799889762E+02  0.21186923992E+03  0.17120000000E+03 0.  0.
        998    1    1    2    0    0 -0.39764196179E+02  0.27469651709E+02  0.12941605732E+04  0.12951012942E+04  0.10000000000E+02 0.  1.
</event>
<event>
 5    1  0.1334136E-008  0.3790543E+03  0.7957747E-01  0.3455287E+00
         13   -1    0    0    0    0  0.00000000000E+00  0.00000000000E+00  0.14999999963E+04  0.15000000000E+04  0.10566000000E+00 0.  1.
        994   -1    0    0    0    0 -0.00000000000E+00 -0.00000000000E+00  0.11368683772E-12  0.17120000000E+03  0.17120000000E+03 0.  0.
         13    1    1    2    0    0  0.39430975982E+01 -0.29255117220E+02  0.81353348592E+02  0.86543563558E+02  0.10566000000E+00 0.  1.
        994    1    1    2    0    0 -0.55483238783E+01  0.47810827784E+02  0.12419522403E+02  0.17827042292E+03  0.17120000000E+03 0.  0.
        998    1    1    2    0    0  0.16052262801E+01 -0.18555710564E+02  0.14062271253E+04  0.14063860135E+04  0.10000000000E+02 0.  1.
</event>
<event>
 5    1  0.1334136E-008  0.3765845E+03  0.7957747E-01  0.3466167E+00
         13   -1    0    0    0    0  0.00000000000E+00  0.00000000000E+00  0.14999999963E+04  0.15000000000E+04  0.10566000000E+00 0. -1.
        994   -1    0    0    0    0 -0.00000000000E+00 -0.00000000000E+00  0.11368683772E-12  0.17120000000E+03  0.17120000000E+03 0.  0.
         13    1    1    2    0    0 -0.14667828065E+03 -0.63407077960E+01  0.51752803867E+03  0.53794981602E+03  0.10566000000E+00 0. -1.
        994    1    1    2    0    0  0.13208295070E+03  0.12585432190E+02  0.80482017447E+02  0.23106512957E+03  0.17120000000E+03 0.  0.
        998    1    1    2    0    0  0.14595329954E+02 -0.62447243941E+01  0.90198994017E+03  0.90218505441E+03  0.10000000000E+02 0. -1.
</event>
<event>
 5    1  0.1334136E-008  0.3841987E+03  0.7957747E-01  0.3433078E+00
         13   -1    0    0    0    0  0.00000000000E+00  0.00000000000E+00  0.14999999963E+04  0.15000000000E+04  0.10566000000E+00 0.  1.
        994   -1    0    0    0    0 -0.00000000000E+00 -0.00000000000E+00  0.11368683772E-12  0.17120000000E+03  0.17120000000E+03 0.  0.
         13    1    1    2    0    0  0.76227819638E+01 -0.81830048046E+01  0.30058460364E+02  0.32071647541E+02  0.10566000000E+00 0.  1.
        994    1    1    2    0    0 -0.64523320362E+01  0.71959888688E+01  0.23365764501E+01  0.17148852566E+03  0.17120000000E+03 0.  0.
        998    1    1    2    0    0 -0.11704499276E+01  0.98701593583E+00  0.14676049595E+04  0.14676398268E+04  0.10000000000E+02 0.  1.
</event>
<event>
 5    1  0.1334136E-008  0.3853437E+03  0.7957747E-01  0.3428216E+00
         13   -1    0    0    0    0  0.00000000000E+00  0.00000000000E+00  0.14999999963E+04  0.15000000000E+04  0.10566000000E+00 0. -1.
        994   -1    0    0    0    0 -0.00000000000E+00 -0.00000000000E+00  0.11368683772E-12  0.17120000000E+03  0.17120000000E+03 0.  0.
         13    1    1    2    0    0  0.26354076026E+01 -0.14005722919E+02  0.77407749623E+02  0.78708808360E+02  0.10566000000E+00 0. -1.
        994    1    1    2    0    0 -0.24305329547E+01 -0.50448764314E+01  0.15626309789E+01  0.17129868676E+03  0.17120000000E+03 0.  0.
        998    1    1    2    0    0 -0.20487464787E+00  0.19050599350E+02  0.14210296157E+04  0.14211925049E+04  0.10000000000E+02 0. -1.
</event>
<event>
 5    1  0.1334136E-008  0.3703085E+03  0.7957747E-01  0.3494474E+00
         13   -1    0    0    0    0  0.00000000000E+00  0.00000000000E+00  0.14999999963E+04  0.15000000000E+04  0.10566000000E+00 0. -1.
        994   -1    0    0    0    0 -0.00000000000E+00 -0.00000000000E+00  0.11368683772E-12  0.17120000000E+03  0.17120000000E+03 0.  0.
         13    1    1    2    0    0  0.44827428985E+01 -0.94266458386E+01  0.17710837167E+01  0.10587943012E+02  0.10566000000E+00 0. -1.
        994    1    1    2    0    0 -0.14058974646E+02 -0.39393497737E+01  0.98445122729E+01  0.17210324711E+03  0.17120000000E+03 0.  0.
        998    1    1    2    0    0  0.95762317477E+01  0.13365995612E+02  0.14883844003E+04  0.14885088099E+04  0.10000000000E+02 0. -1.
</event>
<event>
 5    1  0.1334136E-008  0.3822637E+03  0.7957747E-01  0.3441360E+00
         13   -1    0    0    0    0  0.00000000000E+00  0.00000000000E+00  0.14999999963E+04  0.15000000000E+04  0.10566000000E+00 0.  1.
        994   -1    0    0    0    0 -0.00000000000E+00 -0.00000000000E+00  0.11368683772E-12  0.17120000000E+03  0.17120000000E+03 0.  0.
         13    1    1    2    0    0 -0.29964386223E+00 -0.14178571624E+02  0.32145731307E+02  0.35135180163E+02  0.10566000000E+00 0.  1.
        994    1    1    2    0    0  0.31090637040E+02  0.12278065908E+02  0.67111945227E+01  0.17456190520E+03  0.17120000000E+03 0.  0.
        998    1    1    2    0    0 -0.30790993178E+02  0.19005057165E+01  0.14611430704E+04  0.14615029146E+04  0.10000000000E+02 0.  1.
</event>
<event>
 5    1  0.1334136E-008  0.3857981E+03  0.7957747E-01  0.3426294E+00
         13   -1    0    0    0    0  0.00000000000E+00  0.00000000000E+00  0.14999999963E+04  0.15000000000E+04  0.10566000000E+00 0.  1.
        994   -1    0    0    0    0 -0.00000000000E+00 -0.00000000000E+00  0.11368683772E-12  0.17120000000E+03  0.17120000000E+03 0.  0.
         13    1    1    2    0    0  0.11864382681E+02  0.31766960349E+00  0.56152331826E+02  0.57393031145E+02  0.10566000000E+00 0.  1.
        994    1    1    2    0    0 -0.11497772903E+02 -0.75903541595E+01  0.18572604975E+01  0.17176350507E+03  0.17120000000E+03 0.  0.
        998    1    1    2    0    0 -0.36660977823E+00  0.72726845560E+01  0.14419904040E+04  0.14420434638E+04  0.10000000000E+02 0.  1.
</event>
<event>
 5    1  0.1334136E-008  0.3843628E+03  0.7957747E-01  0.3432379E+00
         13   -1    0    0    0    0  0.00000000000E+00  0.00000000000E+00  0.14999999963E+04  0.15000000000E+04  0.10566000000E+00 0. -1.
        994   -1    0    0    0    0 -0.00000000000E+00 -0.00000000000E+00  0.11368683772E-12  0.17120000000E+03  0.17120000000E+03 0.  0.
         13    1    1    2    0    0  0.11934539767E+02 -0.49528768311E+00  0.35732718614E+02  0.37676476652E+02  0.10566000000E+00 0. -1.
        994    1    1    2    0    0 -0.10991010675E+02  0.56682855682E+01  0.24509787720E+01  0.17166356362E+03  0.17120000000E+03 0.  0.
        998    1    1    2    0    0 -0.94352909255E+00 -0.51729978850E+01  0.14618162989E+04  0.14618599597E+04  0.10000000000E+02 0. -1.
</event>
<event>
 5    1  0.1334136E-008  0.3833921E+03  0.7957747E-01  0.3436520E+00
         13   -1    0    0    0    0  0.00000000000E+00  0.00000000000E+00  0.14999999963E+04  0.15000000000E+04  0.10566000000E+00 0.  1.
        994   -1    0    0    0    0 -0.00000000000E+00 -0.00000000000E+00  0.11368683772E-12  0.17120000000E+03  0.17120000000E+03 0.  0.
         13    1    1    2    0    0  0.11203189279E+02  0.11879458753E+02  0.55162633272E+02  0.57528777701E+02  0.10566000000E+00 0.  1.
        994    1    1    2    0    0 -0.94681417521E+01 -0.86848538415E+00  0.27294280757E+01  0.17148553803E+03  0.17120000000E+03 0.  0.
        998    1    1    2    0    0 -0.17350475267E+01 -0.11010973369E+02  0.14421079349E+04  0.14421856843E+04  0.10000000000E+02 0.  1.
</event>
<event>
 5    1  0.1334136E-008  0.3815329E+03  0.7957747E-01  0.3444511E+00
         13   -1    0    0    0    0  0.00000000000E+00  0.00000000000E+00  0.14999999963E+04  0.15000000000E+04  0.10566000000E+00 0. -1.
        994   -1    0    0    0    0 -0.00000000000E+00 -0.00000000000E+00  0.11368683772E-12  0.17120000000E+03  0.17120000000E+03 0.  0.
         13    1    1    2    0    0 -0.38007021588E+02  0.73686772307E+01  0.19989764187E+03  0.20361215456E+03  0.10566000000E+00 0. -1.
        994    1    1    2    0    0  0.30937761009E+02 -0.32519897059E+02  0.10091494448E+02  0.17727370651E+03  0.17120000000E+03 0.  0.
        998    1    1    2    0    0  0.70692605793E+01  0.25151219828E+02  0.12900108600E+04  0.12903141389E+04  0.10000000000E+02 0. -1.
</event>
<event>
 5    1  0.1334136E-008  0.3718465E+03  0.7957747E-01  0.3487448E+00
         13   -1    0    0    0    0  0.00000000000E+00  0.00000000000E+00  0.14999999963E+04  0.15000000000E+04  0.10566000000E+00 0. -1.
        994   -1    0    0    0    0 -0.00000000000E+00 -0.00000000000E+00  0.11368683772E-12  0.17120000000E+03  0.17120000000E+03 0.  0.
         13    1    1    2    0    0  0.58950871325E+02  0.23616895148E+02  0.29605358705E+03  0.30278821069E+03  0.10566000000E+00 0. -1.
        994    1    1    2    0    0 -0.85513118675E+01  0.30082377417E+01  0.85895117373E+01  0.17165486926E+03  0.17120000000E+03 0.  0.
        998    1    1    2    0    0 -0.50399559458E+02 -0.26625132890E+02  0.11953568975E+04  0.11967569200E+04  0.10000000000E+02 0. -1.
</event>
<event>
 5    1  0.1334136E-008  0.3850797E+03  0.7957747E-01  0.3429334E+00
         13   -1    0    0    0    0  0.00000000000E+00  0.00000000000E+00  0.14999999963E+04  0.15000000000E+04  0.10566000000E+00 0.  1.
        994   -1    0    0    0    0 -0.00000000000E+00 -0.00000000000E+00  0.11368683772E-12  0.17120000000E+03  0.17120000000E+03 0.  0.
         13    1    1    2    0    0  0.90266107713E+01  0.92802435197E+01  0.55604909085E+02  0.57092203497E+02  0.10566000000E+00 0.  1.
        994    1    1    2    0    0 -0.10144269152E+02  0.10041351048E+02  0.22606833914E+01  0.17180886362E+03  0.17120000000E+03 0.  0.
        998    1    1    2    0    0  0.11176583802E+01 -0.19321594568E+02  0.14421344038E+04  0.14422989329E+04  0.10000000000E+02 0.  1.
</event>
<event>
 5    1  0.1334136E-008  0.3811387E+03  0.7957747E-01  0.3446215E+00
         13   -1    0    0    0    0  0.00000000000E+00  0.00000000000E+00  0.14999999963E+04  0.15000000000E+04  0.10566000000E+00 0.  1.
        994   -1    0    0    0    0 -0.00000000000E+00 -0.00000000000E+00  0.11368683772E-12  0.17120000000E+03  0.17120000000E+03 0.  0.
         13    1    1    2    0    0  0.17581767654E+02  0.14972377038E+01  0.41431765698E+02  0.45032906274E+02  0.10566000000E+00 0.  1.
        994    1    1    2    0    0 -0.17089454732E+02 -0.14291830174E+02  0.52140637482E+01  0.17272212462E+03  0.17120000000E+03 0.  0.
        998    1    1    2    0    0 -0.49231292156E+00  0.12794592470E+02  0.14533541668E+04  0.14534449691E+04  0.10000000000E+02 0.  1.
</event>
<event>
 5    1  0.1334136E-008  0.3820609E+03  0.7957747E-01  0.3442233E+00
         13   -1    0    0    0    0  0.00000000000E+00  0.00000000000E+00  0.14999999963E+04  0.15000000000E+04  0.10566000000E+00 0.  1.
        994   -1    0    0    0    0 -0.00000000000E+00 -0.00000000000E+00  0.11368683772E-12  0.17120000000E+03  0.17120000000E+03 0.  0.
         13    1    1    2    0    0  0.28250899559E+02 -0.13690508512E+02  0.14758332995E+03  0.15088536640E+03  0.10566000000E+00 0.  1.
        994    1    1    2    0    0 -0.24465304720E+02  0.14580421310E+02  0.57942907703E+01  0.17364951375E+03  0.17120000000E+03 0.  0.
        998    1    1    2    0    0 -0.37855948386E+01 -0.88991279756E+00  0.13466223756E+04  0.13466651199E+04  0.10000000000E+02 0.  1.
</event>
<event>
 5    1  0.1334136E-008  0.3858404E+03  0.7957747E-01  0.3426116E+00
         13   -1    0    0    0    0  0.00000000000E+00  0.00000000000E+00  0.14999999963E+04  0.15000000000E+04  0.10566000000E+00 0.  1.
        994   -1    0    0    0    0 -0.00000000000E+00 -0.00000000000E+00  0.11368683772E-12  0.17120000000E+03  0.17120000000E+03 0.  0.
         13    1    1    2    0    0  0.88380226852E+01 -0.97529608752E+01  0.67852684318E+02  0.69117500128E+02  0.10566000000E+00 0.  1.
        994    1    1    2    0    0 -0.96915674232E+01  0.13954676514E+02  0.21607549913E+01  0.17205455047E+03  0.17120000000E+03 0.  0.
        998    1    1    2    0    0  0.85354473800E+00 -0.42017156390E+01  0.14299865570E+04  0.14300279494E+04  0.10000000000E+02 0.  1.
</event>
<event>
 5    1  0.1334136E-008  0.3760742E+03  0.7957747E-01  0.3468432E+00
         13   -1    0    0    0    0  0.00000000000E+00  0.00000000000E+00  0.14999999963E+04  0.15000000000E+04  0.10566000000E+00 0.  1.
        994   -1    0    0    0    0 -0.00000000000E+00 -0.00000000000E+00  0.11368683772E-12  0.17120000000E+03  0.17120000000E+03 0.  0.
         13    1    1    2    0    0  0.46806687427E+02  0.47894726485E+02  0.13308276353E+03  0.14898256248E+03  0.10566000000E+00 0.  1.
        994    1    1    2    0    0 -0.32481672971E+02 -0.80635207559E+02  0.41702439056E+02  0.19648315246E+03  0.17120000000E+03 0.  0.
        998    1    1    2    0    0 -0.14325014456E+02  0.32740481074E+02  0.13252147937E+04  0.13257342851E+04  0.10000000000E+02 0.  1.
</event>
<event>
 5    1  0.1334136E-008  0.3842400E+03  0.7957747E-01  0.3432902E+00
         13   -1    0    0    0    0  0.00000000000E+00  0.00000000000E+00  0.14999999963E+04  0.15000000000E+04  0.10566000000E+00 0.  1.
        994   -1    0    0    0    0 -0.00000000000E+00 -0.00000000000E+00  0.11368683772E-12  0.17120000000E+03  0.17120000000E+03 0.  0.
         13    1    1    2    0    0 -0.12405196998E+02 -0.92066328612E+01  0.58136326892E+02  0.60153924808E+02  0.10566000000E+00 0.  1.
        994    1    1    2    0    0  0.10069608957E+02  0.84348598520E+01  0.25769571903E+01  0.17172252209E+03  0.17120000000E+03 0.  0.
        998    1    1    2    0    0  0.23355880410E+01  0.77177300924E+00  0.14392867122E+04  0.14393235531E+04  0.10000000000E+02 0.  1.
</event>
<event>
 5    1  0.1334136E-008  0.4176853E+03  0.7957747E-01  0.3301872E+00
         13   -1    0    0    0    0  0.00000000000E+00  0.00000000000E+00  0.14999999963E+04  0.15000000000E+04  0.10566000000E+00 0.  1.
        994   -1    0    0    0    0 -0.00000000000E+00 -0.00000000000E+00  0.11368683772E-12  0.17120000000E+03  0.17120000000E+03 0.  0.
         13    1    1    2    0    0  0.11650816419E+03 -0.26900320205E+02  0.23664136398E+03  0.26513567444E+03  0.10566000000E+00 0.  1.
        994    1    1    2    0    0 -0.80740172576E+01 -0.40378861155E+02  0.45996362430E+02  0.18199106445E+03  0.17120000000E+03 0.  0.
        998    1    1    2    0    0 -0.10843414693E+03  0.67279181361E+02  0.12173622699E+04  0.12240732611E+04  0.10000000000E+02 0.  1.
</event>
<event>
 5    1  0.1334136E-008  0.3802368E+03  0.7957747E-01  0.3450128E+00
         13   -1    0    0    0    0  0.00000000000E+00  0.00000000000E+00  0.14999999963E+04  0.15000000000E+04  0.10566000000E+00 0.  1.
        994   -1    0    0    0    0 -0.00000000000E+00 -0.00000000000E+00  0.11368683772E-12  0.17120000000E+03  0.17120000000E+03 0.  0.
         13    1    1    2    0    0  0.24338509312E+02 -0.13158958283E+02  0.11214405577E+03  0.11550680338E+03  0.10566000000E+00 0.  1.
        994    1    1    2    0    0  0.15913884209E+02 -0.65224863796E+00  0.48614619684E+01  0.17200799677E+03  0.17120000000E+03 0.  0.
        998    1    1    2    0    0 -0.40252393521E+02  0.13811206921E+02  0.13829944785E+04  0.13836851999E+04  0.10000000000E+02 0.  1.
</event>
<event>
 5    1  0.1334136E-008  0.3845637E+03  0.7957747E-01  0.3431525E+00
         13   -1    0    0    0    0  0.00000000000E+00  0.00000000000E+00  0.14999999963E+04  0.15000000000E+04  0.10566000000E+00 0. -1.
        994   -1    0    0    0    0 -0.00000000000E+00 -0.00000000000E+00  0.11368683772E-12  0.17120000000E+03  0.17120000000E+03 0.  0.
         13    1    1    2    0    0 -0.14664720398E+02  0.14957182027E+01  0.59461216592E+02  0.61261232766E+02  0.10566000000E+00 0. -1.
        994    1    1    2    0    0  0.67386678263E+01 -0.51600989229E+01  0.20842025817E+01  0.17142292777E+03  0.17120000000E+03 0.  0.
        998    1    1    2    0    0  0.79260525717E+01  0.36643807202E+01  0.14384545771E+04  0.14385158395E+04  0.10000000000E+02 0. -1.
</event>
<event>
 5    1  0.1334136E-008  0.3846074E+03  0.7957747E-01  0.3431339E+00
         13   -1    0    0    0    0  0.00000000000E+00  0.00000000000E+00  0.14999999963E+04  0.15000000000E+04  0.10566000000E+00 0. -1.
        994   -1    0    0    0    0 -0.00000000000E+00 -0.00000000000E+00  0.11368683772E-12  0.17120000000E+03  0.17120000000E+03 0.  0.
         13    1    1    2    0    0  0.21141408592E+01 -0.15327115900E+02  0.69888868564E+02  0.71581109146E+02  0.10566000000E+00 0. -1.
        994    1    1    2    0    0  0.71032950555E+01  0.63231097786E+00  0.19926403631E+01  0.17136005145E+03  0.17120000000E+03 0.  0.
        998    1    1    2    0    0 -0.92174359147E+01  0.14694804922E+02  0.14281184874E+04  0.14282588394E+04  0.10000000000E+02 0. -1.
</event>
<event>
 5    1  0.1334136E-008  0.3854527E+03  0.7957747E-01  0.3427755E+00
         13   -1    0    0    0    0  0.00000000000E+00  0.00000000000E+00  0.14999999963E+04  0.15000000000E+04  0.10566000000E+00 0. -1.
        994   -1    0    0    0    0 -0.00000000000E+00 -0.00000000000E+00  0.11368683772E-12  0.17120000000E+03  0.17120000000E+03 0.  0.
         13    1    1    2    0    0 -0.84639190044E+01 -0.12719933088E+02  0.85061157705E+02  0.86422487449E+02  0.10566000000E+00 0. -1.
        994    1    1    2    0    0  0.46284966762E+01  0.58600654393E+01  0.15887006195E+01  0.17137014710E+03  0.17120000000E+03 0.  0.
        998    1    1    2    0    0  0.38354223282E+01  0.68598676484E+01  0.14133501380E+04  0.14134073654E+04  0.10000000000E+02 0. -1.
</event>
<event>
 5    1  0.1334136E-008  0.3784467E+03  0.7957747E-01  0.3457950E+00
         13   -1    0    0    0    0  0.00000000000E+00  0.00000000000E+00  0.14999999963E+04  0.15000000000E+04  0.10566000000E+00 0. -1.
        994   -1    0    0    0    0 -0.00000000000E+00 -0.00000000000E+00  0.11368683772E-12  0.17120000000E+03  0.17120000000E+03 0.  0.
         13    1    1    2    0    0  0.16846750792E+02  0.38674751038E+02  0.16853518846E+03  0.17373448217E+03  0.10566000000E+00 0. -1.
        994    1    1    2    0    0 -0.10104504711E+02 -0.33249554192E+02  0.89878365897E+01  0.17492242588E+03  0.17120000000E+03 0.  0.
        998    1    1    2    0    0 -0.67422460815E+01 -0.54251968463E+01  0.13224769712E+04  0.13225430920E+04  0.10000000000E+02 0. -1.
</event>
<event>
 5    1  0.1334136E-008  0.3758596E+03  0.7957747E-01  0.3469387E+00
         13   -1    0    0    0    0  0.00000000000E+00  0.00000000000E+00  0.14999999963E+04  0.15000000000E+04  0.10566000000E+00 0. -1.
        994   -1    0    0    0    0 -0.00000000000E+00 -0.00000000000E+00  0.11368683772E-12  0.17120000000E+03  0.17120000000E+03 0.  0.
         13    1    1    2    0    0  0.11138597739E+02  0.52378936265E+01  0.94027490726E+01  0.15489568857E+02  0.10566000000E+00 0. -1.
        994    1    1    2    0    0 -0.77225420120E+01  0.32620870927E+01  0.64762097458E+01  0.17152743267E+03  0.17120000000E+03 0.  0.
        998    1    1    2    0    0 -0.34160557267E+01 -0.84999807192E+01  0.14841210375E+04  0.14841829985E+04  0.10000000000E+02 0. -1.
</event>
<event>
 5    1  0.1334136E-008  0.3882037E+03  0.7957747E-01  0.3416197E+00
         13   -1    0    0    0    0  0.00000000000E+00  0.00000000000E+00  0.14999999963E+04  0.15000000000E+04  0.10566000000E+00 0. -1.
        994   -1    0    0    0    0 -0.00000000000E+00 -0.00000000000E+00  0.11368683772E-12  0.17120000000E+03  0.17120000000E+03 0.  0.
         13    1    1    2    0    0 -0.72094124408E+02 -0.69243467594E+01  0.12150468487E+03  0.14145285067E+03  0.10566000000E+00 0. -1.
        994    1    1    2    0    0  0.40459996563E+02  0.19730834781E+02  0.28518024558E+02  0.17930151948E+03  0.17120000000E+03 0.  0.
        998    1    1    2    0    0  0.31634127845E+02 -0.12806488022E+02  0.13499772868E+04  0.13504456299E+04  0.10000000000E+02 0. -1.
</event>
<event>
 5    1  0.1334136E-008  0.3778304E+03  0.7957747E-01  0.3460660E+00
         13   -1    0    0    0    0  0.00000000000E+00  0.00000000000E+00  0.14999999963E+04  0.15000000000E+04  0.10566000000E+00 0.  1.
        994   -1    0    0    0    0 -0.00000000000E+00 -0.00000000000E+00  0.11368683772E-12  0.17120000000E+03  0.17120000000E+03 0.  0.
         13    1    1    2    0    0  0.18337871112E+02 -0.32709758344E+02  0.14724387396E+03  0.15194398767E+03  0.10566000000E+00 0.  1.
        994    1    1    2    0    0 -0.61876885392E+01  0.96086336812E+00  0.53644212464E+01  0.17139844738E+03  0.17120000000E+03 0.  0.
        998    1    1    2    0    0 -0.12150182573E+02  0.31748894976E+02  0.13473917011E+04  0.13478575650E+04  0.10000000000E+02 0.  1.
</event>
<event>
 5    1  0.1334136E-008  0.3853831E+03  0.7957747E-01  0.3428049E+00
         13   -1    0    0    0    0  0.00000000000E+00  0.00000000000E+00  0.14999999963E+04  0.15000000000E+04  0.10566000000E+00 0.  1.
        994   -1    0    0    0    0 -0.00000000000E+00 -0.00000000000E+00  0.11368683772E-12  0.17120000000E+03  0.17120000000E+03 0.  0.
         13    1    1    2    0    0 -0.11878965210E+02 -0.53328662214E+01  0.57489956130E+02  0.58946208500E+02  0.10566000000E+00 0.  1.
        994    1    1    2    0    0  0.11079708690E+02  0.70971304353E+01  0.20089017470E+01  0.17171664128E+03  0.17120000000E+03 0.  0.
        998    1    1    2    0    0  0.79925652037E+00 -0.17642642139E+01  0.14405011384E+04  0.14405371502E+04  0.10000000000E+02 0.  1.
</event>
<event>
 5    1  0.1334136E-008  0.3686290E+03  0.7957747E-01  0.3502215E+00
         13   -1    0    0    0    0  0.00000000000E+00  0.00000000000E+00  0.14999999963E+04  0.15000000000E+04  0.10566000000E+00 0.  1.
        994   -1    0    0    0    0 -0.00000000000E+00 -0.00000000000E+00  0.11368683772E-12  0.17120000000E+03  0.17120000000E+03 0.  0.
         13    1    1    2    0    0  0.54922232918E+02 -0.42713648793E+02  0.20683517611E+03  0.21822398746E+03  0.10566000000E+00 0.  1.
        994    1    1    2    0    0 -0.63883340810E+02  0.24268796038E+02  0.26645380186E+02  0.18625109927E+03  0.17120000000E+03 0.  0.
        998    1    1    2    0    0  0.89611078923E+01  0.18444852755E+02  0.12665194400E+04  0.12667249133E+04  0.10000000000E+02 0. -1.
</event>
<event>
 5    1  0.1334136E-008  0.3690141E+03  0.7957747E-01  0.3500434E+00
         13   -1    0    0    0    0  0.00000000000E+00  0.00000000000E+00  0.14999999963E+04  0.15000000000E+04  0.10566000000E+00 0.  1.
        994   -1    0    0    0    0 -0.00000000000E+00 -0.00000000000E+00  0.11368683772E-12  0.17120000000E+03  0.17120000000E+03 0.  0.
         13    1    1    2    0    0  0.84061254372E+02  0.85559094573E+01  0.30296774434E+03  0.31452974954E+03  0.10566000000E+00 0.  1.
        994    1    1    2    0    0 -0.76523406441E+02 -0.63883059044E+01  0.30531946397E+02  0.19010071524E+03  0.17120000000E+03 0.  0.
        998    1    1    2    0    0 -0.75378479311E+01 -0.21676035529E+01  0.11665003055E+04  0.11665695352E+04  0.10000000000E+02 0. -1.
</event>
<event>
 5    1  0.1334136E-008  0.3817111E+03  0.7957747E-01  0.3443742E+00
         13   -1    0    0    0    0  0.00000000000E+00  0.00000000000E+00  0.14999999963E+04  0.15000000000E+04  0.10566000000E+00 0.  1.
        994   -1    0    0    0    0 -0.00000000000E+00 -0.00000000000E+00  0.11368683772E-12  0.17120000000E+03  0.17120000000E+03 0.  0.
         13    1    1    2    0    0 -0.59040149799E+01 -0.16591398013E+02  0.45525358377E+02  0.48812921448E+02  0.10566000000E+00 0.  1.
        994    1    1    2    0    0  0.29131792859E+01  0.15514414264E+02  0.41006273137E+01  0.17197511101E+03  0.17120000000E+03 0.  0.
        998    1    1    2    0    0  0.29908356941E+01  0.10769837490E+01  0.14503740106E+04  0.14504119675E+04  0.10000000000E+02 0.  1.
</event>
<event>
 5    1  0.1334136E-008  0.3831273E+03  0.7957747E-01  0.3437653E+00
         13   -1    0    0    0    0  0.00000000000E+00  0.00000000000E+00  0.14999999963E+04  0.15000000000E+04  0.10566000000E+00 0.  1.
        994   -1    0    0    0    0 -0.00000000000E+00 -0.00000000000E+00  0.11368683772E-12  0.17120000000E+03  0.17120000000E+03 0.  0.
         13    1    1    2    0    0 -0.24131984809E+02 -0.59478121470E+00  0.10914607346E+03  0.11178364358E+03  0.10566000000E+00 0.  1.
        994    1    1    2    0    0  0.20141552034E+02 -0.34121616488E+01  0.39447825471E+01  0.17245963665E+03  0.17120000000E+03 0.  0.
        998    1    1    2    0    0  0.39904327743E+01  0.40069428635E+01  0.13869091403E+04  0.13869567198E+04  0.10000000000E+02 0.  1.
</event>
<event>
 5    1  0.1334136E-008  0.3848725E+03  0.7957747E-01  0.3430213E+00
         13   -1    0    0    0    0  0.00000000000E+00  0.00000000000E+00  0.14999999963E+04  0.15000000000E+04  0.10566000000E+00 0. -1.
        994   -1    0    0    0    0 -0.00000000000E+00 -0.00000000000E+00  0.11368683772E-12  0.17120000000E+03  0.17120000000E+03 0.  0.
         13    1    1    2    0    0 -0.95952754365E+01 -0.97793053296E+01  0.55331715345E+02  0.57002754412E+02  0.10566000000E+00 0. -1.
        994    1    1    2    0    0  0.80073885185E+01  0.49072451841E+01  0.19836653616E+01  0.17146887255E+03  0.17120000000E+03 0.  0.
        998    1    1    2    0    0  0.15878869179E+01  0.48720601455E+01  0.14426846156E+04  0.14427283730E+04  0.10000000000E+02 0. -1.
</event>
<event>
 5    1  0.1334136E-008  0.3792682E+03  0.7957747E-01  0.3454351E+00
         13   -1    0    0    0    0  0.00000000000E+00  0.00000000000E+00  0.14999999963E+04  0.15000000000E+04  0.10566000000E+00 0.  1.
        994   -1    0    0    0    0 -0.00000000000E+00 -0.00000000000E+00  0.11368683772E-12  0.17120000000E+03  0.17120000000E+03 0.  0.
         13    1    1    2    0    0  0.13436110037E+03  0.25836928601E+02  0.80580889326E+03  0.81734230026E+03  0.10566000000E+00 0.  1.
        994    1    1    2    0    0 -0.14866725366E+03  0.25291904995E+01  0.82554929422E+02  0.24131536521E+03  0.17120000000E+03 0.  0.
        998    1    1    2    0    0  0.14306153294E+02 -0.28366119101E+02  0.61163617359E+03  0.61254233452E+03  0.10000000000E+02 0.  1.
</event>
<event>
 5    1  0.1334136E-008  0.3854678E+03  0.7957747E-01  0.3427691E+00
         13   -1    0    0    0    0  0.00000000000E+00  0.00000000000E+00  0.14999999963E+04  0.15000000000E+04  0.10566000000E+00 0. -1.
        994   -1    0    0    0    0 -0.00000000000E+00 -0.00000000000E+00  0.11368683772E-12  0.17120000000E+03  0.17120000000E+03 0.  0.
         13    1    1    2    0    0 -0.45345755759E+01  0.10477836358E+02  0.44755660148E+02  0.46189043178E+02  0.10566000000E+00 0. -1.
        994    1    1    2    0    0  0.70867308087E+01 -0.13867354849E+02  0.21948453370E+01  0.17192086153E+03  0.17120000000E+03 0.  0.
        998    1    1    2    0    0 -0.25521552329E+01  0.33895184909E+01  0.14530494908E+04  0.14530900953E+04  0.10000000000E+02 0. -1.
</event>
<event>
 5    1  0.1334136E-008  0.3813171E+03  0.7957747E-01  0.3445444E+00
         13   -1    0    0    0    0  0.00000000000E+00  0.00000000000E+00  0.14999999963E+04  0.15000000000E+04  0.10566000000E+00 0.  1.
        994   -1    0    0    0    0 -0.00000000000E+00 -0.00000000000E+00  0.11368683772E-12  0.17120000000E+03  0.17120000000E+03 0.  0.
         13    1    1    2    0    0 -0.28653713758E+02  0.19507652089E+02  0.16567701854E+03  0.16926449551E+03  0.10566000000E+00 0.  1.
        994    1    1    2    0    0  0.30872680646E+02 -0.68266846668E+00  0.66502221521E+01  0.17408978690E+03  0.17120000000E+03 0.  0.
        998    1    1    2    0    0 -0.22189668884E+01 -0.18824983622E+02  0.13276727556E+04  0.13278457176E+04  0.10000000000E+02 0.  1.
</event>
<event>
 5    1  0.1334136E-008  0.3721189E+03  0.7957747E-01  0.3486209E+00
         13   -1    0    0    0    0  0.00000000000E+00  0.00000000000E+00  0.14999999963E+04  0.15000000000E+04  0.10566000000E+00 0.  1.
        994   -1    0    0    0    0 -0.00000000000E+00 -0.00000000000E+00  0.11368683772E-12  0.17120000000E+03  0.17120000000E+03 0.  0.
         13    1    1    2    0    0 -0.76108259289E+02 -0.38091063411E+02  0.33106140674E+03  0.34182607045E+03  0.10566000000E+00 0.  1.
        994    1    1    2    0    0  0.83942221664E+02  0.31618114635E+02  0.36311337808E+02  0.19665694751E+03  0.17120000000E+03 0.  0.
        998    1    1    2    0    0 -0.78339623752E+01  0.64729487760E+01  0.11326272517E+04  0.11327169820E+04  0.10000000000E+02 0.  1.
</event>
<event>
 5    1  0.1334136E-008  0.3850633E+03  0.7957747E-01  0.3429404E+00
         13   -1    0    0    0    0  0.00000000000E+00  0.00000000000E+00  0.14999999963E+04  0.15000000000E+04  0.10566000000E+00 0.  1.
        994   -1    0    0    0    0 -0.00000000000E+00 -0.00000000000E+00  0.11368683772E-12  0.17120000000E+03  0.17120000000E+03 0.  0.
         13    1    1    2    0    0 -0.28965988540E+01 -0.10867671247E+02  0.39572666108E+02  0.41140048981E+02  0.10566000000E+00 0.  1.
        994    1    1    2    0    0 -0.36219766634E+01  0.82488021943E+01  0.18655996922E+01  0.17144702364E+03  0.17120000000E+03 0.  0.
        998    1    1    2    0    0  0.65185755174E+01  0.26188690523E+01  0.14585617305E+04  0.14586129274E+04  0.10000000000E+02 0.  1.
</event>
<event>
 5    1  0.1334136E-008  0.3822445E+03  0.7957747E-01  0.3441443E+00
         13   -1    0    0    0    0  0.00000000000E+00  0.00000000000E+00  0.14999999963E+04  0.15000000000E+04  0.10566000000E+00 0. -1.
        994   -1    0    0    0    0 -0.00000000000E+00 -0.00000000000E+00  0.11368683772E-12  0.17120000000E+03  0.17120000000E+03 0.  0.
         13    1    1    2    0    0  0.76724476440E+01  0.11431008023E+02  0.29520542996E+02  0.32573118059E+02  0.10566000000E+00 0. -1.
        994    1    1    2    0    0 -0.89965327459E+01 -0.16219252581E+02  0.41467536778E+01  0.17225166856E+03  0.17120000000E+03 0.  0.
        998    1    1    2    0    0  0.13240851019E+01  0.47882445586E+01  0.14663326996E+04  0.14663752134E+04  0.10000000000E+02 0. -1.
</event>
<event>
 5    1  0.1334136E-008  0.3837051E+03  0.7957747E-01  0.3435183E+00
         13   -1    0    0    0    0  0.00000000000E+00  0.00000000000E+00  0.14999999963E+04  0.15000000000E+04  0.10566000000E+00 0. -1.
        994   -1    0    0    0    0 -0.00000000000E+00 -0.00000000000E+00  0.11368683772E-12  0.17120000000E+03  0.17120000000E+03 0.  0.
         13    1    1    2    0    0 -0.17782128674E+02  0.14612665202E+02  0.10678213718E+03  0.10923447290E+03  0.10566000000E+00 0. -1.
        994    1    1    2    0    0  0.25290890171E+02 -0.10631439094E+02  0.47640368324E+01  0.17344968339E+03  0.17120000000E+03 0.  0.
        998    1    1    2    0    0 -0.75087614972E+01 -0.39812261076E+01  0.13884538223E+04  0.13885158437E+04  0.10000000000E+02 0. -1.
</event>
<event>
 5    1  0.1334136E-008  0.3859586E+03  0.7957747E-01  0.3425617E+00
         13   -1    0    0    0    0  0.00000000000E+00  0.00000000000E+00  0.14999999963E+04  0.15000000000E+04  0.10566000000E+00 0.  1.
        994   -1    0    0    0    0 -0.00000000000E+00 -0.00000000000E+00  0.11368683772E-12  0.17120000000E+03  0.17120000000E+03 0.  0.
         13    1    1    2    0    0 -0.10392507954E-01 -0.11039751145E+02  0.53896825647E+02  0.55015953979E+02  0.10566000000E+00 0.  1.
        994    1    1    2    0    0 -0.75451195957E+00  0.59151529171E+01  0.12715585876E+01  0.17130853798E+03  0.17120000000E+03 0.  0.
        998    1    1    2    0    0  0.76490446753E+00  0.51245982281E+01  0.14448316120E+04  0.14448755080E+04  0.10000000000E+02 0.  1.
</event>
<event>
 5    1  0.1334136E-008  0.3849200E+03  0.7957747E-01  0.3430011E+00
         13   -1    0    0    0    0  0.00000000000E+00  0.00000000000E+00  0.14999999963E+04  0.15000000000E+04  0.10566000000E+00 0. -1.
        994   -1    0    0    0    0 -0.00000000000E+00 -0.00000000000E+00  0.11368683772E-12  0.17120000000E+03  0.17120000000E+03 0.  0.
         13    1    1    2    0    0 -0.13300513562E+02 -0.96437734625E+01  0.80290554499E+02  0.81954196558E+02  0.10566000000E+00 0. -1.
        994    1    1    2    0    0  0.69459302218E+01  0.10233807409E+02  0.21732296653E+01  0.17165995365E+03  0.17120000000E+03 0.  0.
        998    1    1    2    0    0  0.63545833404E+01 -0.59003394629E+00  0.14175362121E+04  0.14175858498E+04  0.10000000000E+02 0. -1.
</event>
<event>
 5    1  0.1334136E-008  0.3780149E+03  0.7957747E-01  0.3459848E+00
         13   -1    0    0    0    0  0.00000000000E+00  0.00000000000E+00  0.14999999963E+04  0.15000000000E+04  0.10566000000E+00 0.  1.
        994   -1    0    0    0    0 -0.00000000000E+00 -0.00000000000E+00  0.11368683772E-12  0.17120000000E+03  0.17120000000E+03 0.  0.
         13    1    1    2    0    0  0.58100501708E+02  0.24134632031E+02  0.30847336034E+03  0.31482371887E+03  0.10566000000E+00 0.  1.
        994    1    1    2    0    0 -0.63168751191E+02 -0.10250614739E+02  0.19045617177E+02  0.18375946714E+03  0.17120000000E+03 0.  0.
        998    1    1    2    0    0  0.50682494836E+01 -0.13884017291E+02  0.11724810188E+04  0.11726168140E+04  0.10000000000E+02 0.  1.
</event>
<event>
 5    1  0.1334136E-008  0.3781871E+03  0.7957747E-01  0.3459091E+00
         13   -1    0    0    0    0  0.00000000000E+00  0.00000000000E+00  0.14999999963E+04  0.15000000000E+04  0.10566000000E+00 0. -1.
        994   -1    0    0    0    0 -0.00000000000E+00 -0.00000000000E+00  0.11368683772E-12  0.17120000000E+03  0.17120000000E+03 0.  0.
         13    1    1    2    0    0 -0.31214495503E+02  0.60766616801E+02  0.36236829931E+03  0.36875157214E+03  0.10566000000E+00 0. -1.
        994    1    1    2    0    0  0.27066056296E+02 -0.58887133171E+02  0.19309408731E+02  0.18407215738E+03  0.17120000000E+03 0.  0.
        998    1    1    2    0    0  0.41484392064E+01 -0.18794836292E+01  0.11183222882E+04  0.11183762705E+04  0.10000000000E+02 0.  0.
</event>
<event>
 5    1  0.1334136E-008  0.3845423E+03  0.7957747E-01  0.3431616E+00
         13   -1    0    0    0    0  0.00000000000E+00  0.00000000000E+00  0.14999999963E+04  0.15000000000E+04  0.10566000000E+00 0.  1.
        994   -1    0    0    0    0 -0.00000000000E+00 -0.00000000000E+00  0.11368683772E-12  0.17120000000E+03  0.17120000000E+03 0.  0.
         13    1    1    2    0    0 -0.15290616714E+02 -0.13468410753E+02  0.11663963602E+03  0.11840615230E+03  0.10566000000E+00 0.  1.
        994    1    1    2    0    0  0.36942421872E+01  0.67776935269E+01  0.20538261842E+01  0.17138623853E+03  0.17120000000E+03 0.  0.
        998    1    1    2    0    0  0.11596374527E+02  0.66907172264E+01  0.13813065341E+04  0.13814076092E+04  0.10000000000E+02 0.  1.
</event>
<event>
 5    1  0.1334136E-008  0.3823014E+03  0.7957747E-01  0.3441199E+00
         13   -1    0    0    0    0  0.00000000000E+00  0.00000000000E+00  0.14999999963E+04  0.15000000000E+04  0.10566000000E+00 0. -1.
        994   -1    0    0    0    0 -0.00000000000E+00 -0.00000000000E+00  0.11368683772E-12  0.17120000000E+03  0.17120000000E+03 0.  0.
         13    1    1    2    0    0 -0.10159808782E+02 -0.31634167941E+00  0.16135865649E+02  0.19070896959E+02  0.10566000000E+00 0. -1.
        994    1    1    2    0    0  0.77084842826E+01  0.27679520441E+01  0.31985022248E+01  0.17142564775E+03  0.17120000000E+03 0.  0.
        998    1    1    2    0    0  0.24513244991E+01 -0.24516103647E+01  0.14806656284E+04  0.14807034553E+04  0.10000000000E+02 0. -1.
</event>
<event>
 5    1  0.1334136E-008  0.3768156E+03  0.7957747E-01  0.3465142E+00
         13   -1    0    0    0    0  0.00000000000E+00  0.00000000000E+00  0.14999999963E+04  0.15000000000E+04  0.10566000000E+00 0.  1.
        994   -1    0    0    0    0 -0.00000000000E+00 -0.00000000000E+00  0.11368683772E-12  0.17120000000E+03  0.17120000000E+03 0.  0.
         13    1    1    2    0    0  0.27247180452E+02 -0.34978840732E+02  0.21162132653E+03  0.21621638501E+03  0.10566000000E+00 0.  1.
        994    1    1    2    0    0  0.11377075791E+02 -0.18916169778E+00  0.61868494173E+01  0.17168922721E+03  0.17120000000E+03 0.  0.
        998    1    1    2    0    0 -0.38624256243E+02  0.35168002430E+02  0.12821918203E+04  0.12832943878E+04  0.10000000000E+02 0.  1.
</event>
<event>
 5    1  0.1334136E-008  0.3860623E+03  0.7957747E-01  0.3425179E+00
         13   -1    0    0    0    0  0.00000000000E+00  0.00000000000E+00  0.14999999963E+04  0.15000000000E+04  0.10566000000E+00 0.  1.
        994   -1    0    0    0    0 -0.00000000000E+00 -0.00000000000E+00  0.11368683772E-12  0.17120000000E+03  0.17120000000E+03 0.  0.
         13    1    1    2    0    0  0.98714658415E+01 -0.51775796491E+01  0.52189307366E+02  0.53366545103E+02  0.10566000000E+00 0.  1.
        994    1    1    2    0    0 -0.17537116788E+02  0.10933127178E+02  0.25046167721E+01  0.17246100093E+03  0.17120000000E+03 0.  0.
        998    1    1    2    0    0  0.76656509461E+01 -0.57555475294E+01  0.14453060721E+04  0.14453724540E+04  0.10000000000E+02 0.  1.
</event>
<event>
 5    1  0.1334136E-008  0.3840632E+03  0.7957747E-01  0.3433655E+00
         13   -1    0    0    0    0  0.00000000000E+00  0.00000000000E+00  0.14999999963E+04  0.15000000000E+04  0.10566000000E+00 0.  1.
        994   -1    0    0    0    0 -0.00000000000E+00 -0.00000000000E+00  0.11368683772E-12  0.17120000000E+03  0.17120000000E+03 0.  0.
         13    1    1    2    0    0  0.18995644752E+02 -0.67896315207E+01  0.10660472180E+03  0.10849659668E+03  0.10566000000E+00 0.  1.
        994    1    1    2    0    0  0.33148352769E+01  0.77323310852E+01  0.23294419997E+01  0.17142241212E+03  0.17120000000E+03 0.  0.
        998    1    1    2    0    0 -0.22310480029E+02 -0.94269956458E+00  0.13910658325E+04  0.13912809912E+04  0.10000000000E+02 0.  1.
</event>
<event>
 5    1  0.1334136E-008  0.3808019E+03  0.7957747E-01  0.3447674E+00
         13   -1    0    0    0    0  0.00000000000E+00  0.00000000000E+00  0.14999999963E+04  0.15000000000E+04  0.10566000000E+00 0. -1.
        994   -1    0    0    0    0 -0.00000000000E+00 -0.00000000000E+00  0.11368683772E-12  0.17120000000E+03  0.17120000000E+03 0.  0.
         13    1    1    2    0    0 -0.33366851931E+02 -0.27214260561E+01  0.13447575456E+03  0.13858027527E+03  0.10566000000E+00 0. -1.
        994    1    1    2    0    0  0.35675947556E+02  0.12972527439E+02  0.85484907744E+01  0.17556644439E+03  0.17120000000E+03 0.  0.
        998    1    1    2    0    0 -0.23090956246E+01 -0.10251101383E+02  0.13569757509E+04  0.13570532803E+04  0.10000000000E+02 0. -1.
</event>
<event>
 5    1  0.1334136E-008  0.3812545E+03  0.7957747E-01  0.3445714E+00
         13   -1    0    0    0    0  0.00000000000E+00  0.00000000000E+00  0.14999999963E+04  0.15000000000E+04  0.10566000000E+00 0.  1.
        994   -1    0    0    0    0 -0.00000000000E+00 -0.00000000000E+00  0.11368683772E-12  0.17120000000E+03  0.17120000000E+03 0.  0.
         13    1    1    2    0    0 -0.25342070525E+02  0.36302847275E+02  0.25665667989E+03  0.26044726867E+03  0.10566000000E+00 0.  1.
        994    1    1    2    0    0  0.25233188760E+02 -0.24461861041E+02  0.76239425314E+01  0.17493616253E+03  0.17120000000E+03 0.  0.
        998    1    1    2    0    0  0.10888176527E+00 -0.11840986235E+02  0.12357193739E+04  0.12358165688E+04  0.10000000000E+02 0.  1.
</event>
<event>
 5    1  0.1334136E-008  0.3848507E+03  0.7957747E-01  0.3430306E+00
         13   -1    0    0    0    0  0.00000000000E+00  0.00000000000E+00  0.14999999963E+04  0.15000000000E+04  0.10566000000E+00 0.  1.
        994   -1    0    0    0    0 -0.00000000000E+00 -0.00000000000E+00  0.11368683772E-12  0.17120000000E+03  0.17120000000E+03 0.  0.
         13    1    1    2    0    0 -0.12424132952E+02 -0.62497628189E+01  0.56831336906E+02  0.58508380882E+02  0.10566000000E+00 0.  1.
        994    1    1    2    0    0  0.73265003272E+01  0.47591528488E+01  0.19554444563E+01  0.17143392577E+03  0.17120000000E+03 0.  0.
        998    1    1    2    0    0  0.50976326244E+01  0.14906099701E+01  0.14412132149E+04  0.14412576933E+04  0.10000000000E+02 0.  1.
</event>
<event>
 5    1  0.1334136E-008  0.4216538E+03  0.7957747E-01  0.3287690E+00
         13   -1    0    0    0    0  0.00000000000E+00  0.00000000000E+00  0.14999999963E+04  0.15000000000E+04  0.10566000000E+00 0.  1.
        994   -1    0    0    0    0 -0.00000000000E+00 -0.00000000000E+00  0.11368683772E-12  0.17120000000E+03  0.17120000000E+03 0.  0.
         13    1    1    2    0    0  0.67567563485E+01 -0.95413811920E+02  0.10803399054E+03  0.14429415629E+03  0.10566000000E+00 0.  1.
        994    1    1    2    0    0 -0.17534914018E+03 -0.10812370304E+01  0.19212345895E+03  0.31139902620E+03  0.17120000000E+03 0.  0.
        998    1    1    2    0    0  0.16859238384E+03  0.96495048951E+02  0.11998425468E+04  0.12155068175E+04  0.10000000000E+02 0.  1.
</event>
<event>
 5    1  0.1334136E-008  0.3800326E+03  0.7957747E-01  0.3451016E+00
         13   -1    0    0    0    0  0.00000000000E+00  0.00000000000E+00  0.14999999963E+04  0.15000000000E+04  0.10566000000E+00 0. -1.
        994   -1    0    0    0    0 -0.00000000000E+00 -0.00000000000E+00  0.11368683772E-12  0.17120000000E+03  0.17120000000E+03 0.  0.
         13    1    1    2    0    0  0.50029068177E+01 -0.29984594450E+02  0.10826364017E+03  0.11245057549E+03  0.10566000000E+00 0. -1.
        994    1    1    2    0    0 -0.39117645830E+01  0.22387997111E+02  0.58450952822E+01  0.17280083754E+03  0.17120000000E+03 0.  0.
        998    1    1    2    0    0 -0.10911422347E+01  0.75965973387E+01  0.13858912608E+04  0.13859485870E+04  0.10000000000E+02 0. -1.
</event>
<event>
 5    1  0.1334136E-008  0.3105333E+03  0.7957747E-01  0.3823577E+00
         13   -1    0    0    0    0  0.00000000000E+00  0.00000000000E+00  0.14999999963E+04  0.15000000000E+04  0.10566000000E+00 0.  1.
        994   -1    0    0    0    0 -0.00000000000E+00 -0.00000000000E+00  0.11368683772E-12  0.17120000000E+03  0.17120000000E+03 0.  0.
         13    1    1    2    0    0  0.11615179690E+03 -0.16985360417E+03  0.67530415403E+03  0.70595835457E+03  0.10566000000E+00 0.  1.
        994    1    1    2    0    0 -0.11857465937E+03  0.17015577077E+03  0.18721200179E+03  0.32767470117E+03  0.17120000000E+03 0.  0.
        998    1    1    2    0    0  0.24228624698E+01 -0.30216660286E+00  0.63748384045E+03  0.63756694426E+03  0.10000000000E+02 0.  0.
</event>
<event>
 5    1  0.1334136E-008  0.3705538E+03  0.7957747E-01  0.3493349E+00
         13   -1    0    0    0    0  0.00000000000E+00  0.00000000000E+00  0.14999999963E+04  0.15000000000E+04  0.10566000000E+00 0. -1.
        994   -1    0    0    0    0 -0.00000000000E+00 -0.00000000000E+00  0.11368683772E-12  0.17120000000E+03  0.17120000000E+03 0.  0.
         13    1    1    2    0    0 -0.24017828595E+02  0.14420060558E+02  0.39186700935E+02  0.48170560835E+02  0.10566000000E+00 0. -1.
        994    1    1    2    0    0  0.25066685503E+02 -0.12265370686E+02  0.11672166682E+02  0.17385182632E+03  0.17120000000E+03 0.  0.
        998    1    1    2    0    0 -0.10488569081E+01 -0.21546898721E+01  0.14491411287E+04  0.14491776128E+04  0.10000000000E+02 0.  0.
</event>
<event>
 5    1  0.1334136E-008  0.3835807E+03  0.7957747E-01  0.3435714E+00
         13   -1    0    0    0    0  0.00000000000E+00  0.00000000000E+00  0.14999999963E+04  0.15000000000E+04  0.10566000000E+00 0. -1.
        994   -1    0    0    0    0 -0.00000000000E+00 -0.00000000000E+00  0.11368683772E-12  0.17120000000E+03  0.17120000000E+03 0.  0.
         13    1    1    2    0    0 -0.13838657011E+02  0.16833192304E+02  0.10408089034E+03  0.10633770587E+03  0.10566000000E+00 0. -1.
        994    1    1    2    0    0  0.11556500712E+01 -0.11063000475E+02  0.27453085130E+01  0.17158293104E+03  0.17120000000E+03 0.  0.
        998    1    1    2    0    0  0.12683006939E+02 -0.57701918293E+01  0.13931737974E+04  0.13932793631E+04  0.10000000000E+02 0. -1.
</event>
<event>
 5    1  0.1334136E-008  0.3847593E+03  0.7957747E-01  0.3430694E+00
         13   -1    0    0    0    0  0.00000000000E+00  0.00000000000E+00  0.14999999963E+04  0.15000000000E+04  0.10566000000E+00 0.  1.
        994   -1    0    0    0    0 -0.00000000000E+00 -0.00000000000E+00  0.11368683772E-12  0.17120000000E+03  0.17120000000E+03 0.  0.
         13    1    1    2    0    0 -0.56231564871E+01 -0.96786050740E+01  0.34800685022E+02  0.36556724786E+02  0.10566000000E+00 0.  1.
        994    1    1    2    0    0  0.86945627091E+01  0.90073313098E+01  0.22656647314E+01  0.17167207308E+03  0.17120000000E+03 0.  0.
        998    1    1    2    0    0 -0.30714062219E+01  0.67127376415E+00  0.14629336465E+04  0.14629712021E+04  0.10000000000E+02 0.  1.
</event>
<event>
 5    1  0.1334136E-008  0.3798020E+03  0.7957747E-01  0.3452021E+00
         13   -1    0    0    0    0  0.00000000000E+00  0.00000000000E+00  0.14999999963E+04  0.15000000000E+04  0.10566000000E+00 0. -1.
        994   -1    0    0    0    0 -0.00000000000E+00 -0.00000000000E+00  0.11368683772E-12  0.17120000000E+03  0.17120000000E+03 0.  0.
         13    1    1    2    0    0 -0.19851591448E+02 -0.13001083747E+02  0.61590691146E+02  0.66004077613E+02  0.10566000000E+00 0. -1.
        994    1    1    2    0    0  0.20741200665E+02  0.19986859993E+02  0.70134426080E+01  0.17374780676E+03  0.17120000000E+03 0.  0.
        998    1    1    2    0    0 -0.88960921703E+00 -0.69857762461E+01  0.14313958625E+04  0.14314481156E+04  0.10000000000E+02 0. -1.
</event>
<event>
 5    1  0.1334136E-008  0.3815926E+03  0.7957747E-01  0.3444253E+00
         13   -1    0    0    0    0  0.00000000000E+00  0.00000000000E+00  0.14999999963E+04  0.15000000000E+04  0.10566000000E+00 0. -1.
        994   -1    0    0    0    0 -0.00000000000E+00 -0.00000000000E+00  0.11368683772E-12  0.17120000000E+03  0.17120000000E+03 0.  0.
         13    1    1    2    0    0 -0.36217004302E+02 -0.59906170115E+01  0.20242355762E+03  0.20572522144E+03  0.10566000000E+00 0. -1.
        994    1    1    2    0    0  0.19873377600E+02  0.54480706608E+01  0.47447176522E+01  0.17250097089E+03  0.17120000000E+03 0.  0.
        998    1    1    2    0    0  0.16343626702E+02  0.54254635073E+00  0.12928317210E+04  0.12929738077E+04  0.10000000000E+02 0. -1.
</event>
<event>
 5    1  0.1334136E-008  0.3794694E+03  0.7957747E-01  0.3453472E+00
         13   -1    0    0    0    0  0.00000000000E+00  0.00000000000E+00  0.14999999963E+04  0.15000000000E+04  0.10566000000E+00 0.  1.
        994   -1    0    0    0    0 -0.00000000000E+00 -0.00000000000E+00  0.11368683772E-12  0.17120000000E+03  0.17120000000E+03 0.  0.
         13    1    1    2    0    0  0.28389238130E+01 -0.28173451137E+02  0.93873666513E+02  0.98051411341E+02  0.10566000000E+00 0.  1.
        994    1    1    2    0    0 -0.33801700105E+01  0.74045401271E+01  0.46231224068E+01  0.17145572614E+03  0.17120000000E+03 0.  0.
        998    1    1    2    0    0  0.54124619751E+00  0.20768911010E+02  0.14015032074E+04  0.14016928625E+04  0.10000000000E+02 0.  1.
</event>
<event>
 5    1  0.1334136E-008  0.3761837E+03  0.7957747E-01  0.3467946E+00
         13   -1    0    0    0    0  0.00000000000E+00  0.00000000000E+00  0.14999999963E+04  0.15000000000E+04  0.10566000000E+00 0.  1.
        994   -1    0    0    0    0 -0.00000000000E+00 -0.00000000000E+00  0.11368683772E-12  0.17120000000E+03  0.17120000000E+03 0.  0.
         13    1    1    2    0    0  0.42433834190E+01 -0.19444580707E+02  0.29066596288E+02  0.35227492183E+02  0.10566000000E+00 0.  1.
        994    1    1    2    0    0  0.18878613752E+01  0.27624058067E+02  0.86721063495E+01  0.17364129127E+03  0.17120000000E+03 0.  0.
        998    1    1    2    0    0 -0.61312447941E+01 -0.81794773600E+01  0.14622612936E+04  0.14623312165E+04  0.10000000000E+02 0.  1.
</event>
<event>
 5    1  0.1334136E-008  0.3769857E+03  0.7957747E-01  0.3464389E+00
         13   -1    0    0    0    0  0.00000000000E+00  0.00000000000E+00  0.14999999963E+04  0.15000000000E+04  0.10566000000E+00 0. -1.
        994   -1    0    0    0    0 -0.00000000000E+00 -0.00000000000E+00  0.11368683772E-12  0.17120000000E+03  0.17120000000E+03 0.  0.
         13    1    1    2    0    0 -0.60427748930E+00 -0.20679837152E+02  0.37376981899E+02  0.42720846853E+02  0.10566000000E+00 0. -1.
        994    1    1    2    0    0 -0.35131955704E+01 -0.29924837071E+01  0.57344689217E+01  0.17135816769E+03  0.17120000000E+03 0.  0.
        998    1    1    2    0    0  0.41174730597E+01  0.23672320859E+02  0.14568885455E+04  0.14571209855E+04  0.10000000000E+02 0. -1.
</event>
<event>
 5    1  0.1334136E-008  0.3806215E+03  0.7957747E-01  0.3448457E+00
         13   -1    0    0    0    0  0.00000000000E+00  0.00000000000E+00  0.14999999963E+04  0.15000000000E+04  0.10566000000E+00 0. -1.
        994   -1    0    0    0    0 -0.00000000000E+00 -0.00000000000E+00  0.11368683772E-12  0.17120000000E+03  0.17120000000E+03 0.  0.
         13    1    1    2    0    0  0.35930192576E+02  0.17886448279E+03  0.10471427181E+04  0.10629164432E+04  0.10566000000E+00 0. -1.
        994    1    1    2    0    0 -0.34602091199E+02 -0.17783827416E+03  0.12244483828E+03  0.27771556473E+03  0.17120000000E+03 0.  0.
        998    1    1    2    0    0 -0.13281013768E+01 -0.10262086271E+01  0.33041243986E+03  0.33056799206E+03  0.10000000000E+02 0.  0.
</event>
<event>
 5    1  0.1334136E-008  0.3839674E+03  0.7957747E-01  0.3434063E+00
         13   -1    0    0    0    0  0.00000000000E+00  0.00000000000E+00  0.14999999963E+04  0.15000000000E+04  0.10566000000E+00 0. -1.
        994   -1    0    0    0    0 -0.00000000000E+00 -0.00000000000E+00  0.11368683772E-12  0.17120000000E+03  0.17120000000E+03 0.  0.
         13    1    1    2    0    0  0.12780865745E+02  0.12865625409E+02  0.77539087318E+02  0.79631627338E+02  0.10566000000E+00 0. -1.
        994    1    1    2    0    0 -0.59670442481E+00 -0.12140436361E+02  0.26313423888E+01  0.17165112937E+03  0.17120000000E+03 0.  0.
        998    1    1    2    0    0 -0.12184161320E+02 -0.72518904852E+00  0.14198295666E+04  0.14199172433E+04  0.10000000000E+02 0. -1.
</event>
<event>
 5    1  0.1334136E-008  0.3852702E+03  0.7957747E-01  0.3428527E+00
         13   -1    0    0    0    0  0.00000000000E+00  0.00000000000E+00  0.14999999963E+04  0.15000000000E+04  0.10566000000E+00 0. -1.
        994   -1    0    0    0    0 -0.00000000000E+00 -0.00000000000E+00  0.11368683772E-12  0.17120000000E+03  0.17120000000E+03 0.  0.
         13    1    1    2    0    0 -0.92196110769E+01 -0.70995469041E+01  0.46619872598E+02  0.48050270340E+02  0.10566000000E+00 0. -1.
        994    1    1    2    0    0  0.70137602052E+01 -0.45099525479E+01  0.17245632629E+01  0.17141162919E+03  0.17120000000E+03 0.  0.
        998    1    1    2    0    0  0.22058508716E+01  0.11609499452E+02  0.14516555604E+04  0.14517381005E+04  0.10000000000E+02 0. -1.
</event>
<event>
 5    1  0.1334136E-008  0.3790158E+03  0.7957747E-01  0.3455455E+00
         13   -1    0    0    0    0  0.00000000000E+00  0.00000000000E+00  0.14999999963E+04  0.15000000000E+04  0.10566000000E+00 0. -1.
        994   -1    0    0    0    0 -0.00000000000E+00 -0.00000000000E+00  0.11368683772E-12  0.17120000000E+03  0.17120000000E+03 0.  0.
         13    1    1    2    0    0  0.55717513096E+02  0.59951346249E+02  0.18538162872E+03  0.20264492250E+03  0.10566000000E+00 0. -1.
        994    1    1    2    0    0 -0.46961268237E+02 -0.62010167838E+02  0.37972554484E+02  0.19183841253E+03  0.17120000000E+03 0.  0.
        998    1    1    2    0    0 -0.87562448589E+01  0.20588215890E+01  0.12766458131E+04  0.12767166650E+04  0.10000000000E+02 0. -1.
</event>
<event>
 5    1  0.1334136E-008  0.3800574E+03  0.7957747E-01  0.3450909E+00
         13   -1    0    0    0    0  0.00000000000E+00  0.00000000000E+00  0.14999999963E+04  0.15000000000E+04  0.10566000000E+00 0. -1.
        994   -1    0    0    0    0 -0.00000000000E+00 -0.00000000000E+00  0.11368683772E-12  0.17120000000E+03  0.17120000000E+03 0.  0.
         13    1    1    2    0    0 -0.24478515477E+01  0.19232554822E+02  0.45472480309E+02  0.49433195038E+02  0.10566000000E+00 0. -1.
        994    1    1    2    0    0  0.67400830900E+01 -0.44145617303E+01  0.43211954376E+01  0.17144395529E+03  0.17120000000E+03 0.  0.
        998    1    1    2    0    0 -0.42922315423E+01 -0.14817993091E+02  0.14502063205E+04  0.14503228497E+04  0.10000000000E+02 0. -1.
</event>
<event>
 5    1  0.1334136E-008  0.3840544E+03  0.7957747E-01  0.3433693E+00
         13   -1    0    0    0    0  0.00000000000E+00  0.00000000000E+00  0.14999999963E+04  0.15000000000E+04  0.10566000000E+00 0.  1.
        994   -1    0    0    0    0 -0.00000000000E+00 -0.00000000000E+00  0.11368683772E-12  0.17120000000E+03  0.17120000000E+03 0.  0.
         13    1    1    2    0    0  0.50282086052E+00 -0.10679148029E+02  0.26152222162E+02  0.28253263874E+02  0.10566000000E+00 0.  1.
        994    1    1    2    0    0  0.29578247259E+01  0.12081958910E+02  0.26108982515E+01  0.17167113691E+03  0.17120000000E+03 0.  0.
        998    1    1    2    0    0 -0.34606455864E+01 -0.14028108810E+01  0.14712368759E+04  0.14712755992E+04  0.10000000000E+02 0.  1.
</event>
<event>
 5    1  0.1334136E-008  0.3839875E+03  0.7957747E-01  0.3433978E+00
         13   -1    0    0    0    0  0.00000000000E+00  0.00000000000E+00  0.14999999963E+04  0.15000000000E+04  0.10566000000E+00 0.  1.
        994   -1    0    0    0    0 -0.00000000000E+00 -0.00000000000E+00  0.11368683772E-12  0.17120000000E+03  0.17120000000E+03 0.  0.
         13    1    1    2    0    0  0.18396053204E+03  0.15479772711E+03  0.11340514782E+04  0.11592569085E+04  0.10566000000E+00 0.  1.
        994    1    1    2    0    0 -0.19658506374E+03 -0.14891637011E+03  0.23870844478E+03  0.38355303959E+03  0.17120000000E+03 0.  0.
        998    1    1    2    0    0  0.12624531692E+02 -0.58813569934E+01  0.12724007333E+03  0.12839005188E+03  0.10000000000E+02 0. -1.
</event>
<event>
 5    1  0.1334136E-008  0.3855625E+03  0.7957747E-01  0.3427290E+00
         13   -1    0    0    0    0  0.00000000000E+00  0.00000000000E+00  0.14999999963E+04  0.15000000000E+04  0.10566000000E+00 0.  1.
        994   -1    0    0    0    0 -0.00000000000E+00 -0.00000000000E+00  0.11368683772E-12  0.17120000000E+03  0.17120000000E+03 0.  0.
         13    1    1    2    0    0 -0.25580947489E+01  0.14771366112E+02  0.83478031953E+02  0.84813501804E+02  0.10566000000E+00 0.  1.
        994    1    1    2    0    0 -0.77571427395E+00 -0.10312691553E+02  0.17022857342E+01  0.17152052681E+03  0.17120000000E+03 0.  0.
        998    1    1    2    0    0  0.33338090229E+01 -0.44586745592E+01  0.14148196786E+04  0.14148659714E+04  0.10000000000E+02 0.  1.
</event>
<event>
 5    1  0.1334136E-008  0.3839138E+03  0.7957747E-01  0.3434292E+00
         13   -1    0    0    0    0  0.00000000000E+00  0.00000000000E+00  0.14999999963E+04  0.15000000000E+04  0.10566000000E+00 0. -1.
        994   -1    0    0    0    0 -0.00000000000E+00 -0.00000000000E+00  0.11368683772E-12  0.17120000000E+03  0.17120000000E+03 0.  0.
         13    1    1    2    0    0 -0.13137546161E+02 -0.26329958251E+01  0.41302839063E+02  0.43421923782E+02  0.10566000000E+00 0. -1.
        994    1    1    2    0    0  0.70549802934E+01 -0.27203563566E+01  0.23590873358E+01  0.17138313330E+03  0.17120000000E+03 0.  0.
        998    1    1    2    0    0  0.60825658678E+01  0.53533521817E+01  0.14563380699E+04  0.14563949429E+04  0.10000000000E+02 0. -1.
</event>
<event>
 5    1  0.1334136E-008  0.3857174E+03  0.7957747E-01  0.3426635E+00
         13   -1    0    0    0    0  0.00000000000E+00  0.00000000000E+00  0.14999999963E+04  0.15000000000E+04  0.10566000000E+00 0.  1.
        994   -1    0    0    0    0 -0.00000000000E+00 -0.00000000000E+00  0.11368683772E-12  0.17120000000E+03  0.17120000000E+03 0.  0.
         13    1    1    2    0    0  0.14127687132E+02  0.89773012403E+00  0.77892866342E+02  0.79168852802E+02  0.10566000000E+00 0.  1.
        994    1    1    2    0    0 -0.11806888055E+02  0.44408380594E+01  0.17966173181E+01  0.17167350256E+03  0.17120000000E+03 0.  0.
        998    1    1    2    0    0 -0.23207990770E+01 -0.53385681834E+01  0.14203105126E+04  0.14203576446E+04  0.10000000000E+02 0.  1.
</event>
<event>
 5    1  0.1334136E-008  0.3828146E+03  0.7957747E-01  0.3438994E+00
         13   -1    0    0    0    0  0.00000000000E+00  0.00000000000E+00  0.14999999963E+04  0.15000000000E+04  0.10566000000E+00 0. -1.
        994   -1    0    0    0    0 -0.00000000000E+00 -0.00000000000E+00  0.11368683772E-12  0.17120000000E+03  0.17120000000E+03 0.  0.
         13    1    1    2    0    0  0.22571946992E+01 -0.15219849911E+02  0.41693572155E+02  0.44442140838E+02  0.10566000000E+00 0. -1.
        994    1    1    2    0    0 -0.37255561355E+01  0.15498412016E+02  0.35610309398E+01  0.17197732840E+03  0.17120000000E+03 0.  0.
        998    1    1    2    0    0  0.14683614362E+01 -0.27856210451E+00  0.14547453932E+04  0.14547805308E+04  0.10000000000E+02 0.  0.
</event>
<event>
 5    1  0.1334136E-008  0.3827146E+03  0.7957747E-01  0.3439423E+00
         13   -1    0    0    0    0  0.00000000000E+00  0.00000000000E+00  0.14999999963E+04  0.15000000000E+04  0.10566000000E+00 0.  1.
        994   -1    0    0    0    0 -0.00000000000E+00 -0.00000000000E+00  0.11368683772E-12  0.17120000000E+03  0.17120000000E+03 0.  0.
         13    1    1    2    0    0 -0.19573344841E+02  0.19057528467E+02  0.16191029463E+03  0.16419884253E+03  0.10566000000E+00 0.  1.
        994    1    1    2    0    0 -0.50339685967E+01  0.46128867753E+01  0.29235282297E+01  0.17136104161E+03  0.17120000000E+03 0.  0.
        998    1    1    2    0    0  0.24607313438E+02 -0.23670415242E+02  0.13351661734E+04  0.13356401159E+04  0.10000000000E+02 0.  1.
</event>
<event>
 5    1  0.1334136E-008  0.3824930E+03  0.7957747E-01  0.3440375E+00
         13   -1    0    0    0    0  0.00000000000E+00  0.00000000000E+00  0.14999999963E+04  0.15000000000E+04  0.10566000000E+00 0. -1.
        994   -1    0    0    0    0 -0.00000000000E+00 -0.00000000000E+00  0.11368683772E-12  0.17120000000E+03  0.17120000000E+03 0.  0.
         13    1    1    2    0    0 -0.10605928503E+02 -0.24019894976E+02  0.11260727544E+03  0.11562807064E+03  0.10566000000E+00 0. -1.
        994    1    1    2    0    0  0.15691435567E+02  0.19796034737E+02  0.49985286594E+01  0.17312576189E+03  0.17120000000E+03 0.  0.
        998    1    1    2    0    0 -0.50855070642E+01  0.42238602393E+01  0.13823941922E+04  0.13824461675E+04  0.10000000000E+02 0. -1.
</event>
<event>
 5    1  0.1334136E-008  0.3855229E+03  0.7957747E-01  0.3427457E+00
         13   -1    0    0    0    0  0.00000000000E+00  0.00000000000E+00  0.14999999963E+04  0.15000000000E+04  0.10566000000E+00 0. -1.
        994   -1    0    0    0    0 -0.00000000000E+00 -0.00000000000E+00  0.11368683772E-12  0.17120000000E+03  0.17120000000E+03 0.  0.
         13    1    1    2    0    0 -0.10209152261E+02 -0.71752726788E+01  0.55712470295E+02  0.57092922840E+02  0.10566000000E+00 0. -1.
        994    1    1    2    0    0  0.63120578521E+01  0.12283492406E+02  0.19971614501E+01  0.17176773537E+03  0.17120000000E+03 0.  0.
        998    1    1    2    0    0  0.38970944093E+01 -0.51082197270E+01  0.14422903645E+04  0.14423393418E+04  0.10000000000E+02 0. -1.
</event>
<event>
 5    1  0.1334136E-008  0.3853948E+03  0.7957747E-01  0.3427999E+00
         13   -1    0    0    0    0  0.00000000000E+00  0.00000000000E+00  0.14999999963E+04  0.15000000000E+04  0.10566000000E+00 0.  1.
        994   -1    0    0    0    0 -0.00000000000E+00 -0.00000000000E+00  0.11368683772E-12  0.17120000000E+03  0.17120000000E+03 0.  0.
         13    1    1    2    0    0 -0.19798824042E+01 -0.14248011116E+02  0.80021840967E+02  0.81304562916E+02  0.10566000000E+00 0.  1.
        994    1    1    2    0    0  0.34227282892E+01 -0.41454958639E+01  0.15291604882E+01  0.17129120975E+03  0.17120000000E+03 0.  0.
        998    1    1    2    0    0 -0.14428458850E+01  0.18393506980E+02  0.14184489948E+04  0.14186042273E+04  0.10000000000E+02 0.  1.
</event>
<event>
 5    1  0.1334136E-008  0.3791279E+03  0.7957747E-01  0.3454965E+00
         13   -1    0    0    0    0  0.00000000000E+00  0.00000000000E+00  0.14999999963E+04  0.15000000000E+04  0.10566000000E+00 0.  1.
        994   -1    0    0    0    0 -0.00000000000E+00 -0.00000000000E+00  0.11368683772E-12  0.17120000000E+03  0.17120000000E+03 0.  0.
         13    1    1    2    0    0 -0.31540596859E+02 -0.86624566800E+02  0.22030498391E+03  0.23881566515E+03  0.10566000000E+00 0.  1.
        994    1    1    2    0    0  0.31978887692E+02  0.89738742696E+02  0.49411285821E+02  0.20205594860E+03  0.17120000000E+03 0.  0.
        998    1    1    2    0    0 -0.43829083283E+00 -0.31141758957E+01  0.12302837266E+04  0.12303283862E+04  0.10000000000E+02 0.  0.
</event>
<event>
 5    1  0.1334136E-008  0.3840831E+03  0.7957747E-01  0.3433570E+00
         13   -1    0    0    0    0  0.00000000000E+00  0.00000000000E+00  0.14999999963E+04  0.15000000000E+04  0.10566000000E+00 0. -1.
        994   -1    0    0    0    0 -0.00000000000E+00 -0.00000000000E+00  0.11368683772E-12  0.17120000000E+03  0.17120000000E+03 0.  0.
         13    1    1    2    0    0  0.14239134820E+02 -0.31901874820E+01  0.49975440795E+02  0.52062329023E+02  0.10566000000E+00 0. -1.
        994    1    1    2    0    0 -0.12301134898E+02  0.80784510012E+00  0.25874524127E+01  0.17166276662E+03  0.17120000000E+03 0.  0.
        998    1    1    2    0    0 -0.19379999211E+01  0.23823423819E+01  0.14474371031E+04  0.14474749044E+04  0.10000000000E+02 0. -1.
</event>
<event>
 5    1  0.1334136E-008  0.3846742E+03  0.7957747E-01  0.3431055E+00
         13   -1    0    0    0    0  0.00000000000E+00  0.00000000000E+00  0.14999999963E+04  0.15000000000E+04  0.10566000000E+00 0. -1.
        994   -1    0    0    0    0 -0.00000000000E+00 -0.00000000000E+00  0.11368683772E-12  0.17120000000E+03  0.17120000000E+03 0.  0.
         13    1    1    2    0    0 -0.17287558828E+02  0.51786524420E+01  0.91994598872E+02  0.93748042737E+02  0.10566000000E+00 0. -1.
        994    1    1    2    0    0  0.83985849881E+01 -0.56560696106E+01  0.21295835230E+01  0.17151239745E+03  0.17120000000E+03 0.  0.
        998    1    1    2    0    0  0.88889738397E+01  0.47741716859E+00  0.14058758139E+04  0.14059395598E+04  0.10000000000E+02 0. -1.
</event>
<event>
 5    1  0.1334136E-008  0.3847785E+03  0.7957747E-01  0.3430612E+00
         13   -1    0    0    0    0  0.00000000000E+00  0.00000000000E+00  0.14999999963E+04  0.15000000000E+04  0.10566000000E+00 0.  1.
        994   -1    0    0    0    0 -0.00000000000E+00 -0.00000000000E+00  0.11368683772E-12  0.17120000000E+03  0.17120000000E+03 0.  0.
         13    1    1    2    0    0  0.25577137879E+01  0.10111474161E+02  0.32840438281E+02  0.34457065459E+02  0.10566000000E+00 0.  1.
        994    1    1    2    0    0  0.36116552246E+01  0.53606166625E+01  0.18776821158E+01  0.17133226770E+03  0.17120000000E+03 0.  0.
        998    1    1    2    0    0 -0.61693690125E+01 -0.15472090824E+02  0.14652818759E+04  0.14654106668E+04  0.10000000000E+02 0.  1.
</event>
<event>
 5    1  0.1334136E-008  0.3770265E+03  0.7957747E-01  0.3464209E+00
         13   -1    0    0    0    0  0.00000000000E+00  0.00000000000E+00  0.14999999963E+04  0.15000000000E+04  0.10566000000E+00 0. -1.
        994   -1    0    0    0    0 -0.00000000000E+00 -0.00000000000E+00  0.11368683772E-12  0.17120000000E+03  0.17120000000E+03 0.  0.
         13    1    1    2    0    0  0.22347406797E+02 -0.83163011162E+02  0.48607468475E+03  0.49364370079E+03  0.10566000000E+00 0. -1.
        994    1    1    2    0    0 -0.25520943449E+02  0.73512466741E+02  0.26366715277E+02  0.18989482614E+03  0.17120000000E+03 0.  0.
        998    1    1    2    0    0  0.31735366522E+01  0.96505444211E+01  0.98755859625E+03  0.98766147306E+03  0.10000000000E+02 0. -1.
</event>
<event>
 5    1  0.1334136E-008  0.3788904E+03  0.7957747E-01  0.3456004E+00
         13   -1    0    0    0    0  0.00000000000E+00  0.00000000000E+00  0.14999999963E+04  0.15000000000E+04  0.10566000000E+00 0. -1.
        994   -1    0    0    0    0 -0.00000000000E+00 -0.00000000000E+00  0.11368683772E-12  0.17120000000E+03  0.17120000000E+03 0.  0.
         13    1    1    2    0    0  0.48608262886E+01 -0.16246353878E+02  0.28395474281E+02  0.33073943977E+02  0.10566000000E+00 0. -1.
        994    1    1    2    0    0 -0.11362044407E+01  0.15898828267E+02  0.55472103613E+01  0.17202986730E+03  0.17120000000E+03 0.  0.
        998    1    1    2    0    0 -0.37246218479E+01  0.34752561064E+00  0.14660573116E+04  0.14660961887E+04  0.10000000000E+02 0. -1.
</event>
<event>
 5    1  0.1334136E-008  0.3716871E+03  0.7957747E-01  0.3488173E+00
         13   -1    0    0    0    0  0.00000000000E+00  0.00000000000E+00  0.14999999963E+04  0.15000000000E+04  0.10566000000E+00 0. -1.
        994   -1    0    0    0    0 -0.00000000000E+00 -0.00000000000E+00  0.11368683772E-12  0.17120000000E+03  0.17120000000E+03 0.  0.
         13    1    1    2    0    0  0.40545676620E+02 -0.44661855030E+02  0.11781674361E+03  0.13236098151E+03  0.10566000000E+00 0. -1.
        994    1    1    2    0    0 -0.65664352661E+02  0.77018399749E+02  0.48786802472E+02  0.20477605623E+03  0.17120000000E+03 0.  0.
        998    1    1    2    0    0  0.25118676042E+02 -0.32356544719E+02  0.13333964502E+04  0.13340629623E+04  0.10000000000E+02 0. -1.
</event>
<event>
 5    1  0.1334136E-008  0.3856614E+03  0.7957747E-01  0.3426872E+00
         13   -1    0    0    0    0  0.00000000000E+00  0.00000000000E+00  0.14999999963E+04  0.15000000000E+04  0.10566000000E+00 0. -1.
        994   -1    0    0    0    0 -0.00000000000E+00 -0.00000000000E+00  0.11368683772E-12  0.17120000000E+03  0.17120000000E+03 0.  0.
         13    1    1    2    0    0 -0.68968876622E+01  0.75544318018E+01  0.37948132209E+02  0.39302778546E+02  0.10566000000E+00 0. -1.
        994    1    1    2    0    0  0.18929826964E+02 -0.78607128115E+01  0.26820466194E+01  0.17244350533E+03  0.17120000000E+03 0.  0.
        998    1    1    2    0    0 -0.12032939302E+02  0.30628100976E+00  0.14593698175E+04  0.14594537161E+04  0.10000000000E+02 0. -1.
</event>
<event>
 5    1  0.1334136E-008  0.3787732E+03  0.7957747E-01  0.3456518E+00
         13   -1    0    0    0    0  0.00000000000E+00  0.00000000000E+00  0.14999999963E+04  0.15000000000E+04  0.10566000000E+00 0. -1.
        994   -1    0    0    0    0 -0.00000000000E+00 -0.00000000000E+00  0.11368683772E-12  0.17120000000E+03  0.17120000000E+03 0.  0.
         13    1    1    2    0    0  0.77769362208E+01 -0.37836182400E+02  0.17331040647E+03  0.17756284969E+03  0.10566000000E+00 0. -1.
        994    1    1    2    0    0  0.55277633891E+01  0.70632844214E+01  0.50237857172E+01  0.17150838049E+03  0.17120000000E+03 0.  0.
        998    1    1    2    0    0 -0.13304699610E+02  0.30772897979E+02  0.13216658041E+04  0.13221287698E+04  0.10000000000E+02 0. -1.
</event>
<event>
 5    1  0.1334136E-008  0.3252129E+03  0.7957747E-01  0.3730989E+00
         13   -1    0    0    0    0  0.00000000000E+00  0.00000000000E+00  0.14999999963E+04  0.15000000000E+04  0.10566000000E+00 0. -1.
        994   -1    0    0    0    0 -0.00000000000E+00 -0.00000000000E+00  0.11368683772E-12  0.17120000000E+03  0.17120000000E+03 0.  0.
         13    1    1    2    0    0 -0.20662205073E+03  0.27027886172E+02  0.85740348709E+03  0.88236269714E+03  0.10566000000E+00 0. -1.
        994    1    1    2    0    0  0.17436547381E+03  0.56114104869E+01  0.13530694995E+03  0.27937826882E+03  0.17120000000E+03 0.  0.
        998    1    1    2    0    0  0.32256576911E+02 -0.32639296659E+02  0.50728955925E+03  0.50945903404E+03  0.10000000000E+02 0.  1.
</event>
<event>
 5    1  0.1334136E-008  0.3796668E+03  0.7957747E-01  0.3452611E+00
         13   -1    0    0    0    0  0.00000000000E+00  0.00000000000E+00  0.14999999963E+04  0.15000000000E+04  0.10566000000E+00 0.  1.
        994   -1    0    0    0    0 -0.00000000000E+00 -0.00000000000E+00  0.11368683772E-12  0.17120000000E+03  0.17120000000E+03 0.  0.
         13    1    1    2    0    0 -0.84750697540E+01  0.88128273854E+01  0.15108535033E+02  0.19436350706E+02  0.10566000000E+00 0.  1.
        994    1    1    2    0    0  0.14830765281E+02 -0.13050424176E+02  0.56085987666E+01  0.17242726452E+03  0.17120000000E+03 0.  0.
        998    1    1    2    0    0 -0.63556955267E+01  0.42375967905E+01  0.14792828625E+04  0.14793363848E+04  0.10000000000E+02 0.  1.
</event>
<event>
 5    1  0.1334136E-008  0.3724999E+03  0.7957747E-01  0.3484480E+00
         13   -1    0    0    0    0  0.00000000000E+00  0.00000000000E+00  0.14999999963E+04  0.15000000000E+04  0.10566000000E+00 0. -1.
        994   -1    0    0    0    0 -0.00000000000E+00 -0.00000000000E+00  0.11368683772E-12  0.17120000000E+03  0.17120000000E+03 0.  0.
         13    1    1    2    0    0 -0.57923105637E+02 -0.42891829830E+02  0.18249995624E+03  0.19621681993E+03  0.10566000000E+00 0. -1.
        994    1    1    2    0    0  0.61430653114E+02  0.39018883671E+02  0.31188635603E+02  0.18862229300E+03  0.17120000000E+03 0.  0.
        998    1    1    2    0    0 -0.35075474774E+01  0.38729461599E+01  0.12863114044E+04  0.12863608871E+04  0.10000000000E+02 0. -1.
</event>
<event>
 5    1  0.1334136E-008  0.3777992E+03  0.7957747E-01  0.3460797E+00
         13   -1    0    0    0    0  0.00000000000E+00  0.00000000000E+00  0.14999999963E+04  0.15000000000E+04  0.10566000000E+00 0. -1.
        994   -1    0    0    0    0 -0.00000000000E+00 -0.00000000000E+00  0.11368683772E-12  0.17120000000E+03  0.17120000000E+03 0.  0.
         13    1    1    2    0    0 -0.16671649361E+01  0.29290792251E+02  0.78958186205E+02  0.84232631933E+02  0.10566000000E+00 0. -1.
        994    1    1    2    0    0  0.10438824534E+02 -0.21175122469E+02  0.71273332972E+01  0.17296703082E+03  0.17120000000E+03 0.  0.
        998    1    1    2    0    0 -0.87716595977E+01 -0.81156697813E+01  0.14139144768E+04  0.14140003373E+04  0.10000000000E+02 0. -1.
</event>
<event>
 5    1  0.1334136E-008  0.3769775E+03  0.7957747E-01  0.3464426E+00
         13   -1    0    0    0    0  0.00000000000E+00  0.00000000000E+00  0.14999999963E+04  0.15000000000E+04  0.10566000000E+00 0. -1.
        994   -1    0    0    0    0 -0.00000000000E+00 -0.00000000000E+00  0.11368683772E-12  0.17120000000E+03  0.17120000000E+03 0.  0.
         13    1    1    2    0    0 -0.40183761198E+02 -0.52427267711E+02  0.33479631225E+03  0.34125054567E+03  0.10566000000E+00 0. -1.
        994    1    1    2    0    0  0.35108763496E+02  0.40439423679E+02  0.15412988754E+02  0.18004158543E+03  0.17120000000E+03 0.  0.
        998    1    1    2    0    0  0.50749977026E+01  0.11987844032E+02  0.11497906953E+04  0.11499078689E+04  0.10000000000E+02 0. -1.
</event>
<event>
 5    1  0.1334136E-008  0.3836787E+03  0.7957747E-01  0.3435295E+00
         13   -1    0    0    0    0  0.00000000000E+00  0.00000000000E+00  0.14999999963E+04  0.15000000000E+04  0.10566000000E+00 0.  1.
        994   -1    0    0    0    0 -0.00000000000E+00 -0.00000000000E+00  0.11368683772E-12  0.17120000000E+03  0.17120000000E+03 0.  0.
         13    1    1    2    0    0  0.16794056163E+02  0.15193582835E+01  0.59969640278E+02  0.62295406662E+02  0.10566000000E+00 0.  1.
        994    1    1    2    0    0 -0.15875707203E+02 -0.39665424300E+01  0.31724608959E+01  0.17200952313E+03  0.17120000000E+03 0.  0.
        998    1    1    2    0    0 -0.91834895965E+00  0.24471841465E+01  0.14368578951E+04  0.14368950702E+04  0.10000000000E+02 0.  1.
</event>
<event>
 5    1  0.1334136E-008  0.3825526E+03  0.7957747E-01  0.3440118E+00
         13   -1    0    0    0    0  0.00000000000E+00  0.00000000000E+00  0.14999999963E+04  0.15000000000E+04  0.10566000000E+00 0.  1.
        994   -1    0    0    0    0 -0.00000000000E+00 -0.00000000000E+00  0.11368683772E-12  0.17120000000E+03  0.17120000000E+03 0.  0.
         13    1    1    2    0    0 -0.69401307454E+02 -0.27515778627E+03  0.10284280457E+04  0.10668610993E+04  0.10566000000E+00 0.  1.
        994    1    1    2    0    0  0.75135496554E+02  0.27689708276E+03  0.35616424702E+03  0.48834388307E+03  0.17120000000E+03 0.  0.
        998    1    1    2    0    0 -0.57341891000E+01 -0.17392964903E+01  0.11540770353E+03  0.11599501761E+03  0.10000000000E+02 0.  0.
</event>
<event>
 5    1  0.1334136E-008  0.3855934E+03  0.7957747E-01  0.3427160E+00
         13   -1    0    0    0    0  0.00000000000E+00  0.00000000000E+00  0.14999999963E+04  0.15000000000E+04  0.10566000000E+00 0. -1.
        994   -1    0    0    0    0 -0.00000000000E+00 -0.00000000000E+00  0.11368683772E-12  0.17120000000E+03  0.17120000000E+03 0.  0.
         13    1    1    2    0    0 -0.96007420368E+01  0.30302911854E+01  0.37034770363E+02  0.38378930316E+02  0.10566000000E+00 0. -1.
        994    1    1    2    0    0  0.11685231746E+02 -0.31448532015E+01  0.18166194345E+01  0.17163675262E+03  0.17120000000E+03 0.  0.
        998    1    1    2    0    0 -0.20844897091E+01  0.11456201606E+00  0.14611486065E+04  0.14611843171E+04  0.10000000000E+02 0. -1.
</event>
<event>
 5    1  0.1334136E-008  0.3789838E+03  0.7957747E-01  0.3455595E+00
         13   -1    0    0    0    0  0.00000000000E+00  0.00000000000E+00  0.14999999963E+04  0.15000000000E+04  0.10566000000E+00 0. -1.
        994   -1    0    0    0    0 -0.00000000000E+00 -0.00000000000E+00  0.11368683772E-12  0.17120000000E+03  0.17120000000E+03 0.  0.
         13    1    1    2    0    0 -0.16724004803E+02  0.21209475195E+01  0.19182769525E+01  0.16967077106E+02  0.10566000000E+00 0. -1.
        994    1    1    2    0    0  0.11257841508E+02 -0.11234619431E+01  0.16232552418E+02  0.17233959766E+03  0.17120000000E+03 0.  0.
        998    1    1    2    0    0  0.54661632942E+01 -0.99748557641E+00  0.14818491669E+04  0.14818933252E+04  0.10000000000E+02 0. -1.
</event>
<event>
 5    1  0.1334136E-008  0.3817355E+03  0.7957747E-01  0.3443636E+00
         13   -1    0    0    0    0  0.00000000000E+00  0.00000000000E+00  0.14999999963E+04  0.15000000000E+04  0.10566000000E+00 0.  1.
        994   -1    0    0    0    0 -0.00000000000E+00 -0.00000000000E+00  0.11368683772E-12  0.17120000000E+03  0.17120000000E+03 0.  0.
         13    1    1    2    0    0  0.76052813399E+02 -0.15166732311E+02  0.44252999247E+03  0.44927370900E+03  0.10566000000E+00 0.  1.
        994    1    1    2    0    0 -0.10434177612E+03  0.23131295396E+02  0.42204912903E+02  0.20618670603E+03  0.17120000000E+03 0.  0.
        998    1    1    2    0    0  0.28288962716E+02 -0.79645630843E+01  0.10152650909E+04  0.10157395850E+04  0.10000000000E+02 0. -1.
</event>
<event>
 5    1  0.1334136E-008  0.3852475E+03  0.7957747E-01  0.3428623E+00
         13   -1    0    0    0    0  0.00000000000E+00  0.00000000000E+00  0.14999999963E+04  0.15000000000E+04  0.10566000000E+00 0.  1.
        994   -1    0    0    0    0 -0.00000000000E+00 -0.00000000000E+00  0.11368683772E-12  0.17120000000E+03  0.17120000000E+03 0.  0.
         13    1    1    2    0    0 -0.11187494623E+02  0.10364039424E+02  0.76918747317E+02  0.78416058317E+02  0.10566000000E+00 0.  1.
        994    1    1    2    0    0  0.10858045473E+02 -0.41413939848E+01  0.19512080882E+01  0.17160505677E+03  0.17120000000E+03 0.  0.
        998    1    1    2    0    0  0.32944914970E+00 -0.62226454387E+01  0.14211300409E+04  0.14211788849E+04  0.10000000000E+02 0.  1.
</event>
<event>
 5    1  0.1334136E-008  0.4239248E+03  0.7957747E-01  0.3279691E+00
         13   -1    0    0    0    0  0.00000000000E+00  0.00000000000E+00  0.14999999963E+04  0.15000000000E+04  0.10566000000E+00 0. -1.
        994   -1    0    0    0    0 -0.00000000000E+00 -0.00000000000E+00  0.11368683772E-12  0.17120000000E+03  0.17120000000E+03 0.  0.
         13    1    1    2    0    0  0.12280657081E+03  0.53105444067E+02  0.16674915195E+03  0.21379179793E+03  0.10566000000E+00 0. -1.
        994    1    1    2    0    0 -0.13590710778E+03 -0.38348110028E+02  0.13669084449E+03  0.26064371555E+03  0.17120000000E+03 0.  0.
        998    1    1    2    0    0  0.13100536962E+02 -0.14757334039E+02  0.11965599998E+04  0.11967644865E+04  0.10000000000E+02 0. -1.
</event>
<event>
 5    1  0.1334136E-008  0.3788192E+03  0.7957747E-01  0.3456316E+00
         13   -1    0    0    0    0  0.00000000000E+00  0.00000000000E+00  0.14999999963E+04  0.15000000000E+04  0.10566000000E+00 0. -1.
        994   -1    0    0    0    0 -0.00000000000E+00 -0.00000000000E+00  0.11368683772E-12  0.17120000000E+03  0.17120000000E+03 0.  0.
         13    1    1    2    0    0 -0.25625054604E+01  0.34655080356E+02  0.16715128697E+03  0.17072523225E+03  0.10566000000E+00 0. -1.
        994    1    1    2    0    0  0.26543582027E+02  0.23247498182E+02  0.89199753559E+01  0.17502575204E+03  0.17120000000E+03 0.  0.
        998    1    1    2    0    0 -0.23981076566E+02 -0.57902578538E+02  0.13239287340E+04  0.13254490157E+04  0.10000000000E+02 0. -1.
</event>
<event>
 5    1  0.1334136E-008  0.3835257E+03  0.7957747E-01  0.3435949E+00
         13   -1    0    0    0    0  0.00000000000E+00  0.00000000000E+00  0.14999999963E+04  0.15000000000E+04  0.10566000000E+00 0.  1.
        994   -1    0    0    0    0 -0.00000000000E+00 -0.00000000000E+00  0.11368683772E-12  0.17120000000E+03  0.17120000000E+03 0.  0.
         13    1    1    2    0    0  0.20733165007E+02 -0.85135978210E+00  0.92120961031E+02  0.94429188126E+02  0.10566000000E+00 0.  1.
        994    1    1    2    0    0 -0.10616377343E+02 -0.71537421818E+01  0.29055880445E+01  0.17170255076E+03  0.17120000000E+03 0.  0.
        998    1    1    2    0    0 -0.10116787664E+02  0.80051019639E+01  0.14049734472E+04  0.14050682611E+04  0.10000000000E+02 0.  1.
</event>
<event>
 5    1  0.1334136E-008  0.3835594E+03  0.7957747E-01  0.3435805E+00
         13   -1    0    0    0    0  0.00000000000E+00  0.00000000000E+00  0.14999999963E+04  0.15000000000E+04  0.10566000000E+00 0.  1.
        994   -1    0    0    0    0 -0.00000000000E+00 -0.00000000000E+00  0.11368683772E-12  0.17120000000E+03  0.17120000000E+03 0.  0.
         13    1    1    2    0    0  0.12771571559E+02  0.84476476298E+01  0.50484603712E+02  0.52755873289E+02  0.10566000000E+00 0.  1.
        994    1    1    2    0    0  0.17851373688E+01 -0.12463441398E+02  0.28709970987E+01  0.17168636146E+03  0.17120000000E+03 0.  0.
        998    1    1    2    0    0 -0.14556708928E+02  0.40157937680E+01  0.14466443955E+04  0.14467577653E+04  0.10000000000E+02 0.  1.
</event>
<event>
 5    1  0.1334136E-008  0.3789611E+03  0.7957747E-01  0.3455695E+00
         13   -1    0    0    0    0  0.00000000000E+00  0.00000000000E+00  0.14999999963E+04  0.15000000000E+04  0.10566000000E+00 0.  1.
        994   -1    0    0    0    0 -0.00000000000E+00 -0.00000000000E+00  0.11368683772E-12  0.17120000000E+03  0.17120000000E+03 0.  0.
         13    1    1    2    0    0  0.18749148796E+02  0.12008307819E+02  0.53954383225E+02  0.58367942147E+02  0.10566000000E+00 0.  1.
        994    1    1    2    0    0  0.61433399645E+01 -0.12684639409E+02  0.53251226204E+01  0.17186168169E+03  0.17120000000E+03 0.  0.
        998    1    1    2    0    0 -0.24892488761E+02  0.67633158923E+00  0.14407204904E+04  0.14409703762E+04  0.10000000000E+02 0.  1.
</event>
<event>
 5    1  0.1334136E-008  0.3775651E+03  0.7957747E-01  0.3461830E+00
         13   -1    0    0    0    0  0.00000000000E+00  0.00000000000E+00  0.14999999963E+04  0.15000000000E+04  0.10566000000E+00 0.  1.
        994   -1    0    0    0    0 -0.00000000000E+00 -0.00000000000E+00  0.11368683772E-12  0.17120000000E+03  0.17120000000E+03 0.  0.
         13    1    1    2    0    0 -0.64280164485E+01  0.19211880218E+02  0.37256043067E+02  0.42408013937E+02  0.10566000000E+00 0.  1.
        994    1    1    2    0    0 -0.59322227715E+01 -0.53005186066E+01  0.55806682118E+01  0.17147556859E+03  0.17120000000E+03 0.  0.
        998    1    1    2    0    0  0.12360239220E+02 -0.13911361612E+02  0.14571632850E+04  0.14573164175E+04  0.10000000000E+02 0.  1.
</event>
<event>
 5    1  0.1334136E-008  0.3820823E+03  0.7957747E-01  0.3442141E+00
         13   -1    0    0    0    0  0.00000000000E+00  0.00000000000E+00  0.14999999963E+04  0.15000000000E+04  0.10566000000E+00 0.  1.
        994   -1    0    0    0    0 -0.00000000000E+00 -0.00000000000E+00  0.11368683772E-12  0.17120000000E+03  0.17120000000E+03 0.  0.
         13    1    1    2    0    0  0.82173623123E+01  0.69299890683E+01  0.17482696104E+02  0.20523294545E+02  0.10566000000E+00 0.  1.
        994    1    1    2    0    0 -0.88135923501E+01 -0.13776668560E+01  0.33499177220E+01  0.17146497988E+03  0.17120000000E+03 0.  0.
        998    1    1    2    0    0  0.59623003771E+00 -0.55523222123E+01  0.14791673825E+04  0.14792117256E+04  0.10000000000E+02 0.  1.
</event>
<event>
 5    1  0.1334136E-008  0.3839128E+03  0.7957747E-01  0.3434296E+00
         13   -1    0    0    0    0  0.00000000000E+00  0.00000000000E+00  0.14999999963E+04  0.15000000000E+04  0.10566000000E+00 0.  1.
        994   -1    0    0    0    0 -0.00000000000E+00 -0.00000000000E+00  0.11368683772E-12  0.17120000000E+03  0.17120000000E+03 0.  0.
         13    1    1    2    0    0 -0.14353105663E+02 -0.18399856486E+02  0.13677400544E+03  0.13875051744E+03  0.10566000000E+00 0.  1.
        994    1    1    2    0    0  0.11267757673E+02 -0.43139623821E+01  0.26514388311E+01  0.17164510702E+03  0.17120000000E+03 0.  0.
        998    1    1    2    0    0  0.30853479904E+01  0.22713818868E+02  0.13605745520E+04  0.13608043755E+04  0.10000000000E+02 0.  1.
</event>
<event>
 5    1  0.1334136E-008  0.3843165E+03  0.7957747E-01  0.3432576E+00
         13   -1    0    0    0    0  0.00000000000E+00  0.00000000000E+00  0.14999999963E+04  0.15000000000E+04  0.10566000000E+00 0. -1.
        994   -1    0    0    0    0 -0.00000000000E+00 -0.00000000000E+00  0.11368683772E-12  0.17120000000E+03  0.17120000000E+03 0.  0.
         13    1    1    2    0    0 -0.71237136100E+01 -0.89250610655E+01  0.32931131005E+02  0.34855050767E+02  0.10566000000E+00 0. -1.
        994    1    1    2    0    0  0.12870697187E+01  0.62248913291E+01  0.21030357600E+01  0.17133087457E+03  0.17120000000E+03 0.  0.
        998    1    1    2    0    0  0.58366438913E+01  0.27001697364E+01  0.14649658295E+04  0.14650140747E+04  0.10000000000E+02 0. -1.
</event>
<event>
 5    1  0.1334136E-008  0.3905394E+03  0.7957747E-01  0.3406513E+00
         13   -1    0    0    0    0  0.00000000000E+00  0.00000000000E+00  0.14999999963E+04  0.15000000000E+04  0.10566000000E+00 0. -1.
        994   -1    0    0    0    0 -0.00000000000E+00 -0.00000000000E+00  0.11368683772E-12  0.17120000000E+03  0.17120000000E+03 0.  0.
         13    1    1    2    0    0  0.77659783877E+01 -0.93542624908E+01 -0.68593700196E+01  0.13959755305E+02  0.10566000000E+00 0. -1.
        994    1    1    2    0    0  0.80129970244E+01  0.19055247767E+02  0.23854010565E+02  0.17408550890E+03  0.17120000000E+03 0.  0.
        998    1    1    2    0    0 -0.15778975412E+02 -0.97009852763E+01  0.14830053557E+04  0.14831547358E+04  0.10000000000E+02 0. -1.
</event>
<event>
 5    1  0.1334136E-008  0.3877352E+03  0.7957747E-01  0.3418154E+00
         13   -1    0    0    0    0  0.00000000000E+00  0.00000000000E+00  0.14999999963E+04  0.15000000000E+04  0.10566000000E+00 0. -1.
        994   -1    0    0    0    0 -0.00000000000E+00 -0.00000000000E+00  0.11368683772E-12  0.17120000000E+03  0.17120000000E+03 0.  0.
         13    1    1    2    0    0  0.54498314157E+02  0.58908226419E+02  0.18526205928E+03  0.20189672400E+03  0.10566000000E+00 0. -1.
        994    1    1    2    0    0 -0.28824727332E+02  0.31569412847E+02  0.27489605340E+02  0.17858502495E+03  0.17120000000E+03 0.  0.
        998    1    1    2    0    0 -0.25673586825E+02 -0.90477639266E+02  0.12872483317E+04  0.12907182511E+04  0.10000000000E+02 0. -1.
</event>
<event>
 5    1  0.1334136E-008  0.3056639E+03  0.7957747E-01  0.3856396E+00
         13   -1    0    0    0    0  0.00000000000E+00  0.00000000000E+00  0.14999999963E+04  0.15000000000E+04  0.10566000000E+00 0. -1.
        994   -1    0    0    0    0 -0.00000000000E+00 -0.00000000000E+00  0.11368683772E-12  0.17120000000E+03  0.17120000000E+03 0.  0.
         13    1    1    2    0    0  0.15046959536E+03  0.36792031190E+02  0.85604096978E+03  0.86994304744E+03  0.10566000000E+00 0. -1.
        994    1    1    2    0    0 -0.70355164747E+02  0.85882338298E+01  0.39130586316E+02  0.18937858842E+03  0.17120000000E+03 0.  0.
        998    1    1    2    0    0 -0.80114430611E+02 -0.45380265020E+02  0.60482844018E+03  0.61187836414E+03  0.10000000000E+02 0. -1.
</event>
<event>
 5    1  0.1334136E-008  0.3829886E+03  0.7957747E-01  0.3438248E+00
         13   -1    0    0    0    0  0.00000000000E+00  0.00000000000E+00  0.14999999963E+04  0.15000000000E+04  0.10566000000E+00 0.  1.
        994   -1    0    0    0    0 -0.00000000000E+00 -0.00000000000E+00  0.11368683772E-12  0.17120000000E+03  0.17120000000E+03 0.  0.
         13    1    1    2    0    0 -0.10263305316E+02  0.14621141755E+02  0.61842767605E+02  0.64371207006E+02  0.10566000000E+00 0.  1.
        994    1    1    2    0    0  0.76584394980E+01 -0.82147474592E+00  0.28284872376E+01  0.17139651938E+03  0.17120000000E+03 0.  0.
        998    1    1    2    0    0  0.26048658181E+01 -0.13799667010E+02  0.14353287414E+04  0.14354322736E+04  0.10000000000E+02 0.  1.
</event>
<event>
 5    1  0.1334136E-008  0.3801460E+03  0.7957747E-01  0.3450523E+00
         13   -1    0    0    0    0  0.00000000000E+00  0.00000000000E+00  0.14999999963E+04  0.15000000000E+04  0.10566000000E+00 0. -1.
        994   -1    0    0    0    0 -0.00000000000E+00 -0.00000000000E+00  0.11368683772E-12  0.17120000000E+03  0.17120000000E+03 0.  0.
         13    1    1    2    0    0  0.11923461841E+02  0.21528123087E+02  0.71062882714E+02  0.75203547055E+02  0.10566000000E+00 0. -1.
        994    1    1    2    0    0 -0.55950904546E+01 -0.22135531464E+02  0.58031988162E+01  0.17281320524E+03  0.17120000000E+03 0.  0.
        998    1    1    2    0    0 -0.63283713868E+01  0.60740837788E+00  0.14231339147E+04  0.14231832477E+04  0.10000000000E+02 0. -1.
</event>
<event>
 5    1  0.1334136E-008  0.3757487E+03  0.7957747E-01  0.3469881E+00
         13   -1    0    0    0    0  0.00000000000E+00  0.00000000000E+00  0.14999999963E+04  0.15000000000E+04  0.10566000000E+00 0. -1.
        994   -1    0    0    0    0 -0.00000000000E+00 -0.00000000000E+00  0.11368683772E-12  0.17120000000E+03  0.17120000000E+03 0.  0.
         13    1    1    2    0    0 -0.68323844741E+02  0.19290766077E+02  0.34257987009E+03  0.34985891438E+03  0.10566000000E+00 0. -1.
        994    1    1    2    0    0  0.49762992736E+02 -0.45775913194E+02  0.21957077115E+02  0.18537352268E+03  0.17120000000E+03 0.  0.
        998    1    1    2    0    0  0.18560852005E+02  0.26485147117E+02  0.11354630491E+04  0.11359675629E+04  0.10000000000E+02 0. -1.
</event>
<event>
 5    1  0.1334136E-008  0.3841665E+03  0.7957747E-01  0.3433215E+00
         13   -1    0    0    0    0  0.00000000000E+00  0.00000000000E+00  0.14999999963E+04  0.15000000000E+04  0.10566000000E+00 0.  1.
        994   -1    0    0    0    0 -0.00000000000E+00 -0.00000000000E+00  0.11368683772E-12  0.17120000000E+03  0.17120000000E+03 0.  0.
         13    1    1    2    0    0  0.13871515401E+02  0.51854894265E+01  0.52844375538E+02  0.54880300930E+02  0.10566000000E+00 0.  1.
        994    1    1    2    0    0 -0.11560692767E+02 -0.11773674612E+01  0.24899307362E+01  0.17161199132E+03  0.17120000000E+03 0.  0.
        998    1    1    2    0    0 -0.23108226332E+01 -0.40081219654E+01  0.14446656900E+04  0.14447077077E+04  0.10000000000E+02 0.  1.
</event>
<event>
 5    1  0.1334136E-008  0.3781792E+03  0.7957747E-01  0.3459125E+00
         13   -1    0    0    0    0  0.00000000000E+00  0.00000000000E+00  0.14999999963E+04  0.15000000000E+04  0.10566000000E+00 0. -1.
        994   -1    0    0    0    0 -0.00000000000E+00 -0.00000000000E+00  0.11368683772E-12  0.17120000000E+03  0.17120000000E+03 0.  0.
         13    1    1    2    0    0  0.42530964968E+02  0.14589523847E+02  0.22384311031E+03  0.22831444629E+03  0.10566000000E+00 0. -1.
        994    1    1    2    0    0 -0.10129607301E+02  0.73431489029E+00  0.54020810222E+01  0.17158604443E+03  0.17120000000E+03 0.  0.
        998    1    1    2    0    0 -0.32401357667E+02 -0.15323838737E+02  0.12707548049E+04  0.12712995093E+04  0.10000000000E+02 0. -1.
</event>
<event>
 5    1  0.1334136E-008  0.3802996E+03  0.7957747E-01  0.3449855E+00
         13   -1    0    0    0    0  0.00000000000E+00  0.00000000000E+00  0.14999999963E+04  0.15000000000E+04  0.10566000000E+00 0. -1.
        994   -1    0    0    0    0 -0.00000000000E+00 -0.00000000000E+00  0.11368683772E-12  0.17120000000E+03  0.17120000000E+03 0.  0.
         13    1    1    2    0    0  0.13787799371E+02 -0.62275782204E+00  0.22473202812E+02  0.26373229750E+02  0.10566000000E+00 0. -1.
        994    1    1    2    0    0 -0.63785429968E+01  0.69901358941E+01  0.42811201207E+01  0.17151476846E+03  0.17120000000E+03 0.  0.
        998    1    1    2    0    0 -0.74092563740E+01 -0.63673780720E+01  0.14732456733E+04  0.14733120018E+04  0.10000000000E+02 0. -1.
</event>
<event>
 5    1  0.1334136E-008  0.3862334E+03  0.7957747E-01  0.3424458E+00
         13   -1    0    0    0    0  0.00000000000E+00  0.00000000000E+00  0.14999999963E+04  0.15000000000E+04  0.10566000000E+00 0. -1.
        994   -1    0    0    0    0 -0.00000000000E+00 -0.00000000000E+00  0.11368683772E-12  0.17120000000E+03  0.17120000000E+03 0.  0.
         13    1    1    2    0    0  0.53072171407E+01 -0.95786962412E+01  0.66145831994E+02  0.67046254405E+02  0.10566000000E+00 0. -1.
        994    1    1    2    0    0 -0.20453398121E+01 -0.68346415866E+01  0.11857274777E+01  0.17135268218E+03  0.17120000000E+03 0.  0.
        998    1    1    2    0    0 -0.32618773286E+01  0.16413337828E+02  0.14326684368E+04  0.14328010634E+04  0.10000000000E+02 0. -1.
</event>
<event>
 5    1  0.1334136E-008  0.3685114E+03  0.7957747E-01  0.3502760E+00
         13   -1    0    0    0    0  0.00000000000E+00  0.00000000000E+00  0.14999999963E+04  0.15000000000E+04  0.10566000000E+00 0.  1.
        994   -1    0    0    0    0 -0.00000000000E+00 -0.00000000000E+00  0.11368683772E-12  0.17120000000E+03  0.17120000000E+03 0.  0.
         13    1    1    2    0    0 -0.13827803827E+02 -0.55886580948E+00  0.47181225551E+01  0.14621639243E+02  0.10566000000E+00 0.  1.
        994    1    1    2    0    0  0.15514076406E+02 -0.15517355128E+01  0.10999717199E+02  0.17226005988E+03  0.17120000000E+03 0.  0.
        998    1    1    2    0    0 -0.16862725790E+01  0.21106013223E+01  0.14842821565E+04  0.14843183009E+04  0.10000000000E+02 0.  1.
</event>
<event>
 5    1  0.1334136E-008  0.3830495E+03  0.7957747E-01  0.3437987E+00
         13   -1    0    0    0    0  0.00000000000E+00  0.00000000000E+00  0.14999999963E+04  0.15000000000E+04  0.10566000000E+00 0. -1.
        994   -1    0    0    0    0 -0.00000000000E+00 -0.00000000000E+00  0.11368683772E-12  0.17120000000E+03  0.17120000000E+03 0.  0.
         13    1    1    2    0    0 -0.32524372119E+02 -0.13854505232E+01  0.18662909898E+03  0.18944705330E+03  0.10566000000E+00 0. -1.
        994    1    1    2    0    0  0.28763660098E+02 -0.51168162390E+00  0.53454962047E+01  0.17368253882E+03  0.17120000000E+03 0.  0.
        998    1    1    2    0    0  0.37607120206E+01  0.18971321471E+01  0.13080254011E+04  0.13080704079E+04  0.10000000000E+02 0. -1.
</event>
<event>
 5    1  0.1334136E-008  0.3840018E+03  0.7957747E-01  0.3433917E+00
         13   -1    0    0    0    0  0.00000000000E+00  0.00000000000E+00  0.14999999963E+04  0.15000000000E+04  0.10566000000E+00 0.  1.
        994   -1    0    0    0    0 -0.00000000000E+00 -0.00000000000E+00  0.11368683772E-12  0.17120000000E+03  0.17120000000E+03 0.  0.
         13    1    1    2    0    0  0.25882252899E+01 -0.16379789664E+02  0.65449940834E+02  0.67518163029E+02  0.10566000000E+00 0.  1.
        994    1    1    2    0    0 -0.13425377259E+01  0.73437647288E+01  0.23104433669E+01  0.17137827002E+03  0.17120000000E+03 0.  0.
        998    1    1    2    0    0 -0.12456875640E+01  0.90360249353E+01  0.14322396121E+04  0.14323035669E+04  0.10000000000E+02 0.  1.
</event>
<event>
 5    1  0.1334136E-008  0.3859276E+03  0.7957747E-01  0.3425748E+00
         13   -1    0    0    0    0  0.00000000000E+00  0.00000000000E+00  0.14999999963E+04  0.15000000000E+04  0.10566000000E+00 0. -1.
        994   -1    0    0    0    0 -0.00000000000E+00 -0.00000000000E+00  0.11368683772E-12  0.17120000000E+03  0.17120000000E+03 0.  0.
         13    1    1    2    0    0  0.41536870754E+01  0.94500675389E+01  0.45096507513E+02  0.46262977062E+02  0.10566000000E+00 0. -1.
        994    1    1    2    0    0 -0.37943796834E+01 -0.94136494506E+01  0.15081385646E+01  0.17150722607E+03  0.17120000000E+03 0.  0.
        998    1    1    2    0    0 -0.35930739198E+00 -0.36418088309E-01  0.14533953502E+04  0.14534297969E+04  0.10000000000E+02 0.  0.
</event>
<event>
 5    1  0.1334136E-008  0.2299799E+03  0.7957747E-01  0.4571320E+00
         13   -1    0    0    0    0  0.00000000000E+00  0.00000000000E+00  0.14999999963E+04  0.15000000000E+04  0.10566000000E+00 0. -1.
        994   -1    0    0    0    0 -0.00000000000E+00 -0.00000000000E+00  0.11368683772E-12  0.17120000000E+03  0.17120000000E+03 0.  0.
         13    1    1    2    0    0  0.34912088426E+02  0.15940149457E+03  0.20034993097E+03  0.25839465241E+03  0.10566000000E+00 0. -1.
        994    1    1    2    0    0 -0.21587809411E+02 -0.12806470275E+03  0.14872548882E+03  0.26133371890E+03  0.17120000000E+03 0.  0.
        998    1    1    2    0    0 -0.13324279015E+02 -0.31336791817E+02  0.11509245765E+04  0.11514716287E+04  0.10000000000E+02 0. -1.
</event>
<event>
 5    1  0.1334136E-008  0.3835543E+03  0.7957747E-01  0.3435827E+00
         13   -1    0    0    0    0  0.00000000000E+00  0.00000000000E+00  0.14999999963E+04  0.15000000000E+04  0.10566000000E+00 0.  1.
        994   -1    0    0    0    0 -0.00000000000E+00 -0.00000000000E+00  0.11368683772E-12  0.17120000000E+03  0.17120000000E+03 0.  0.
         13    1    1    2    0    0  0.81571021943E+01  0.17385673458E+02  0.25772224685E+01  0.19376614706E+02  0.10566000000E+00 0.  1.
        994    1    1    2    0    0 -0.22621541945E+02  0.51264610794E+02  0.29912925165E+02  0.18260344348E+03  0.17120000000E+03 0.  0.
        998    1    1    2    0    0  0.14464439751E+02 -0.68650284252E+02  0.14675098486E+04  0.14692199418E+04  0.10000000000E+02 0.  1.
</event>
<event>
 5    1  0.1334136E-008  0.3837430E+03  0.7957747E-01  0.3435021E+00
         13   -1    0    0    0    0  0.00000000000E+00  0.00000000000E+00  0.14999999963E+04  0.15000000000E+04  0.10566000000E+00 0. -1.
        994   -1    0    0    0    0 -0.00000000000E+00 -0.00000000000E+00  0.11368683772E-12  0.17120000000E+03  0.17120000000E+03 0.  0.
         13    1    1    2    0    0  0.21430332196E+02  0.17551741259E+02  0.16104461596E+03  0.16340961493E+03  0.10566000000E+00 0. -1.
        994    1    1    2    0    0 -0.17999481400E+02 -0.13578276329E+02  0.39359063109E+01  0.17272313764E+03  0.17120000000E+03 0.  0.
        998    1    1    2    0    0 -0.34308507957E+01 -0.39734649298E+01  0.13350194740E+04  0.13350672474E+04  0.10000000000E+02 0. -1.
</event>
<event>
 5    1  0.1334136E-008  0.3818483E+03  0.7957747E-01  0.3443150E+00
         13   -1    0    0    0    0  0.00000000000E+00  0.00000000000E+00  0.14999999963E+04  0.15000000000E+04  0.10566000000E+00 0. -1.
        994   -1    0    0    0    0 -0.00000000000E+00 -0.00000000000E+00  0.11368683772E-12  0.17120000000E+03  0.17120000000E+03 0.  0.
         13    1    1    2    0    0 -0.13831039151E+02 -0.92694340508E+00  0.28167884504E+02  0.31394231151E+02  0.10566000000E+00 0. -1.
        994    1    1    2    0    0  0.15870129980E+02  0.51404763005E+01  0.41282348425E+01  0.17206036105E+03  0.17120000000E+03 0.  0.
        998    1    1    2    0    0 -0.20390908287E+01 -0.42135328954E+01  0.14677038769E+04  0.14677454078E+04  0.10000000000E+02 0. -1.
</event>
<event>
 5    1  0.1334136E-008  0.3752703E+03  0.7957747E-01  0.3472015E+00
         13   -1    0    0    0    0  0.00000000000E+00  0.00000000000E+00  0.14999999963E+04  0.15000000000E+04  0.10566000000E+00 0.  1.
        994   -1    0    0    0    0 -0.00000000000E+00 -0.00000000000E+00  0.11368683772E-12  0.17120000000E+03  0.17120000000E+03 0.  0.
         13    1    1    2    0    0 -0.33595034114E+02 -0.19060806623E+02  0.10380741695E+03  0.11076069539E+03  0.10566000000E+00 0.  1.
        994    1    1    2    0    0  0.35272124739E+02  0.20114343691E+02  0.12159776831E+02  0.17636895923E+03  0.17120000000E+03 0.  0.
        998    1    1    2    0    0 -0.16770906245E+01 -0.10535370679E+01  0.13840328025E+04  0.13840703454E+04  0.10000000000E+02 0.  1.
</event>
<event>
 5    1  0.1334136E-008  0.3845352E+03  0.7957747E-01  0.3431646E+00
         13   -1    0    0    0    0  0.00000000000E+00  0.00000000000E+00  0.14999999963E+04  0.15000000000E+04  0.10566000000E+00 0. -1.
        994   -1    0    0    0    0 -0.00000000000E+00 -0.00000000000E+00  0.11368683772E-12  0.17120000000E+03  0.17120000000E+03 0.  0.
         13    1    1    2    0    0  0.17342591485E+02  0.14881199531E+01  0.81232521619E+02  0.83076553329E+02  0.10566000000E+00 0. -1.
        994    1    1    2    0    0 -0.10978015059E+02 -0.27600386621E+01  0.22832034805E+01  0.17158900794E+03  0.17120000000E+03 0.  0.
        998    1    1    2    0    0 -0.63645764258E+01  0.12719187089E+01  0.14164842712E+04  0.14165344387E+04  0.10000000000E+02 0. -1.
</event>
<event>
 5    1  0.1334136E-008  0.3853706E+03  0.7957747E-01  0.3428102E+00
         13   -1    0    0    0    0  0.00000000000E+00  0.00000000000E+00  0.14999999963E+04  0.15000000000E+04  0.10566000000E+00 0.  1.
        994   -1    0    0    0    0 -0.00000000000E+00 -0.00000000000E+00  0.11368683772E-12  0.17120000000E+03  0.17120000000E+03 0.  0.
         13    1    1    2    0    0  0.10471908243E+02  0.10034034361E+02  0.66973564068E+02  0.68525996205E+02  0.10566000000E+00 0.  1.
        994    1    1    2    0    0 -0.30194917822E+02 -0.16095265244E+01  0.44553146669E+01  0.17390691035E+03  0.17120000000E+03 0.  0.
        998    1    1    2    0    0  0.19723009579E+02 -0.84245078368E+01  0.14285711175E+04  0.14287670934E+04  0.10000000000E+02 0.  1.
</event>
<event>
 5    1  0.1334136E-008  0.3845346E+03  0.7957747E-01  0.3431649E+00
         13   -1    0    0    0    0  0.00000000000E+00  0.00000000000E+00  0.14999999963E+04  0.15000000000E+04  0.10566000000E+00 0.  1.
        994   -1    0    0    0    0 -0.00000000000E+00 -0.00000000000E+00  0.11368683772E-12  0.17120000000E+03  0.17120000000E+03 0.  0.
         13    1    1    2    0    0 -0.16528215000E+02  0.63034780743E+01  0.94302998633E+02  0.95947811034E+02  0.10566000000E+00 0.  1.
        994    1    1    2    0    0  0.28962139241E+02  0.66450809480E+02  0.19363785509E+02  0.18691953290E+03  0.17120000000E+03 0.  0.
        998    1    1    2    0    0 -0.12433924241E+02 -0.72754287554E+02  0.13863332121E+04  0.13883326561E+04  0.10000000000E+02 0.  1.
</event>
<event>
 5    1  0.1334136E-008  0.3817074E+03  0.7957747E-01  0.3443757E+00
         13   -1    0    0    0    0  0.00000000000E+00  0.00000000000E+00  0.14999999963E+04  0.15000000000E+04  0.10566000000E+00 0. -1.
        994   -1    0    0    0    0 -0.00000000000E+00 -0.00000000000E+00  0.11368683772E-12  0.17120000000E+03  0.17120000000E+03 0.  0.
         13    1    1    2    0    0  0.67164057460E+00  0.30223375323E+02  0.12694401826E+03  0.13049405524E+03  0.10566000000E+00 0. -1.
        994    1    1    2    0    0  0.31009471436E+02 -0.33675544439E+02  0.10271460284E+02  0.17751217566E+03  0.17120000000E+03 0.  0.
        998    1    1    2    0    0 -0.31681112011E+02  0.34521691167E+01  0.13627845177E+04  0.13631937691E+04  0.10000000000E+02 0. -1.
</event>
<event>
 5    1  0.1334136E-008  0.3733238E+03  0.7957747E-01  0.3480754E+00
         13   -1    0    0    0    0  0.00000000000E+00  0.00000000000E+00  0.14999999963E+04  0.15000000000E+04  0.10566000000E+00 0.  1.
        994   -1    0    0    0    0 -0.00000000000E+00 -0.00000000000E+00  0.11368683772E-12  0.17120000000E+03  0.17120000000E+03 0.  0.
         13    1    1    2    0    0 -0.93423745772E+02  0.70785163271E+02  0.55596936546E+03  0.56819053328E+03  0.10566000000E+00 0.  1.
        994    1    1    2    0    0  0.93332894472E+02 -0.69591468511E+02  0.55396169882E+02  0.21431793513E+03  0.17120000000E+03 0.  0.
        998    1    1    2    0    0  0.90851300087E-01 -0.11936947602E+01  0.88863446094E+03  0.88869153160E+03  0.10000000000E+02 0.  0.
</event>
<event>
 5    1  0.1516412E-008  0.3862346E+03  0.7957747E-01  0.3424453E+00
         13   -1    0    0    0    0  0.00000000000E+00  0.00000000000E+00  0.14999999963E+04  0.15000000000E+04  0.10566000000E+00 0. -1.
        994   -1    0    0    0    0 -0.00000000000E+00 -0.00000000000E+00  0.11368683772E-12  0.17120000000E+03  0.17120000000E+03 0.  0.
         13    1    1    2    0    0  0.17221145804E+01 -0.11394347211E+02  0.68897965003E+02  0.69855118442E+02  0.10566000000E+00 0. -1.
        994    1    1    2    0    0 -0.12362481091E+02  0.13147500645E+01  0.15248330102E+01  0.17165757957E+03  0.17120000000E+03 0.  0.
        998    1    1    2    0    0  0.10640366511E+02  0.10079597147E+02  0.14295771983E+04  0.14296873020E+04  0.10000000000E+02 0. -1.
</event>
<event>
 5    1  0.1334136E-008  0.3829701E+03  0.7957747E-01  0.3438327E+00
         13   -1    0    0    0    0  0.00000000000E+00  0.00000000000E+00  0.14999999963E+04  0.15000000000E+04  0.10566000000E+00 0. -1.
        994   -1    0    0    0    0 -0.00000000000E+00 -0.00000000000E+00  0.11368683772E-12  0.17120000000E+03  0.17120000000E+03 0.  0.
         13    1    1    2    0    0 -0.19910951080E+02  0.15784411449E+01  0.86101282101E+02  0.88387665388E+02  0.10566000000E+00 0. -1.
        994    1    1    2    0    0 -0.11253927414E+02 -0.27620643294E+01  0.30859532651E+01  0.17161947147E+03  0.17120000000E+03 0.  0.
        998    1    1    2    0    0  0.31164878494E+02  0.11836231845E+01  0.14108127609E+04  0.14111928631E+04  0.10000000000E+02 0. -1.
</event>
<event>
 5    1  0.1334136E-008  0.3771028E+03  0.7957747E-01  0.3463871E+00
         13   -1    0    0    0    0  0.00000000000E+00  0.00000000000E+00  0.14999999963E+04  0.15000000000E+04  0.10566000000E+00 0. -1.
        994   -1    0    0    0    0 -0.00000000000E+00 -0.00000000000E+00  0.11368683772E-12  0.17120000000E+03  0.17120000000E+03 0.  0.
         13    1    1    2    0    0 -0.22572062013E+01  0.16048310405E+02  0.20962518059E+02  0.26496821963E+02  0.10566000000E+00 0. -1.
        994    1    1    2    0    0  0.37377811778E+00 -0.13264060255E+02  0.61973499529E+01  0.17182526633E+03  0.17120000000E+03 0.  0.
        998    1    1    2    0    0  0.18834280836E+01 -0.27842501504E+01  0.14728401283E+04  0.14728779117E+04  0.10000000000E+02 0. -1.
</event>
<event>
 5    1  0.1334136E-008  0.3741032E+03  0.7957747E-01  0.3477243E+00
         13   -1    0    0    0    0  0.00000000000E+00  0.00000000000E+00  0.14999999963E+04  0.15000000000E+04  0.10566000000E+00 0. -1.
        994   -1    0    0    0    0 -0.00000000000E+00 -0.00000000000E+00  0.11368683772E-12  0.17120000000E+03  0.17120000000E+03 0.  0.
         13    1    1    2    0    0 -0.30875293975E+02  0.47155852599E+01  0.63176099866E+02  0.70475182020E+02  0.10566000000E+00 0. -1.
        994    1    1    2    0    0  0.32548344159E+02  0.57860781089E+01  0.10875205479E+02  0.17470141242E+03  0.17120000000E+03 0.  0.
        998    1    1    2    0    0 -0.16730501848E+01 -0.10501663369E+02  0.14259486909E+04  0.14260234056E+04  0.10000000000E+02 0. -1.
</event>
<event>
 5    1  0.1334136E-008  0.3791199E+03  0.7957747E-01  0.3454999E+00
         13   -1    0    0    0    0  0.00000000000E+00  0.00000000000E+00  0.14999999963E+04  0.15000000000E+04  0.10566000000E+00 0. -1.
        994   -1    0    0    0    0 -0.00000000000E+00 -0.00000000000E+00  0.11368683772E-12  0.17120000000E+03  0.17120000000E+03 0.  0.
         13    1    1    2    0    0 -0.40588543175E+02  0.62828385053E+01  0.16641988155E+03  0.17141322013E+03  0.10566000000E+00 0. -1.
        994    1    1    2    0    0  0.38012265447E+02 -0.75070406303E+01  0.96278693647E+01  0.17579369685E+03  0.17120000000E+03 0.  0.
        998    1    1    2    0    0  0.25762777277E+01  0.12242021251E+01  0.13239522454E+04  0.13239930830E+04  0.10000000000E+02 0.  0.
</event>
<event>
 5    1  0.1334136E-008  0.3761661E+03  0.7957747E-01  0.3468024E+00
         13   -1    0    0    0    0  0.00000000000E+00  0.00000000000E+00  0.14999999963E+04  0.15000000000E+04  0.10566000000E+00 0. -1.
        994   -1    0    0    0    0 -0.00000000000E+00 -0.00000000000E+00  0.11368683772E-12  0.17120000000E+03  0.17120000000E+03 0.  0.
         13    1    1    2    0    0  0.25919533159E+02 -0.21420672936E+02  0.95170673677E+02  0.10093629536E+03  0.10566000000E+00 0. -1.
        994    1    1    2    0    0 -0.94837577352E+01  0.37736221061E+01  0.64339286407E+01  0.17162464078E+03  0.17120000000E+03 0.  0.
        998    1    1    2    0    0 -0.16435775424E+02  0.17647050830E+02  0.13983953940E+04  0.13986390639E+04  0.10000000000E+02 0. -1.
</event>
<event>
 5    1  0.1334136E-008  0.3501188E+03  0.7957747E-01  0.3592567E+00
         13   -1    0    0    0    0  0.00000000000E+00  0.00000000000E+00  0.14999999963E+04  0.15000000000E+04  0.10566000000E+00 0. -1.
        994   -1    0    0    0    0 -0.00000000000E+00 -0.00000000000E+00  0.11368683772E-12  0.17120000000E+03  0.17120000000E+03 0.  0.
         13    1    1    2    0    0  0.17684370488E+03 -0.98328281607E+02  0.11127656255E+04  0.11310125974E+04  0.10566000000E+00 0. -1.
        994    1    1    2    0    0 -0.13358857683E+03  0.71432166528E+02  0.10209586665E+03  0.25036267346E+03  0.17120000000E+03 0.  0.
        998    1    1    2    0    0 -0.43255128043E+02  0.26896115079E+02  0.28513850411E+03  0.28982472917E+03  0.10000000000E+02 0. -1.
</event>
<event>
 5    1  0.1334136E-008  0.3837504E+03  0.7957747E-01  0.3434989E+00
         13   -1    0    0    0    0  0.00000000000E+00  0.00000000000E+00  0.14999999963E+04  0.15000000000E+04  0.10566000000E+00 0. -1.
        994   -1    0    0    0    0 -0.00000000000E+00 -0.00000000000E+00  0.11368683772E-12  0.17120000000E+03  0.17120000000E+03 0.  0.
         13    1    1    2    0    0 -0.95254090055E+01 -0.21214574653E+02  0.12440099588E+03  0.12655595811E+03  0.10566000000E+00 0. -1.
        994    1    1    2    0    0  0.92488265297E+00  0.95300649149E+01  0.25545920082E+01  0.17148656940E+03  0.17120000000E+03 0.  0.
        998    1    1    2    0    0  0.86005263526E+01  0.11684509738E+02  0.13730444084E+04  0.13731574725E+04  0.10000000000E+02 0. -1.
</event>
<event>
 5    1  0.1334136E-008  0.3828115E+03  0.7957747E-01  0.3439007E+00
         13   -1    0    0    0    0  0.00000000000E+00  0.00000000000E+00  0.14999999963E+04  0.15000000000E+04  0.10566000000E+00 0. -1.
        994   -1    0    0    0    0 -0.00000000000E+00 -0.00000000000E+00  0.11368683772E-12  0.17120000000E+03  0.17120000000E+03 0.  0.
         13    1    1    2    0    0 -0.28538128318E+02  0.66102702696E+01  0.14042249218E+03  0.14344548760E+03  0.10566000000E+00 0. -1.
        994    1    1    2    0    0  0.33917556291E+02  0.71583164633E+00  0.65419834660E+01  0.17465151184E+03  0.17120000000E+03 0.  0.
        998    1    1    2    0    0 -0.53794279737E+01 -0.73261019159E+01  0.13530355206E+04  0.13531030006E+04  0.10000000000E+02 0. -1.
</event>
<event>
 5    1  0.1334136E-008  0.3821622E+03  0.7957747E-01  0.3441797E+00
         13   -1    0    0    0    0  0.00000000000E+00  0.00000000000E+00  0.14999999963E+04  0.15000000000E+04  0.10566000000E+00 0.  1.
        994   -1    0    0    0    0 -0.00000000000E+00 -0.00000000000E+00  0.11368683772E-12  0.17120000000E+03  0.17120000000E+03 0.  0.
         13    1    1    2    0    0 -0.88881366875E+01  0.21916321363E+02  0.86172668483E+02  0.89359185725E+02  0.10566000000E+00 0.  1.
        994    1    1    2    0    0  0.17451284314E+02 -0.19392611191E+02  0.53080160352E+01  0.17325771477E+03  0.17120000000E+03 0.  0.
        998    1    1    2    0    0 -0.85631476263E+01 -0.25237101720E+01  0.14085193118E+04  0.14085830995E+04  0.10000000000E+02 0.  1.
</event>
<event>
 5    1  0.1334136E-008  0.3825597E+03  0.7957747E-01  0.3440088E+00
         13   -1    0    0    0    0  0.00000000000E+00  0.00000000000E+00  0.14999999963E+04  0.15000000000E+04  0.10566000000E+00 0. -1.
        994   -1    0    0    0    0 -0.00000000000E+00 -0.00000000000E+00  0.11368683772E-12  0.17120000000E+03  0.17120000000E+03 0.  0.
         13    1    1    2    0    0  0.37794644572E+01 -0.25211959005E+02  0.11325234377E+03  0.11608631169E+03  0.10566000000E+00 0. -1.
        994    1    1    2    0    0  0.46332444816E+01  0.16525876770E+02  0.38236275253E+01  0.17210064406E+03  0.17120000000E+03 0.  0.
        998    1    1    2    0    0 -0.84127089387E+01  0.86860822345E+01  0.13829240250E+04  0.13830130443E+04  0.10000000000E+02 0. -1.
</event>
<event>
 5    1  0.1334136E-008  0.3816783E+03  0.7957747E-01  0.3443883E+00
         13   -1    0    0    0    0  0.00000000000E+00  0.00000000000E+00  0.14999999963E+04  0.15000000000E+04  0.10566000000E+00 0. -1.
        994   -1    0    0    0    0 -0.00000000000E+00 -0.00000000000E+00  0.11368683772E-12  0.17120000000E+03  0.17120000000E+03 0.  0.
         13    1    1    2    0    0  0.25247989914E+02 -0.15743692083E+02  0.15089322403E+03  0.15379889810E+03  0.10566000000E+00 0. -1.
        994    1    1    2    0    0 -0.45709616864E+01 -0.59021703631E+01  0.34736223544E+01  0.17139788610E+03  0.17120000000E+03 0.  0.
        998    1    1    2    0    0 -0.20677028227E+02  0.21645862446E+02  0.13456331499E+04  0.13460032158E+04  0.10000000000E+02 0. -1.
</event>
<event>
 5    1  0.1334136E-008  0.3769860E+03  0.7957747E-01  0.3464388E+00
         13   -1    0    0    0    0  0.00000000000E+00  0.00000000000E+00  0.14999999963E+04  0.15000000000E+04  0.10566000000E+00 0.  1.
        994   -1    0    0    0    0 -0.00000000000E+00 -0.00000000000E+00  0.11368683772E-12  0.17120000000E+03  0.17120000000E+03 0.  0.
         13    1    1    2    0    0  0.23997073821E+02 -0.66552021865E+02  0.37922168370E+03  0.38576434221E+03  0.10566000000E+00 0.  1.
        994    1    1    2    0    0 -0.13046680279E+02  0.55423614113E+02  0.16688670820E+02  0.18119035460E+03  0.17120000000E+03 0.  0.
        998    1    1    2    0    0 -0.10950393542E+02  0.11128407752E+02  0.11040896418E+04  0.11042453032E+04  0.10000000000E+02 0.  1.
</event>
<event>
 5    1  0.1334136E-008  0.3848447E+03  0.7957747E-01  0.3430331E+00
         13   -1    0    0    0    0  0.00000000000E+00  0.00000000000E+00  0.14999999963E+04  0.15000000000E+04  0.10566000000E+00 0.  1.
        994   -1    0    0    0    0 -0.00000000000E+00 -0.00000000000E+00  0.11368683772E-12  0.17120000000E+03  0.17120000000E+03 0.  0.
         13    1    1    2    0    0  0.37699367109E+01 -0.13012895067E+02  0.56472203839E+02  0.58074683222E+02  0.10566000000E+00 0.  1.
        994    1    1    2    0    0 -0.55248929117E+01 -0.13358187662E+01  0.18135579175E+01  0.17130393412E+03  0.17120000000E+03 0.  0.
        998    1    1    2    0    0  0.17549562008E+01  0.14348713834E+02  0.14417142345E+04  0.14418213827E+04  0.10000000000E+02 0.  1.
</event>
<event>
 5    1  0.1334136E-008  0.3809741E+03  0.7957747E-01  0.3446928E+00
         13   -1    0    0    0    0  0.00000000000E+00  0.00000000000E+00  0.14999999963E+04  0.15000000000E+04  0.10566000000E+00 0. -1.
        994   -1    0    0    0    0 -0.00000000000E+00 -0.00000000000E+00  0.11368683772E-12  0.17120000000E+03  0.17120000000E+03 0.  0.
         13    1    1    2    0    0 -0.73955351790E+01 -0.17002045661E+02  0.47034978929E+02  0.50557530637E+02  0.10566000000E+00 0. -1.
        994    1    1    2    0    0 -0.45560155677E+01  0.81609640066E+01  0.39333671353E+01  0.17150005828E+03  0.17120000000E+03 0.  0.
        998    1    1    2    0    0  0.11951550747E+02  0.88410816542E+01  0.14490316502E+04  0.14491424111E+04  0.10000000000E+02 0. -1.
</event>
<event>
 5    1  0.1334136E-008  0.3853791E+03  0.7957747E-01  0.3428066E+00
         13   -1    0    0    0    0  0.00000000000E+00  0.00000000000E+00  0.14999999963E+04  0.15000000000E+04  0.10566000000E+00 0.  1.
        994   -1    0    0    0    0 -0.00000000000E+00 -0.00000000000E+00  0.11368683772E-12  0.17120000000E+03  0.17120000000E+03 0.  0.
         13    1    1    2    0    0  0.70599396653E+01  0.76460665763E+01  0.34314339117E+02  0.35857915657E+02  0.10566000000E+00 0.  1.
        994    1    1    2    0    0 -0.20295338424E+02 -0.16103206616E+02  0.36498230948E+01  0.17318768788E+03  0.17120000000E+03 0.  0.
        998    1    1    2    0    0  0.13235398758E+02  0.84571400393E+01  0.14620358341E+04  0.14621543965E+04  0.10000000000E+02 0.  1.
</event>
<event>
 5    1  0.1334136E-008  0.3852335E+03  0.7957747E-01  0.3428683E+00
         13   -1    0    0    0    0  0.00000000000E+00  0.00000000000E+00  0.14999999963E+04  0.15000000000E+04  0.10566000000E+00 0. -1.
        994   -1    0    0    0    0 -0.00000000000E+00 -0.00000000000E+00  0.11368683772E-12  0.17120000000E+03  0.17120000000E+03 0.  0.
         13    1    1    2    0    0 -0.15741833362E+02 -0.53902485708E+01  0.94432106157E+02  0.95886880930E+02  0.10566000000E+00 0. -1.
        994    1    1    2    0    0  0.60661623012E+01  0.37469431297E+01  0.16813489115E+01  0.17135665975E+03  0.17120000000E+03 0.  0.
        998    1    1    2    0    0  0.96756710612E+01  0.16433054411E+01  0.14038865412E+04  0.14039564593E+04  0.10000000000E+02 0. -1.
</event>
<event>
 5    1  0.1334136E-008  0.3795013E+03  0.7957747E-01  0.3453333E+00
         13   -1    0    0    0    0  0.00000000000E+00  0.00000000000E+00  0.14999999963E+04  0.15000000000E+04  0.10566000000E+00 0.  1.
        994   -1    0    0    0    0 -0.00000000000E+00 -0.00000000000E+00  0.11368683772E-12  0.17120000000E+03  0.17120000000E+03 0.  0.
         13    1    1    2    0    0 -0.23471357534E+02 -0.73953661653E+01  0.66887579892E+02  0.71271000926E+02  0.10566000000E+00 0.  1.
        994    1    1    2    0    0  0.15937522808E+02  0.80668475536E+01  0.54542328359E+01  0.17221575804E+03  0.17120000000E+03 0.  0.
        998    1    1    2    0    0  0.75338347262E+01 -0.67148138826E+00  0.14276581836E+04  0.14277132410E+04  0.10000000000E+02 0.  1.
</event>
<event>
 5    1  0.1334136E-008  0.3782624E+03  0.7957747E-01  0.3458759E+00
         13   -1    0    0    0    0  0.00000000000E+00  0.00000000000E+00  0.14999999963E+04  0.15000000000E+04  0.10566000000E+00 0. -1.
        994   -1    0    0    0    0 -0.00000000000E+00 -0.00000000000E+00  0.11368683772E-12  0.17120000000E+03  0.17120000000E+03 0.  0.
         13    1    1    2    0    0  0.34854983596E+01  0.35335118763E+02  0.12250909126E+03  0.12755080526E+03  0.10566000000E+00 0. -1.
        994    1    1    2    0    0 -0.12630904756E+02 -0.22487606753E+02  0.72527414220E+01  0.17328379748E+03  0.17120000000E+03 0.  0.
        998    1    1    2    0    0  0.91454063961E+01 -0.12847512010E+02  0.13702381636E+04  0.13703653973E+04  0.10000000000E+02 0. -1.
</event>
<event>
 5    1  0.1334136E-008  0.3752908E+03  0.7957747E-01  0.3471923E+00
         13   -1    0    0    0    0  0.00000000000E+00  0.00000000000E+00  0.14999999963E+04  0.15000000000E+04  0.10566000000E+00 0. -1.
        994   -1    0    0    0    0 -0.00000000000E+00 -0.00000000000E+00  0.11368683772E-12  0.17120000000E+03  0.17120000000E+03 0.  0.
         13    1    1    2    0    0 -0.22932947081E+02 -0.56852397880E+02  0.11850102622E+03  0.13341896261E+03  0.10566000000E+00 0. -1.
        994    1    1    2    0    0  0.24437586639E+02  0.64712296164E+02  0.31011166451E+02  0.18723250081E+03  0.17120000000E+03 0.  0.
        998    1    1    2    0    0 -0.15046395575E+01 -0.78598982841E+01  0.13504878036E+04  0.13505485366E+04  0.10000000000E+02 0. -1.
</event>
<event>
 5    1  0.1334136E-008  0.3795670E+03  0.7957747E-01  0.3453046E+00
         13   -1    0    0    0    0  0.00000000000E+00  0.00000000000E+00  0.14999999963E+04  0.15000000000E+04  0.10566000000E+00 0. -1.
        994   -1    0    0    0    0 -0.00000000000E+00 -0.00000000000E+00  0.11368683772E-12  0.17120000000E+03  0.17120000000E+03 0.  0.
         13    1    1    2    0    0  0.20286895945E+02  0.70803703397E+00  0.44373512000E+02  0.48796303085E+02  0.10566000000E+00 0. -1.
        994    1    1    2    0    0 -0.21234184322E+02 -0.13609528918E+02  0.64842969201E+01  0.17316926970E+03  0.17120000000E+03 0.  0.
        998    1    1    2    0    0  0.94728837685E+00  0.12901491884E+02  0.14491421874E+04  0.14492344272E+04  0.10000000000E+02 0. -1.
</event>
<event>
 5    1  0.1334136E-008  0.3753952E+03  0.7957747E-01  0.3471457E+00
         13   -1    0    0    0    0  0.00000000000E+00  0.00000000000E+00  0.14999999963E+04  0.15000000000E+04  0.10566000000E+00 0.  1.
        994   -1    0    0    0    0 -0.00000000000E+00 -0.00000000000E+00  0.11368683772E-12  0.17120000000E+03  0.17120000000E+03 0.  0.
         13    1    1    2    0    0  0.21231035790E+01 -0.29945127259E+02  0.67655195903E+02  0.74016585385E+02  0.10566000000E+00 0.  1.
        994    1    1    2    0    0  0.10419169035E+01  0.17208231568E+02  0.74854899324E+01  0.17222857308E+03  0.17120000000E+03 0.  0.
        998    1    1    2    0    0 -0.31650204825E+01  0.12736895691E+02  0.14248593104E+04  0.14249548415E+04  0.10000000000E+02 0.  1.
</event>
<event>
 5    1  0.1334136E-008  0.3790316E+03  0.7957747E-01  0.3455386E+00
         13   -1    0    0    0    0  0.00000000000E+00  0.00000000000E+00  0.14999999963E+04  0.15000000000E+04  0.10566000000E+00 0.  1.
        994   -1    0    0    0    0 -0.00000000000E+00 -0.00000000000E+00  0.11368683772E-12  0.17120000000E+03  0.17120000000E+03 0.  0.
         13    1    1    2    0    0 -0.13113487045E+02 -0.15090312596E+02  0.41011737874E+02  0.45625156265E+02  0.10566000000E+00 0.  1.
        994    1    1    2    0    0  0.88937487590E+01  0.13939627492E+02  0.55402656694E+01  0.17208586963E+03  0.17120000000E+03 0.  0.
        998    1    1    2    0    0  0.42197382857E+01  0.11506851044E+01  0.14534479927E+04  0.14534889741E+04  0.10000000000E+02 0.  1.
</event>
<event>
 5    1  0.1334136E-008  0.3849954E+03  0.7957747E-01  0.3429692E+00
         13   -1    0    0    0    0  0.00000000000E+00  0.00000000000E+00  0.14999999963E+04  0.15000000000E+04  0.10566000000E+00 0.  1.
        994   -1    0    0    0    0 -0.00000000000E+00 -0.00000000000E+00  0.11368683772E-12  0.17120000000E+03  0.17120000000E+03 0.  0.
         13    1    1    2    0    0  0.18844661630E+02  0.54400695819E+01  0.97264993282E+02  0.99223009989E+02  0.10566000000E+00 0.  1.
        994    1    1    2    0    0 -0.34723035674E+02 -0.17668146145E+02  0.66402096781E+01  0.17570254688E+03  0.17120000000E+03 0.  0.
        998    1    1    2    0    0  0.15878374044E+02  0.12228076563E+02  0.13960947933E+04  0.13962744431E+04  0.10000000000E+02 0.  1.
</event>
<event>
 5    1  0.1334136E-008  0.3775590E+03  0.7957747E-01  0.3461856E+00
         13   -1    0    0    0    0  0.00000000000E+00  0.00000000000E+00  0.14999999963E+04  0.15000000000E+04  0.10566000000E+00 0. -1.
        994   -1    0    0    0    0 -0.00000000000E+00 -0.00000000000E+00  0.11368683772E-12  0.17120000000E+03  0.17120000000E+03 0.  0.
         13    1    1    2    0    0  0.14518480603E+03 -0.56138582360E+02  0.45588766959E+03  0.48172995213E+03  0.10566000000E+00 0. -1.
        994    1    1    2    0    0 -0.16609487926E+03  0.45350530284E+02  0.13078840002E+03  0.27578837012E+03  0.17120000000E+03 0.  0.
        998    1    1    2    0    0  0.20910073237E+02  0.10788052075E+02  0.91332392666E+03  0.91368167775E+03  0.10000000000E+02 0.  1.
</event>
<event>
 5    1  0.1334136E-008  0.3848064E+03  0.7957747E-01  0.3430494E+00
         13   -1    0    0    0    0  0.00000000000E+00  0.00000000000E+00  0.14999999963E+04  0.15000000000E+04  0.10566000000E+00 0.  1.
        994   -1    0    0    0    0 -0.00000000000E+00 -0.00000000000E+00  0.11368683772E-12  0.17120000000E+03  0.17120000000E+03 0.  0.
         13    1    1    2    0    0 -0.11122462046E+02 -0.98560782544E+01  0.74546240047E+02  0.76013186420E+02  0.10566000000E+00 0.  1.
        994    1    1    2    0    0 -0.18191112857E+02  0.12989472749E+01  0.28215517370E+01  0.17219176811E+03  0.17120000000E+03 0.  0.
        998    1    1    2    0    0  0.29313574903E+02  0.85571309795E+01  0.14226322045E+04  0.14229950455E+04  0.10000000000E+02 0.  1.
</event>
<event>
 5    1  0.1334136E-008  0.3742572E+03  0.7957747E-01  0.3476551E+00
         13   -1    0    0    0    0  0.00000000000E+00  0.00000000000E+00  0.14999999963E+04  0.15000000000E+04  0.10566000000E+00 0.  1.
        994   -1    0    0    0    0 -0.00000000000E+00 -0.00000000000E+00  0.11368683772E-12  0.17120000000E+03  0.17120000000E+03 0.  0.
         13    1    1    2    0    0 -0.85320645255E+02  0.69571583275E+01  0.31967872321E+03  0.33094185561E+03  0.10566000000E+00 0.  1.
        994    1    1    2    0    0  0.11465532938E+03 -0.11588048344E+02  0.53758104113E+02  0.21325923468E+03  0.17120000000E+03 0.  0.
        998    1    1    2    0    0 -0.29334684120E+02  0.46308900166E+01  0.11265631690E+04  0.11269989097E+04  0.10000000000E+02 0.  1.
</event>
<event>
 5    1  0.1334136E-008  0.3845416E+03  0.7957747E-01  0.3431619E+00
         13   -1    0    0    0    0  0.00000000000E+00  0.00000000000E+00  0.14999999963E+04  0.15000000000E+04  0.10566000000E+00 0.  1.
        994   -1    0    0    0    0 -0.00000000000E+00 -0.00000000000E+00  0.11368683772E-12  0.17120000000E+03  0.17120000000E+03 0.  0.
         13    1    1    2    0    0  0.16854626068E+02 -0.80656294965E+01  0.10843491519E+03  0.11003306229E+03  0.10566000000E+00 0.  1.
        994    1    1    2    0    0  0.60708774482E+01 -0.23283625831E+01  0.19971580299E+01  0.17133506782E+03  0.17120000000E+03 0.  0.
        998    1    1    2    0    0 -0.22925503516E+02  0.10393992080E+02  0.13895679231E+04  0.13898318699E+04  0.10000000000E+02 0.  1.
</event>
<event>
 5    1  0.1334136E-008  0.3834025E+03  0.7957747E-01  0.3436476E+00
         13   -1    0    0    0    0  0.00000000000E+00  0.00000000000E+00  0.14999999963E+04  0.15000000000E+04  0.10566000000E+00 0. -1.
        994   -1    0    0    0    0 -0.00000000000E+00 -0.00000000000E+00  0.11368683772E-12  0.17120000000E+03  0.17120000000E+03 0.  0.
         13    1    1    2    0    0  0.76479916618E+01  0.14446416006E+02  0.54354712750E+02  0.56759463300E+02  0.10566000000E+00 0. -1.
        994    1    1    2    0    0 -0.14825274475E+02 -0.47048264636E+01  0.32255208271E+01  0.17193536035E+03  0.17120000000E+03 0.  0.
        998    1    1    2    0    0  0.71772828132E+01 -0.97415895427E+01  0.14424197627E+04  0.14425051763E+04  0.10000000000E+02 0. -1.
</event>
<event>
 5    1  0.1334136E-008  0.3764424E+03  0.7957747E-01  0.3466797E+00
         13   -1    0    0    0    0  0.00000000000E+00  0.00000000000E+00  0.14999999963E+04  0.15000000000E+04  0.10566000000E+00 0.  1.
        994   -1    0    0    0    0 -0.00000000000E+00 -0.00000000000E+00  0.11368683772E-12  0.17120000000E+03  0.17120000000E+03 0.  0.
         13    1    1    2    0    0 -0.37854338473E+01  0.27207442052E+02  0.64308975783E+02  0.69930179055E+02  0.10566000000E+00 0.  1.
        994    1    1    2    0    0  0.60216035782E+01 -0.35402580420E+01  0.61049838098E+01  0.17145117079E+03  0.17120000000E+03 0.  0.
        998    1    1    2    0    0 -0.22361697310E+01 -0.23667184010E+02  0.14295860367E+04  0.14298186502E+04  0.10000000000E+02 0.  1.
</event>
<event>
 5    1  0.1334136E-008  0.3765404E+03  0.7957747E-01  0.3466362E+00
         13   -1    0    0    0    0  0.00000000000E+00  0.00000000000E+00  0.14999999963E+04  0.15000000000E+04  0.10566000000E+00 0. -1.
        994   -1    0    0    0    0 -0.00000000000E+00 -0.00000000000E+00  0.11368683772E-12  0.17120000000E+03  0.17120000000E+03 0.  0.
         13    1    1    2    0    0  0.68343304746E+01  0.33572896528E+02  0.10355420751E+03  0.10907489404E+03  0.10566000000E+00 0. -1.
        994    1    1    2    0    0  0.21846762786E+01 -0.83637154360E+01  0.61425349911E+01  0.17152811805E+03  0.17120000000E+03 0.  0.
        998    1    1    2    0    0 -0.90190067532E+01 -0.25209181092E+02  0.13903032538E+04  0.13905969879E+04  0.10000000000E+02 0. -1.
</event>
<event>
 5    1  0.1334136E-008  0.3712438E+03  0.7957747E-01  0.3490194E+00
         13   -1    0    0    0    0  0.00000000000E+00  0.00000000000E+00  0.14999999963E+04  0.15000000000E+04  0.10566000000E+00 0. -1.
        994   -1    0    0    0    0 -0.00000000000E+00 -0.00000000000E+00  0.11368683772E-12  0.17120000000E+03  0.17120000000E+03 0.  0.
         13    1    1    2    0    0  0.21797118829E+02  0.15489267026E+02  0.37154659306E+02  0.45776758889E+02  0.10566000000E+00 0. -1.
        994    1    1    2    0    0 -0.21250736105E+02 -0.16297736859E+02  0.11093606362E+02  0.17363674183E+03  0.17120000000E+03 0.  0.
        998    1    1    2    0    0 -0.54638272409E+00  0.80846983321E+00  0.14517517306E+04  0.14517864993E+04  0.10000000000E+02 0. -1.
</event>
<event>
 5    1  0.1334136E-008  0.3756604E+03  0.7957747E-01  0.3470274E+00
         13   -1    0    0    0    0  0.00000000000E+00  0.00000000000E+00  0.14999999963E+04  0.15000000000E+04  0.10566000000E+00 0. -1.
        994   -1    0    0    0    0 -0.00000000000E+00 -0.00000000000E+00  0.11368683772E-12  0.17120000000E+03  0.17120000000E+03 0.  0.
         13    1    1    2    0    0 -0.43173753315E+02 -0.23501484511E+02  0.17192512042E+03  0.17881429178E+03  0.10566000000E+00 0. -1.
        994    1    1    2    0    0  0.42642949824E+02  0.16117145046E+02  0.13421206534E+02  0.17767316150E+03  0.17120000000E+03 0.  0.
        998    1    1    2    0    0  0.53080349076E+00  0.73843394649E+01  0.13146536693E+04  0.13147125467E+04  0.10000000000E+02 0. -1.
</event>
<event>
 5    1  0.1334136E-008  0.3846300E+03  0.7957747E-01  0.3431243E+00
         13   -1    0    0    0    0  0.00000000000E+00  0.00000000000E+00  0.14999999963E+04  0.15000000000E+04  0.10566000000E+00 0.  1.
        994   -1    0    0    0    0 -0.00000000000E+00 -0.00000000000E+00  0.11368683772E-12  0.17120000000E+03  0.17120000000E+03 0.  0.
         13    1    1    2    0    0 -0.94592862280E+01 -0.14425828236E+02  0.96104871386E+02  0.97640873021E+02  0.10566000000E+00 0.  1.
        994    1    1    2    0    0 -0.46559331813E+01 -0.90489570170E+01  0.21549976274E+01  0.17151572917E+03  0.17120000000E+03 0.  0.
        998    1    1    2    0    0  0.14115219409E+02  0.23474785253E+02  0.14017401273E+04  0.14020433978E+04  0.10000000000E+02 0.  1.
</event>
<event>
 5    1  0.1334136E-008  0.3756561E+03  0.7957747E-01  0.3470294E+00
         13   -1    0    0    0    0  0.00000000000E+00  0.00000000000E+00  0.14999999963E+04  0.15000000000E+04  0.10566000000E+00 0. -1.
        994   -1    0    0    0    0 -0.00000000000E+00 -0.00000000000E+00  0.11368683772E-12  0.17120000000E+03  0.17120000000E+03 0.  0.
         13    1    1    2    0    0 -0.11261260233E+03  0.39153145129E+02  0.67079181851E+03  0.68130480838E+03  0.10566000000E+00 0. -1.
        994    1    1    2    0    0  0.98760179532E+02 -0.58265516348E+02  0.52330095167E+02  0.21259426690E+03  0.17120000000E+03 0.  0.
        998    1    1    2    0    0  0.13852422801E+02  0.19112371220E+02  0.77687808260E+03  0.77730092472E+03  0.10000000000E+02 0. -1.
</event>
<event>
 5    1  0.1334136E-008  0.3812567E+03  0.7957747E-01  0.3445705E+00
         13   -1    0    0    0    0  0.00000000000E+00  0.00000000000E+00  0.14999999963E+04  0.15000000000E+04  0.10566000000E+00 0.  1.
        994   -1    0    0    0    0 -0.00000000000E+00 -0.00000000000E+00  0.11368683772E-12  0.17120000000E+03  0.17120000000E+03 0.  0.
         13    1    1    2    0    0  0.32060812334E+02  0.38204450104E+02  0.29005818668E+03  0.29431486290E+03  0.10566000000E+00 0.  1.
        994    1    1    2    0    0  0.27778959136E+02 -0.11451276305E+03  0.51195264963E+02  0.21404494534E+03  0.17120000000E+03 0.  0.
        998    1    1    2    0    0 -0.59839771471E+02  0.76308312950E+02  0.11587465446E+04  0.11628401918E+04  0.10000000000E+02 0.  1.
</event>
<event>
 5    1  0.1334136E-008  0.3795757E+03  0.7957747E-01  0.3453008E+00
         13   -1    0    0    0    0  0.00000000000E+00  0.00000000000E+00  0.14999999963E+04  0.15000000000E+04  0.10566000000E+00 0.  1.
        994   -1    0    0    0    0 -0.00000000000E+00 -0.00000000000E+00  0.11368683772E-12  0.17120000000E+03  0.17120000000E+03 0.  0.
         13    1    1    2    0    0 -0.11509039459E+02 -0.67316259576E+01  0.18639875585E+02  0.22917873007E+02  0.10566000000E+00 0.  1.
        994    1    1    2    0    0  0.11510499138E+02 -0.23225374751E+01  0.48092232950E+01  0.17166960826E+03  0.17120000000E+03 0.  0.
        998    1    1    2    0    0 -0.14596797277E-02  0.90541634327E+01  0.14765508974E+04  0.14766125187E+04  0.10000000000E+02 0.  1.
</event>
<event>
 5    1  0.1334136E-008  0.3777409E+03  0.7957747E-01  0.3461055E+00
         13   -1    0    0    0    0  0.00000000000E+00  0.00000000000E+00  0.14999999963E+04  0.15000000000E+04  0.10566000000E+00 0.  1.
        994   -1    0    0    0    0 -0.00000000000E+00 -0.00000000000E+00  0.11368683772E-12  0.17120000000E+03  0.17120000000E+03 0.  0.
         13    1    1    2    0    0  0.87946660009E+01  0.26856773946E+02  0.77065368622E+02  0.82083583387E+02  0.10566000000E+00 0.  1.
        994    1    1    2    0    0  0.54305112687E+02 -0.26666428890E+02  0.17706315474E+02  0.18243655692E+03  0.17120000000E+03 0.  0.
        998    1    1    2    0    0 -0.63099778688E+02 -0.19034505554E+00  0.14052283122E+04  0.14066798597E+04  0.10000000000E+02 0.  1.
</event>
<event>
 5    1  0.1334136E-008  0.3764563E+03  0.7957747E-01  0.3466735E+00
         13   -1    0    0    0    0  0.00000000000E+00  0.00000000000E+00  0.14999999963E+04  0.15000000000E+04  0.10566000000E+00 0.  1.
        994   -1    0    0    0    0 -0.00000000000E+00 -0.00000000000E+00  0.11368683772E-12  0.17120000000E+03  0.17120000000E+03 0.  0.
         13    1    1    2    0    0 -0.31730843665E+01 -0.11884123906E+02  0.99577049753E+01  0.15826178244E+02  0.10566000000E+00 0.  1.
        994    1    1    2    0    0  0.18593339731E+01  0.14616164977E+02  0.66674324689E+01  0.17196215879E+03  0.17120000000E+03 0.  0.
        998    1    1    2    0    0  0.13137503934E+01 -0.27320410709E+01  0.14833748588E+04  0.14834116630E+04  0.10000000000E+02 0.  1.
</event>
<event>
 5    1  0.1334136E-008  0.3699018E+03  0.7957747E-01  0.3496342E+00
         13   -1    0    0    0    0  0.00000000000E+00  0.00000000000E+00  0.14999999963E+04  0.15000000000E+04  0.10566000000E+00 0.  1.
        994   -1    0    0    0    0 -0.00000000000E+00 -0.00000000000E+00  0.11368683772E-12  0.17120000000E+03  0.17120000000E+03 0.  0.
         13    1    1    2    0    0  0.48196861961E+02  0.25052671513E+02  0.14366122766E+03  0.15358754295E+03  0.10566000000E+00 0.  1.
        994    1    1    2    0    0 -0.58911384603E+02  0.34433230562E+01  0.21463648717E+02  0.18235277877E+03  0.17120000000E+03 0.  0.
        998    1    1    2    0    0  0.10714522641E+02 -0.28495994569E+02  0.13348751199E+04  0.13352596783E+04  0.10000000000E+02 0.  1.
</event>
<event>
 5    1  0.1334136E-008  0.3823818E+03  0.7957747E-01  0.3440853E+00
         13   -1    0    0    0    0  0.00000000000E+00  0.00000000000E+00  0.14999999963E+04  0.15000000000E+04  0.10566000000E+00 0.  1.
        994   -1    0    0    0    0 -0.00000000000E+00 -0.00000000000E+00  0.11368683772E-12  0.17120000000E+03  0.17120000000E+03 0.  0.
         13    1    1    2    0    0 -0.12445201343E+02 -0.40563707188E+01  0.28388969167E+02  0.31261508509E+02  0.10566000000E+00 0.  1.
        994    1    1    2    0    0  0.66440700841E+01 -0.65808277391E+00  0.30834927132E+01  0.17135788475E+03  0.17120000000E+03 0.  0.
        998    1    1    2    0    0  0.58011312586E+01  0.47144534927E+01  0.14685275344E+04  0.14685806067E+04  0.10000000000E+02 0.  1.
</event>
<event>
 5    1  0.1334136E-008  0.3817730E+03  0.7957747E-01  0.3443474E+00
         13   -1    0    0    0    0  0.00000000000E+00  0.00000000000E+00  0.14999999963E+04  0.15000000000E+04  0.10566000000E+00 0.  1.
        994   -1    0    0    0    0 -0.00000000000E+00 -0.00000000000E+00  0.11368683772E-12  0.17120000000E+03  0.17120000000E+03 0.  0.
         13    1    1    2    0    0 -0.11686635101E+02 -0.25666345770E+01  0.20653371888E+02  0.23869184892E+02  0.10566000000E+00 0.  1.
        994    1    1    2    0    0  0.10263863437E+02  0.37853271289E+01  0.36386278283E+01  0.17158774783E+03  0.17120000000E+03 0.  0.
        998    1    1    2    0    0  0.14227716631E+01 -0.12186925519E+01  0.14757079966E+04  0.14757430673E+04  0.10000000000E+02 0.  1.
</event>
<event>
 5    1  0.1334136E-008  0.3834863E+03  0.7957747E-01  0.3436117E+00
         13   -1    0    0    0    0  0.00000000000E+00  0.00000000000E+00  0.14999999963E+04  0.15000000000E+04  0.10566000000E+00 0.  1.
        994   -1    0    0    0    0 -0.00000000000E+00 -0.00000000000E+00  0.11368683772E-12  0.17120000000E+03  0.17120000000E+03 0.  0.
         13    1    1    2    0    0 -0.14948154538E+02 -0.87737845337E+01  0.62075172303E+02  0.64449707522E+02  0.10566000000E+00 0.  1.
        994    1    1    2    0    0  0.93256850697E+01  0.84257211554E+01  0.29057368117E+01  0.17168530655E+03  0.17120000000E+03 0.  0.
        998    1    1    2    0    0  0.56224694679E+01  0.34806337830E+00  0.14350190872E+04  0.14350649859E+04  0.10000000000E+02 0.  1.
</event>
<event>
 5    1  0.1334136E-008  0.3793134E+03  0.7957747E-01  0.3454154E+00
         13   -1    0    0    0    0  0.00000000000E+00  0.00000000000E+00  0.14999999963E+04  0.15000000000E+04  0.10566000000E+00 0.  1.
        994   -1    0    0    0    0 -0.00000000000E+00 -0.00000000000E+00  0.11368683772E-12  0.17120000000E+03  0.17120000000E+03 0.  0.
         13    1    1    2    0    0 -0.86576634102E+02  0.21755524433E+02  0.49598764791E+03  0.50395691726E+03  0.10566000000E+00 0.  1.
        994    1    1    2    0    0  0.10135504777E+03 -0.17703995709E+02  0.40808286989E+02  0.20386523357E+03  0.17120000000E+03 0.  0.
        998    1    1    2    0    0 -0.14778413672E+02 -0.40515287239E+01  0.96320406138E+03  0.96337784917E+03  0.10000000000E+02 0.  1.
</event>
<event>
 5    1  0.1334136E-008  0.3739127E+03  0.7957747E-01  0.3478100E+00
         13   -1    0    0    0    0  0.00000000000E+00  0.00000000000E+00  0.14999999963E+04  0.15000000000E+04  0.10566000000E+00 0. -1.
        994   -1    0    0    0    0 -0.00000000000E+00 -0.00000000000E+00  0.11368683772E-12  0.17120000000E+03  0.17120000000E+03 0.  0.
         13    1    1    2    0    0 -0.11892162831E+03 -0.33269519900E+02  0.36308134780E+03  0.38350657220E+03  0.10566000000E+00 0. -1.
        994    1    1    2    0    0  0.14856722799E+03  0.12872945651E+02  0.96652625787E+02  0.24675717625E+03  0.17120000000E+03 0.  0.
        998    1    1    2    0    0 -0.29645599672E+02  0.20396574248E+02  0.10402660227E+04  0.10409362515E+04  0.10000000000E+02 0. -1.
</event>
<event>
 5    1  0.1334136E-008  0.3810880E+03  0.7957747E-01  0.3446435E+00
         13   -1    0    0    0    0  0.00000000000E+00  0.00000000000E+00  0.14999999963E+04  0.15000000000E+04  0.10566000000E+00 0. -1.
        994   -1    0    0    0    0 -0.00000000000E+00 -0.00000000000E+00  0.11368683772E-12  0.17120000000E+03  0.17120000000E+03 0.  0.
         13    1    1    2    0    0  0.10493624082E+02 -0.11727116581E+02  0.32726235477E+02  0.36313345511E+02  0.10566000000E+00 0. -1.
        994    1    1    2    0    0 -0.87785603081E+01  0.11931830126E+02  0.43161683720E+01  0.17189386551E+03  0.17120000000E+03 0.  0.
        998    1    1    2    0    0 -0.17150637735E+01 -0.20471354494E+00  0.14629575924E+04  0.14629927890E+04  0.10000000000E+02 0. -1.
</event>
<event>
 5    1  0.1334136E-008  0.3754057E+03  0.7957747E-01  0.3471410E+00
         13   -1    0    0    0    0  0.00000000000E+00  0.00000000000E+00  0.14999999963E+04  0.15000000000E+04  0.10566000000E+00 0. -1.
        994   -1    0    0    0    0 -0.00000000000E+00 -0.00000000000E+00  0.11368683772E-12  0.17120000000E+03  0.17120000000E+03 0.  0.
         13    1    1    2    0    0 -0.30796241774E+02  0.35603850066E+02  0.12994181983E+03  0.13820611547E+03  0.10566000000E+00 0. -1.
        994    1    1    2    0    0  0.53543870735E+02 -0.63475568102E+02  0.30251878360E+02  0.19266735578E+03  0.17120000000E+03 0.  0.
        998    1    1    2    0    0 -0.22747628961E+02  0.27871718036E+02  0.13398062981E+04  0.13403265288E+04  0.10000000000E+02 0. -1.
</event>
<event>
 5    1  0.1334136E-008  0.3809953E+03  0.7957747E-01  0.3446836E+00
         13   -1    0    0    0    0  0.00000000000E+00  0.00000000000E+00  0.14999999963E+04  0.15000000000E+04  0.10566000000E+00 0. -1.
        994   -1    0    0    0    0 -0.00000000000E+00 -0.00000000000E+00  0.11368683772E-12  0.17120000000E+03  0.17120000000E+03 0.  0.
         13    1    1    2    0    0 -0.11568877031E+02 -0.24413204519E+02  0.94650428389E+02  0.98430474087E+02  0.10566000000E+00 0. -1.
        994    1    1    2    0    0  0.15844051087E+02  0.20811870638E+02  0.59145259128E+01  0.17328759197E+03  0.17120000000E+03 0.  0.
        998    1    1    2    0    0 -0.42751740561E+01  0.36013338806E+01  0.13994350420E+04  0.13994819339E+04  0.10000000000E+02 0. -1.
</event>
<event>
 5    1  0.1334136E-008  0.3775281E+03  0.7957747E-01  0.3461993E+00
         13   -1    0    0    0    0  0.00000000000E+00  0.00000000000E+00  0.14999999963E+04  0.15000000000E+04  0.10566000000E+00 0.  1.
        994   -1    0    0    0    0 -0.00000000000E+00 -0.00000000000E+00  0.11368683772E-12  0.17120000000E+03  0.17120000000E+03 0.  0.
         13    1    1    2    0    0 -0.12509451446E+03  0.57168186109E+02  0.69438575365E+03  0.70787599556E+03  0.10566000000E+00 0.  1.
        994    1    1    2    0    0  0.12910597494E+03 -0.87861734143E+02  0.92561719519E+02  0.24952985595E+03  0.17120000000E+03 0.  0.
        998    1    1    2    0    0 -0.40114604815E+01  0.30693548034E+02  0.71305252311E+03  0.71379414849E+03  0.10000000000E+02 0.  1.
</event>
<event>
 5    1  0.1334136E-008  0.3798203E+03  0.7957747E-01  0.3451941E+00
         13   -1    0    0    0    0  0.00000000000E+00  0.00000000000E+00  0.14999999963E+04  0.15000000000E+04  0.10566000000E+00 0. -1.
        994   -1    0    0    0    0 -0.00000000000E+00 -0.00000000000E+00  0.11368683772E-12  0.17120000000E+03  0.17120000000E+03 0.  0.
         13    1    1    2    0    0 -0.12123722439E+02  0.90174190187E+01  0.25337335326E+02  0.29500681636E+02  0.10566000000E+00 0. -1.
        994    1    1    2    0    0  0.13650783971E+02  0.16075938908E+01  0.48560822565E+01  0.17181952682E+03  0.17120000000E+03 0.  0.
        998    1    1    2    0    0 -0.15270615318E+01 -0.10625012909E+02  0.14698065787E+04  0.14698797915E+04  0.10000000000E+02 0. -1.
</event>
<event>
 5    1  0.1334136E-008  0.3690404E+03  0.7957747E-01  0.3500313E+00
         13   -1    0    0    0    0  0.00000000000E+00  0.00000000000E+00  0.14999999963E+04  0.15000000000E+04  0.10566000000E+00 0.  1.
        994   -1    0    0    0    0 -0.00000000000E+00 -0.00000000000E+00  0.11368683772E-12  0.17120000000E+03  0.17120000000E+03 0.  0.
         13    1    1    2    0    0 -0.35448381861E+02  0.59131166877E+02  0.21894998479E+03  0.22954779389E+03  0.10566000000E+00 0.  1.
        994    1    1    2    0    0  0.26265181647E+02 -0.37258604622E+02  0.17708040219E+02  0.17804796565E+03  0.17120000000E+03 0.  0.
        998    1    1    2    0    0  0.91832002141E+01 -0.21872562255E+02  0.12633419713E+04  0.12636042405E+04  0.10000000000E+02 0.  1.
</event>
<event>
 5    1  0.1334136E-008  0.3788104E+03  0.7957747E-01  0.3456355E+00
         13   -1    0    0    0    0  0.00000000000E+00  0.00000000000E+00  0.14999999963E+04  0.15000000000E+04  0.10566000000E+00 0. -1.
        994   -1    0    0    0    0 -0.00000000000E+00 -0.00000000000E+00  0.11368683772E-12  0.17120000000E+03  0.17120000000E+03 0.  0.
         13    1    1    2    0    0 -0.40851464144E+02  0.41977624641E+02  0.29908313265E+03  0.30476498239E+03  0.10566000000E+00 0. -1.
        994    1    1    2    0    0  0.40734107579E+02 -0.37567317110E+02  0.15109962097E+02  0.18057774445E+03  0.17120000000E+03 0.  0.
        998    1    1    2    0    0  0.11735656479E+00 -0.44103075315E+01  0.11858069015E+04  0.11858572732E+04  0.10000000000E+02 0. -1.
</event>
<event>
 5    1  0.1334136E-008  0.3830394E+03  0.7957747E-01  0.3438030E+00
         13   -1    0    0    0    0  0.00000000000E+00  0.00000000000E+00  0.14999999963E+04  0.15000000000E+04  0.10566000000E+00 0. -1.
        994   -1    0    0    0    0 -0.00000000000E+00 -0.00000000000E+00  0.11368683772E-12  0.17120000000E+03  0.17120000000E+03 0.  0.
         13    1    1    2    0    0  0.18341246703E+02 -0.11272224034E+01  0.62524852206E+02  0.65169319994E+02  0.10566000000E+00 0. -1.
        994    1    1    2    0    0 -0.16484807109E+02  0.25499003936E+01  0.35281482347E+01  0.17204690839E+03  0.17120000000E+03 0.  0.
        998    1    1    2    0    0 -0.18564395935E+01 -0.14226779903E+01  0.14339469958E+04  0.14339837716E+04  0.10000000000E+02 0. -1.
</event>
<event>
 5    1  0.1334136E-008  0.3837397E+03  0.7957747E-01  0.3435035E+00
         13   -1    0    0    0    0  0.00000000000E+00  0.00000000000E+00  0.14999999963E+04  0.15000000000E+04  0.10566000000E+00 0.  1.
        994   -1    0    0    0    0 -0.00000000000E+00 -0.00000000000E+00  0.11368683772E-12  0.17120000000E+03  0.17120000000E+03 0.  0.
         13    1    1    2    0    0  0.24395261457E+01  0.14919567151E+02  0.51265880618E+02  0.53448540217E+02  0.10566000000E+00 0.  1.
        994    1    1    2    0    0  0.15325957517E+01 -0.55072658213E+01  0.23650431736E+01  0.17131173998E+03  0.17120000000E+03 0.  0.
        998    1    1    2    0    0 -0.39721218974E+01 -0.94123013301E+01  0.14463690725E+04  0.14464397198E+04  0.10000000000E+02 0.  1.
</event>
<event>
 5    1  0.1334136E-008  0.3837225E+03  0.7957747E-01  0.3435108E+00
         13   -1    0    0    0    0  0.00000000000E+00  0.00000000000E+00  0.14999999963E+04  0.15000000000E+04  0.10566000000E+00 0.  1.
        994   -1    0    0    0    0 -0.00000000000E+00 -0.00000000000E+00  0.11368683772E-12  0.17120000000E+03  0.17120000000E+03 0.  0.
         13    1    1    2    0    0  0.53707936554E+01 -0.24093754216E+02  0.12552167882E+03  0.12792598420E+03  0.10566000000E+00 0.  1.
        994    1    1    2    0    0 -0.22722517255E+01  0.23798315446E+02  0.41553704894E+01  0.17291104664E+03  0.17120000000E+03 0.  0.
        998    1    1    2    0    0 -0.30985419299E+01  0.29543876972E+00  0.13703229470E+04  0.13703629692E+04  0.10000000000E+02 0.  1.
</event>
<event>
 5    1  0.1334136E-008  0.3846542E+03  0.7957747E-01  0.3431140E+00
         13   -1    0    0    0    0  0.00000000000E+00  0.00000000000E+00  0.14999999963E+04  0.15000000000E+04  0.10566000000E+00 0. -1.
        994   -1    0    0    0    0 -0.00000000000E+00 -0.00000000000E+00  0.11368683772E-12  0.17120000000E+03  0.17120000000E+03 0.  0.
         13    1    1    2    0    0  0.45164787786E+00  0.15631151274E+02  0.63529359270E+02  0.65425740570E+02  0.10566000000E+00 0. -1.
        994    1    1    2    0    0  0.58499531871E+01 -0.21222403690E+02  0.33990296627E+01  0.17264300094E+03  0.17120000000E+03 0.  0.
        998    1    1    2    0    0 -0.63016010650E+01  0.55912524159E+01  0.14330716073E+04  0.14331312585E+04  0.10000000000E+02 0. -1.
</event>
<event>
 5    1  0.1334136E-008  0.3852977E+03  0.7957747E-01  0.3428411E+00
         13   -1    0    0    0    0  0.00000000000E+00  0.00000000000E+00  0.14999999963E+04  0.15000000000E+04  0.10566000000E+00 0. -1.
        994   -1    0    0    0    0 -0.00000000000E+00 -0.00000000000E+00  0.11368683772E-12  0.17120000000E+03  0.17120000000E+03 0.  0.
         13    1    1    2    0    0 -0.40144122546E+01 -0.11627505745E+02  0.51859577076E+02  0.53298604993E+02  0.10566000000E+00 0. -1.
        994    1    1    2    0    0  0.18714159306E+01  0.55990545149E+01  0.15969371107E+01  0.17130919945E+03  0.17120000000E+03 0.  0.
        998    1    1    2    0    0  0.21429963240E+01  0.60284512297E+01  0.14465434821E+04  0.14465921956E+04  0.10000000000E+02 0. -1.
</event>
<event>
 5    1  0.1334136E-008  0.3770636E+03  0.7957747E-01  0.3464045E+00
         13   -1    0    0    0    0  0.00000000000E+00  0.00000000000E+00  0.14999999963E+04  0.15000000000E+04  0.10566000000E+00 0. -1.
        994   -1    0    0    0    0 -0.00000000000E+00 -0.00000000000E+00  0.11368683772E-12  0.17120000000E+03  0.17120000000E+03 0.  0.
         13    1    1    2    0    0  0.90217462259E+02 -0.50228959795E+02  0.38572695592E+03  0.39930869586E+03  0.10566000000E+00 0. -1.
        994    1    1    2    0    0 -0.10415723019E+03 -0.61471462919E+02  0.69218901754E+02  0.22074457120E+03  0.17120000000E+03 0.  0.
        998    1    1    2    0    0  0.13939767931E+02  0.11170042271E+03  0.10450541386E+04  0.10511467329E+04  0.10000000000E+02 0. -1.
</event>
<event>
 5    1  0.1334136E-008  0.3858443E+03  0.7957747E-01  0.3426099E+00
         13   -1    0    0    0    0  0.00000000000E+00  0.00000000000E+00  0.14999999963E+04  0.15000000000E+04  0.10566000000E+00 0.  1.
        994   -1    0    0    0    0 -0.00000000000E+00 -0.00000000000E+00  0.11368683772E-12  0.17120000000E+03  0.17120000000E+03 0.  0.
         13    1    1    2    0    0 -0.11955474427E+02 -0.73703226672E+01  0.83723365834E+02  0.84893275208E+02  0.10566000000E+00 0.  1.
        994    1    1    2    0    0  0.38701834861E+01  0.69249141396E+01  0.14179819789E+01  0.17138956628E+03  0.17120000000E+03 0.  0.
        998    1    1    2    0    0  0.80852909404E+01  0.44540852761E+00  0.14148586485E+04  0.14149171585E+04  0.10000000000E+02 0.  1.
</event>
<event>
 5    1  0.1334136E-008  0.3766515E+03  0.7957747E-01  0.3465869E+00
         13   -1    0    0    0    0  0.00000000000E+00  0.00000000000E+00  0.14999999963E+04  0.15000000000E+04  0.10566000000E+00 0. -1.
        994   -1    0    0    0    0 -0.00000000000E+00 -0.00000000000E+00  0.11368683772E-12  0.17120000000E+03  0.17120000000E+03 0.  0.
         13    1    1    2    0    0  0.62817188441E+01 -0.98886372977E+01  0.91704181485E+01  0.14877932393E+02  0.10566000000E+00 0. -1.
        994    1    1    2    0    0 -0.34492068002E+01  0.58027076856E+01  0.59871166295E+01  0.17143760967E+03  0.17120000000E+03 0.  0.
        998    1    1    2    0    0 -0.28325120439E+01  0.40859296122E+01  0.14848424615E+04  0.14848844579E+04  0.10000000000E+02 0. -1.
</event>
<event>
 5    1  0.1334136E-008  0.3849716E+03  0.7957747E-01  0.3429793E+00
         13   -1    0    0    0    0  0.00000000000E+00  0.00000000000E+00  0.14999999963E+04  0.15000000000E+04  0.10566000000E+00 0.  1.
        994   -1    0    0    0    0 -0.00000000000E+00 -0.00000000000E+00  0.11368683772E-12  0.17120000000E+03  0.17120000000E+03 0.  0.
         13    1    1    2    0    0 -0.17166237852E+01 -0.10780155256E+02  0.35908729526E+02  0.37531407711E+02  0.10566000000E+00 0.  1.
        994    1    1    2    0    0 -0.12344539863E+02  0.10454855752E+02  0.25053922005E+01  0.17198083807E+03  0.17120000000E+03 0.  0.
        998    1    1    2    0    0  0.14061163648E+02  0.32529950404E+00  0.14615858746E+04  0.14616877542E+04  0.10000000000E+02 0.  1.
</event>
<event>
 5    1  0.1334136E-008  0.3820073E+03  0.7957747E-01  0.3442465E+00
         13   -1    0    0    0    0  0.00000000000E+00  0.00000000000E+00  0.14999999963E+04  0.15000000000E+04  0.10566000000E+00 0. -1.
        994   -1    0    0    0    0 -0.00000000000E+00 -0.00000000000E+00  0.11368683772E-12  0.17120000000E+03  0.17120000000E+03 0.  0.
         13    1    1    2    0    0 -0.11167074037E+02 -0.17927054621E+02  0.70212783884E+02  0.73320727047E+02  0.10566000000E+00 0. -1.
        994    1    1    2    0    0 -0.71499885027E+01  0.21134570221E+02  0.47781710614E+01  0.17271381911E+03  0.17120000000E+03 0.  0.
        998    1    1    2    0    0  0.18317062540E+02 -0.32075156005E+01  0.14250090413E+04  0.14251654538E+04  0.10000000000E+02 0. -1.
</event>
<event>
 5    1  0.1334136E-008  0.3822178E+03  0.7957747E-01  0.3441558E+00
         13   -1    0    0    0    0  0.00000000000E+00  0.00000000000E+00  0.14999999963E+04  0.15000000000E+04  0.10566000000E+00 0. -1.
        994   -1    0    0    0    0 -0.00000000000E+00 -0.00000000000E+00  0.11368683772E-12  0.17120000000E+03  0.17120000000E+03 0.  0.
         13    1    1    2    0    0  0.62442472989E+01  0.16630437272E+02  0.49578723350E+02  0.52665197629E+02  0.10566000000E+00 0. -1.
        994    1    1    2    0    0 -0.21860516044E+01 -0.20154202807E+02  0.43828250130E+01  0.17245178998E+03  0.17120000000E+03 0.  0.
        998    1    1    2    0    0 -0.40581956945E+01  0.35237655356E+01  0.14460384479E+04  0.14460830124E+04  0.10000000000E+02 0. -1.
</event>
<event>
 5    1  0.1334136E-008  0.3817203E+03  0.7957747E-01  0.3443702E+00
         13   -1    0    0    0    0  0.00000000000E+00  0.00000000000E+00  0.14999999963E+04  0.15000000000E+04  0.10566000000E+00 0. -1.
        994   -1    0    0    0    0 -0.00000000000E+00 -0.00000000000E+00  0.11368683772E-12  0.17120000000E+03  0.17120000000E+03 0.  0.
         13    1    1    2    0    0  0.33536806183E+02 -0.31140648432E+01  0.18740944577E+03  0.19041199095E+03  0.10566000000E+00 0. -1.
        994    1    1    2    0    0 -0.10097897360E+02 -0.62747926015E+01  0.37372447947E+01  0.17165298585E+03  0.17120000000E+03 0.  0.
        998    1    1    2    0    0 -0.23438908823E+02  0.93888574448E+01  0.13088533057E+04  0.13091350232E+04  0.10000000000E+02 0. -1.
</event>
<event>
 5    1  0.1334136E-008  0.3700681E+03  0.7957747E-01  0.3495578E+00
         13   -1    0    0    0    0  0.00000000000E+00  0.00000000000E+00  0.14999999963E+04  0.15000000000E+04  0.10566000000E+00 0.  1.
        994   -1    0    0    0    0 -0.00000000000E+00 -0.00000000000E+00  0.11368683772E-12  0.17120000000E+03  0.17120000000E+03 0.  0.
         13    1    1    2    0    0  0.15802997625E+02 -0.48236559847E+01  0.72625279372E+01  0.18048763588E+02  0.10566000000E+00 0.  1.
        994    1    1    2    0    0 -0.23902657436E+02  0.63891042014E+01  0.13118346763E+02  0.17347532593E+03  0.17120000000E+03 0.  0.
        998    1    1    2    0    0  0.80996598114E+01 -0.15654482168E+01  0.14796191216E+04  0.14796759105E+04  0.10000000000E+02 0.  1.
</event>
<event>
 5    1  0.1334136E-008  0.3860989E+03  0.7957747E-01  0.3425025E+00
         13   -1    0    0    0    0  0.00000000000E+00  0.00000000000E+00  0.14999999963E+04  0.15000000000E+04  0.10566000000E+00 0.  1.
        994   -1    0    0    0    0 -0.00000000000E+00 -0.00000000000E+00  0.11368683772E-12  0.17120000000E+03  0.17120000000E+03 0.  0.
         13    1    1    2    0    0  0.22373152233E+01 -0.14215385434E+02  0.82872192294E+02  0.84112390182E+02  0.10566000000E+00 0.  1.
        994    1    1    2    0    0  0.14628983292E+01  0.28131656941E+02  0.36902307162E+01  0.17354131496E+03  0.17120000000E+03 0.  0.
        998    1    1    2    0    0 -0.37002135525E+01 -0.13916271508E+02  0.14134375733E+04  0.14135462949E+04  0.10000000000E+02 0.  1.
</event>
<event>
 5    1  0.1334136E-008  0.3807560E+03  0.7957747E-01  0.3447873E+00
         13   -1    0    0    0    0  0.00000000000E+00  0.00000000000E+00  0.14999999963E+04  0.15000000000E+04  0.10566000000E+00 0.  1.
        994   -1    0    0    0    0 -0.00000000000E+00 -0.00000000000E+00  0.11368683772E-12  0.17120000000E+03  0.17120000000E+03 0.  0.
         13    1    1    2    0    0 -0.32270249434E+02  0.15590753810E+02  0.17770655404E+03  0.18128450324E+03  0.10566000000E+00 0.  1.
        994    1    1    2    0    0  0.11294827663E+02 -0.10540695749E+02  0.45483156415E+01  0.17195582739E+03  0.17120000000E+03 0.  0.
        998    1    1    2    0    0  0.20975421771E+02 -0.50500580614E+01  0.13177451266E+04  0.13179596694E+04  0.10000000000E+02 0.  1.
</event>
<event>
 5    1  0.1334136E-008  0.3806843E+03  0.7957747E-01  0.3448184E+00
         13   -1    0    0    0    0  0.00000000000E+00  0.00000000000E+00  0.14999999963E+04  0.15000000000E+04  0.10566000000E+00 0. -1.
        994   -1    0    0    0    0 -0.00000000000E+00 -0.00000000000E+00  0.11368683772E-12  0.17120000000E+03  0.17120000000E+03 0.  0.
         13    1    1    2    0    0  0.11844570919E+02 -0.76830152640E+01  0.24633774843E+02  0.28392897191E+02  0.10566000000E+00 0. -1.
        994    1    1    2    0    0 -0.13534975274E+02  0.10204408997E+01  0.44028295376E+01  0.17179366043E+03  0.17120000000E+03 0.  0.
        998    1    1    2    0    0  0.16904043546E+01  0.66625743643E+01  0.14709633919E+04  0.14710134424E+04  0.10000000000E+02 0. -1.
</event>
<event>
 5    1  0.1334136E-008  0.3854135E+03  0.7957747E-01  0.3427920E+00
         13   -1    0    0    0    0  0.00000000000E+00  0.00000000000E+00  0.14999999963E+04  0.15000000000E+04  0.10566000000E+00 0. -1.
        994   -1    0    0    0    0 -0.00000000000E+00 -0.00000000000E+00  0.11368683772E-12  0.17120000000E+03  0.17120000000E+03 0.  0.
         13    1    1    2    0    0  0.96693437452E+01 -0.10365366423E+02  0.71903795372E+02  0.73287816058E+02  0.10566000000E+00 0. -1.
        994    1    1    2    0    0  0.48455256161E+01  0.14678607025E+02  0.22101107229E+01  0.17191063147E+03  0.17120000000E+03 0.  0.
        998    1    1    2    0    0 -0.14514869361E+02 -0.43132406023E+01  0.14258860902E+04  0.14260015525E+04  0.10000000000E+02 0. -1.
</event>
<event>
 5    1  0.1334136E-008  0.3818262E+03  0.7957747E-01  0.3443245E+00
         13   -1    0    0    0    0  0.00000000000E+00  0.00000000000E+00  0.14999999963E+04  0.15000000000E+04  0.10566000000E+00 0. -1.
        994   -1    0    0    0    0 -0.00000000000E+00 -0.00000000000E+00  0.11368683772E-12  0.17120000000E+03  0.17120000000E+03 0.  0.
         13    1    1    2    0    0 -0.13714268882E+02  0.17657071369E+01  0.28206589661E+02  0.31413719248E+02  0.10566000000E+00 0. -1.
        994    1    1    2    0    0  0.12706588615E+02 -0.30319851497E+01  0.37813829816E+01  0.17173930588E+03  0.17120000000E+03 0.  0.
        998    1    1    2    0    0  0.10076802669E+01  0.12662780128E+01  0.14680120236E+04  0.14680469749E+04  0.10000000000E+02 0. -1.
</event>
<event>
 5    1  0.1334136E-008  0.3783428E+03  0.7957747E-01  0.3458406E+00
         13   -1    0    0    0    0  0.00000000000E+00  0.00000000000E+00  0.14999999963E+04  0.15000000000E+04  0.10566000000E+00 0. -1.
        994   -1    0    0    0    0 -0.00000000000E+00 -0.00000000000E+00  0.11368683772E-12  0.17120000000E+03  0.17120000000E+03 0.  0.
         13    1    1    2    0    0  0.44333182723E+02 -0.33995889242E+01  0.21089199256E+03  0.21552826261E+03  0.10566000000E+00 0. -1.
        994    1    1    2    0    0 -0.19064567817E+02 -0.25337650263E+02  0.83591046886E+01  0.17431227409E+03  0.17120000000E+03 0.  0.
        998    1    1    2    0    0 -0.25268614906E+02  0.28737239187E+02  0.12807488990E+04  0.12813594633E+04  0.10000000000E+02 0. -1.
</event>
<event>
 5    1  0.1334136E-008  0.3704818E+03  0.7957747E-01  0.3493680E+00
         13   -1    0    0    0    0  0.00000000000E+00  0.00000000000E+00  0.14999999963E+04  0.15000000000E+04  0.10566000000E+00 0.  1.
        994   -1    0    0    0    0 -0.00000000000E+00 -0.00000000000E+00  0.11368683772E-12  0.17120000000E+03  0.17120000000E+03 0.  0.
         13    1    1    2    0    0 -0.31804477996E+02 -0.21135688549E+01  0.41933261112E+02  0.52672588179E+02  0.10566000000E+00 0.  1.
        994    1    1    2    0    0  0.13332206350E+02  0.90572315086E+00  0.11819364705E+02  0.17212700382E+03  0.17120000000E+03 0.  0.
        998    1    1    2    0    0  0.18472271646E+02  0.12078457040E+01  0.14462473705E+04  0.14464004080E+04  0.10000000000E+02 0.  1.
</event>
<event>
 5    1  0.1334136E-008  0.3819967E+03  0.7957747E-01  0.3442510E+00
         13   -1    0    0    0    0  0.00000000000E+00  0.00000000000E+00  0.14999999963E+04  0.15000000000E+04  0.10566000000E+00 0. -1.
        994   -1    0    0    0    0 -0.00000000000E+00 -0.00000000000E+00  0.11368683772E-12  0.17120000000E+03  0.17120000000E+03 0.  0.
         13    1    1    2    0    0 -0.39979387525E+01 -0.92392531272E+01  0.14973366016E+02  0.18043285912E+02  0.10566000000E+00 0. -1.
        994    1    1    2    0    0 -0.45269831346E+01  0.79858462247E+01  0.34085277904E+01  0.17147981041E+03  0.17120000000E+03 0.  0.
        998    1    1    2    0    0  0.85249218871E+01  0.12534069025E+01  0.14816181025E+04  0.14816769037E+04  0.10000000000E+02 0. -1.
</event>
<event>
 5    1  0.1334136E-008  0.3849889E+03  0.7957747E-01  0.3429719E+00
         13   -1    0    0    0    0  0.00000000000E+00  0.00000000000E+00  0.14999999963E+04  0.15000000000E+04  0.10566000000E+00 0.  1.
        994   -1    0    0    0    0 -0.00000000000E+00 -0.00000000000E+00  0.11368683772E-12  0.17120000000E+03  0.17120000000E+03 0.  0.
         13    1    1    2    0    0  0.46619661574E+01 -0.16679412198E+02  0.91937846157E+02  0.93554879294E+02  0.10566000000E+00 0.  1.
        994    1    1    2    0    0 -0.95771742594E+01  0.86610022522E+01  0.21842146120E+01  0.17170016313E+03  0.17120000000E+03 0.  0.
        998    1    1    2    0    0  0.49152081020E+01  0.80184099453E+01  0.14058779355E+04  0.14059449576E+04  0.10000000000E+02 0.  1.
</event>
<event>
 5    1  0.1334136E-008  0.3720807E+03  0.7957747E-01  0.3486383E+00
         13   -1    0    0    0    0  0.00000000000E+00  0.00000000000E+00  0.14999999963E+04  0.15000000000E+04  0.10566000000E+00 0. -1.
        994   -1    0    0    0    0 -0.00000000000E+00 -0.00000000000E+00  0.11368683772E-12  0.17120000000E+03  0.17120000000E+03 0.  0.
         13    1    1    2    0    0 -0.47265479611E+02 -0.83878931389E+02  0.45556046113E+03  0.46562328722E+03  0.10566000000E+00 0. -1.
        994    1    1    2    0    0 -0.52841157175E+01  0.42566158192E+02  0.18550569162E+02  0.17746369578E+03  0.17120000000E+03 0.  0.
        998    1    1    2    0    0  0.52549595328E+02  0.41312773197E+02  0.10258889660E+04  0.10281130170E+04  0.10000000000E+02 0. -1.
</event>
<event>
 5    1  0.1334136E-008  0.3828529E+03  0.7957747E-01  0.3438829E+00
         13   -1    0    0    0    0  0.00000000000E+00  0.00000000000E+00  0.14999999963E+04  0.15000000000E+04  0.10566000000E+00 0. -1.
        994   -1    0    0    0    0 -0.00000000000E+00 -0.00000000000E+00  0.11368683772E-12  0.17120000000E+03  0.17120000000E+03 0.  0.
         13    1    1    2    0    0 -0.30370750621E+02 -0.40238466902E+01  0.14799671208E+03  0.15113441629E+03  0.10566000000E+00 0. -1.
        994    1    1    2    0    0  0.40703168132E+02 -0.68634881058E+01  0.83631324961E+01  0.17630438835E+03  0.17120000000E+03 0.  0.
        998    1    1    2    0    0 -0.10332417511E+02  0.10887334796E+02  0.13436401517E+04  0.13437611954E+04  0.10000000000E+02 0. -1.
</event>
<event>
 5    1  0.1334136E-008  0.3849404E+03  0.7957747E-01  0.3429925E+00
         13   -1    0    0    0    0  0.00000000000E+00  0.00000000000E+00  0.14999999963E+04  0.15000000000E+04  0.10566000000E+00 0.  1.
        994   -1    0    0    0    0 -0.00000000000E+00 -0.00000000000E+00  0.11368683772E-12  0.17120000000E+03  0.17120000000E+03 0.  0.
         13    1    1    2    0    0  0.20320424980E+02 -0.82320836086E+00  0.11926537853E+03  0.12098693741E+03  0.10566000000E+00 0.  1.
        994    1    1    2    0    0 -0.18077674848E+02 -0.29075578956E+01  0.27632393565E+01  0.17219852413E+03  0.17120000000E+03 0.  0.
        998    1    1    2    0    0 -0.22427501319E+01  0.37307662565E+01  0.13779713784E+04  0.13780145385E+04  0.10000000000E+02 0.  1.
</event>
<event>
 5    1  0.1334136E-008  0.3777925E+03  0.7957747E-01  0.3460827E+00
         13   -1    0    0    0    0  0.00000000000E+00  0.00000000000E+00  0.14999999963E+04  0.15000000000E+04  0.10566000000E+00 0. -1.
        994   -1    0    0    0    0 -0.00000000000E+00 -0.00000000000E+00  0.11368683772E-12  0.17120000000E+03  0.17120000000E+03 0.  0.
         13    1    1    2    0    0 -0.21588280584E+02  0.10084364302E+01  0.41716127320E+02  0.46982094943E+02  0.10566000000E+00 0. -1.
        994    1    1    2    0    0  0.19138183087E+02 -0.74803564776E+01  0.66747722154E+01  0.17255786962E+03  0.17120000000E+03 0.  0.
        998    1    1    2    0    0  0.24500974976E+01  0.64719200474E+01  0.14516090967E+04  0.14516600354E+04  0.10000000000E+02 0. -1.
</event>
<event>
 5    1  0.1334136E-008  0.3796892E+03  0.7957747E-01  0.3452513E+00
         13   -1    0    0    0    0  0.00000000000E+00  0.00000000000E+00  0.14999999963E+04  0.15000000000E+04  0.10566000000E+00 0. -1.
        994   -1    0    0    0    0 -0.00000000000E+00 -0.00000000000E+00  0.11368683772E-12  0.17120000000E+03  0.17120000000E+03 0.  0.
         13    1    1    2    0    0  0.42029816003E+02  0.23658218206E+02  0.27531583125E+03  0.27950855948E+03  0.10566000000E+00 0. -1.
        994    1    1    2    0    0 -0.32100476312E+02  0.43675510343E+01  0.78101588926E+01  0.17441317228E+03  0.17120000000E+03 0.  0.
        998    1    1    2    0    0 -0.99293396909E+01 -0.28025769240E+02  0.12168740061E+04  0.12172782682E+04  0.10000000000E+02 0. -1.
</event>
<event>
 5    1  0.1334136E-008  0.3858013E+03  0.7957747E-01  0.3426281E+00
         13   -1    0    0    0    0  0.00000000000E+00  0.00000000000E+00  0.14999999963E+04  0.15000000000E+04  0.10566000000E+00 0.  1.
        994   -1    0    0    0    0 -0.00000000000E+00 -0.00000000000E+00  0.11368683772E-12  0.17120000000E+03  0.17120000000E+03 0.  0.
         13    1    1    2    0    0 -0.10321771726E+02 -0.75952219851E+01  0.66682362721E+02  0.67902687948E+02  0.10566000000E+00 0.  1.
        994    1    1    2    0    0  0.73750426430E+01  0.60799971105E+01  0.15325329670E+01  0.17147345648E+03  0.17120000000E+03 0.  0.
        998    1    1    2    0    0  0.29467290825E+01  0.15152248746E+01  0.14317851006E+04  0.14318238556E+04  0.10000000000E+02 0.  1.
</event>
<event>
 5    1  0.1334136E-008  0.3711985E+03  0.7957747E-01  0.3490401E+00
         13   -1    0    0    0    0  0.00000000000E+00  0.00000000000E+00  0.14999999963E+04  0.15000000000E+04  0.10566000000E+00 0.  1.
        994   -1    0    0    0    0 -0.00000000000E+00 -0.00000000000E+00  0.11368683772E-12  0.17120000000E+03  0.17120000000E+03 0.  0.
         13    1    1    2    0    0  0.84600606367E+02 -0.15161511040E+03  0.68859570511E+03  0.71014678804E+03  0.10566000000E+00 0.  1.
        994    1    1    2    0    0 -0.91880360669E+02  0.13780162184E+03  0.11519170608E+03  0.26459375807E+03  0.17120000000E+03 0.  0.
        998    1    1    2    0    0  0.72797543022E+01  0.13813488567E+02  0.69621258509E+03  0.69645945390E+03  0.10000000000E+02 0.  1.
</event>
<event>
 5    1  0.1334136E-008  0.3843357E+03  0.7957747E-01  0.3432494E+00
         13   -1    0    0    0    0  0.00000000000E+00  0.00000000000E+00  0.14999999963E+04  0.15000000000E+04  0.10566000000E+00 0. -1.
        994   -1    0    0    0    0 -0.00000000000E+00 -0.00000000000E+00  0.11368683772E-12  0.17120000000E+03  0.17120000000E+03 0.  0.
         13    1    1    2    0    0  0.12753304518E+02 -0.19349126853E+02  0.11862531121E+03  0.12086774222E+03  0.10566000000E+00 0. -1.
        994    1    1    2    0    0 -0.24859911586E+02  0.22971234553E+02  0.57453524434E+01  0.17460853901E+03  0.17120000000E+03 0.  0.
        998    1    1    2    0    0  0.12106607068E+02 -0.36221076992E+01  0.13756293326E+04  0.13757237188E+04  0.10000000000E+02 0. -1.
</event>
<event>
 5    1  0.1334136E-008  0.3769250E+03  0.7957747E-01  0.3464658E+00
         13   -1    0    0    0    0  0.00000000000E+00  0.00000000000E+00  0.14999999963E+04  0.15000000000E+04  0.10566000000E+00 0. -1.
        994   -1    0    0    0    0 -0.00000000000E+00 -0.00000000000E+00  0.11368683772E-12  0.17120000000E+03  0.17120000000E+03 0.  0.
         13    1    1    2    0    0  0.25741099982E+02 -0.25137992500E+02  0.10199150589E+03  0.10815175141E+03  0.10566000000E+00 0. -1.
        994    1    1    2    0    0 -0.34421554928E+02  0.24769221507E+02  0.11791271388E+02  0.17676773421E+03  0.17120000000E+03 0.  0.
        998    1    1    2    0    0  0.86804549462E+01  0.36877099328E+00  0.13862172190E+04  0.13862805144E+04  0.10000000000E+02 0. -1.
</event>
<event>
 5    1  0.1334136E-008  0.3827143E+03  0.7957747E-01  0.3439424E+00
         13   -1    0    0    0    0  0.00000000000E+00  0.00000000000E+00  0.14999999963E+04  0.15000000000E+04  0.10566000000E+00 0. -1.
        994   -1    0    0    0    0 -0.00000000000E+00 -0.00000000000E+00  0.11368683772E-12  0.17120000000E+03  0.17120000000E+03 0.  0.
         13    1    1    2    0    0  0.66157902757E+01 -0.20928310626E+02  0.80058852604E+02  0.83013215278E+02  0.10566000000E+00 0. -1.
        994    1    1    2    0    0  0.19203397400E+01  0.29318874213E+02  0.56347024603E+01  0.17379434387E+03  0.17120000000E+03 0.  0.
        998    1    1    2    0    0 -0.85361300157E+01 -0.83905635869E+01  0.14143064412E+04  0.14143924409E+04  0.10000000000E+02 0. -1.
</event>
<event>
 5    1  0.1334136E-008  0.3839074E+03  0.7957747E-01  0.3434319E+00
         13   -1    0    0    0    0  0.00000000000E+00  0.00000000000E+00  0.14999999963E+04  0.15000000000E+04  0.10566000000E+00 0.  1.
        994   -1    0    0    0    0 -0.00000000000E+00 -0.00000000000E+00  0.11368683772E-12  0.17120000000E+03  0.17120000000E+03 0.  0.
         13    1    1    2    0    0  0.13114125739E+02 -0.10577398905E+02  0.63731826788E+02  0.65921305897E+02  0.10566000000E+00 0.  1.
        994    1    1    2    0    0 -0.48594368462E+01  0.16570167960E+02  0.31583113746E+01  0.17209764532E+03  0.17120000000E+03 0.  0.
        998    1    1    2    0    0 -0.82546888925E+01 -0.59927690549E+01  0.14331098581E+04  0.14331810488E+04  0.10000000000E+02 0.  1.
</event>
<event>
 5    1  0.1334136E-008  0.3721383E+03  0.7957747E-01  0.3486121E+00
         13   -1    0    0    0    0  0.00000000000E+00  0.00000000000E+00  0.14999999963E+04  0.15000000000E+04  0.10566000000E+00 0. -1.
        994   -1    0    0    0    0 -0.00000000000E+00 -0.00000000000E+00  0.11368683772E-12  0.17120000000E+03  0.17120000000E+03 0.  0.
         13    1    1    2    0    0  0.34136595334E+02 -0.25831148434E+02  0.99104652076E+02  0.10795507676E+03  0.10566000000E+00 0. -1.
        994    1    1    2    0    0 -0.43238539771E+02  0.28978094946E+02  0.17512858778E+02  0.17979277386E+03  0.17120000000E+03 0.  0.
        998    1    1    2    0    0  0.91019444362E+01 -0.31469465122E+01  0.13833824854E+04  0.13834521494E+04  0.10000000000E+02 0. -1.
</event>
<event>
 5    1  0.1334136E-008  0.3701222E+03  0.7957747E-01  0.3495330E+00
         13   -1    0    0    0    0  0.00000000000E+00  0.00000000000E+00  0.14999999963E+04  0.15000000000E+04  0.10566000000E+00 0.  1.
        994   -1    0    0    0    0 -0.00000000000E+00 -0.00000000000E+00  0.11368683772E-12  0.17120000000E+03  0.17120000000E+03 0.  0.
         13    1    1    2    0    0  0.19860098746E+02  0.49208539089E+02  0.16821812568E+03  0.17638949178E+03  0.10566000000E+00 0.  1.
        994    1    1    2    0    0 -0.76030316221E+01  0.38925581037E+02  0.16525143114E+02  0.17650928390E+03  0.17120000000E+03 0.  0.
        998    1    1    2    0    0 -0.12257067124E+02 -0.88134120125E+02  0.13152567275E+04  0.13183012243E+04  0.10000000000E+02 0.  1.
</event>
<event>
 5    1  0.1334136E-008  0.3724475E+03  0.7957747E-01  0.3484718E+00
         13   -1    0    0    0    0  0.00000000000E+00  0.00000000000E+00  0.14999999963E+04  0.15000000000E+04  0.10566000000E+00 0.  1.
        994   -1    0    0    0    0 -0.00000000000E+00 -0.00000000000E+00  0.11368683772E-12  0.17120000000E+03  0.17120000000E+03 0.  0.
         13    1    1    2    0    0  0.57486245337E+02  0.37789717643E+01  0.18011930420E+03  0.18910823340E+03  0.10566000000E+00 0.  1.
        994    1    1    2    0    0 -0.59371767712E+02  0.73019010516E+01  0.20365820503E+02  0.18248981124E+03  0.17120000000E+03 0.  0.
        998    1    1    2    0    0  0.18855223750E+01 -0.11080872816E+02  0.12995148716E+04  0.12996019554E+04  0.10000000000E+02 0.  1.
</event>
<event>
 5    1  0.1334136E-008  0.3845712E+03  0.7957747E-01  0.3431493E+00
         13   -1    0    0    0    0  0.00000000000E+00  0.00000000000E+00  0.14999999963E+04  0.15000000000E+04  0.10566000000E+00 0.  1.
        994   -1    0    0    0    0 -0.00000000000E+00 -0.00000000000E+00  0.11368683772E-12  0.17120000000E+03  0.17120000000E+03 0.  0.
         13    1    1    2    0    0 -0.45339536826E+01 -0.17861186321E+02  0.93856989206E+02  0.95648963924E+02  0.10566000000E+00 0.  1.
        994    1    1    2    0    0  0.63503459257E+01  0.75925188399E+01  0.21658847564E+01  0.17149957520E+03  0.17120000000E+03 0.  0.
        998    1    1    2    0    0 -0.18163922431E+01  0.10268667481E+02  0.14039771223E+04  0.14040514609E+04  0.10000000000E+02 0.  1.
</event>
<event>
 5    1  0.1334136E-008  0.3823787E+03  0.7957747E-01  0.3440866E+00
         13   -1    0    0    0    0  0.00000000000E+00  0.00000000000E+00  0.14999999963E+04  0.15000000000E+04  0.10566000000E+00 0.  1.
        994   -1    0    0    0    0 -0.00000000000E+00 -0.00000000000E+00  0.11368683772E-12  0.17120000000E+03  0.17120000000E+03 0.  0.
         13    1    1    2    0    0 -0.32288160931E+01 -0.17782204816E+02  0.54235942716E+02  0.57168004231E+02  0.10566000000E+00 0.  1.
        994    1    1    2    0    0  0.12585088967E+02  0.11498508990E+02  0.39016385277E+01  0.17209085669E+03  0.17120000000E+03 0.  0.
        998    1    1    2    0    0 -0.93562728743E+01  0.62836958259E+01  0.14418624150E+04  0.14419411391E+04  0.10000000000E+02 0.  1.
</event>
<event>
 5    1  0.1334136E-008  0.3843316E+03  0.7957747E-01  0.3432512E+00
         13   -1    0    0    0    0  0.00000000000E+00  0.00000000000E+00  0.14999999963E+04  0.15000000000E+04  0.10566000000E+00 0. -1.
        994   -1    0    0    0    0 -0.00000000000E+00 -0.00000000000E+00  0.11368683772E-12  0.17120000000E+03  0.17120000000E+03 0.  0.
         13    1    1    2    0    0  0.11615297616E+02 -0.96019516250E+01  0.55057090352E+02  0.57082457689E+02  0.10566000000E+00 0. -1.
        994    1    1    2    0    0 -0.15301002684E+02  0.10127006509E+02  0.30727403262E+01  0.17220789377E+03  0.17120000000E+03 0.  0.
        998    1    1    2    0    0  0.36857050679E+01 -0.52505488375E+00  0.14418701656E+04  0.14419096485E+04  0.10000000000E+02 0. -1.
</event>
<event>
 5    1  0.1334136E-008  0.3781048E+03  0.7957747E-01  0.3459453E+00
         13   -1    0    0    0    0  0.00000000000E+00  0.00000000000E+00  0.14999999963E+04  0.15000000000E+04  0.10566000000E+00 0.  1.
        994   -1    0    0    0    0 -0.00000000000E+00 -0.00000000000E+00  0.11368683772E-12  0.17120000000E+03  0.17120000000E+03 0.  0.
         13    1    1    2    0    0  0.60639308898E+00 -0.14085137361E+02  0.17746940915E+02  0.22665477778E+02  0.10566000000E+00 0.  1.
        994    1    1    2    0    0  0.17525460872E+02  0.82228208036E+00  0.61290947432E+01  0.17220575986E+03  0.17120000000E+03 0.  0.
        998    1    1    2    0    0 -0.18131853961E+02  0.13262855280E+02  0.14761239606E+04  0.14763287624E+04  0.10000000000E+02 0.  1.
</event>
<event>
 5    1  0.1334136E-008  0.3725165E+03  0.7957747E-01  0.3484405E+00
         13   -1    0    0    0    0  0.00000000000E+00  0.00000000000E+00  0.14999999963E+04  0.15000000000E+04  0.10566000000E+00 0.  1.
        994   -1    0    0    0    0 -0.00000000000E+00 -0.00000000000E+00  0.11368683772E-12  0.17120000000E+03  0.17120000000E+03 0.  0.
         13    1    1    2    0    0  0.20362237441E+02 -0.29293860387E+01  0.12054647229E+02  0.23843818906E+02  0.10566000000E+00 0.  1.
        994    1    1    2    0    0 -0.98279590670E+01 -0.39758579558E+01  0.12672240714E+02  0.17199541247E+03  0.17120000000E+03 0.  0.
        998    1    1    2    0    0 -0.10534278374E+02  0.69052439946E+01  0.14752731083E+04  0.14753607686E+04  0.10000000000E+02 0.  1.
</event>
<event>
 5    1  0.1434638E-008  0.3861872E+03  0.7957747E-01  0.3424653E+00
         13   -1    0    0    0    0  0.00000000000E+00  0.00000000000E+00  0.14999999963E+04  0.15000000000E+04  0.10566000000E+00 0.  1.
        994   -1    0    0    0    0 -0.00000000000E+00 -0.00000000000E+00  0.11368683772E-12  0.17120000000E+03  0.17120000000E+03 0.  0.
         13    1    1    2    0    0  0.10560163959E+02  0.42147577137E+01  0.59006868159E+02  0.60092452932E+02  0.10566000000E+00 0.  1.
        994    1    1    2    0    0 -0.19695461949E+02  0.45231996070E+01  0.23808610924E+01  0.17240498559E+03  0.17120000000E+03 0.  0.
        998    1    1    2    0    0  0.91352979901E+01 -0.87379573207E+01  0.14386122670E+04  0.14387025615E+04  0.10000000000E+02 0.  1.
</event>
<event>
 5    1  0.2831455E-008  0.3860339E+03  0.7957747E-01  0.3425299E+00
         13   -1    0    0    0    0  0.00000000000E+00  0.00000000000E+00  0.14999999963E+04  0.15000000000E+04  0.10566000000E+00 0.  1.
        994   -1    0    0    0    0 -0.00000000000E+00 -0.00000000000E+00  0.11368683772E-12  0.17120000000E+03  0.17120000000E+03 0.  0.
         13    1    1    2    0    0  0.86463191170E+01  0.66882869159E+01  0.52535563465E+02  0.53660866642E+02  0.10566000000E+00 0.  1.
        994    1    1    2    0    0 -0.94225187796E+01 -0.69555481951E+01  0.15673976342E+01  0.17160728494E+03  0.17120000000E+03 0.  0.
        998    1    1    2    0    0  0.77619966262E+00  0.26726127918E+00  0.14458970352E+04  0.14459318484E+04  0.10000000000E+02 0.  1.
</event>
<event>
 5    1  0.1334136E-008  0.3745130E+03  0.7957747E-01  0.3475404E+00
         13   -1    0    0    0    0  0.00000000000E+00  0.00000000000E+00  0.14999999963E+04  0.15000000000E+04  0.10566000000E+00 0. -1.
        994   -1    0    0    0    0 -0.00000000000E+00 -0.00000000000E+00  0.11368683772E-12  0.17120000000E+03  0.17120000000E+03 0.  0.
         13    1    1    2    0    0  0.32452341416E+02 -0.11847371776E+00  0.37062248522E+02  0.49262459631E+02  0.10566000000E+00 0. -1.
        994    1    1    2    0    0  0.10301609738E+02 -0.85882460113E+01  0.13984503082E+02  0.17229302789E+03  0.17120000000E+03 0.  0.
        998    1    1    2    0    0 -0.42753951154E+02  0.87067197291E+01  0.14489532447E+04  0.14496445125E+04  0.10000000000E+02 0. -1.
</event>
<event>
 5    1  0.1334136E-008  0.3822577E+03  0.7957747E-01  0.3441386E+00
         13   -1    0    0    0    0  0.00000000000E+00  0.00000000000E+00  0.14999999963E+04  0.15000000000E+04  0.10566000000E+00 0.  1.
        994   -1    0    0    0    0 -0.00000000000E+00 -0.00000000000E+00  0.11368683772E-12  0.17120000000E+03  0.17120000000E+03 0.  0.
         13    1    1    2    0    0 -0.58910398610E+01  0.11319440891E+02  0.26214509152E+02  0.29155544016E+02  0.10566000000E+00 0.  1.
        994    1    1    2    0    0  0.46652190527E+01 -0.52185696884E+01  0.31603799629E+01  0.17137218485E+03  0.17120000000E+03 0.  0.
        998    1    1    2    0    0  0.12258208083E+01 -0.61008712028E+01  0.14706251072E+04  0.14706722711E+04  0.10000000000E+02 0.  1.
</event>
<event>
 5    1  0.1334136E-008  0.3845612E+03  0.7957747E-01  0.3431535E+00
         13   -1    0    0    0    0  0.00000000000E+00  0.00000000000E+00  0.14999999963E+04  0.15000000000E+04  0.10566000000E+00 0. -1.
        994   -1    0    0    0    0 -0.00000000000E+00 -0.00000000000E+00  0.11368683772E-12  0.17120000000E+03  0.17120000000E+03 0.  0.
         13    1    1    2    0    0 -0.10354235265E+02 -0.35849717901E+01  0.31882033151E+02  0.33712570541E+02  0.10566000000E+00 0. -1.
        994    1    1    2    0    0  0.13639282591E+02 -0.11362782790E+02  0.28867208438E+01  0.17214213900E+03  0.17120000000E+03 0.  0.
        998    1    1    2    0    0 -0.32850473262E+01  0.14947754580E+02  0.14652312423E+04  0.14653452905E+04  0.10000000000E+02 0. -1.
</event>
<event>
 5    1  0.1334136E-008  0.3827421E+03  0.7957747E-01  0.3439305E+00
         13   -1    0    0    0    0  0.00000000000E+00  0.00000000000E+00  0.14999999963E+04  0.15000000000E+04  0.10566000000E+00 0.  1.
        994   -1    0    0    0    0 -0.00000000000E+00 -0.00000000000E+00  0.11368683772E-12  0.17120000000E+03  0.17120000000E+03 0.  0.
         13    1    1    2    0    0  0.32032535155E+01  0.20407213439E+02  0.82901538257E+02  0.85436475833E+02  0.10566000000E+00 0.  1.
        994    1    1    2    0    0 -0.92340307129E+01  0.21901329287E+01  0.30537219604E+01  0.17149002660E+03  0.17120000000E+03 0.  0.
        998    1    1    2    0    0  0.60307771973E+01 -0.22597346368E+02  0.14140447361E+04  0.14142734976E+04  0.10000000000E+02 0.  1.
</event>
<event>
 5    1  0.1334136E-008  0.3713459E+03  0.7957747E-01  0.3489728E+00
         13   -1    0    0    0    0  0.00000000000E+00  0.00000000000E+00  0.14999999963E+04  0.15000000000E+04  0.10566000000E+00 0.  1.
        994   -1    0    0    0    0 -0.00000000000E+00 -0.00000000000E+00  0.11368683772E-12  0.17120000000E+03  0.17120000000E+03 0.  0.
         13    1    1    2    0    0  0.48394461934E+01 -0.23556199863E+02  0.30944084201E+02  0.39190079134E+02  0.10566000000E+00 0.  1.
        994    1    1    2    0    0 -0.10187698237E+02  0.55824720143E+01  0.90318776305E+01  0.17183121952E+03  0.17120000000E+03 0.  0.
        998    1    1    2    0    0  0.53482520433E+01  0.17973727849E+02  0.14600240344E+04  0.14601787013E+04  0.10000000000E+02 0.  1.
</event>
<event>
 5    1  0.1334136E-008  0.3835429E+03  0.7957747E-01  0.3435876E+00
         13   -1    0    0    0    0  0.00000000000E+00  0.00000000000E+00  0.14999999963E+04  0.15000000000E+04  0.10566000000E+00 0.  1.
        994   -1    0    0    0    0 -0.00000000000E+00 -0.00000000000E+00  0.11368683772E-12  0.17120000000E+03  0.17120000000E+03 0.  0.
         13    1    1    2    0    0  0.33010040807E+01 -0.17994418587E+02  0.70248704110E+02  0.72591923252E+02  0.10566000000E+00 0.  1.
        994    1    1    2    0    0 -0.38575514407E+01  0.11841242874E+02  0.28679577989E+01  0.17167632603E+03  0.17120000000E+03 0.  0.
        998    1    1    2    0    0  0.55654735998E+00  0.61531757132E+01  0.14268833344E+04  0.14269317507E+04  0.10000000000E+02 0.  1.
</event>
<event>
 5    1  0.1334136E-008  0.3773687E+03  0.7957747E-01  0.3462696E+00
         13   -1    0    0    0    0  0.00000000000E+00  0.00000000000E+00  0.14999999963E+04  0.15000000000E+04  0.10566000000E+00 0.  1.
        994   -1    0    0    0    0 -0.00000000000E+00 -0.00000000000E+00  0.11368683772E-12  0.17120000000E+03  0.17120000000E+03 0.  0.
         13    1    1    2    0    0  0.14704741839E+02 -0.96891868842E+01  0.26133157423E+02  0.31512899834E+02  0.10566000000E+00 0.  1.
        994    1    1    2    0    0 -0.70838185693E+01  0.10247403051E+02  0.59908438731E+01  0.17175715404E+03  0.17120000000E+03 0.  0.
        998    1    1    2    0    0 -0.76209232697E+01 -0.55821616665E+00  0.14678759950E+04  0.14679299461E+04  0.10000000000E+02 0.  1.
</event>
<event>
 5    1  0.1334136E-008  0.3693532E+03  0.7957747E-01  0.3498869E+00
         13   -1    0    0    0    0  0.00000000000E+00  0.00000000000E+00  0.14999999963E+04  0.15000000000E+04  0.10566000000E+00 0. -1.
        994   -1    0    0    0    0 -0.00000000000E+00 -0.00000000000E+00  0.11368683772E-12  0.17120000000E+03  0.17120000000E+03 0.  0.
         13    1    1    2    0    0  0.15795303981E+02  0.11559390412E+02  0.15576663749E+02  0.25015090488E+02  0.10566000000E+00 0. -1.
        994    1    1    2    0    0 -0.14809353240E+02 -0.12667501860E+02  0.10924691708E+02  0.17265158973E+03  0.17120000000E+03 0.  0.
        998    1    1    2    0    0 -0.98595074107E+00  0.11081114485E+01  0.14734986408E+04  0.14735333198E+04  0.10000000000E+02 0. -1.
</event>
<event>
 5    1  0.1334136E-008  0.3723933E+03  0.7957747E-01  0.3484963E+00
         13   -1    0    0    0    0  0.00000000000E+00  0.00000000000E+00  0.14999999963E+04  0.15000000000E+04  0.10566000000E+00 0. -1.
        994   -1    0    0    0    0 -0.00000000000E+00 -0.00000000000E+00  0.11368683772E-12  0.17120000000E+03  0.17120000000E+03 0.  0.
         13    1    1    2    0    0 -0.47988441888E+02  0.11777300326E+03  0.65922046571E+03  0.67137545712E+03  0.10566000000E+00 0. -1.
        994    1    1    2    0    0  0.48500246402E+02 -0.10117833031E+03  0.52514058686E+02  0.21132083377E+03  0.17120000000E+03 0.  0.
        998    1    1    2    0    0 -0.51180451320E+00 -0.16594672956E+02  0.78826547188E+03  0.78850370911E+03  0.10000000000E+02 0. -1.
</event>
<event>
 5    1  0.1419531E-008  0.3856620E+03  0.7957747E-01  0.3426869E+00
         13   -1    0    0    0    0  0.00000000000E+00  0.00000000000E+00  0.14999999963E+04  0.15000000000E+04  0.10566000000E+00 0.  1.
        994   -1    0    0    0    0 -0.00000000000E+00 -0.00000000000E+00  0.11368683772E-12  0.17120000000E+03  0.17120000000E+03 0.  0.
         13    1    1    2    0    0  0.11046737294E+02 -0.33272854644E+01  0.51501945836E+02  0.52778431413E+02  0.10566000000E+00 0.  1.
        994    1    1    2    0    0 -0.67080866860E+01  0.41500722329E+01  0.15060164607E+01  0.17138824234E+03  0.17120000000E+03 0.  0.
        998    1    1    2    0    0 -0.43386506078E+01 -0.82278676851E+00  0.14469920340E+04  0.14470333262E+04  0.10000000000E+02 0.  1.
</event>
<event>
 5    1  0.1334136E-008  0.3915229E+03  0.7957747E-01  0.3402470E+00
         13   -1    0    0    0    0  0.00000000000E+00  0.00000000000E+00  0.14999999963E+04  0.15000000000E+04  0.10566000000E+00 0. -1.
        994   -1    0    0    0    0 -0.00000000000E+00 -0.00000000000E+00  0.11368683772E-12  0.17120000000E+03  0.17120000000E+03 0.  0.
         13    1    1    2    0    0  0.14401308170E+02 -0.37061245499E+02  0.24675229077E+02  0.46795423804E+02  0.10566000000E+00 0. -1.
        994    1    1    2    0    0  0.10520450710E+02  0.53751671793E+02  0.34248805846E+02  0.18298181004E+03  0.17120000000E+03 0.  0.
        998    1    1    2    0    0 -0.24921758881E+02 -0.16690426294E+02  0.14410759614E+04  0.14414227662E+04  0.10000000000E+02 0. -1.
</event>
<event>
 5    1  0.1334136E-008  0.3861606E+03  0.7957747E-01  0.3424765E+00
         13   -1    0    0    0    0  0.00000000000E+00  0.00000000000E+00  0.14999999963E+04  0.15000000000E+04  0.10566000000E+00 0. -1.
        994   -1    0    0    0    0 -0.00000000000E+00 -0.00000000000E+00  0.11368683772E-12  0.17120000000E+03  0.17120000000E+03 0.  0.
         13    1    1    2    0    0  0.13718352443E+01 -0.12582512166E+02  0.76536498547E+02  0.77576080838E+02  0.10566000000E+00 0. -1.
        994    1    1    2    0    0  0.41523274727E+01  0.96099150500E+01  0.14141770023E+01  0.17152560213E+03  0.17120000000E+03 0.  0.
        998    1    1    2    0    0 -0.55241627170E+01  0.29725971162E+01  0.14220493207E+04  0.14220983170E+04  0.10000000000E+02 0. -1.
</event>
<event>
 5    1  0.1334136E-008  0.3139825E+03  0.7957747E-01  0.3800991E+00
         13   -1    0    0    0    0  0.00000000000E+00  0.00000000000E+00  0.14999999963E+04  0.15000000000E+04  0.10566000000E+00 0.  1.
        994   -1    0    0    0    0 -0.00000000000E+00 -0.00000000000E+00  0.11368683772E-12  0.17120000000E+03  0.17120000000E+03 0.  0.
         13    1    1    2    0    0 -0.71870895602E+02 -0.22599620968E+03  0.59232491687E+03  0.63803489774E+03  0.10566000000E+00 0.  1.
        994    1    1    2    0    0  0.59536569807E+02  0.23968065603E+03  0.29826447325E+03  0.42339409068E+03  0.17120000000E+03 0.  0.
        998    1    1    2    0    0  0.12334325795E+02 -0.13684446359E+02  0.60941060616E+03  0.60977101158E+03  0.10000000000E+02 0.  1.
</event>
<event>
 5    1  0.1334136E-008  0.3861118E+03  0.7957747E-01  0.3424971E+00
         13   -1    0    0    0    0  0.00000000000E+00  0.00000000000E+00  0.14999999963E+04  0.15000000000E+04  0.10566000000E+00 0.  1.
        994   -1    0    0    0    0 -0.00000000000E+00 -0.00000000000E+00  0.11368683772E-12  0.17120000000E+03  0.17120000000E+03 0.  0.
         13    1    1    2    0    0  0.64141677544E+02  0.19973979963E+03  0.12371319899E+04  0.12547930961E+04  0.10566000000E+00 0.  1.
        994    1    1    2    0    0 -0.71463556725E+02 -0.20332733841E+03  0.17186456397E+03  0.32449332017E+03  0.17120000000E+03 0.  0.
        998    1    1    2    0    0  0.73218791819E+01  0.35875387886E+01  0.91003442379E+02  0.91913583730E+02  0.10000000000E+02 0.  1.
</event>
<event>
 5    1  0.1334136E-008  0.3801392E+03  0.7957747E-01  0.3450553E+00
         13   -1    0    0    0    0  0.00000000000E+00  0.00000000000E+00  0.14999999963E+04  0.15000000000E+04  0.10566000000E+00 0.  1.
        994   -1    0    0    0    0 -0.00000000000E+00 -0.00000000000E+00  0.11368683772E-12  0.17120000000E+03  0.17120000000E+03 0.  0.
         13    1    1    2    0    0  0.99635549634E+01  0.50571993886E+02  0.30240038809E+03  0.30676180478E+03  0.10566000000E+00 0.  1.
        994    1    1    2    0    0 -0.17823311984E+02 -0.34649992379E+02  0.91528015570E+01  0.17581668350E+03  0.17120000000E+03 0.  0.
        998    1    1    2    0    0  0.78597570207E+01 -0.15922001507E+02  0.11884468066E+04  0.11886215117E+04  0.10000000000E+02 0.  1.
</event>
<event>
 5    1  0.1334136E-008  0.3696241E+03  0.7957747E-01  0.3497620E+00
         13   -1    0    0    0    0  0.00000000000E+00  0.00000000000E+00  0.14999999963E+04  0.15000000000E+04  0.10566000000E+00 0. -1.
        994   -1    0    0    0    0 -0.00000000000E+00 -0.00000000000E+00  0.11368683772E-12  0.17120000000E+03  0.17120000000E+03 0.  0.
         13    1    1    2    0    0 -0.13228358535E+02 -0.89144732880E+02  0.44044380686E+03  0.44956927278E+03  0.10566000000E+00 0. -1.
        994    1    1    2    0    0  0.40653694319E+02  0.44395897374E+02  0.22118219443E+02  0.18281787166E+03  0.17120000000E+03 0.  0.
        998    1    1    2    0    0 -0.27425335784E+02  0.44748835506E+02  0.10374379700E+04  0.10388128556E+04  0.10000000000E+02 0. -1.
</event>
<event>
 5    1  0.1334136E-008  0.3853577E+03  0.7957747E-01  0.3428157E+00
         13   -1    0    0    0    0  0.00000000000E+00  0.00000000000E+00  0.14999999963E+04  0.15000000000E+04  0.10566000000E+00 0. -1.
        994   -1    0    0    0    0 -0.00000000000E+00 -0.00000000000E+00  0.11368683772E-12  0.17120000000E+03  0.17120000000E+03 0.  0.
         13    1    1    2    0    0 -0.30367970984E+01  0.14901853417E+02  0.90342560041E+02  0.91613736364E+02  0.10566000000E+00 0. -1.
        994    1    1    2    0    0  0.39089908677E+00  0.54777736164E+01  0.15517194010E+01  0.17129508644E+03  0.17120000000E+03 0.  0.
        998    1    1    2    0    0  0.26458980116E+01 -0.20379627033E+02  0.14081057168E+04  0.14082911772E+04  0.10000000000E+02 0. -1.
</event>
<event>
 5    1  0.1334136E-008  0.3770506E+03  0.7957747E-01  0.3464102E+00
         13   -1    0    0    0    0  0.00000000000E+00  0.00000000000E+00  0.14999999963E+04  0.15000000000E+04  0.10566000000E+00 0.  1.
        994   -1    0    0    0    0 -0.00000000000E+00 -0.00000000000E+00  0.11368683772E-12  0.17120000000E+03  0.17120000000E+03 0.  0.
         13    1    1    2    0    0  0.13591133861E+01 -0.15676388084E+02  0.19410059681E+02  0.24987154968E+02  0.10566000000E+00 0.  1.
        994    1    1    2    0    0 -0.11432424647E+01  0.14627174844E+02  0.63564626820E+01  0.17194506642E+03  0.17120000000E+03 0.  0.
        998    1    1    2    0    0 -0.21587092148E+00  0.10492132400E+01  0.14742334739E+04  0.14742677786E+04  0.10000000000E+02 0.  1.
</event>
<event>
 5    1  0.1334136E-008  0.3850019E+03  0.7957747E-01  0.3429664E+00
         13   -1    0    0    0    0  0.00000000000E+00  0.00000000000E+00  0.14999999963E+04  0.15000000000E+04  0.10566000000E+00 0.  1.
        994   -1    0    0    0    0 -0.00000000000E+00 -0.00000000000E+00  0.11368683772E-12  0.17120000000E+03  0.17120000000E+03 0.  0.
         13    1    1    2    0    0  0.11138649435E+02  0.11121123956E+02  0.77625829505E+02  0.79205615203E+02  0.10566000000E+00 0.  1.
        994    1    1    2    0    0 -0.61611540629E+00 -0.98846882950E+01  0.19518307270E+01  0.17149733614E+03  0.17120000000E+03 0.  0.
        998    1    1    2    0    0 -0.10522534029E+02 -0.12364356613E+01  0.14204223360E+04  0.14204970487E+04  0.10000000000E+02 0.  1.
</event>
<event>
 5    1  0.1334136E-008  0.3763460E+03  0.7957747E-01  0.3467225E+00
         13   -1    0    0    0    0  0.00000000000E+00  0.00000000000E+00  0.14999999963E+04  0.15000000000E+04  0.10566000000E+00 0.  1.
        994   -1    0    0    0    0 -0.00000000000E+00 -0.00000000000E+00  0.11368683772E-12  0.17120000000E+03  0.17120000000E+03 0.  0.
         13    1    1    2    0    0 -0.83379491012E+01  0.33027564850E+02  0.10007988668E+03  0.10571819293E+03  0.10566000000E+00 0.  1.
        994    1    1    2    0    0 -0.40549981727E+01 -0.97738998638E+01  0.63681530048E+01  0.17164488196E+03  0.17120000000E+03 0.  0.
        998    1    1    2    0    0  0.12392947274E+02 -0.23253664986E+02  0.13935519566E+04  0.13938369251E+04  0.10000000000E+02 0.  1.
</event>
<event>
 5    1  0.1334136E-008  0.3844837E+03  0.7957747E-01  0.3431865E+00
         13   -1    0    0    0    0  0.00000000000E+00  0.00000000000E+00  0.14999999963E+04  0.15000000000E+04  0.10566000000E+00 0.  1.
        994   -1    0    0    0    0 -0.00000000000E+00 -0.00000000000E+00  0.11368683772E-12  0.17120000000E+03  0.17120000000E+03 0.  0.
         13    1    1    2    0    0  0.15833895574E+02  0.24878970183E+01  0.65317772529E+02  0.67255664838E+02  0.10566000000E+00 0.  1.
        994    1    1    2    0    0 -0.12460952828E+02 -0.38835219111E+02  0.73856951396E+01  0.17614607030E+03  0.17120000000E+03 0.  0.
        998    1    1    2    0    0 -0.33729427458E+01  0.36347322092E+02  0.14272965286E+04  0.14277982649E+04  0.10000000000E+02 0.  1.
</event>
<event>
 5    1  0.1334136E-008  0.3809445E+03  0.7957747E-01  0.3447056E+00
         13   -1    0    0    0    0  0.00000000000E+00  0.00000000000E+00  0.14999999963E+04  0.15000000000E+04  0.10566000000E+00 0.  1.
        994   -1    0    0    0    0 -0.00000000000E+00 -0.00000000000E+00  0.11368683772E-12  0.17120000000E+03  0.17120000000E+03 0.  0.
         13    1    1    2    0    0 -0.10829818838E+02  0.18091762496E+01  0.14810156377E+02  0.18436648034E+02  0.10566000000E+00 0.  1.
        994    1    1    2    0    0  0.10281159953E+02 -0.58658195040E+01  0.41241658558E+01  0.17165826177E+03  0.17120000000E+03 0.  0.
        998    1    1    2    0    0  0.54865888566E+00  0.40566432544E+01  0.14810656740E+04  0.14811050902E+04  0.10000000000E+02 0.  1.
</event>
<event>
 5    1  0.1334136E-008  0.3826072E+03  0.7957747E-01  0.3439884E+00
         13   -1    0    0    0    0  0.00000000000E+00  0.00000000000E+00  0.14999999963E+04  0.15000000000E+04  0.10566000000E+00 0. -1.
        994   -1    0    0    0    0 -0.00000000000E+00 -0.00000000000E+00  0.11368683772E-12  0.17120000000E+03  0.17120000000E+03 0.  0.
         13    1    1    2    0    0 -0.12384607071E+02 -0.97073382366E+01  0.45932731466E+02  0.48553453965E+02  0.10566000000E+00 0. -1.
        994    1    1    2    0    0 -0.47352865908E+01 -0.27605102575E+01  0.29223567403E+01  0.17131264847E+03  0.17120000000E+03 0.  0.
        998    1    1    2    0    0  0.17119893662E+02  0.12467848494E+02  0.14511449081E+04  0.14513338976E+04  0.10000000000E+02 0. -1.
</event>
<event>
 5    1  0.1334136E-008  0.3808979E+03  0.7957747E-01  0.3447258E+00
         13   -1    0    0    0    0  0.00000000000E+00  0.00000000000E+00  0.14999999963E+04  0.15000000000E+04  0.10566000000E+00 0.  1.
        994   -1    0    0    0    0 -0.00000000000E+00 -0.00000000000E+00  0.11368683772E-12  0.17120000000E+03  0.17120000000E+03 0.  0.
         13    1    1    2    0    0  0.40833939552E+02  0.17095223216E+01  0.41202409028E+02  0.58034323979E+02  0.10566000000E+00 0.  1.
        994    1    1    2    0    0 -0.44984840540E+02 -0.47339011443E+02  0.32493793702E+02  0.18609111884E+03  0.17120000000E+03 0.  0.
        998    1    1    2    0    0  0.41509009871E+01  0.45629489121E+02  0.14263037935E+04  0.14270745572E+04  0.10000000000E+02 0.  1.
</event>
<event>
 5    1  0.1334136E-008  0.3754540E+03  0.7957747E-01  0.3471195E+00
         13   -1    0    0    0    0  0.00000000000E+00  0.00000000000E+00  0.14999999963E+04  0.15000000000E+04  0.10566000000E+00 0. -1.
        994   -1    0    0    0    0 -0.00000000000E+00 -0.00000000000E+00  0.11368683772E-12  0.17120000000E+03  0.17120000000E+03 0.  0.
         13    1    1    2    0    0  0.50224797983E+02 -0.23493897095E+02  0.19957753619E+03  0.20713690557E+03  0.10566000000E+00 0. -1.
        994    1    1    2    0    0 -0.52268742931E+02  0.31171102040E+02  0.19121485247E+02  0.18269846821E+03  0.17120000000E+03 0.  0.
        998    1    1    2    0    0  0.20439449480E+01 -0.76772049450E+01  0.12813009748E+04  0.12813646262E+04  0.10000000000E+02 0. -1.
</event>
<event>
 5    1  0.1334136E-008  0.3794500E+03  0.7957747E-01  0.3453557E+00
         13   -1    0    0    0    0  0.00000000000E+00  0.00000000000E+00  0.14999999963E+04  0.15000000000E+04  0.10566000000E+00 0. -1.
        994   -1    0    0    0    0 -0.00000000000E+00 -0.00000000000E+00  0.11368683772E-12  0.17120000000E+03  0.17120000000E+03 0.  0.
         13    1    1    2    0    0 -0.12240406397E+01 -0.18476701188E+02  0.40738091706E+02  0.44749190408E+02  0.10566000000E+00 0. -1.
        994    1    1    2    0    0 -0.16257486577E+02 -0.13913403934E+02  0.59460315940E+01  0.17263453875E+03  0.17120000000E+03 0.  0.
        998    1    1    2    0    0  0.17481527216E+02  0.32390105123E+02  0.14533158730E+04  0.14538162708E+04  0.10000000000E+02 0. -1.
</event>
<event>
 5    1  0.1334136E-008  0.3819891E+03  0.7957747E-01  0.3442543E+00
         13   -1    0    0    0    0  0.00000000000E+00  0.00000000000E+00  0.14999999963E+04  0.15000000000E+04  0.10566000000E+00 0. -1.
        994   -1    0    0    0    0 -0.00000000000E+00 -0.00000000000E+00  0.11368683772E-12  0.17120000000E+03  0.17120000000E+03 0.  0.
         13    1    1    2    0    0  0.46893984742E+01  0.28350601176E+02  0.12730563247E+03  0.13050855247E+03  0.10566000000E+00 0. -1.
        994    1    1    2    0    0 -0.10251572704E+02 -0.20023546817E+02  0.48148252218E+01  0.17273870357E+03  0.17120000000E+03 0.  0.
        998    1    1    2    0    0  0.55621742296E+01 -0.83270543591E+01  0.13678795386E+04  0.13679527440E+04  0.10000000000E+02 0. -1.
</event>
<event>
 5    1  0.1334136E-008  0.3789091E+03  0.7957747E-01  0.3455922E+00
         13   -1    0    0    0    0  0.00000000000E+00  0.00000000000E+00  0.14999999963E+04  0.15000000000E+04  0.10566000000E+00 0.  1.
        994   -1    0    0    0    0 -0.00000000000E+00 -0.00000000000E+00  0.11368683772E-12  0.17120000000E+03  0.17120000000E+03 0.  0.
         13    1    1    2    0    0  0.19082462973E+01 -0.11814983243E+02  0.13479009701E+02  0.18025817582E+02  0.10566000000E+00 0.  1.
        994    1    1    2    0    0  0.29197610342E+01  0.14794298775E+01  0.47208060089E+01  0.17129635059E+03  0.17120000000E+03 0.  0.
        998    1    1    2    0    0 -0.48280073315E+01  0.10335553365E+02  0.14818001806E+04  0.14818778318E+04  0.10000000000E+02 0.  1.
</event>
<event>
 5    1  0.1334136E-008  0.3840165E+03  0.7957747E-01  0.3433854E+00
         13   -1    0    0    0    0  0.00000000000E+00  0.00000000000E+00  0.14999999963E+04  0.15000000000E+04  0.10566000000E+00 0.  1.
        994   -1    0    0    0    0 -0.00000000000E+00 -0.00000000000E+00  0.11368683772E-12  0.17120000000E+03  0.17120000000E+03 0.  0.
         13    1    1    2    0    0  0.13932251155E+02  0.10216638147E+02  0.79445779128E+02  0.81302707842E+02  0.10566000000E+00 0.  1.
        994    1    1    2    0    0  0.30884747369E+01  0.10624972692E+02  0.25232085702E+01  0.17157574217E+03  0.17120000000E+03 0.  0.
        998    1    1    2    0    0 -0.17020725892E+02 -0.20841610839E+02  0.14180310086E+04  0.14183215500E+04  0.10000000000E+02 0.  1.
</event>
<event>
 5    1  0.1334136E-008  0.3770285E+03  0.7957747E-01  0.3464200E+00
         13   -1    0    0    0    0  0.00000000000E+00  0.00000000000E+00  0.14999999963E+04  0.15000000000E+04  0.10566000000E+00 0. -1.
        994   -1    0    0    0    0 -0.00000000000E+00 -0.00000000000E+00  0.11368683772E-12  0.17120000000E+03  0.17120000000E+03 0.  0.
         13    1    1    2    0    0 -0.89434558409E+02 -0.11721461692E+02  0.49924494155E+03  0.50732775967E+03  0.10566000000E+00 0. -1.
        994    1    1    2    0    0  0.84939857574E+02  0.13127731307E+02  0.31001616603E+02  0.19405580890E+03  0.17120000000E+03 0.  0.
        998    1    1    2    0    0  0.44947008357E+01 -0.14062696156E+01  0.96975343812E+03  0.96981643144E+03  0.10000000000E+02 0.  0.
</event>
<event>
 5    1  0.1334136E-008  0.3831270E+03  0.7957747E-01  0.3437655E+00
         13   -1    0    0    0    0  0.00000000000E+00  0.00000000000E+00  0.14999999963E+04  0.15000000000E+04  0.10566000000E+00 0. -1.
        994   -1    0    0    0    0 -0.00000000000E+00 -0.00000000000E+00  0.11368683772E-12  0.17120000000E+03  0.17120000000E+03 0.  0.
         13    1    1    2    0    0  0.67452172658E+01  0.10068728317E+02  0.27047460084E+02  0.29638716351E+02  0.10566000000E+00 0. -1.
        994    1    1    2    0    0 -0.13070792121E+02 -0.10481028097E+02  0.34922366841E+01  0.17205328615E+03  0.17120000000E+03 0.  0.
        998    1    1    2    0    0  0.63255748552E+01  0.41229978026E+00  0.14694602995E+04  0.14695079975E+04  0.10000000000E+02 0. -1.
</event>
<event>
 5    1  0.1334136E-008  0.3768632E+03  0.7957747E-01  0.3464931E+00
         13   -1    0    0    0    0  0.00000000000E+00  0.00000000000E+00  0.14999999963E+04  0.15000000000E+04  0.10566000000E+00 0. -1.
        994   -1    0    0    0    0 -0.00000000000E+00 -0.00000000000E+00  0.11368683772E-12  0.17120000000E+03  0.17120000000E+03 0.  0.
         13    1    1    2    0    0  0.10728796875E+02 -0.35618974002E+01  0.87383283625E+01  0.14288587827E+02  0.10566000000E+00 0. -1.
        994    1    1    2    0    0  0.26187443709E+01  0.66877250125E+01  0.58992813059E+01  0.17145210704E+03  0.17120000000E+03 0.  0.
        998    1    1    2    0    0 -0.13347541246E+02 -0.31258276123E+01  0.14853623866E+04  0.14854593051E+04  0.10000000000E+02 0. -1.
</event>
<event>
 5    1  0.1334136E-008  0.3685042E+03  0.7957747E-01  0.3502794E+00
         13   -1    0    0    0    0  0.00000000000E+00  0.00000000000E+00  0.14999999963E+04  0.15000000000E+04  0.10566000000E+00 0. -1.
        994   -1    0    0    0    0 -0.00000000000E+00 -0.00000000000E+00  0.11368683772E-12  0.17120000000E+03  0.17120000000E+03 0.  0.
         13    1    1    2    0    0 -0.45338422453E+02  0.14591248017E-01  0.91062199992E+02  0.10172466857E+03  0.10566000000E+00 0. -1.
        994    1    1    2    0    0  0.51615854100E+02  0.34425181735E+01  0.19412236784E+02  0.17989530917E+03  0.17120000000E+03 0.  0.
        998    1    1    2    0    0 -0.62774316468E+01 -0.34571094216E+01  0.13895255595E+04  0.13895800223E+04  0.10000000000E+02 0. -1.
</event>
<event>
 5    1  0.1334136E-008  0.3845733E+03  0.7957747E-01  0.3431484E+00
         13   -1    0    0    0    0  0.00000000000E+00  0.00000000000E+00  0.14999999963E+04  0.15000000000E+04  0.10566000000E+00 0. -1.
        994   -1    0    0    0    0 -0.00000000000E+00 -0.00000000000E+00  0.11368683772E-12  0.17120000000E+03  0.17120000000E+03 0.  0.
         13    1    1    2    0    0 -0.21854300470E+02  0.20308929661E+01  0.12466160479E+03  0.12657907350E+03  0.10566000000E+00 0. -1.
        994    1    1    2    0    0  0.18404204653E+02 -0.11090924760E+02  0.33641748210E+01  0.17257601523E+03  0.17120000000E+03 0.  0.
        998    1    1    2    0    0  0.34500958167E+01  0.90600317941E+01  0.13719742167E+04  0.13720449113E+04  0.10000000000E+02 0. -1.
</event>
<event>
 5    1  0.1334136E-008  0.3846916E+03  0.7957747E-01  0.3430981E+00
         13   -1    0    0    0    0  0.00000000000E+00  0.00000000000E+00  0.14999999963E+04  0.15000000000E+04  0.10566000000E+00 0. -1.
        994   -1    0    0    0    0 -0.00000000000E+00 -0.00000000000E+00  0.11368683772E-12  0.17120000000E+03  0.17120000000E+03 0.  0.
         13    1    1    2    0    0 -0.36291255697E+01  0.10854835015E+02  0.36225318937E+02  0.37990563193E+02  0.10566000000E+00 0. -1.
        994    1    1    2    0    0  0.33923423505E+01 -0.83752895982E+01  0.20521585452E+01  0.17145059002E+03  0.17120000000E+03 0.  0.
        998    1    1    2    0    0  0.23678321922E+00 -0.24795454170E+01  0.14617225188E+04  0.14617588468E+04  0.10000000000E+02 0. -1.
</event>
<event>
 5    1  0.1334136E-008  0.3844216E+03  0.7957747E-01  0.3432129E+00
         13   -1    0    0    0    0  0.00000000000E+00  0.00000000000E+00  0.14999999963E+04  0.15000000000E+04  0.10566000000E+00 0.  1.
        994   -1    0    0    0    0 -0.00000000000E+00 -0.00000000000E+00  0.11368683772E-12  0.17120000000E+03  0.17120000000E+03 0.  0.
         13    1    1    2    0    0  0.73925398648E+01 -0.18532507035E+02  0.11621106931E+03  0.11791152300E+03  0.10566000000E+00 0.  1.
        994    1    1    2    0    0 -0.42026218967E+01 -0.35723777000E+01  0.20178286771E+01  0.17130071671E+03  0.17120000000E+03 0.  0.
        998    1    1    2    0    0 -0.31899179681E+01  0.22104884735E+02  0.13817710983E+04  0.13819877603E+04  0.10000000000E+02 0.  1.
</event>
<event>
 5    1  0.1334136E-008  0.3855080E+03  0.7957747E-01  0.3427520E+00
         13   -1    0    0    0    0  0.00000000000E+00  0.00000000000E+00  0.14999999963E+04  0.15000000000E+04  0.10566000000E+00 0. -1.
        994   -1    0    0    0    0 -0.00000000000E+00 -0.00000000000E+00  0.11368683772E-12  0.17120000000E+03  0.17120000000E+03 0.  0.
         13    1    1    2    0    0 -0.14056968652E+02  0.60621141456E+00  0.68887384723E+02  0.70309663617E+02  0.10566000000E+00 0. -1.
        994    1    1    2    0    0  0.15992480022E+02 -0.15988199367E+00  0.22183698333E+01  0.17195972245E+03  0.17120000000E+03 0.  0.
        998    1    1    2    0    0 -0.19355113708E+01 -0.44632942088E+00  0.14288942417E+04  0.14289306139E+04  0.10000000000E+02 0. -1.
</event>
<event>
 5    1  0.1334136E-008  0.3717995E+03  0.7957747E-01  0.3487662E+00
         13   -1    0    0    0    0  0.00000000000E+00  0.00000000000E+00  0.14999999963E+04  0.15000000000E+04  0.10566000000E+00 0.  1.
        994   -1    0    0    0    0 -0.00000000000E+00 -0.00000000000E+00  0.11368683772E-12  0.17120000000E+03  0.17120000000E+03 0.  0.
         13    1    1    2    0    0  0.51241693943E+02  0.47971537671E+02  0.24040013061E+03  0.25043804341E+03  0.10566000000E+00 0.  1.
        994    1    1    2    0    0 -0.10357700368E+02 -0.39189973618E+01  0.12325083253E+02  0.17199996562E+03  0.17120000000E+03 0.  0.
        998    1    1    2    0    0 -0.40883993575E+02 -0.44052540310E+02  0.12472747824E+04  0.12487619910E+04  0.10000000000E+02 0.  1.
</event>
<event>
 5    1  0.1334136E-008  0.3802142E+03  0.7957747E-01  0.3450226E+00
         13   -1    0    0    0    0  0.00000000000E+00  0.00000000000E+00  0.14999999963E+04  0.15000000000E+04  0.10566000000E+00 0. -1.
        994   -1    0    0    0    0 -0.00000000000E+00 -0.00000000000E+00  0.11368683772E-12  0.17120000000E+03  0.17120000000E+03 0.  0.
         13    1    1    2    0    0  0.32041744691E+02 -0.47057381169E+02  0.33041070273E+03  0.33527945683E+03  0.10566000000E+00 0. -1.
        994    1    1    2    0    0 -0.32619855696E+02  0.41155246100E+02  0.13293228363E+02  0.17956603016E+03  0.17120000000E+03 0.  0.
        998    1    1    2    0    0  0.57811100408E+00  0.59021350691E+01  0.11562960652E+04  0.11563545130E+04  0.10000000000E+02 0. -1.
</event>
<event>
 5    1  0.1334136E-008  0.3826020E+03  0.7957747E-01  0.3439906E+00
         13   -1    0    0    0    0  0.00000000000E+00  0.00000000000E+00  0.14999999963E+04  0.15000000000E+04  0.10566000000E+00 0.  1.
        994   -1    0    0    0    0 -0.00000000000E+00 -0.00000000000E+00  0.11368683772E-12  0.17120000000E+03  0.17120000000E+03 0.  0.
         13    1    1    2    0    0 -0.83215426724E+01  0.65995186053E+01  0.18142434097E+02  0.21022863679E+02  0.10566000000E+00 0.  1.
        994    1    1    2    0    0  0.13967664840E+02 -0.15903688486E+02  0.43117395511E+01  0.17255739354E+03  0.17120000000E+03 0.  0.
        998    1    1    2    0    0 -0.56461221676E+01  0.93041698805E+01  0.14775458226E+04  0.14776197428E+04  0.10000000000E+02 0.  1.
</event>
<event>
 5    1  0.1334136E-008  0.3817123E+03  0.7957747E-01  0.3443736E+00
         13   -1    0    0    0    0  0.00000000000E+00  0.00000000000E+00  0.14999999963E+04  0.15000000000E+04  0.10566000000E+00 0.  1.
        994   -1    0    0    0    0 -0.00000000000E+00 -0.00000000000E+00  0.11368683772E-12  0.17120000000E+03  0.17120000000E+03 0.  0.
         13    1    1    2    0    0 -0.43973345608E+02 -0.12346959012E+01  0.22994533516E+03  0.23411545854E+03  0.10566000000E+00 0.  1.
        994    1    1    2    0    0  0.54239186935E+02  0.11712112611E+02  0.13574832440E+02  0.18047930368E+03  0.17120000000E+03 0.  0.
        998    1    1    2    0    0 -0.10265841327E+02 -0.10477416710E+02  0.12564798287E+04  0.12566052378E+04  0.10000000000E+02 0.  1.
</event>
<event>
 5    1  0.1334136E-008  0.3742388E+03  0.7957747E-01  0.3476634E+00
         13   -1    0    0    0    0  0.00000000000E+00  0.00000000000E+00  0.14999999963E+04  0.15000000000E+04  0.10566000000E+00 0. -1.
        994   -1    0    0    0    0 -0.00000000000E+00 -0.00000000000E+00  0.11368683772E-12  0.17120000000E+03  0.17120000000E+03 0.  0.
         13    1    1    2    0    0 -0.51515515321E+02 -0.82298250145E+01  0.17165998189E+03  0.17941220383E+03  0.10566000000E+00 0. -1.
        994    1    1    2    0    0  0.50333872528E+02  0.46130153751E+00  0.15754427408E+02  0.17914059703E+03  0.17120000000E+03 0.  0.
        998    1    1    2    0    0  0.11816427929E+01  0.77685234770E+01  0.13125855870E+04  0.13126471991E+04  0.10000000000E+02 0. -1.
</event>
<event>
 5    1  0.1334136E-008  0.3851789E+03  0.7957747E-01  0.3428914E+00
         13   -1    0    0    0    0  0.00000000000E+00  0.00000000000E+00  0.14999999963E+04  0.15000000000E+04  0.10566000000E+00 0.  1.
        994   -1    0    0    0    0 -0.00000000000E+00 -0.00000000000E+00  0.11368683772E-12  0.17120000000E+03  0.17120000000E+03 0.  0.
         13    1    1    2    0    0  0.60955408931E+01  0.11508588114E+02  0.52650050909E+02  0.54236908502E+02  0.10566000000E+00 0.  1.
        994    1    1    2    0    0 -0.41064567608E+01 -0.16449983754E+02  0.24867595259E+01  0.17205548211E+03  0.17120000000E+03 0.  0.
        998    1    1    2    0    0 -0.19890841322E+01  0.49413956396E+01  0.14448631858E+04  0.14449076094E+04  0.10000000000E+02 0.  1.
</event>
<event>
 5    1  0.1512205E-008  0.3864803E+03  0.7957747E-01  0.3423418E+00
         13   -1    0    0    0    0  0.00000000000E+00  0.00000000000E+00  0.14999999963E+04  0.15000000000E+04  0.10566000000E+00 0.  1.
        994   -1    0    0    0    0 -0.00000000000E+00 -0.00000000000E+00  0.11368683772E-12  0.17120000000E+03  0.17120000000E+03 0.  0.
         13    1    1    2    0    0  0.36262772874E+01 -0.10394778288E+02  0.61268008280E+02  0.62249347830E+02  0.10566000000E+00 0.  1.
        994    1    1    2    0    0 -0.21333012802E+02  0.16423007033E+02  0.32728581915E+01  0.17333483261E+03  0.17120000000E+03 0.  0.
        998    1    1    2    0    0  0.17706735514E+02 -0.60282287448E+01  0.14354591298E+04  0.14356158196E+04  0.10000000000E+02 0.  1.
</event>
<event>
 5    1  0.1334136E-008  0.3747924E+03  0.7957747E-01  0.3474152E+00
         13   -1    0    0    0    0  0.00000000000E+00  0.00000000000E+00  0.14999999963E+04  0.15000000000E+04  0.10566000000E+00 0.  1.
        994   -1    0    0    0    0 -0.00000000000E+00 -0.00000000000E+00  0.11368683772E-12  0.17120000000E+03  0.17120000000E+03 0.  0.
         13    1    1    2    0    0 -0.29850204488E+01  0.27707618023E+02  0.51546425150E+02  0.58597504669E+02  0.10566000000E+00 0.  1.
        994    1    1    2    0    0 -0.12542166200E+02 -0.37781196295E+02  0.12195046760E+02  0.17618990860E+03  0.17120000000E+03 0.  0.
        998    1    1    2    0    0  0.15527186649E+02  0.10073578271E+02  0.14362585244E+04  0.14364125867E+04  0.10000000000E+02 0.  1.
</event>
<event>
 5    1  0.1334136E-008  0.3855523E+03  0.7957747E-01  0.3427333E+00
         13   -1    0    0    0    0  0.00000000000E+00  0.00000000000E+00  0.14999999963E+04  0.15000000000E+04  0.10566000000E+00 0. -1.
        994   -1    0    0    0    0 -0.00000000000E+00 -0.00000000000E+00  0.11368683772E-12  0.17120000000E+03  0.17120000000E+03 0.  0.
         13    1    1    2    0    0  0.15268345392E+01 -0.15657753537E+02  0.94597168454E+02  0.95896464550E+02  0.10566000000E+00 0. -1.
        994    1    1    2    0    0  0.23207520912E+02  0.98773627339E+01  0.34473183265E+01  0.17308227906E+03  0.17120000000E+03 0.  0.
        998    1    1    2    0    0 -0.24734355451E+02  0.57803908027E+01  0.14019555095E+04  0.14022212564E+04  0.10000000000E+02 0. -1.
</event>
<event>
 5    1  0.1334136E-008  0.3826498E+03  0.7957747E-01  0.3439701E+00
         13   -1    0    0    0    0  0.00000000000E+00  0.00000000000E+00  0.14999999963E+04  0.15000000000E+04  0.10566000000E+00 0. -1.
        994   -1    0    0    0    0 -0.00000000000E+00 -0.00000000000E+00  0.11368683772E-12  0.17120000000E+03  0.17120000000E+03 0.  0.
         13    1    1    2    0    0 -0.11611651449E+02  0.11589519159E+02  0.44618328686E+02  0.47538971618E+02  0.10566000000E+00 0. -1.
        994    1    1    2    0    0 -0.96355122336E+01 -0.44546825613E+02  0.97160745278E+01  0.17742915452E+03  0.17120000000E+03 0.  0.
        998    1    1    2    0    0  0.21247163683E+02  0.32957306453E+02  0.14456655931E+04  0.14462318739E+04  0.10000000000E+02 0. -1.
</event>
<event>
 5    1  0.1334136E-008  0.3705980E+03  0.7957747E-01  0.3493147E+00
         13   -1    0    0    0    0  0.00000000000E+00  0.00000000000E+00  0.14999999963E+04  0.15000000000E+04  0.10566000000E+00 0.  1.
        994   -1    0    0    0    0 -0.00000000000E+00 -0.00000000000E+00  0.11368683772E-12  0.17120000000E+03  0.17120000000E+03 0.  0.
         13    1    1    2    0    0 -0.13162981393E+02 -0.24477718050E+02  0.40030420016E+02  0.48732622039E+02  0.10566000000E+00 0.  1.
        994    1    1    2    0    0  0.69011146722E+01  0.12783404723E+02  0.96853589677E+01  0.17208802108E+03  0.17120000000E+03 0.  0.
        998    1    1    2    0    0  0.62618667210E+01  0.11694313327E+02  0.14502842173E+04  0.14503793569E+04  0.10000000000E+02 0.  1.
</event>
<event>
 5    1  0.1334136E-008  0.3827933E+03  0.7957747E-01  0.3439085E+00
         13   -1    0    0    0    0  0.00000000000E+00  0.00000000000E+00  0.14999999963E+04  0.15000000000E+04  0.10566000000E+00 0.  1.
        994   -1    0    0    0    0 -0.00000000000E+00 -0.00000000000E+00  0.11368683772E-12  0.17120000000E+03  0.17120000000E+03 0.  0.
         13    1    1    2    0    0 -0.22805674921E+02 -0.36395949496E+00  0.97891974180E+02  0.10051408383E+03  0.10566000000E+00 0.  1.
        994    1    1    2    0    0  0.83671196773E+01  0.10718053248E+02  0.33423264395E+01  0.17177164057E+03  0.17120000000E+03 0.  0.
        998    1    1    2    0    0  0.14438555243E+02 -0.10354093753E+02  0.13987656957E+04  0.13989142756E+04  0.10000000000E+02 0.  1.
</event>
<event>
 5    1  0.1334136E-008  0.3880627E+03  0.7957747E-01  0.3416786E+00
         13   -1    0    0    0    0  0.00000000000E+00  0.00000000000E+00  0.14999999963E+04  0.15000000000E+04  0.10566000000E+00 0. -1.
        994   -1    0    0    0    0 -0.00000000000E+00 -0.00000000000E+00  0.11368683772E-12  0.17120000000E+03  0.17120000000E+03 0.  0.
         13    1    1    2    0    0  0.10349476346E+03  0.18569534701E+02  0.29097190380E+03  0.30938754605E+03  0.10566000000E+00 0. -1.
        994    1    1    2    0    0 -0.35389408400E+02 -0.36385112719E+02  0.30512571367E+02  0.18115392258E+03  0.17120000000E+03 0.  0.
        998    1    1    2    0    0 -0.68105355061E+02  0.17815578018E+02  0.11785155211E+04  0.11806585314E+04  0.10000000000E+02 0. -1.
</event>
<event>
 5    1  0.1334136E-008  0.3741756E+03  0.7957747E-01  0.3476918E+00
         13   -1    0    0    0    0  0.00000000000E+00  0.00000000000E+00  0.14999999963E+04  0.15000000000E+04  0.10566000000E+00 0.  1.
        994   -1    0    0    0    0 -0.00000000000E+00 -0.00000000000E+00  0.11368683772E-12  0.17120000000E+03  0.17120000000E+03 0.  0.
         13    1    1    2    0    0 -0.54626680448E+01 -0.36250940160E+02  0.94182089081E+02  0.10106556522E+03  0.10566000000E+00 0.  1.
        994    1    1    2    0    0  0.21364409279E+01  0.16912941736E+02  0.80939052039E+01  0.17223693936E+03  0.17120000000E+03 0.  0.
        998    1    1    2    0    0  0.33262271168E+01  0.19337998423E+02  0.13977240020E+04  0.13978974954E+04  0.10000000000E+02 0.  1.
</event>
<event>
 5    1  0.1334136E-008  0.3725762E+03  0.7957747E-01  0.3484134E+00
         13   -1    0    0    0    0  0.00000000000E+00  0.00000000000E+00  0.14999999963E+04  0.15000000000E+04  0.10566000000E+00 0.  1.
        994   -1    0    0    0    0 -0.00000000000E+00 -0.00000000000E+00  0.11368683772E-12  0.17120000000E+03  0.17120000000E+03 0.  0.
         13    1    1    2    0    0 -0.93773470515E+01 -0.11348038513E+02  0.10034542765E+02  0.17816167611E+02  0.10566000000E+00 0.  1.
        994    1    1    2    0    0  0.69983559963E+01  0.12554614791E+02  0.86370601043E+01  0.17201928423E+03  0.17120000000E+03 0.  0.
        998    1    1    2    0    0  0.23789910552E+01 -0.12065762778E+01  0.14813283934E+04  0.14813645482E+04  0.10000000000E+02 0.  1.
</event>
<event>
 5    1  0.1334136E-008  0.3842335E+03  0.7957747E-01  0.3432930E+00
         13   -1    0    0    0    0  0.00000000000E+00  0.00000000000E+00  0.14999999963E+04  0.15000000000E+04  0.10566000000E+00 0.  1.
        994   -1    0    0    0    0 -0.00000000000E+00 -0.00000000000E+00  0.11368683772E-12  0.17120000000E+03  0.17120000000E+03 0.  0.
         13    1    1    2    0    0  0.14803878973E+02  0.14708204677E+02  0.11367467093E+03  0.11557434011E+03  0.10566000000E+00 0.  1.
        994    1    1    2    0    0  0.11432958290E+01 -0.10206326753E+02  0.23589825171E+01  0.17152399549E+03  0.17120000000E+03 0.  0.
        998    1    1    2    0    0 -0.15947174802E+02 -0.45018779242E+01  0.13839663428E+04  0.13841016644E+04  0.10000000000E+02 0.  1.
</event>
<event>
 5    1  0.1334136E-008  0.3734566E+03  0.7957747E-01  0.3480154E+00
         13   -1    0    0    0    0  0.00000000000E+00  0.00000000000E+00  0.14999999963E+04  0.15000000000E+04  0.10566000000E+00 0. -1.
        994   -1    0    0    0    0 -0.00000000000E+00 -0.00000000000E+00  0.11368683772E-12  0.17120000000E+03  0.17120000000E+03 0.  0.
         13    1    1    2    0    0  0.23794332042E+01 -0.16900169114E+02  0.16175848458E+02  0.23514817793E+02  0.10566000000E+00 0. -1.
        994    1    1    2    0    0 -0.24464428294E+02  0.99289969289E+01  0.98590903675E+01  0.17350427918E+03  0.17120000000E+03 0.  0.
        998    1    1    2    0    0  0.22084995090E+02  0.69711721851E+01  0.14739650575E+04  0.14741809030E+04  0.10000000000E+02 0. -1.
</event>
<event>
 5    1  0.1334136E-008  0.3844236E+03  0.7957747E-01  0.3432121E+00
         13   -1    0    0    0    0  0.00000000000E+00  0.00000000000E+00  0.14999999963E+04  0.15000000000E+04  0.10566000000E+00 0.  1.
        994   -1    0    0    0    0 -0.00000000000E+00 -0.00000000000E+00  0.11368683772E-12  0.17120000000E+03  0.17120000000E+03 0.  0.
         13    1    1    2    0    0 -0.95484454021E+01 -0.13106982442E+02  0.71584892894E+02  0.73398731958E+02  0.10566000000E+00 0.  1.
        994    1    1    2    0    0  0.20119871437E+02 -0.10099997456E+02  0.35882435195E+01  0.17271113070E+03  0.17120000000E+03 0.  0.
        998    1    1    2    0    0 -0.10571426035E+02  0.23206979897E+02  0.14248268599E+04  0.14250901373E+04  0.10000000000E+02 0.  1.
</event>
<event>
 5    1  0.1334136E-008  0.3832491E+03  0.7957747E-01  0.3437132E+00
         13   -1    0    0    0    0  0.00000000000E+00  0.00000000000E+00  0.14999999963E+04  0.15000000000E+04  0.10566000000E+00 0. -1.
        994   -1    0    0    0    0 -0.00000000000E+00 -0.00000000000E+00  0.11368683772E-12  0.17120000000E+03  0.17120000000E+03 0.  0.
         13    1    1    2    0    0  0.71318327606E+01 -0.73699445548E+01  0.19848909795E+02  0.22342101632E+02  0.10566000000E+00 0. -1.
        994    1    1    2    0    0 -0.37489152162E+01  0.12193217834E+02  0.30403071544E+01  0.17170152123E+03  0.17120000000E+03 0.  0.
        998    1    1    2    0    0 -0.33829175444E+01 -0.48232732793E+01  0.14771107793E+04  0.14771563771E+04  0.10000000000E+02 0. -1.
</event>
<event>
 5    1  0.1334136E-008  0.3690649E+03  0.7957747E-01  0.3500200E+00
         13   -1    0    0    0    0  0.00000000000E+00  0.00000000000E+00  0.14999999963E+04  0.15000000000E+04  0.10566000000E+00 0.  1.
        994   -1    0    0    0    0 -0.00000000000E+00 -0.00000000000E+00  0.11368683772E-12  0.17120000000E+03  0.17120000000E+03 0.  0.
         13    1    1    2    0    0  0.23703341859E+02  0.55624413736E+01  0.26484573768E+02  0.35975449698E+02  0.10566000000E+00 0.  1.
        994    1    1    2    0    0 -0.14440247661E+02 -0.26069889374E+01  0.10505931412E+02  0.17214857461E+03  0.17120000000E+03 0.  0.
        998    1    1    2    0    0 -0.92630941974E+01 -0.29554524361E+01  0.14630094911E+04  0.14630759757E+04  0.10000000000E+02 0.  1.
</event>
<event>
 5    1  0.1334136E-008  0.3852652E+03  0.7957747E-01  0.3428548E+00
         13   -1    0    0    0    0  0.00000000000E+00  0.00000000000E+00  0.14999999963E+04  0.15000000000E+04  0.10566000000E+00 0.  1.
        994   -1    0    0    0    0 -0.00000000000E+00 -0.00000000000E+00  0.11368683772E-12  0.17120000000E+03  0.17120000000E+03 0.  0.
         13    1    1    2    0    0  0.92924177843E+01  0.11644203455E+02  0.71886452857E+02  0.73413961688E+02  0.10566000000E+00 0.  1.
        994    1    1    2    0    0 -0.73993942095E+01 -0.12633658061E+02  0.22032063433E+01  0.17183903651E+03  0.17120000000E+03 0.  0.
        998    1    1    2    0    0 -0.18930235748E+01  0.98945460598E+00  0.14259103371E+04  0.14259470018E+04  0.10000000000E+02 0.  1.
</event>
<event>
 5    1  0.1334136E-008  0.3824098E+03  0.7957747E-01  0.3440732E+00
         13   -1    0    0    0    0  0.00000000000E+00  0.00000000000E+00  0.14999999963E+04  0.15000000000E+04  0.10566000000E+00 0. -1.
        994   -1    0    0    0    0 -0.00000000000E+00 -0.00000000000E+00  0.11368683772E-12  0.17120000000E+03  0.17120000000E+03 0.  0.
         13    1    1    2    0    0 -0.97562213061E+01  0.17166909343E+02  0.62833813105E+02  0.65863387887E+02  0.10566000000E+00 0. -1.
        994    1    1    2    0    0  0.13175204748E+02 -0.18248207297E+02  0.46034831578E+01  0.17273452216E+03  0.17120000000E+03 0.  0.
        998    1    1    2    0    0 -0.34189834421E+01  0.10812979535E+01  0.14325627000E+04  0.14326020900E+04  0.10000000000E+02 0. -1.
</event>
<event>
 5    1  0.1334136E-008  0.3761327E+03  0.7957747E-01  0.3468173E+00
         13   -1    0    0    0    0  0.00000000000E+00  0.00000000000E+00  0.14999999963E+04  0.15000000000E+04  0.10566000000E+00 0. -1.
        994   -1    0    0    0    0 -0.00000000000E+00 -0.00000000000E+00  0.11368683772E-12  0.17120000000E+03  0.17120000000E+03 0.  0.
         13    1    1    2    0    0  0.52532305979E-01  0.18231953309E+02  0.24238635289E+02  0.30330339362E+02  0.10566000000E+00 0. -1.
        994    1    1    2    0    0  0.36353338449E+01 -0.19867221278E+02  0.74807785501E+01  0.17254948328E+03  0.17120000000E+03 0.  0.
        998    1    1    2    0    0 -0.36878661509E+01  0.16352679685E+01  0.14682805824E+04  0.14683201774E+04  0.10000000000E+02 0. -1.
</event>
<event>
 5    1  0.1334136E-008  0.3700329E+03  0.7957747E-01  0.3495740E+00
         13   -1    0    0    0    0  0.00000000000E+00  0.00000000000E+00  0.14999999963E+04  0.15000000000E+04  0.10566000000E+00 0. -1.
        994   -1    0    0    0    0 -0.00000000000E+00 -0.00000000000E+00  0.11368683772E-12  0.17120000000E+03  0.17120000000E+03 0.  0.
         13    1    1    2    0    0 -0.40780608925E+02 -0.16896575402E+02  0.80293145792E+02  0.91627248948E+02  0.10566000000E+00 0. -1.
        994    1    1    2    0    0  0.42280410878E+02  0.18403061478E+02  0.18427746844E+02  0.17825635380E+03  0.17120000000E+03 0.  0.
        998    1    1    2    0    0 -0.14998019529E+01 -0.15064860760E+01  0.14012791036E+04  0.14013163973E+04  0.10000000000E+02 0. -1.
</event>
<event>
 5    1  0.1334136E-008  0.3859146E+03  0.7957747E-01  0.3425802E+00
         13   -1    0    0    0    0  0.00000000000E+00  0.00000000000E+00  0.14999999963E+04  0.15000000000E+04  0.10566000000E+00 0. -1.
        994   -1    0    0    0    0 -0.00000000000E+00 -0.00000000000E+00  0.11368683772E-12  0.17120000000E+03  0.17120000000E+03 0.  0.
         13    1    1    2    0    0 -0.99581722076E+01  0.41217654394E+01  0.48513329793E+02  0.49696161579E+02  0.10566000000E+00 0. -1.
        994    1    1    2    0    0  0.74865009130E+01 -0.12351021061E+02  0.18609978136E+01  0.17181821420E+03  0.17120000000E+03 0.  0.
        998    1    1    2    0    0  0.24716712946E+01  0.82292556214E+01  0.14496256687E+04  0.14496856242E+04  0.10000000000E+02 0. -1.
</event>
<event>
 5    1  0.1334136E-008  0.3715101E+03  0.7957747E-01  0.3488979E+00
         13   -1    0    0    0    0  0.00000000000E+00  0.00000000000E+00  0.14999999963E+04  0.15000000000E+04  0.10566000000E+00 0. -1.
        994   -1    0    0    0    0 -0.00000000000E+00 -0.00000000000E+00  0.11368683772E-12  0.17120000000E+03  0.17120000000E+03 0.  0.
         13    1    1    2    0    0  0.24229445351E+02  0.66781650065E+02  0.19871197565E+03  0.21102918101E+03  0.10566000000E+00 0. -1.
        994    1    1    2    0    0  0.12898132911E+02 -0.64247793280E+02  0.26988557177E+02  0.18528886365E+03  0.17120000000E+03 0.  0.
        998    1    1    2    0    0 -0.37127578262E+02 -0.25338567845E+01  0.12742994634E+04  0.12748819553E+04  0.10000000000E+02 0. -1.
</event>
<event>
 5    1  0.1334136E-008  0.3772486E+03  0.7957747E-01  0.3463227E+00
         13   -1    0    0    0    0  0.00000000000E+00  0.00000000000E+00  0.14999999963E+04  0.15000000000E+04  0.10566000000E+00 0.  1.
        994   -1    0    0    0    0 -0.00000000000E+00 -0.00000000000E+00  0.11368683772E-12  0.17120000000E+03  0.17120000000E+03 0.  0.
         13    1    1    2    0    0 -0.10076631730E+03  0.17539349905E+02  0.51222451880E+03  0.52233652785E+03  0.10566000000E+00 0.  1.
        994    1    1    2    0    0  0.11439294316E+03 -0.21710719815E+02  0.52724199295E+02  0.21365013922E+03  0.17120000000E+03 0.  0.
        998    1    1    2    0    0 -0.13626625859E+02  0.41713699097E+01  0.93505127818E+03  0.93521333293E+03  0.10000000000E+02 0.  1.
</event>
<event>
 5    1  0.1334136E-008  0.3750185E+03  0.7957747E-01  0.3473140E+00
         13   -1    0    0    0    0  0.00000000000E+00  0.00000000000E+00  0.14999999963E+04  0.15000000000E+04  0.10566000000E+00 0.  1.
        994   -1    0    0    0    0 -0.00000000000E+00 -0.00000000000E+00  0.11368683772E-12  0.17120000000E+03  0.17120000000E+03 0.  0.
         13    1    1    2    0    0 -0.37112194790E+02  0.18497368513E+02  0.11821362070E+03  0.12527545222E+03  0.10566000000E+00 0.  1.
        994    1    1    2    0    0  0.35867646251E+02 -0.17754945752E+02  0.12132963916E+02  0.17623386439E+03  0.17120000000E+03 0.  0.
        998    1    1    2    0    0  0.12445485391E+01 -0.74242276119E+00  0.13696534117E+04  0.13696906834E+04  0.10000000000E+02 0.  0.
</event>
<event>
 5    1  0.1334136E-008  0.3774826E+03  0.7957747E-01  0.3462194E+00
         13   -1    0    0    0    0  0.00000000000E+00  0.00000000000E+00  0.14999999963E+04  0.15000000000E+04  0.10566000000E+00 0. -1.
        994   -1    0    0    0    0 -0.00000000000E+00 -0.00000000000E+00  0.11368683772E-12  0.17120000000E+03  0.17120000000E+03 0.  0.
         13    1    1    2    0    0 -0.90808032668E+01 -0.16036096291E+02  0.28699462353E+02  0.34107003322E+02  0.10566000000E+00 0. -1.
        994    1    1    2    0    0  0.78650249578E+01  0.16759375695E+02  0.65655454588E+01  0.17232318961E+03  0.17120000000E+03 0.  0.
        998    1    1    2    0    0  0.12157783091E+01 -0.72327940373E+00  0.14647349885E+04  0.14647698071E+04  0.10000000000E+02 0. -1.
</event>
<event>
 5    1  0.1334136E-008  0.3991500E+03  0.7957747E-01  0.3371791E+00
         13   -1    0    0    0    0  0.00000000000E+00  0.00000000000E+00  0.14999999963E+04  0.15000000000E+04  0.10566000000E+00 0.  1.
        994   -1    0    0    0    0 -0.00000000000E+00 -0.00000000000E+00  0.11368683772E-12  0.17120000000E+03  0.17120000000E+03 0.  0.
         13    1    1    2    0    0 -0.30254933352E+02  0.40631391430E+02  0.39551996980E+02  0.64270075392E+02  0.10566000000E+00 0.  1.
        994    1    1    2    0    0  0.27897154126E+02  0.33496436859E+01  0.30357432866E+02  0.17612633265E+03  0.17120000000E+03 0.  0.
        998    1    1    2    0    0  0.23577792259E+01 -0.43981035116E+02  0.14300905664E+04  0.14308035920E+04  0.10000000000E+02 0.  1.
</event>
<event>
 5    1  0.1334136E-008  0.3693924E+03  0.7957747E-01  0.3498688E+00
         13   -1    0    0    0    0  0.00000000000E+00  0.00000000000E+00  0.14999999963E+04  0.15000000000E+04  0.10566000000E+00 0. -1.
        994   -1    0    0    0    0 -0.00000000000E+00 -0.00000000000E+00  0.11368683772E-12  0.17120000000E+03  0.17120000000E+03 0.  0.
         13    1    1    2    0    0 -0.16167603944E+02  0.68220129305E+01  0.96419383003E+01  0.20022722490E+02  0.10566000000E+00 0. -1.
        994    1    1    2    0    0  0.16322961688E+02 -0.95974272626E+01  0.11869692797E+02  0.17265248129E+03  0.17120000000E+03 0.  0.
        998    1    1    2    0    0 -0.15535774443E+00  0.27754143321E+01  0.14784883652E+04  0.14785247962E+04  0.10000000000E+02 0. -1.
</event>
<event>
 5    1  0.1334136E-008  0.3803014E+03  0.7957747E-01  0.3449847E+00
         13   -1    0    0    0    0  0.00000000000E+00  0.00000000000E+00  0.14999999963E+04  0.15000000000E+04  0.10566000000E+00 0. -1.
        994   -1    0    0    0    0 -0.00000000000E+00 -0.00000000000E+00  0.11368683772E-12  0.17120000000E+03  0.17120000000E+03 0.  0.
         13    1    1    2    0    0  0.23527210027E+02  0.66482466006E+02  0.34113032338E+03  0.34834373339E+03  0.10566000000E+00 0. -1.
        994    1    1    2    0    0 -0.77761161364E+02 -0.87810443580E+02  0.51382961538E+02  0.21379223783E+03  0.17120000000E+03 0.  0.
        998    1    1    2    0    0  0.54233951337E+02  0.21327977574E+02  0.11074867114E+04  0.11090640288E+04  0.10000000000E+02 0. -1.
</event>
<event>
 5    1  0.1334136E-008  0.3716771E+03  0.7957747E-01  0.3488219E+00
         13   -1    0    0    0    0  0.00000000000E+00  0.00000000000E+00  0.14999999963E+04  0.15000000000E+04  0.10566000000E+00 0. -1.
        994   -1    0    0    0    0 -0.00000000000E+00 -0.00000000000E+00  0.11368683772E-12  0.17120000000E+03  0.17120000000E+03 0.  0.
         13    1    1    2    0    0 -0.30669369945E+02  0.49574841156E+02  0.19923879990E+03  0.20759187287E+03  0.10566000000E+00 0. -1.
        994    1    1    2    0    0 -0.27772289888E+02 -0.60769881216E+02  0.23902055949E+02  0.18532411291E+03  0.17120000000E+03 0.  0.
        998    1    1    2    0    0  0.58441659832E+02  0.11195040060E+02  0.12768591404E+04  0.12782840142E+04  0.10000000000E+02 0. -1.
</event>
<event>
 5    1  0.1334136E-008  0.3861060E+03  0.7957747E-01  0.3424995E+00
         13   -1    0    0    0    0  0.00000000000E+00  0.00000000000E+00  0.14999999963E+04  0.15000000000E+04  0.10566000000E+00 0.  1.
        994   -1    0    0    0    0 -0.00000000000E+00 -0.00000000000E+00  0.11368683772E-12  0.17120000000E+03  0.17120000000E+03 0.  0.
         13    1    1    2    0    0  0.10533668953E+02  0.46260673245E+01  0.68632478398E+02  0.69590135333E+02  0.10566000000E+00 0.  1.
        994    1    1    2    0    0  0.65025281584E+01 -0.27408336766E+01  0.12452145945E+01  0.17134989233E+03  0.17120000000E+03 0.  0.
        998    1    1    2    0    0 -0.17036197111E+02 -0.18852336479E+01  0.14301223033E+04  0.14302599723E+04  0.10000000000E+02 0.  1.
</event>
<event>
 5    1  0.1334136E-008  0.3785823E+03  0.7957747E-01  0.3457355E+00
         13   -1    0    0    0    0  0.00000000000E+00  0.00000000000E+00  0.14999999963E+04  0.15000000000E+04  0.10566000000E+00 0.  1.
        994   -1    0    0    0    0 -0.00000000000E+00 -0.00000000000E+00  0.11368683772E-12  0.17120000000E+03  0.17120000000E+03 0.  0.
         13    1    1    2    0    0  0.50398872896E+02 -0.79552486348E+00  0.23504938768E+03  0.24039323007E+03  0.10566000000E+00 0.  1.
        994    1    1    2    0    0 -0.42801234824E+02 -0.74890958307E+01  0.11218055126E+02  0.17698394565E+03  0.17120000000E+03 0.  0.
        998    1    1    2    0    0 -0.75976380729E+01  0.82846206942E+01  0.12537325535E+04  0.12538228243E+04  0.10000000000E+02 0.  1.
</event>
<event>
 5    1  0.1334136E-008  0.3823059E+03  0.7957747E-01  0.3441179E+00
         13   -1    0    0    0    0  0.00000000000E+00  0.00000000000E+00  0.14999999963E+04  0.15000000000E+04  0.10566000000E+00 0.  1.
        994   -1    0    0    0    0 -0.00000000000E+00 -0.00000000000E+00  0.11368683772E-12  0.17120000000E+03  0.17120000000E+03 0.  0.
         13    1    1    2    0    0  0.26994444989E+01 -0.17879977711E+02  0.56462130553E+02  0.59287131438E+02  0.10566000000E+00 0.  1.
        994    1    1    2    0    0  0.11450909976E+02  0.38590345382E+01  0.34582393122E+01  0.17166075529E+03  0.17120000000E+03 0.  0.
        998    1    1    2    0    0 -0.14150354475E+02  0.14020943173E+02  0.14400796264E+04  0.14402521133E+04  0.10000000000E+02 0.  1.
</event>
<event>
 5    1  0.1334136E-008  0.3850544E+03  0.7957747E-01  0.3429441E+00
         13   -1    0    0    0    0  0.00000000000E+00  0.00000000000E+00  0.14999999963E+04  0.15000000000E+04  0.10566000000E+00 0.  1.
        994   -1    0    0    0    0 -0.00000000000E+00 -0.00000000000E+00  0.11368683772E-12  0.17120000000E+03  0.17120000000E+03 0.  0.
         13    1    1    2    0    0  0.26993523810E+00 -0.11750617503E+02  0.41001534764E+02  0.42653099463E+02  0.10566000000E+00 0.  1.
        994    1    1    2    0    0  0.45339121392E+01  0.17421717860E+02  0.26694257408E+01  0.17216456792E+03  0.17120000000E+03 0.  0.
        998    1    1    2    0    0 -0.48038473773E+01 -0.56711003566E+01  0.14563290358E+04  0.14563823326E+04  0.10000000000E+02 0.  1.
</event>
<event>
 5    1  0.1334136E-008  0.3767487E+03  0.7957747E-01  0.3465439E+00
         13   -1    0    0    0    0  0.00000000000E+00  0.00000000000E+00  0.14999999963E+04  0.15000000000E+04  0.10566000000E+00 0.  1.
        994   -1    0    0    0    0 -0.00000000000E+00 -0.00000000000E+00  0.11368683772E-12  0.17120000000E+03  0.17120000000E+03 0.  0.
         13    1    1    2    0    0  0.11588924701E+02 -0.42842183895E+01  0.10643076089E+02  0.16307787575E+02  0.10566000000E+00 0.  1.
        994    1    1    2    0    0 -0.61347101729E+01  0.53821078993E+01  0.60085402636E+01  0.17149969187E+03  0.17120000000E+03 0.  0.
        998    1    1    2    0    0 -0.54542145277E+01 -0.10978895098E+01  0.14833483799E+04  0.14833925206E+04  0.10000000000E+02 0.  1.
</event>
<event>
 5    1  0.1334136E-008  0.3797811E+03  0.7957747E-01  0.3452112E+00
         13   -1    0    0    0    0  0.00000000000E+00  0.00000000000E+00  0.14999999963E+04  0.15000000000E+04  0.10566000000E+00 0. -1.
        994   -1    0    0    0    0 -0.00000000000E+00 -0.00000000000E+00  0.11368683772E-12  0.17120000000E+03  0.17120000000E+03 0.  0.
         13    1    1    2    0    0 -0.41048637196E+02 -0.65898626680E+01  0.21898257550E+03  0.22289413730E+03  0.10566000000E+00 0. -1.
        994    1    1    2    0    0  0.17079766846E+02 -0.16429101274E+02  0.61248091489E+01  0.17294099309E+03  0.17120000000E+03 0.  0.
        998    1    1    2    0    0  0.23968870350E+02  0.23018963942E+02  0.12748926116E+04  0.12753648696E+04  0.10000000000E+02 0. -1.
</event>
<event>
 5    1  0.1334136E-008  0.3773166E+03  0.7957747E-01  0.3462927E+00
         13   -1    0    0    0    0  0.00000000000E+00  0.00000000000E+00  0.14999999963E+04  0.15000000000E+04  0.10566000000E+00 0.  1.
        994   -1    0    0    0    0 -0.00000000000E+00 -0.00000000000E+00  0.11368683772E-12  0.17120000000E+03  0.17120000000E+03 0.  0.
         13    1    1    2    0    0  0.19332268249E+02 -0.42603560503E+02  0.17636333204E+03  0.18246324566E+03  0.10566000000E+00 0.  1.
        994    1    1    2    0    0 -0.10687577462E+02  0.45687828106E+02  0.12955856174E+02  0.17798566279E+03  0.17120000000E+03 0.  0.
        998    1    1    2    0    0 -0.86446907868E+01 -0.30842676028E+01  0.13106808081E+04  0.13107510916E+04  0.10000000000E+02 0.  1.
</event>
<event>
 5    1  0.1334136E-008  0.3729198E+03  0.7957747E-01  0.3482579E+00
         13   -1    0    0    0    0  0.00000000000E+00  0.00000000000E+00  0.14999999963E+04  0.15000000000E+04  0.10566000000E+00 0. -1.
        994   -1    0    0    0    0 -0.00000000000E+00 -0.00000000000E+00  0.11368683772E-12  0.17120000000E+03  0.17120000000E+03 0.  0.
         13    1    1    2    0    0 -0.25392863318E+02  0.60144860250E+01  0.41081874091E+02  0.48669323937E+02  0.10566000000E+00 0. -1.
        994    1    1    2    0    0  0.16179987525E+02  0.89361447287E+00  0.86502642916E+01  0.17218262867E+03  0.17120000000E+03 0.  0.
        998    1    1    2    0    0  0.92128757930E+01 -0.69081004978E+01  0.14502678579E+04  0.14503480474E+04  0.10000000000E+02 0. -1.
</event>
<event>
 5    1  0.1334136E-008  0.3735289E+03  0.7957747E-01  0.3479828E+00
         13   -1    0    0    0    0  0.00000000000E+00  0.00000000000E+00  0.14999999963E+04  0.15000000000E+04  0.10566000000E+00 0. -1.
        994   -1    0    0    0    0 -0.00000000000E+00 -0.00000000000E+00  0.11368683772E-12  0.17120000000E+03  0.17120000000E+03 0.  0.
         13    1    1    2    0    0 -0.51026282878E+01  0.17426705170E+02  0.71916010915E+01  0.19530928264E+02  0.10566000000E+00 0. -1.
        994    1    1    2    0    0 -0.26578136741E+02 -0.18048100059E+02  0.16479303075E+02  0.17496610728E+03  0.17120000000E+03 0.  0.
        998    1    1    2    0    0  0.31680765029E+02  0.62139488876E+00  0.14763290921E+04  0.14767029645E+04  0.10000000000E+02 0. -1.
</event>
<event>
 5    1  0.1334136E-008  0.3819758E+03  0.7957747E-01  0.3442600E+00
         13   -1    0    0    0    0  0.00000000000E+00  0.00000000000E+00  0.14999999963E+04  0.15000000000E+04  0.10566000000E+00 0.  1.
        994   -1    0    0    0    0 -0.00000000000E+00 -0.00000000000E+00  0.11368683772E-12  0.17120000000E+03  0.17120000000E+03 0.  0.
         13    1    1    2    0    0 -0.15800931325E+02 -0.53626900703E+00  0.35822336455E+02  0.39156199615E+02  0.10566000000E+00 0.  1.
        994    1    1    2    0    0  0.31542389196E+02  0.10533829683E+02  0.68206889508E+01  0.17453322229E+03  0.17120000000E+03 0.  0.
        998    1    1    2    0    0 -0.15741457870E+02 -0.99975606763E+01  0.14573569709E+04  0.14575105781E+04  0.10000000000E+02 0.  1.
</event>
<event>
 5    1  0.1334136E-008  0.3854075E+03  0.7957747E-01  0.3427946E+00
         13   -1    0    0    0    0  0.00000000000E+00  0.00000000000E+00  0.14999999963E+04  0.15000000000E+04  0.10566000000E+00 0. -1.
        994   -1    0    0    0    0 -0.00000000000E+00 -0.00000000000E+00  0.11368683772E-12  0.17120000000E+03  0.17120000000E+03 0.  0.
         13    1    1    2    0    0  0.96501095658E+01  0.67838437493E+01  0.49893760036E+02  0.51269324213E+02  0.10566000000E+00 0. -1.
        994    1    1    2    0    0 -0.21160664228E+01 -0.47539591182E+01  0.15168710164E+01  0.17128578097E+03  0.17120000000E+03 0.  0.
        998    1    1    2    0    0 -0.75340431430E+01 -0.20298846311E+01  0.14485893652E+04  0.14486448948E+04  0.10000000000E+02 0. -1.
</event>
<event>
 5    1  0.1334136E-008  0.3742585E+03  0.7957747E-01  0.3476546E+00
         13   -1    0    0    0    0  0.00000000000E+00  0.00000000000E+00  0.14999999963E+04  0.15000000000E+04  0.10566000000E+00 0.  1.
        994   -1    0    0    0    0 -0.00000000000E+00 -0.00000000000E+00  0.11368683772E-12  0.17120000000E+03  0.17120000000E+03 0.  0.
         13    1    1    2    0    0  0.42561328223E+02 -0.24175759258E+02  0.17628252959E+03  0.18295211231E+03  0.10566000000E+00 0.  1.
        994    1    1    2    0    0 -0.23594771688E+02 -0.23010316969E+01  0.89775308090E+01  0.17306658851E+03  0.17120000000E+03 0.  0.
        998    1    1    2    0    0 -0.18966556535E+02  0.26476790955E+02  0.13147399359E+04  0.13151812992E+04  0.10000000000E+02 0.  1.
</event>
<event>
 5    1  0.1334136E-008  0.3836350E+03  0.7957747E-01  0.3435482E+00
         13   -1    0    0    0    0  0.00000000000E+00  0.00000000000E+00  0.14999999963E+04  0.15000000000E+04  0.10566000000E+00 0. -1.
        994   -1    0    0    0    0 -0.00000000000E+00 -0.00000000000E+00  0.11368683772E-12  0.17120000000E+03  0.17120000000E+03 0.  0.
         13    1    1    2    0    0  0.84767902957E+01  0.11100353424E+02  0.40864490619E+02  0.43185548248E+02  0.10566000000E+00 0. -1.
        994    1    1    2    0    0 -0.68049564990E+01 -0.11790507709E+02  0.29217596422E+01  0.17176524731E+03  0.17120000000E+03 0.  0.
        998    1    1    2    0    0 -0.16718337967E+01  0.69015428523E+00  0.14562137460E+04  0.14562492044E+04  0.10000000000E+02 0. -1.
</event>
<event>
 5    1  0.1334136E-008  0.3820030E+03  0.7957747E-01  0.3442483E+00
         13   -1    0    0    0    0  0.00000000000E+00  0.00000000000E+00  0.14999999963E+04  0.15000000000E+04  0.10566000000E+00 0. -1.
        994   -1    0    0    0    0 -0.00000000000E+00 -0.00000000000E+00  0.11368683772E-12  0.17120000000E+03  0.17120000000E+03 0.  0.
         13    1    1    2    0    0  0.88534557386E+00  0.24837308254E+02  0.91919795830E+02  0.95220458661E+02  0.10566000000E+00 0. -1.
        994    1    1    2    0    0  0.15413680256E+01 -0.26641850126E+02  0.54940853266E+01  0.17335451816E+03  0.17120000000E+03 0.  0.
        998    1    1    2    0    0 -0.24267135995E+01  0.18045418716E+01  0.14025861151E+04  0.14026250232E+04  0.10000000000E+02 0. -1.
</event>
<event>
 5    1  0.1334136E-008  0.3792483E+03  0.7957747E-01  0.3454438E+00
         13   -1    0    0    0    0  0.00000000000E+00  0.00000000000E+00  0.14999999963E+04  0.15000000000E+04  0.10566000000E+00 0.  1.
        994   -1    0    0    0    0 -0.00000000000E+00 -0.00000000000E+00  0.11368683772E-12  0.17120000000E+03  0.17120000000E+03 0.  0.
         13    1    1    2    0    0  0.13261968120E+02  0.29334631152E+02  0.10642982215E+03  0.11119225958E+03  0.10566000000E+00 0.  1.
        994    1    1    2    0    0 -0.18499922309E+02 -0.26418111968E+02  0.80067648098E+01  0.17439527530E+03  0.17120000000E+03 0.  0.
        998    1    1    2    0    0  0.52379541895E+01 -0.29165191834E+01  0.13855634093E+04  0.13856124651E+04  0.10000000000E+02 0.  1.
</event>
<event>
 5    1  0.1334136E-008  0.3857846E+03  0.7957747E-01  0.3426351E+00
         13   -1    0    0    0    0  0.00000000000E+00  0.00000000000E+00  0.14999999963E+04  0.15000000000E+04  0.10566000000E+00 0.  1.
        994   -1    0    0    0    0 -0.00000000000E+00 -0.00000000000E+00  0.11368683772E-12  0.17120000000E+03  0.17120000000E+03 0.  0.
         13    1    1    2    0    0  0.99386154765E+01  0.53994429748E+01  0.50156745707E+02  0.51416343374E+02  0.10566000000E+00 0.  1.
        994    1    1    2    0    0 -0.12488408599E+02 -0.47243979592E+01  0.18261242909E+01  0.17172959854E+03  0.17120000000E+03 0.  0.
        998    1    1    2    0    0  0.25497931225E+01 -0.67504501564E+00  0.14480171263E+04  0.14480540581E+04  0.10000000000E+02 0.  1.
</event>
<event>
 5    1  0.1334136E-008  0.3854970E+03  0.7957747E-01  0.3427567E+00
         13   -1    0    0    0    0  0.00000000000E+00  0.00000000000E+00  0.14999999963E+04  0.15000000000E+04  0.10566000000E+00 0. -1.
        994   -1    0    0    0    0 -0.00000000000E+00 -0.00000000000E+00  0.11368683772E-12  0.17120000000E+03  0.17120000000E+03 0.  0.
         13    1    1    2    0    0  0.13605708327E+02 -0.14243051149E+00  0.65986651532E+02  0.67374957736E+02  0.10566000000E+00 0. -1.
        994    1    1    2    0    0 -0.11731369835E+02  0.18022138208E+01  0.18462686474E+01  0.17162086622E+03  0.17120000000E+03 0.  0.
        998    1    1    2    0    0 -0.18743384913E+01 -0.16597833093E+01  0.14321670761E+04  0.14322041760E+04  0.10000000000E+02 0. -1.
</event>
<event>
 5    1  0.1334136E-008  0.3837324E+03  0.7957747E-01  0.3435066E+00
         13   -1    0    0    0    0  0.00000000000E+00  0.00000000000E+00  0.14999999963E+04  0.15000000000E+04  0.10566000000E+00 0.  1.
        994   -1    0    0    0    0 -0.00000000000E+00 -0.00000000000E+00  0.11368683772E-12  0.17120000000E+03  0.17120000000E+03 0.  0.
         13    1    1    2    0    0 -0.19109465071E+02 -0.48636401813E+01  0.90201013072E+02  0.92331254591E+02  0.10566000000E+00 0.  1.
        994    1    1    2    0    0  0.86034641644E+01 -0.15451464418E+02  0.32942756701E+01  0.17214255604E+03  0.17120000000E+03 0.  0.
        998    1    1    2    0    0  0.10506000906E+02  0.20315104599E+02  0.14065047075E+04  0.14067261894E+04  0.10000000000E+02 0.  1.
</event>
<event>
 5    1  0.1334136E-008  0.3860807E+03  0.7957747E-01  0.3425102E+00
         13   -1    0    0    0    0  0.00000000000E+00  0.00000000000E+00  0.14999999963E+04  0.15000000000E+04  0.10566000000E+00 0. -1.
        994   -1    0    0    0    0 -0.00000000000E+00 -0.00000000000E+00  0.11368683772E-12  0.17120000000E+03  0.17120000000E+03 0.  0.
         13    1    1    2    0    0 -0.86536560547E+01 -0.60894225469E+01  0.49705585619E+02  0.50819516289E+02  0.10566000000E+00 0. -1.
        994    1    1    2    0    0  0.13135637854E+02  0.46163817777E+01  0.17300737780E+01  0.17177394773E+03  0.17120000000E+03 0.  0.
        998    1    1    2    0    0 -0.44819817992E+01  0.14730407692E+01  0.14485643369E+04  0.14486065360E+04  0.10000000000E+02 0. -1.
</event>
<event>
 5    1  0.1334136E-008  0.3855188E+03  0.7957747E-01  0.3427475E+00
         13   -1    0    0    0    0  0.00000000000E+00  0.00000000000E+00  0.14999999963E+04  0.15000000000E+04  0.10566000000E+00 0. -1.
        994   -1    0    0    0    0 -0.00000000000E+00 -0.00000000000E+00  0.11368683772E-12  0.17120000000E+03  0.17120000000E+03 0.  0.
         13    1    1    2    0    0  0.15613872476E+00  0.13647600133E+02  0.70674371049E+02  0.71980269908E+02  0.10566000000E+00 0. -1.
        994    1    1    2    0    0  0.43478416651E+01 -0.41707310223E+01  0.14919416747E+01  0.17131247653E+03  0.17120000000E+03 0.  0.
        998    1    1    2    0    0 -0.45039803898E+01 -0.94768691107E+01  0.14278336836E+04  0.14279072536E+04  0.10000000000E+02 0. -1.
</event>
<event>
 5    1  0.1334136E-008  0.3823177E+03  0.7957747E-01  0.3441129E+00
         13   -1    0    0    0    0  0.00000000000E+00  0.00000000000E+00  0.14999999963E+04  0.15000000000E+04  0.10566000000E+00 0.  1.
        994   -1    0    0    0    0 -0.00000000000E+00 -0.00000000000E+00  0.11368683772E-12  0.17120000000E+03  0.17120000000E+03 0.  0.
         13    1    1    2    0    0 -0.45500526963E+01  0.10784528697E+02  0.22640466888E+02  0.25487466404E+02  0.10566000000E+00 0.  1.
        994    1    1    2    0    0  0.75277314197E+01  0.51872552052E+01  0.32450609867E+01  0.17147461846E+03  0.17120000000E+03 0.  0.
        998    1    1    2    0    0 -0.29776787234E+01 -0.15971783902E+02  0.14741144684E+04  0.14742379151E+04  0.10000000000E+02 0.  1.
</event>
<event>
 5    1  0.1334136E-008  0.3811590E+03  0.7957747E-01  0.3446128E+00
         13   -1    0    0    0    0  0.00000000000E+00  0.00000000000E+00  0.14999999963E+04  0.15000000000E+04  0.10566000000E+00 0. -1.
        994   -1    0    0    0    0 -0.00000000000E+00 -0.00000000000E+00  0.11368683772E-12  0.17120000000E+03  0.17120000000E+03 0.  0.
         13    1    1    2    0    0 -0.15600845096E+02 -0.19207137342E+01  0.33665324542E+02  0.37154283057E+02  0.10566000000E+00 0. -1.
        994    1    1    2    0    0  0.85769373029E+01  0.28247065836E+01  0.38208453214E+01  0.17148055773E+03  0.17120000000E+03 0.  0.
        998    1    1    2    0    0  0.70239077928E+01 -0.90399284937E+00  0.14625138264E+04  0.14625651592E+04  0.10000000000E+02 0. -1.
</event>
<event>
 5    1  0.1334136E-008  0.4059742E+03  0.7957747E-01  0.3345314E+00
         13   -1    0    0    0    0  0.00000000000E+00  0.00000000000E+00  0.14999999963E+04  0.15000000000E+04  0.10566000000E+00 0. -1.
        994   -1    0    0    0    0 -0.00000000000E+00 -0.00000000000E+00  0.11368683772E-12  0.17120000000E+03  0.17120000000E+03 0.  0.
         13    1    1    2    0    0 -0.15042095833E+02 -0.17515364862E+02 -0.50932216797E+01  0.23643280746E+02  0.10566000000E+00 0. -1.
        994    1    1    2    0    0  0.13474081252E+02  0.19142213688E+02  0.33602082158E+02  0.17602987001E+03  0.17120000000E+03 0.  0.
        998    1    1    2    0    0  0.15680145816E+01 -0.16268488263E+01  0.14714911358E+04  0.14715268492E+04  0.10000000000E+02 0. -1.
</event>
<event>
 5    1  0.1334136E-008  0.3769240E+03  0.7957747E-01  0.3464662E+00
         13   -1    0    0    0    0  0.00000000000E+00  0.00000000000E+00  0.14999999963E+04  0.15000000000E+04  0.10566000000E+00 0.  1.
        994   -1    0    0    0    0 -0.00000000000E+00 -0.00000000000E+00  0.11368683772E-12  0.17120000000E+03  0.17120000000E+03 0.  0.
         13    1    1    2    0    0  0.10607859160E+03  0.24069519682E+02  0.33691067784E+03  0.35403506236E+03  0.10566000000E+00 0.  1.
        994    1    1    2    0    0 -0.81883363490E+02 -0.68068515900E+02  0.56483481411E+02  0.20937533700E+03  0.17120000000E+03 0.  0.
        998    1    1    2    0    0 -0.24195228113E+02  0.43998996218E+02  0.11066058370E+04  0.11077896006E+04  0.10000000000E+02 0.  1.
</event>
<event>
 5    1  0.1334136E-008  0.3959135E+03  0.7957747E-01  0.3384666E+00
         13   -1    0    0    0    0  0.00000000000E+00  0.00000000000E+00  0.14999999963E+04  0.15000000000E+04  0.10566000000E+00 0.  1.
        994   -1    0    0    0    0 -0.00000000000E+00 -0.00000000000E+00  0.11368683772E-12  0.17120000000E+03  0.17120000000E+03 0.  0.
         13    1    1    2    0    0 -0.29850080749E+02 -0.99729996880E+02  0.29181105732E+03  0.30982382726E+03  0.10566000000E+00 0.  1.
        994    1    1    2    0    0  0.18315021988E+02 -0.15481755319E+02  0.27576431716E+02  0.17505720312E+03  0.17120000000E+03 0.  0.
        998    1    1    2    0    0  0.11535058761E+02  0.11521175220E+03  0.11806125072E+04  0.11863189696E+04  0.10000000000E+02 0.  1.
</event>
<event>
 5    1  0.1334136E-008  0.3707405E+03  0.7957747E-01  0.3492495E+00
         13   -1    0    0    0    0  0.00000000000E+00  0.00000000000E+00  0.14999999963E+04  0.15000000000E+04  0.10566000000E+00 0. -1.
        994   -1    0    0    0    0 -0.00000000000E+00 -0.00000000000E+00  0.11368683772E-12  0.17120000000E+03  0.17120000000E+03 0.  0.
         13    1    1    2    0    0 -0.14479701051E+02 -0.40030687736E+01  0.86561454325E+01  0.17338578947E+02  0.10566000000E+00 0. -1.
        994    1    1    2    0    0  0.13871456618E+02  0.51922024365E+00  0.95473643098E+01  0.17202697191E+03  0.17120000000E+03 0.  0.
        998    1    1    2    0    0  0.60824443269E+00  0.34838485299E+01  0.14817964865E+04  0.14818344491E+04  0.10000000000E+02 0. -1.
</event>
<event>
 5    1  0.1334136E-008  0.3755527E+03  0.7957747E-01  0.3470754E+00
         13   -1    0    0    0    0  0.00000000000E+00  0.00000000000E+00  0.14999999963E+04  0.15000000000E+04  0.10566000000E+00 0. -1.
        994   -1    0    0    0    0 -0.00000000000E+00 -0.00000000000E+00  0.11368683772E-12  0.17120000000E+03  0.17120000000E+03 0.  0.
         13    1    1    2    0    0 -0.13385086401E+02 -0.19005338934E+02  0.40882927699E+02  0.47029654339E+02  0.10566000000E+00 0. -1.
        994    1    1    2    0    0 -0.11469729589E+02  0.14975775639E+02  0.76033676951E+01  0.17240382755E+03  0.17120000000E+03 0.  0.
        998    1    1    2    0    0  0.24854815991E+02  0.40295632952E+01  0.14515137009E+04  0.14517665181E+04  0.10000000000E+02 0. -1.
</event>
<event>
 5    1  0.1334136E-008  0.3688923E+03  0.7957747E-01  0.3500997E+00
         13   -1    0    0    0    0  0.00000000000E+00  0.00000000000E+00  0.14999999963E+04  0.15000000000E+04  0.10566000000E+00 0.  1.
        994   -1    0    0    0    0 -0.00000000000E+00 -0.00000000000E+00  0.11368683772E-12  0.17120000000E+03  0.17120000000E+03 0.  0.
         13    1    1    2    0    0  0.33103111222E+02 -0.18347837321E+02  0.67360612322E+02  0.77265272687E+02  0.10566000000E+00 0.  1.
        994    1    1    2    0    0 -0.32103374577E+02  0.96638795895E+01  0.13760564560E+02  0.17499374379E+03  0.17120000000E+03 0.  0.
        998    1    1    2    0    0 -0.99973664516E+00  0.86839577318E+01  0.14188788194E+04  0.14189409835E+04  0.10000000000E+02 0.  1.
</event>
<event>
 5    1  0.1334136E-008  0.3788277E+03  0.7957747E-01  0.3456279E+00
         13   -1    0    0    0    0  0.00000000000E+00  0.00000000000E+00  0.14999999963E+04  0.15000000000E+04  0.10566000000E+00 0. -1.
        994   -1    0    0    0    0 -0.00000000000E+00 -0.00000000000E+00  0.11368683772E-12  0.17120000000E+03  0.17120000000E+03 0.  0.
         13    1    1    2    0    0  0.12333133139E+02  0.80830782450E+00  0.13696784934E+02  0.18449190121E+02  0.10566000000E+00 0. -1.
        994    1    1    2    0    0 -0.21184281865E+02  0.47124689140E+01  0.63082548979E+01  0.17268530696E+03  0.17120000000E+03 0.  0.
        998    1    1    2    0    0  0.88511487260E+01 -0.55207767385E+01  0.14799949564E+04  0.14800655029E+04  0.10000000000E+02 0. -1.
</event>
<event>
 5    1  0.1334136E-008  0.3768415E+03  0.7957747E-01  0.3465028E+00
         13   -1    0    0    0    0  0.00000000000E+00  0.00000000000E+00  0.14999999963E+04  0.15000000000E+04  0.10566000000E+00 0. -1.
        994   -1    0    0    0    0 -0.00000000000E+00 -0.00000000000E+00  0.11368683772E-12  0.17120000000E+03  0.17120000000E+03 0.  0.
         13    1    1    2    0    0  0.63267388223E+02  0.40897724868E+02  0.41209051773E+03  0.41892003089E+03  0.10566000000E+00 0. -1.
        994    1    1    2    0    0 -0.59260893844E+02 -0.22470430538E+02  0.19428295867E+02  0.18358559984E+03  0.17120000000E+03 0.  0.
        998    1    1    2    0    0 -0.40064943793E+01 -0.18427294330E+02  0.10684811827E+04  0.10686943693E+04  0.10000000000E+02 0. -1.
</event>
<event>
 5    1  0.1334136E-008  0.3838293E+03  0.7957747E-01  0.3434653E+00
         13   -1    0    0    0    0  0.00000000000E+00  0.00000000000E+00  0.14999999963E+04  0.15000000000E+04  0.10566000000E+00 0.  1.
        994   -1    0    0    0    0 -0.00000000000E+00 -0.00000000000E+00  0.11368683772E-12  0.17120000000E+03  0.17120000000E+03 0.  0.
         13    1    1    2    0    0  0.15023589178E+02 -0.80351631537E+01  0.63941631467E+02  0.66172618789E+02  0.10566000000E+00 0.  1.
        994    1    1    2    0    0 -0.12388949580E+02  0.73566537246E+01  0.28981530988E+01  0.17182969975E+03  0.17120000000E+03 0.  0.
        998    1    1    2    0    0 -0.26346395981E+01  0.67850942910E+00  0.14331602117E+04  0.14331976815E+04  0.10000000000E+02 0.  1.
</event>
<event>
 5    1  0.1334136E-008  0.3752443E+03  0.7957747E-01  0.3472131E+00
         13   -1    0    0    0    0  0.00000000000E+00  0.00000000000E+00  0.14999999963E+04  0.15000000000E+04  0.10566000000E+00 0. -1.
        994   -1    0    0    0    0 -0.00000000000E+00 -0.00000000000E+00  0.11368683772E-12  0.17120000000E+03  0.17120000000E+03 0.  0.
         13    1    1    2    0    0  0.41156290401E+02 -0.31774273155E+02  0.18651952536E+03  0.19363106460E+03  0.10566000000E+00 0. -1.
        994    1    1    2    0    0 -0.34626540890E+02  0.30264316707E+02  0.13770528522E+02  0.17780324422E+03  0.17120000000E+03 0.  0.
        998    1    1    2    0    0 -0.65297495108E+01  0.15099564483E+01  0.12997099424E+04  0.12997656912E+04  0.10000000000E+02 0. -1.
</event>
<event>
 5    1  0.1334136E-008  0.3837586E+03  0.7957747E-01  0.3434954E+00
         13   -1    0    0    0    0  0.00000000000E+00  0.00000000000E+00  0.14999999963E+04  0.15000000000E+04  0.10566000000E+00 0. -1.
        994   -1    0    0    0    0 -0.00000000000E+00 -0.00000000000E+00  0.11368683772E-12  0.17120000000E+03  0.17120000000E+03 0.  0.
         13    1    1    2    0    0  0.98334602592E+01  0.86284590025E+01  0.39169984546E+02  0.41297047095E+02  0.10566000000E+00 0. -1.
        994    1    1    2    0    0 -0.73349551733E+01  0.10422338920E+02  0.27842397075E+01  0.17169629788E+03  0.17120000000E+03 0.  0.
        998    1    1    2    0    0 -0.24985050859E+01 -0.19050797923E+02  0.14580457720E+04  0.14582066550E+04  0.10000000000E+02 0. -1.
</event>
<event>
 5    1  0.1334136E-008  0.3083826E+03  0.7957747E-01  0.3837935E+00
         13   -1    0    0    0    0  0.00000000000E+00  0.00000000000E+00  0.14999999963E+04  0.15000000000E+04  0.10566000000E+00 0. -1.
        994   -1    0    0    0    0 -0.00000000000E+00 -0.00000000000E+00  0.11368683772E-12  0.17120000000E+03  0.17120000000E+03 0.  0.
         13    1    1    2    0    0  0.15879720629E+02  0.23803252676E+03  0.81173193662E+03  0.84606169836E+03  0.10566000000E+00 0. -1.
        994    1    1    2    0    0  0.11306957959E+03 -0.17574391160E+03  0.26595714651E+03  0.37909536540E+03  0.17120000000E+03 0.  0.
        998    1    1    2    0    0 -0.12894930022E+03 -0.62288615161E+02  0.42231091315E+03  0.44604293624E+03  0.10000000000E+02 0.  1.
</event>
<event>
 5    1  0.1334136E-008  0.3842656E+03  0.7957747E-01  0.3432793E+00
         13   -1    0    0    0    0  0.00000000000E+00  0.00000000000E+00  0.14999999963E+04  0.15000000000E+04  0.10566000000E+00 0.  1.
        994   -1    0    0    0    0 -0.00000000000E+00 -0.00000000000E+00  0.11368683772E-12  0.17120000000E+03  0.17120000000E+03 0.  0.
         13    1    1    2    0    0  0.24008478656E+00 -0.17099221909E+02  0.72215692073E+02  0.74212925938E+02  0.10566000000E+00 0.  1.
        994    1    1    2    0    0 -0.44191093273E+00  0.12786298445E+02  0.25349508465E+01  0.17169609981E+03  0.17120000000E+03 0.  0.
        998    1    1    2    0    0  0.20182614618E+00  0.43129234645E+01  0.14252493534E+04  0.14252909743E+04  0.10000000000E+02 0.  1.
</event>
<event>
 5    1  0.1334136E-008  0.3833481E+03  0.7957747E-01  0.3436708E+00
         13   -1    0    0    0    0  0.00000000000E+00  0.00000000000E+00  0.14999999963E+04  0.15000000000E+04  0.10566000000E+00 0. -1.
        994   -1    0    0    0    0 -0.00000000000E+00 -0.00000000000E+00  0.11368683772E-12  0.17120000000E+03  0.17120000000E+03 0.  0.
         13    1    1    2    0    0  0.76697986705E+01 -0.22781263413E+02  0.10942832945E+03  0.11203741440E+03  0.10566000000E+00 0. -1.
        994    1    1    2    0    0 -0.44775902931E+01  0.24797269822E+02  0.45547133960E+01  0.17310441594E+03  0.17120000000E+03 0.  0.
        998    1    1    2    0    0 -0.31922083774E+01 -0.20160064095E+01  0.13860169534E+04  0.13860581697E+04  0.10000000000E+02 0. -1.
</event>
<event>
 5    1  0.1334136E-008  0.3853879E+03  0.7957747E-01  0.3428029E+00
         13   -1    0    0    0    0  0.00000000000E+00  0.00000000000E+00  0.14999999963E+04  0.15000000000E+04  0.10566000000E+00 0.  1.
        994   -1    0    0    0    0 -0.00000000000E+00 -0.00000000000E+00  0.11368683772E-12  0.17120000000E+03  0.17120000000E+03 0.  0.
         13    1    1    2    0    0 -0.99972292700E+01 -0.11222216113E+02  0.81787811696E+02  0.83157320986E+02  0.10566000000E+00 0.  1.
        994    1    1    2    0    0  0.70146077465E+01  0.52896057847E+00  0.16002315568E+01  0.17135193393E+03  0.17120000000E+03 0.  0.
        998    1    1    2    0    0  0.29826215235E+01  0.10693255534E+02  0.14166119530E+04  0.14166907451E+04  0.10000000000E+02 0.  1.
</event>
<event>
 5    1  0.1334136E-008  0.3858284E+03  0.7957747E-01  0.3426167E+00
         13   -1    0    0    0    0  0.00000000000E+00  0.00000000000E+00  0.14999999963E+04  0.15000000000E+04  0.10566000000E+00 0. -1.
        994   -1    0    0    0    0 -0.00000000000E+00 -0.00000000000E+00  0.11368683772E-12  0.17120000000E+03  0.17120000000E+03 0.  0.
         13    1    1    2    0    0 -0.15072112760E+02 -0.61523279478E+00  0.89813616497E+02  0.91071641946E+02  0.10566000000E+00 0. -1.
        994    1    1    2    0    0  0.15143953263E+02  0.41340320753E+01  0.20280949946E+01  0.17193016812E+03  0.17120000000E+03 0.  0.
        998    1    1    2    0    0 -0.71840503041E-01 -0.35187992805E+01  0.14081582848E+04  0.14081981899E+04  0.10000000000E+02 0. -1.
</event>
<event>
 5    1  0.1334136E-008  0.3827989E+03  0.7957747E-01  0.3439061E+00
         13   -1    0    0    0    0  0.00000000000E+00  0.00000000000E+00  0.14999999963E+04  0.15000000000E+04  0.10566000000E+00 0.  1.
        994   -1    0    0    0    0 -0.00000000000E+00 -0.00000000000E+00  0.11368683772E-12  0.17120000000E+03  0.17120000000E+03 0.  0.
         13    1    1    2    0    0  0.25158349294E+02 -0.14790215193E+02  0.13867648477E+03  0.14171404869E+03  0.10566000000E+00 0.  1.
        994    1    1    2    0    0 -0.28595845225E+02  0.16902205283E+02  0.63903043391E+01  0.17450983610E+03  0.17120000000E+03 0.  0.
        998    1    1    2    0    0  0.34374959316E+01 -0.21119900903E+01  0.13549332072E+04  0.13549761152E+04  0.10000000000E+02 0.  1.
</event>
<event>
 5    1  0.1334136E-008  0.3719561E+03  0.7957747E-01  0.3486949E+00
         13   -1    0    0    0    0  0.00000000000E+00  0.00000000000E+00  0.14999999963E+04  0.15000000000E+04  0.10566000000E+00 0. -1.
        994   -1    0    0    0    0 -0.00000000000E+00 -0.00000000000E+00  0.11368683772E-12  0.17120000000E+03  0.17120000000E+03 0.  0.
         13    1    1    2    0    0 -0.11231049280E+02 -0.35915528989E+02  0.10427202219E+03  0.11085453290E+03  0.10566000000E+00 0. -1.
        994    1    1    2    0    0  0.75881443645E+02 -0.55295529209E+02  0.39163556387E+02  0.19914520629E+03  0.17120000000E+03 0.  0.
        998    1    1    2    0    0 -0.64650394364E+02  0.91211058198E+02  0.13565644177E+04  0.13612002608E+04  0.10000000000E+02 0. -1.
</event>
<event>
 5    1  0.1334136E-008  0.3771522E+03  0.7957747E-01  0.3463653E+00
         13   -1    0    0    0    0  0.00000000000E+00  0.00000000000E+00  0.14999999963E+04  0.15000000000E+04  0.10566000000E+00 0.  1.
        994   -1    0    0    0    0 -0.00000000000E+00 -0.00000000000E+00  0.11368683772E-12  0.17120000000E+03  0.17120000000E+03 0.  0.
         13    1    1    2    0    0 -0.34770154671E+02  0.37973928962E+02  0.22014362264E+03  0.22608451670E+03  0.10566000000E+00 0.  1.
        994    1    1    2    0    0  0.22569668852E+02 -0.33273848094E+02  0.11052469363E+02  0.17620481264E+03  0.17120000000E+03 0.  0.
        998    1    1    2    0    0  0.12200485819E+02 -0.47000808675E+01  0.12688039043E+04  0.12689106707E+04  0.10000000000E+02 0.  1.
</event>
<event>
 5    1  0.1334136E-008  0.3749961E+03  0.7957747E-01  0.3473240E+00
         13   -1    0    0    0    0  0.00000000000E+00  0.00000000000E+00  0.14999999963E+04  0.15000000000E+04  0.10566000000E+00 0.  1.
        994   -1    0    0    0    0 -0.00000000000E+00 -0.00000000000E+00  0.11368683772E-12  0.17120000000E+03  0.17120000000E+03 0.  0.
         13    1    1    2    0    0 -0.11408755232E+01  0.11914744057E+02  0.75919388369E+01  0.14174322638E+02  0.10566000000E+00 0.  1.
        994    1    1    2    0    0  0.21470460761E+01 -0.13706515524E+02  0.73352534022E+01  0.17191778360E+03  0.17120000000E+03 0.  0.
        998    1    1    2    0    0 -0.10061705529E+01  0.17917714673E+01  0.14850728040E+04  0.14851078938E+04  0.10000000000E+02 0.  1.
</event>
<event>
 5    1  0.1334136E-008  0.3802638E+03  0.7957747E-01  0.3450011E+00
         13   -1    0    0    0    0  0.00000000000E+00  0.00000000000E+00  0.14999999963E+04  0.15000000000E+04  0.10566000000E+00 0. -1.
        994   -1    0    0    0    0 -0.00000000000E+00 -0.00000000000E+00  0.11368683772E-12  0.17120000000E+03  0.17120000000E+03 0.  0.
         13    1    1    2    0    0  0.34080181485E+02  0.83237944460E+01  0.14751435773E+03  0.15162862930E+03  0.10566000000E+00 0. -1.
        994    1    1    2    0    0 -0.26501639767E+02 -0.72538775943E+00  0.63511606714E+01  0.17335697373E+03  0.17120000000E+03 0.  0.
        998    1    1    2    0    0 -0.75785417181E+01 -0.75984066866E+01  0.13461344779E+04  0.13462143970E+04  0.10000000000E+02 0. -1.
</event>
<event>
 5    1  0.1334136E-008  0.3774361E+03  0.7957747E-01  0.3462399E+00
         13   -1    0    0    0    0  0.00000000000E+00  0.00000000000E+00  0.14999999963E+04  0.15000000000E+04  0.10566000000E+00 0.  1.
        994   -1    0    0    0    0 -0.00000000000E+00 -0.00000000000E+00  0.11368683772E-12  0.17120000000E+03  0.17120000000E+03 0.  0.
         13    1    1    2    0    0  0.85950036889E+01 -0.27815576593E+02  0.76633640757E+02  0.81977475256E+02  0.10566000000E+00 0.  1.
        994    1    1    2    0    0  0.12103685821E+01  0.17365955582E+02  0.64553888175E+01  0.17220381369E+03  0.17120000000E+03 0.  0.
        998    1    1    2    0    0 -0.98053722710E+01  0.10449621011E+02  0.14169109667E+04  0.14170187111E+04  0.10000000000E+02 0.  1.
</event>
<event>
 5    1  0.1334136E-008  0.3750225E+03  0.7957747E-01  0.3473122E+00
         13   -1    0    0    0    0  0.00000000000E+00  0.00000000000E+00  0.14999999963E+04  0.15000000000E+04  0.10566000000E+00 0. -1.
        994   -1    0    0    0    0 -0.00000000000E+00 -0.00000000000E+00  0.11368683772E-12  0.17120000000E+03  0.17120000000E+03 0.  0.
         13    1    1    2    0    0 -0.10329660062E+03 -0.35552437242E+02  0.32942251920E+03  0.34706392900E+03  0.10566000000E+00 0. -1.
        994    1    1    2    0    0  0.10410442437E+03  0.37630640749E+02  0.58619389275E+02  0.21213078300E+03  0.17120000000E+03 0.  0.
        998    1    1    2    0    0 -0.80782374775E+00 -0.20782035069E+01  0.11119580878E+04  0.11120052880E+04  0.10000000000E+02 0. -1.
</event>
<event>
 5    1  0.1334136E-008  0.3833024E+03  0.7957747E-01  0.3436904E+00
         13   -1    0    0    0    0  0.00000000000E+00  0.00000000000E+00  0.14999999963E+04  0.15000000000E+04  0.10566000000E+00 0.  1.
        994   -1    0    0    0    0 -0.00000000000E+00 -0.00000000000E+00  0.11368683772E-12  0.17120000000E+03  0.17120000000E+03 0.  0.
         13    1    1    2    0    0  0.73110189703E+01 -0.19838524725E+02  0.81164910703E+02  0.83873547410E+02  0.10566000000E+00 0.  1.
        994    1    1    2    0    0 -0.80203790451E+01  0.29692232545E+02  0.56097589862E+01  0.17403121717E+03  0.17120000000E+03 0.  0.
        998    1    1    2    0    0  0.70936007475E+00 -0.98537078198E+01  0.14132253266E+04  0.14132952354E+04  0.10000000000E+02 0.  1.
</event>
<event>
 5    1  0.1334136E-008  0.3864252E+03  0.7957747E-01  0.3423650E+00
         13   -1    0    0    0    0  0.00000000000E+00  0.00000000000E+00  0.14999999963E+04  0.15000000000E+04  0.10566000000E+00 0.  1.
        994   -1    0    0    0    0 -0.00000000000E+00 -0.00000000000E+00  0.11368683772E-12  0.17120000000E+03  0.17120000000E+03 0.  0.
         13    1    1    2    0    0 -0.73021373815E+02  0.51392840966E+02  0.20736367744E+03  0.22577212189E+03  0.10566000000E+00 0.  1.
        994    1    1    2    0    0  0.22479158098E+02 -0.38840806719E+02  0.27413860967E+02  0.17909461351E+03  0.17120000000E+03 0.  0.
        998    1    1    2    0    0  0.50542215716E+02 -0.12552034247E+02  0.12652224579E+04  0.12663332646E+04  0.10000000000E+02 0.  1.
</event>
<event>
 5    1  0.1334136E-008  0.3837705E+03  0.7957747E-01  0.3434904E+00
         13   -1    0    0    0    0  0.00000000000E+00  0.00000000000E+00  0.14999999963E+04  0.15000000000E+04  0.10566000000E+00 0. -1.
        994   -1    0    0    0    0 -0.00000000000E+00 -0.00000000000E+00  0.11368683772E-12  0.17120000000E+03  0.17120000000E+03 0.  0.
         13    1    1    2    0    0  0.18280532317E+02 -0.17074516484E+01  0.77787882618E+02  0.79925334527E+02  0.10566000000E+00 0. -1.
        994    1    1    2    0    0 -0.58358992840E+01 -0.79403206199E+01  0.25625057526E+01  0.17150251557E+03  0.17120000000E+03 0.  0.
        998    1    1    2    0    0 -0.12444633033E+02  0.96477722683E+01  0.14196496079E+04  0.14197721499E+04  0.10000000000E+02 0. -1.
</event>
<event>
 5    1  0.1334136E-008  0.3758045E+03  0.7957747E-01  0.3469633E+00
         13   -1    0    0    0    0  0.00000000000E+00  0.00000000000E+00  0.14999999963E+04  0.15000000000E+04  0.10566000000E+00 0. -1.
        994   -1    0    0    0    0 -0.00000000000E+00 -0.00000000000E+00  0.11368683772E-12  0.17120000000E+03  0.17120000000E+03 0.  0.
         13    1    1    2    0    0  0.29136877086E+01 -0.33334040030E+02  0.89184987173E+02  0.95255555754E+02  0.10566000000E+00 0. -1.
        994    1    1    2    0    0  0.83464067244E+01  0.15730264301E+02  0.73418911871E+01  0.17228014130E+03  0.17120000000E+03 0.  0.
        998    1    1    2    0    0 -0.11260094433E+02  0.17603775729E+02  0.14034731179E+04  0.14036643029E+04  0.10000000000E+02 0. -1.
</event>
<event>
 5    1  0.1334136E-008  0.3787800E+03  0.7957747E-01  0.3456488E+00
         13   -1    0    0    0    0  0.00000000000E+00  0.00000000000E+00  0.14999999963E+04  0.15000000000E+04  0.10566000000E+00 0.  1.
        994   -1    0    0    0    0 -0.00000000000E+00 -0.00000000000E+00  0.11368683772E-12  0.17120000000E+03  0.17120000000E+03 0.  0.
         13    1    1    2    0    0  0.61973612012E+01  0.11967747413E+03  0.69970682828E+03  0.70989489490E+03  0.10566000000E+00 0.  1.
        994    1    1    2    0    0 -0.26511118081E+01 -0.12530798898E+03  0.59426131368E+02  0.22034070343E+03  0.17120000000E+03 0.  0.
        998    1    1    2    0    0 -0.35462493930E+01  0.56305148583E+01  0.74086703663E+03  0.74096440167E+03  0.10000000000E+02 0.  0.
</event>
<event>
 5    1  0.1334136E-008  0.3807433E+03  0.7957747E-01  0.3447928E+00
         13   -1    0    0    0    0  0.00000000000E+00  0.00000000000E+00  0.14999999963E+04  0.15000000000E+04  0.10566000000E+00 0.  1.
        994   -1    0    0    0    0 -0.00000000000E+00 -0.00000000000E+00  0.11368683772E-12  0.17120000000E+03  0.17120000000E+03 0.  0.
         13    1    1    2    0    0 -0.30225236215E+02 -0.17909464566E+02  0.14761599909E+03  0.15173927697E+03  0.10566000000E+00 0.  1.
        994    1    1    2    0    0  0.36242802134E+02  0.96644789252E+01  0.84644200753E+01  0.17546517964E+03  0.17120000000E+03 0.  0.
        998    1    1    2    0    0 -0.60175659193E+01  0.82449856408E+01  0.13439195771E+04  0.13439955434E+04  0.10000000000E+02 0.  1.
</event>
<event>
 5    1  0.1334136E-008  0.3758944E+03  0.7957747E-01  0.3469232E+00
         13   -1    0    0    0    0  0.00000000000E+00  0.00000000000E+00  0.14999999963E+04  0.15000000000E+04  0.10566000000E+00 0. -1.
        994   -1    0    0    0    0 -0.00000000000E+00 -0.00000000000E+00  0.11368683772E-12  0.17120000000E+03  0.17120000000E+03 0.  0.
         13    1    1    2    0    0  0.29357434620E+02 -0.27493480333E+01  0.65681846697E+02  0.71996764036E+02  0.10566000000E+00 0. -1.
        994    1    1    2    0    0 -0.26590307284E+02  0.11783206665E+01  0.86247398509E+01  0.17347120516E+03  0.17120000000E+03 0.  0.
        998    1    1    2    0    0 -0.27671273360E+01  0.15710273668E+01  0.14256934097E+04  0.14257320308E+04  0.10000000000E+02 0. -1.
</event>
<event>
 5    1  0.1334136E-008  0.3851752E+03  0.7957747E-01  0.3428930E+00
         13   -1    0    0    0    0  0.00000000000E+00  0.00000000000E+00  0.14999999963E+04  0.15000000000E+04  0.10566000000E+00 0. -1.
        994   -1    0    0    0    0 -0.00000000000E+00 -0.00000000000E+00  0.11368683772E-12  0.17120000000E+03  0.17120000000E+03 0.  0.
         13    1    1    2    0    0 -0.12026265034E+02  0.40665915673E+00  0.48474294595E+02  0.49945618655E+02  0.10566000000E+00 0. -1.
        994    1    1    2    0    0  0.22110940410E+01 -0.50086739057E+01  0.16417210217E+01  0.17129539106E+03  0.17120000000E+03 0.  0.
        998    1    1    2    0    0  0.98151709935E+01  0.46020147489E+01  0.14498839807E+04  0.14499589903E+04  0.10000000000E+02 0. -1.
</event>
<event>
 5    1  0.1334136E-008  0.3748915E+03  0.7957747E-01  0.3473708E+00
         13   -1    0    0    0    0  0.00000000000E+00  0.00000000000E+00  0.14999999963E+04  0.15000000000E+04  0.10566000000E+00 0. -1.
        994   -1    0    0    0    0 -0.00000000000E+00 -0.00000000000E+00  0.11368683772E-12  0.17120000000E+03  0.17120000000E+03 0.  0.
         13    1    1    2    0    0  0.14262110051E+02 -0.22852000514E+01  0.13758038725E+02  0.19948050430E+02  0.10566000000E+00 0. -1.
        994    1    1    2    0    0  0.34317688092E+02  0.72650970040E+01  0.10930132059E+02  0.17509823853E+03  0.17120000000E+03 0.  0.
        998    1    1    2    0    0 -0.48579798143E+02 -0.49798969526E+01  0.14753118255E+04  0.14761537110E+04  0.10000000000E+02 0. -1.
</event>
<event>
 5    1  0.1334136E-008  0.3779720E+03  0.7957747E-01  0.3460037E+00
         13   -1    0    0    0    0  0.00000000000E+00  0.00000000000E+00  0.14999999963E+04  0.15000000000E+04  0.10566000000E+00 0. -1.
        994   -1    0    0    0    0 -0.00000000000E+00 -0.00000000000E+00  0.11368683772E-12  0.17120000000E+03  0.17120000000E+03 0.  0.
         13    1    1    2    0    0 -0.36732792494E+01  0.14350755708E+02  0.18790528045E+02  0.23927646731E+02  0.10566000000E+00 0. -1.
        994    1    1    2    0    0  0.10986322685E+00 -0.16530842324E+02  0.60806586669E+01  0.17210373392E+03  0.17120000000E+03 0.  0.
        998    1    1    2    0    0  0.35634160225E+01  0.21800866156E+01  0.14751288096E+04  0.14751686194E+04  0.10000000000E+02 0. -1.
</event>
<event>
 5    1  0.1334136E-008  0.3849836E+03  0.7957747E-01  0.3429742E+00
         13   -1    0    0    0    0  0.00000000000E+00  0.00000000000E+00  0.14999999963E+04  0.15000000000E+04  0.10566000000E+00 0.  1.
        994   -1    0    0    0    0 -0.00000000000E+00 -0.00000000000E+00  0.11368683772E-12  0.17120000000E+03  0.17120000000E+03 0.  0.
         13    1    1    2    0    0 -0.17173893642E+01  0.16507407385E+02  0.99127128026E+02  0.10050692812E+03  0.10566000000E+00 0.  1.
        994    1    1    2    0    0  0.34726207175E+01  0.10035754231E+02  0.20092556648E+01  0.17154081895E+03  0.17120000000E+03 0.  0.
        998    1    1    2    0    0 -0.17552313533E+01 -0.26543161616E+02  0.13988636126E+04  0.13991522529E+04  0.10000000000E+02 0.  1.
</event>
<event>
 5    1  0.1334136E-008  0.3792750E+03  0.7957747E-01  0.3454321E+00
         13   -1    0    0    0    0  0.00000000000E+00  0.00000000000E+00  0.14999999963E+04  0.15000000000E+04  0.10566000000E+00 0.  1.
        994   -1    0    0    0    0 -0.00000000000E+00 -0.00000000000E+00  0.11368683772E-12  0.17120000000E+03  0.17120000000E+03 0.  0.
         13    1    1    2    0    0  0.76474272369E+01  0.14503719336E+02  0.27831078487E+02  0.32302029530E+02  0.10566000000E+00 0.  1.
        994    1    1    2    0    0 -0.96565709946E+01 -0.10653145272E+02  0.51926468984E+01  0.17188118701E+03  0.17120000000E+03 0.  0.
        998    1    1    2    0    0  0.20091437577E+01 -0.38505740647E+01  0.14669762709E+04  0.14670167835E+04  0.10000000000E+02 0.  1.
</event>
<event>
 5    1  0.1334136E-008  0.2683672E+03  0.7957747E-01  0.4151408E+00
         13   -1    0    0    0    0  0.00000000000E+00  0.00000000000E+00  0.14999999963E+04  0.15000000000E+04  0.10566000000E+00 0. -1.
        994   -1    0    0    0    0 -0.00000000000E+00 -0.00000000000E+00  0.11368683772E-12  0.17120000000E+03  0.17120000000E+03 0.  0.
         13    1    1    2    0    0 -0.16750886497E+03 -0.81995085920E+02  0.51722194087E+03  0.54981902590E+03  0.10566000000E+00 0. -1.
        994    1    1    2    0    0  0.79875191240E+02  0.95192170285E+02  0.99788766237E+02  0.23389919480E+03  0.17120000000E+03 0.  0.
        998    1    1    2    0    0  0.87633673731E+02 -0.13197084365E+02  0.88298928917E+03  0.88748177930E+03  0.10000000000E+02 0. -1.
</event>
<event>
 5    1  0.1334136E-008  0.3849142E+03  0.7957747E-01  0.3430036E+00
         13   -1    0    0    0    0  0.00000000000E+00  0.00000000000E+00  0.14999999963E+04  0.15000000000E+04  0.10566000000E+00 0. -1.
        994   -1    0    0    0    0 -0.00000000000E+00 -0.00000000000E+00  0.11368683772E-12  0.17120000000E+03  0.17120000000E+03 0.  0.
         13    1    1    2    0    0 -0.71310071002E+01  0.12845227492E+02  0.61316786767E+02  0.63052443530E+02  0.10566000000E+00 0. -1.
        994    1    1    2    0    0  0.38996708208E+02 -0.44291385668E+00  0.66920555366E+01  0.17571329782E+03  0.17120000000E+03 0.  0.
        998    1    1    2    0    0 -0.31865701107E+02 -0.12402313636E+02  0.14319911540E+04  0.14324342586E+04  0.10000000000E+02 0. -1.
</event>
<event>
 5    1  0.1334136E-008  0.3833546E+03  0.7957747E-01  0.3436681E+00
         13   -1    0    0    0    0  0.00000000000E+00  0.00000000000E+00  0.14999999963E+04  0.15000000000E+04  0.10566000000E+00 0. -1.
        994   -1    0    0    0    0 -0.00000000000E+00 -0.00000000000E+00  0.11368683772E-12  0.17120000000E+03  0.17120000000E+03 0.  0.
         13    1    1    2    0    0  0.12012247514E+02  0.18603959736E+01  0.28956559976E+02  0.31404596689E+02  0.10566000000E+00 0. -1.
        994    1    1    2    0    0 -0.12582405919E+02  0.15621441344E+01  0.29809295879E+01  0.17169473834E+03  0.17120000000E+03 0.  0.
        998    1    1    2    0    0  0.57015840459E+00 -0.34225401080E+01  0.14680625067E+04  0.14681006650E+04  0.10000000000E+02 0. -1.
</event>
<event>
 5    1  0.1334136E-008  0.2723283E+03  0.7957747E-01  0.4115793E+00
         13   -1    0    0    0    0  0.00000000000E+00  0.00000000000E+00  0.14999999963E+04  0.15000000000E+04  0.10566000000E+00 0.  1.
        994   -1    0    0    0    0 -0.00000000000E+00 -0.00000000000E+00  0.11368683772E-12  0.17120000000E+03  0.17120000000E+03 0.  0.
         13    1    1    2    0    0 -0.15347759883E+03 -0.71840715404E+02  0.46499802001E+03  0.49491376169E+03  0.10566000000E+00 0.  1.
        994    1    1    2    0    0  0.15588866233E+03  0.65417836009E+02  0.13438854631E+03  0.27559116403E+03  0.17120000000E+03 0.  0.
        998    1    1    2    0    0 -0.24110635017E+01  0.64228793948E+01  0.90061342996E+03  0.90069507428E+03  0.10000000000E+02 0. -1.
</event>
<event>
 5    1  0.1334136E-008  0.3822018E+03  0.7957747E-01  0.3441627E+00
         13   -1    0    0    0    0  0.00000000000E+00  0.00000000000E+00  0.14999999963E+04  0.15000000000E+04  0.10566000000E+00 0.  1.
        994   -1    0    0    0    0 -0.00000000000E+00 -0.00000000000E+00  0.11368683772E-12  0.17120000000E+03  0.17120000000E+03 0.  0.
         13    1    1    2    0    0 -0.19634368134E+02  0.20279996278E+02  0.13804793447E+03  0.14090432937E+03  0.10566000000E+00 0.  1.
        994    1    1    2    0    0 -0.36067322260E+01 -0.16588132349E+02  0.39827566930E+01  0.17208566763E+03  0.17120000000E+03 0.  0.
        998    1    1    2    0    0  0.23241100360E+02 -0.36918639282E+01  0.13579693051E+04  0.13582100030E+04  0.10000000000E+02 0.  1.
</event>
<event>
 5    1  0.1334136E-008  0.3834943E+03  0.7957747E-01  0.3436083E+00
         13   -1    0    0    0    0  0.00000000000E+00  0.00000000000E+00  0.14999999963E+04  0.15000000000E+04  0.10566000000E+00 0.  1.
        994   -1    0    0    0    0 -0.00000000000E+00 -0.00000000000E+00  0.11368683772E-12  0.17120000000E+03  0.17120000000E+03 0.  0.
         13    1    1    2    0    0  0.15588434087E+02 -0.23186891770E+01  0.50063046535E+02  0.52485192095E+02  0.10566000000E+00 0.  1.
        994    1    1    2    0    0 -0.15219114498E+02  0.11246038946E+02  0.35638357007E+01  0.17227952799E+03  0.17120000000E+03 0.  0.
        998    1    1    2    0    0 -0.36931958916E+00 -0.89273497687E+01  0.14463731140E+04  0.14464352799E+04  0.10000000000E+02 0.  1.
</event>
<event>
 5    1  0.1334136E-008  0.3730086E+03  0.7957747E-01  0.3482177E+00
         13   -1    0    0    0    0  0.00000000000E+00  0.00000000000E+00  0.14999999963E+04  0.15000000000E+04  0.10566000000E+00 0.  1.
        994   -1    0    0    0    0 -0.00000000000E+00 -0.00000000000E+00  0.11368683772E-12  0.17120000000E+03  0.17120000000E+03 0.  0.
         13    1    1    2    0    0  0.73145086239E+02  0.25532221053E+02  0.31433200055E+03  0.32373865337E+03  0.10566000000E+00 0.  1.
        994    1    1    2    0    0 -0.71002079565E+02 -0.20083921231E+02  0.26573491414E+02  0.18830892077E+03  0.17120000000E+03 0.  0.
        998    1    1    2    0    0 -0.21430066746E+01 -0.54482998223E+01  0.11590945043E+04  0.11591524259E+04  0.10000000000E+02 0.  1.
</event>
<event>
 5    1  0.1334136E-008  0.3834015E+03  0.7957747E-01  0.3436480E+00
         13   -1    0    0    0    0  0.00000000000E+00  0.00000000000E+00  0.14999999963E+04  0.15000000000E+04  0.10566000000E+00 0. -1.
        994   -1    0    0    0    0 -0.00000000000E+00 -0.00000000000E+00  0.11368683772E-12  0.17120000000E+03  0.17120000000E+03 0.  0.
         13    1    1    2    0    0  0.17476587233E+02  0.16115259621E+02  0.11323104504E+03  0.11569966905E+03  0.10566000000E+00 0. -1.
        994    1    1    2    0    0  0.17727838807E+01 -0.29380817859E+02  0.52951544511E+01  0.17379255991E+03  0.17120000000E+03 0.  0.
        998    1    1    2    0    0 -0.19249371114E+02  0.13265558238E+02  0.13814737968E+04  0.13817077710E+04  0.10000000000E+02 0. -1.
</event>
<event>
 5    1  0.1334136E-008  0.3779281E+03  0.7957747E-01  0.3460230E+00
         13   -1    0    0    0    0  0.00000000000E+00  0.00000000000E+00  0.14999999963E+04  0.15000000000E+04  0.10566000000E+00 0.  1.
        994   -1    0    0    0    0 -0.00000000000E+00 -0.00000000000E+00  0.11368683772E-12  0.17120000000E+03  0.17120000000E+03 0.  0.
         13    1    1    2    0    0 -0.13176889357E+02  0.80337804569E+01  0.20625205963E+02  0.25760091743E+02  0.10566000000E+00 0.  1.
        994    1    1    2    0    0  0.11194338560E+02 -0.81029558236E+01  0.58257582823E+01  0.17185560965E+03  0.17120000000E+03 0.  0.
        998    1    1    2    0    0  0.19825507965E+01  0.69175366768E-01  0.14735490320E+04  0.14735842986E+04  0.10000000000E+02 0.  1.
</event>
<event>
 5    1  0.1334136E-008  0.4395684E+03  0.7957747E-01  0.3226788E+00
         13   -1    0    0    0    0  0.00000000000E+00  0.00000000000E+00  0.14999999963E+04  0.15000000000E+04  0.10566000000E+00 0. -1.
        994   -1    0    0    0    0 -0.00000000000E+00 -0.00000000000E+00  0.11368683772E-12  0.17120000000E+03  0.17120000000E+03 0.  0.
         13    1    1    2    0    0  0.43029226346E+02  0.53309770138E+02  0.27439792162E+02  0.73799724051E+02  0.10566000000E+00 0. -1.
        994    1    1    2    0    0 -0.27670527181E+02 -0.34294392515E+02  0.63117164399E+02  0.18770982892E+03  0.17120000000E+03 0.  0.
        998    1    1    2    0    0 -0.15358699165E+02 -0.19015377623E+02  0.14094430397E+04  0.14096904470E+04  0.10000000000E+02 0. -1.
</event>
<event>
 5    1  0.1334136E-008  0.3842486E+03  0.7957747E-01  0.3432865E+00
         13   -1    0    0    0    0  0.00000000000E+00  0.00000000000E+00  0.14999999963E+04  0.15000000000E+04  0.10566000000E+00 0.  1.
        994   -1    0    0    0    0 -0.00000000000E+00 -0.00000000000E+00  0.11368683772E-12  0.17120000000E+03  0.17120000000E+03 0.  0.
         13    1    1    2    0    0  0.13784266400E+01  0.19822624326E+02  0.95889509302E+02  0.97926736152E+02  0.10566000000E+00 0.  1.
        994    1    1    2    0    0  0.11003710390E+02 -0.16997283804E+02  0.33564020188E+01  0.17242591085E+03  0.17120000000E+03 0.  0.
        998    1    1    2    0    0 -0.12382137030E+02 -0.28253405224E+01  0.14007540850E+04  0.14008473530E+04  0.10000000000E+02 0.  1.
</event>
<event>
 5    1  0.1334136E-008  0.3764254E+03  0.7957747E-01  0.3466873E+00
         13   -1    0    0    0    0  0.00000000000E+00  0.00000000000E+00  0.14999999963E+04  0.15000000000E+04  0.10566000000E+00 0.  1.
        994   -1    0    0    0    0 -0.00000000000E+00 -0.00000000000E+00  0.11368683772E-12  0.17120000000E+03  0.17120000000E+03 0.  0.
         13    1    1    2    0    0 -0.97750673593E+02  0.44101678785E+01  0.56086608887E+03  0.56933770697E+03  0.10566000000E+00 0.  1.
        994    1    1    2    0    0  0.94722894979E+02  0.38422776151E+02  0.42156790176E+02  0.20380228536E+03  0.17120000000E+03 0.  0.
        998    1    1    2    0    0  0.30277786142E+01 -0.42832944030E+02  0.89697711723E+03  0.89806000767E+03  0.10000000000E+02 0.  1.
</event>
<event>
 5    1  0.1334136E-008  0.3783640E+03  0.7957747E-01  0.3458313E+00
         13   -1    0    0    0    0  0.00000000000E+00  0.00000000000E+00  0.14999999963E+04  0.15000000000E+04  0.10566000000E+00 0.  1.
        994   -1    0    0    0    0 -0.00000000000E+00 -0.00000000000E+00  0.11368683772E-12  0.17120000000E+03  0.17120000000E+03 0.  0.
         13    1    1    2    0    0 -0.31901149520E+01 -0.12369134646E+02  0.13908225074E+02  0.18884443705E+02  0.10566000000E+00 0.  1.
        994    1    1    2    0    0 -0.12781668654E+02  0.23729892120E+02  0.74068639106E+01  0.17346694344E+03  0.17120000000E+03 0.  0.
        998    1    1    2    0    0  0.15971783606E+02 -0.11360757473E+02  0.14786849073E+04  0.14788486129E+04  0.10000000000E+02 0.  1.
</event>
<event>
 5    1  0.1334136E-008  0.3792847E+03  0.7957747E-01  0.3454279E+00
         13   -1    0    0    0    0  0.00000000000E+00  0.00000000000E+00  0.14999999963E+04  0.15000000000E+04  0.10566000000E+00 0. -1.
        994   -1    0    0    0    0 -0.00000000000E+00 -0.00000000000E+00  0.11368683772E-12  0.17120000000E+03  0.17120000000E+03 0.  0.
         13    1    1    2    0    0  0.25488337984E+01 -0.15436898294E+02  0.26984769864E+02  0.31192681053E+02  0.10566000000E+00 0. -1.
        994    1    1    2    0    0 -0.28740845325E+02 -0.15481945523E+02  0.80739976097E+01  0.17447164888E+03  0.17120000000E+03 0.  0.
        998    1    1    2    0    0  0.26192011526E+02  0.30918843817E+02  0.14649412288E+04  0.14655356701E+04  0.10000000000E+02 0. -1.
</event>
<event>
 5    1  0.1334136E-008  0.3821432E+03  0.7957747E-01  0.3441879E+00
         13   -1    0    0    0    0  0.00000000000E+00  0.00000000000E+00  0.14999999963E+04  0.15000000000E+04  0.10566000000E+00 0. -1.
        994   -1    0    0    0    0 -0.00000000000E+00 -0.00000000000E+00  0.11368683772E-12  0.17120000000E+03  0.17120000000E+03 0.  0.
         13    1    1    2    0    0  0.62641696743E+01 -0.10586816458E+02  0.23337803794E+02  0.26381522973E+02  0.10566000000E+00 0. -1.
        994    1    1    2    0    0 -0.86642275369E+01  0.89256870159E+01  0.35689710243E+01  0.17168842210E+03  0.17120000000E+03 0.  0.
        998    1    1    2    0    0  0.24000578626E+01  0.16611294423E+01  0.14730932215E+04  0.14731300549E+04  0.10000000000E+02 0. -1.
</event>
<event>
 5    1  0.1334136E-008  0.3754462E+03  0.7957747E-01  0.3471230E+00
         13   -1    0    0    0    0  0.00000000000E+00  0.00000000000E+00  0.14999999963E+04  0.15000000000E+04  0.10566000000E+00 0. -1.
        994   -1    0    0    0    0 -0.00000000000E+00 -0.00000000000E+00  0.11368683772E-12  0.17120000000E+03  0.17120000000E+03 0.  0.
         13    1    1    2    0    0  0.40282497487E+02  0.75896686448E+02  0.31902609618E+03  0.33039468493E+03  0.10566000000E+00 0. -1.
        994    1    1    2    0    0 -0.34340574910E+02 -0.27717409263E+01  0.18090174356E+02  0.17556665982E+03  0.17120000000E+03 0.  0.
        998    1    1    2    0    0 -0.59419225771E+01 -0.73124945522E+02  0.11628837257E+04  0.11652386553E+04  0.10000000000E+02 0. -1.
</event>
<event>
 5    1  0.1334136E-008  0.3748085E+03  0.7957747E-01  0.3474080E+00
         13   -1    0    0    0    0  0.00000000000E+00  0.00000000000E+00  0.14999999963E+04  0.15000000000E+04  0.10566000000E+00 0.  1.
        994   -1    0    0    0    0 -0.00000000000E+00 -0.00000000000E+00  0.11368683772E-12  0.17120000000E+03  0.17120000000E+03 0.  0.
         13    1    1    2    0    0 -0.17325242183E+03  0.12780646897E+02  0.89711003740E+03  0.91377578047E+03  0.10566000000E+00 0.  1.
        994    1    1    2    0    0  0.16468988474E+03 -0.15263114210E+02  0.10637961077E+03  0.26073316317E+03  0.17120000000E+03 0.  0.
        998    1    1    2    0    0  0.85625370848E+01  0.24824673129E+01  0.49651034811E+03  0.49669105635E+03  0.10000000000E+02 0.  0.
</event>
<event>
 5    1  0.1334136E-008  0.3850984E+03  0.7957747E-01  0.3429255E+00
         13   -1    0    0    0    0  0.00000000000E+00  0.00000000000E+00  0.14999999963E+04  0.15000000000E+04  0.10566000000E+00 0. -1.
        994   -1    0    0    0    0 -0.00000000000E+00 -0.00000000000E+00  0.11368683772E-12  0.17120000000E+03  0.17120000000E+03 0.  0.
         13    1    1    2    0    0  0.20832362333E+01  0.14590667389E+02  0.66286313577E+02  0.67905183747E+02  0.10566000000E+00 0. -1.
        994    1    1    2    0    0  0.25032648954E+01 -0.15944491326E+02  0.24381761030E+01  0.17197638745E+03  0.17120000000E+03 0.  0.
        998    1    1    2    0    0 -0.45865011287E+01  0.13538239368E+01  0.14312755066E+04  0.14313184288E+04  0.10000000000E+02 0. -1.
</event>
<event>
 5    1  0.1334136E-008  0.3826755E+03  0.7957747E-01  0.3439591E+00
         13   -1    0    0    0    0  0.00000000000E+00  0.00000000000E+00  0.14999999963E+04  0.15000000000E+04  0.10566000000E+00 0.  1.
        994   -1    0    0    0    0 -0.00000000000E+00 -0.00000000000E+00  0.11368683772E-12  0.17120000000E+03  0.17120000000E+03 0.  0.
         13    1    1    2    0    0 -0.56134160427E+01  0.16289099119E+02  0.56671097773E+02  0.59232336410E+02  0.10566000000E+00 0.  1.
        994    1    1    2    0    0 -0.27801116215E+01  0.49414003063E+01  0.28951681404E+01  0.17131832493E+03  0.17120000000E+03 0.  0.
        998    1    1    2    0    0  0.83935276642E+01 -0.21230499425E+02  0.14404337304E+04  0.14406493387E+04  0.10000000000E+02 0.  1.
</event>
<event>
 5    1  0.1334136E-008  0.3803845E+03  0.7957747E-01  0.3449486E+00
         13   -1    0    0    0    0  0.00000000000E+00  0.00000000000E+00  0.14999999963E+04  0.15000000000E+04  0.10566000000E+00 0.  1.
        994   -1    0    0    0    0 -0.00000000000E+00 -0.00000000000E+00  0.11368683772E-12  0.17120000000E+03  0.17120000000E+03 0.  0.
         13    1    1    2    0    0 -0.28459100009E+01 -0.22835872977E+02  0.65454451851E+02  0.69382077869E+02  0.10566000000E+00 0.  1.
        994    1    1    2    0    0 -0.84357710580E+01  0.17120219518E+02  0.51562726402E+01  0.17233772453E+03  0.17120000000E+03 0.  0.
        998    1    1    2    0    0  0.11281681059E+02  0.57156534594E+01  0.14293892718E+04  0.14294801976E+04  0.10000000000E+02 0.  1.
</event>
<event>
 5    1  0.1334136E-008  0.3969848E+03  0.7957747E-01  0.3380381E+00
         13   -1    0    0    0    0  0.00000000000E+00  0.00000000000E+00  0.14999999963E+04  0.15000000000E+04  0.10566000000E+00 0.  1.
        994   -1    0    0    0    0 -0.00000000000E+00 -0.00000000000E+00  0.11368683772E-12  0.17120000000E+03  0.17120000000E+03 0.  0.
         13    1    1    2    0    0 -0.84757989244E+02  0.91518192966E+01  0.14820163515E+03  0.17097195197E+03  0.10566000000E+00 0.  1.
        994    1    1    2    0    0  0.26426480264E+02  0.27971243855E+02  0.31735791959E+02  0.17831811415E+03  0.17120000000E+03 0.  0.
        998    1    1    2    0    0  0.58331508980E+02 -0.37123063152E+02  0.13200625692E+04  0.13219099339E+04  0.10000000000E+02 0.  1.
</event>
<event>
 5    1  0.1334136E-008  0.3807979E+03  0.7957747E-01  0.3447692E+00
         13   -1    0    0    0    0  0.00000000000E+00  0.00000000000E+00  0.14999999963E+04  0.15000000000E+04  0.10566000000E+00 0.  1.
        994   -1    0    0    0    0 -0.00000000000E+00 -0.00000000000E+00  0.11368683772E-12  0.17120000000E+03  0.17120000000E+03 0.  0.
         13    1    1    2    0    0  0.25680068464E+01 -0.25725770721E+02  0.90104667689E+02  0.93740451470E+02  0.10566000000E+00 0.  1.
        994    1    1    2    0    0 -0.23114291386E+00  0.12045829325E+02  0.42150181764E+01  0.17167516364E+03  0.17120000000E+03 0.  0.
        998    1    1    2    0    0 -0.23368639325E+01  0.13679941397E+02  0.14056803104E+04  0.14057843849E+04  0.10000000000E+02 0.  1.
</event>
<event>
 5    1  0.1836378E-008  0.3859817E+03  0.7957747E-01  0.3425519E+00
         13   -1    0    0    0    0  0.00000000000E+00  0.00000000000E+00  0.14999999963E+04  0.15000000000E+04  0.10566000000E+00 0. -1.
        994   -1    0    0    0    0 -0.00000000000E+00 -0.00000000000E+00  0.11368683772E-12  0.17120000000E+03  0.17120000000E+03 0.  0.
         13    1    1    2    0    0  0.13650998902E+02  0.74505968609E+00  0.76741468199E+02  0.77949785056E+02  0.10566000000E+00 0. -1.
        994    1    1    2    0    0 -0.18579272124E+02  0.56368890126E+01  0.23802496894E+01  0.17231386903E+03  0.17120000000E+03 0.  0.
        998    1    1    2    0    0  0.49282732218E+01 -0.63819486987E+01  0.14208782784E+04  0.14209363459E+04  0.10000000000E+02 0. -1.
</event>
<event>
 5    1  0.1334136E-008  0.3844310E+03  0.7957747E-01  0.3432089E+00
         13   -1    0    0    0    0  0.00000000000E+00  0.00000000000E+00  0.14999999963E+04  0.15000000000E+04  0.10566000000E+00 0. -1.
        994   -1    0    0    0    0 -0.00000000000E+00 -0.00000000000E+00  0.11368683772E-12  0.17120000000E+03  0.17120000000E+03 0.  0.
         13    1    1    2    0    0 -0.47828791975E+01 -0.15489839167E+02  0.67078614719E+02  0.69009874421E+02  0.10566000000E+00 0. -1.
        994    1    1    2    0    0  0.21594914901E+00  0.14560556976E+02  0.26118640431E+01  0.17183805832E+03  0.17120000000E+03 0.  0.
        998    1    1    2    0    0  0.45669300485E+01  0.92928219051E+00  0.14303095175E+04  0.14303520673E+04  0.10000000000E+02 0. -1.
</event>
<event>
 5    1  0.1334136E-008  0.3810745E+03  0.7957747E-01  0.3446493E+00
         13   -1    0    0    0    0  0.00000000000E+00  0.00000000000E+00  0.14999999963E+04  0.15000000000E+04  0.10566000000E+00 0. -1.
        994   -1    0    0    0    0 -0.00000000000E+00 -0.00000000000E+00  0.11368683772E-12  0.17120000000E+03  0.17120000000E+03 0.  0.
         13    1    1    2    0    0 -0.11295181224E+02  0.31271597043E+02  0.16396433443E+03  0.16730154820E+03  0.10566000000E+00 0. -1.
        994    1    1    2    0    0  0.36438564893E+02  0.11673508326E+01  0.80318544364E+01  0.17522295057E+03  0.17120000000E+03 0.  0.
        998    1    1    2    0    0 -0.25143383669E+02 -0.32438947876E+02  0.13280038074E+04  0.13286755012E+04  0.10000000000E+02 0. -1.
</event>
<event>
 5    1  0.1334136E-008  0.3831932E+03  0.7957747E-01  0.3437371E+00
         13   -1    0    0    0    0  0.00000000000E+00  0.00000000000E+00  0.14999999963E+04  0.15000000000E+04  0.10566000000E+00 0. -1.
        994   -1    0    0    0    0 -0.00000000000E+00 -0.00000000000E+00  0.11368683772E-12  0.17120000000E+03  0.17120000000E+03 0.  0.
         13    1    1    2    0    0 -0.58755252008E+01  0.83742645978E+01  0.19802334774E+02  0.22288870103E+02  0.10566000000E+00 0. -1.
        994    1    1    2    0    0  0.61288658668E+01 -0.35670036084E+01  0.26962280174E+01  0.17136801381E+03  0.17120000000E+03 0.  0.
        998    1    1    2    0    0 -0.25334066603E+00 -0.48072609894E+01  0.14775014335E+04  0.14775431161E+04  0.10000000000E+02 0. -1.
</event>
<event>
 5    1  0.1334136E-008  0.3823635E+03  0.7957747E-01  0.3440931E+00
         13   -1    0    0    0    0  0.00000000000E+00  0.00000000000E+00  0.14999999963E+04  0.15000000000E+04  0.10566000000E+00 0. -1.
        994   -1    0    0    0    0 -0.00000000000E+00 -0.00000000000E+00  0.11368683772E-12  0.17120000000E+03  0.17120000000E+03 0.  0.
         13    1    1    2    0    0 -0.85693582744E+01  0.15384108280E+02  0.55226498320E+02  0.57966214035E+02  0.10566000000E+00 0. -1.
        994    1    1    2    0    0  0.96054076314E+01  0.87521333075E+01  0.35050985496E+01  0.17172824290E+03  0.17120000000E+03 0.  0.
        998    1    1    2    0    0 -0.10360493570E+01 -0.24136241588E+02  0.14412683994E+04  0.14415055431E+04  0.10000000000E+02 0. -1.
</event>
<event>
 5    1  0.1334136E-008  0.3812147E+03  0.7957747E-01  0.3445886E+00
         13   -1    0    0    0    0  0.00000000000E+00  0.00000000000E+00  0.14999999963E+04  0.15000000000E+04  0.10566000000E+00 0.  1.
        994   -1    0    0    0    0 -0.00000000000E+00 -0.00000000000E+00  0.11368683772E-12  0.17120000000E+03  0.17120000000E+03 0.  0.
         13    1    1    2    0    0  0.19093279736E+02 -0.31022241077E+02  0.18312120233E+03  0.18670918209E+03  0.10566000000E+00 0.  1.
        994    1    1    2    0    0 -0.21421399352E+02  0.15331279820E+02  0.58351203844E+01  0.17331304948E+03  0.17120000000E+03 0.  0.
        998    1    1    2    0    0  0.23281196161E+01  0.15690961258E+02  0.13110436736E+04  0.13111777684E+04  0.10000000000E+02 0.  1.
</event>
<event>
 5    1  0.1334136E-008  0.3769823E+03  0.7957747E-01  0.3464404E+00
         13   -1    0    0    0    0  0.00000000000E+00  0.00000000000E+00  0.14999999963E+04  0.15000000000E+04  0.10566000000E+00 0. -1.
        994   -1    0    0    0    0 -0.00000000000E+00 -0.00000000000E+00  0.11368683772E-12  0.17120000000E+03  0.17120000000E+03 0.  0.
         13    1    1    2    0    0 -0.37007089924E+02  0.20080105133E+02  0.16964117694E+03  0.17478808713E+03  0.10566000000E+00 0. -1.
        994    1    1    2    0    0  0.15461968264E+02  0.91283122264E+01  0.67536446096E+01  0.17227144355E+03  0.17120000000E+03 0.  0.
        998    1    1    2    0    0  0.21545121659E+02 -0.29208417359E+02  0.13236051747E+04  0.13241404693E+04  0.10000000000E+02 0.  1.
</event>
<event>
 5    1  0.1334136E-008  0.4255674E+03  0.7957747E-01  0.3273958E+00
         13   -1    0    0    0    0  0.00000000000E+00  0.00000000000E+00  0.14999999963E+04  0.15000000000E+04  0.10566000000E+00 0.  1.
        994   -1    0    0    0    0 -0.00000000000E+00 -0.00000000000E+00  0.11368683772E-12  0.17120000000E+03  0.17120000000E+03 0.  0.
         13    1    1    2    0    0 -0.30769275172E+02  0.51890471885E+02  0.24840043032E+02  0.65241154718E+02  0.10566000000E+00 0.  1.
        994    1    1    2    0    0  0.50727511848E+02 -0.45451912680E+02  0.64660354999E+02  0.19526791424E+03  0.17120000000E+03 0.  0.
        998    1    1    2    0    0 -0.19958236676E+02 -0.64385592050E+01  0.14104995982E+04  0.14106909310E+04  0.10000000000E+02 0.  1.
</event>
<event>
 5    1  0.1334136E-008  0.3803338E+03  0.7957747E-01  0.3449706E+00
         13   -1    0    0    0    0  0.00000000000E+00  0.00000000000E+00  0.14999999963E+04  0.15000000000E+04  0.10566000000E+00 0.  1.
        994   -1    0    0    0    0 -0.00000000000E+00 -0.00000000000E+00  0.11368683772E-12  0.17120000000E+03  0.17120000000E+03 0.  0.
         13    1    1    2    0    0 -0.12390871419E+02  0.24941831905E+01  0.18750868454E+02  0.22613289812E+02  0.10566000000E+00 0.  1.
        994    1    1    2    0    0  0.26315699343E+01 -0.55065129159E+01  0.40891186760E+01  0.17135754356E+03  0.17120000000E+03 0.  0.
        998    1    1    2    0    0  0.97593014848E+01  0.30123297254E+01  0.14771600091E+04  0.14772291666E+04  0.10000000000E+02 0.  1.
</event>
<event>
 5    1  0.1334136E-008  0.3835010E+03  0.7957747E-01  0.3436055E+00
         13   -1    0    0    0    0  0.00000000000E+00  0.00000000000E+00  0.14999999963E+04  0.15000000000E+04  0.10566000000E+00 0. -1.
        994   -1    0    0    0    0 -0.00000000000E+00 -0.00000000000E+00  0.11368683772E-12  0.17120000000E+03  0.17120000000E+03 0.  0.
         13    1    1    2    0    0  0.28592518678E+01 -0.13827909752E+02  0.41910392551E+02  0.44225316021E+02  0.10566000000E+00 0. -1.
        994    1    1    2    0    0 -0.80368274760E+01  0.44941972048E+01  0.26564392296E+01  0.17146802931E+03  0.17120000000E+03 0.  0.
        998    1    1    2    0    0  0.51775756082E+01  0.93337125468E+01  0.14554331645E+04  0.14555066547E+04  0.10000000000E+02 0. -1.
</event>
<event>
 5    1  0.1334136E-008  0.3823634E+03  0.7957747E-01  0.3440932E+00
         13   -1    0    0    0    0  0.00000000000E+00  0.00000000000E+00  0.14999999963E+04  0.15000000000E+04  0.10566000000E+00 0. -1.
        994   -1    0    0    0    0 -0.00000000000E+00 -0.00000000000E+00  0.11368683772E-12  0.17120000000E+03  0.17120000000E+03 0.  0.
         13    1    1    2    0    0 -0.15318672568E+02 -0.23353065138E+02  0.11807385862E+03  0.12133208411E+03  0.10566000000E+00 0. -1.
        994    1    1    2    0    0  0.11177242128E+02  0.33102025410E+02  0.70044123775E+01  0.17486902705E+03  0.17120000000E+03 0.  0.
        998    1    1    2    0    0  0.41414304408E+01 -0.97489602719E+01  0.13749217253E+04  0.13749988888E+04  0.10000000000E+02 0. -1.
</event>
<event>
 5    1  0.1334136E-008  0.3753501E+03  0.7957747E-01  0.3471658E+00
         13   -1    0    0    0    0  0.00000000000E+00  0.00000000000E+00  0.14999999963E+04  0.15000000000E+04  0.10566000000E+00 0.  1.
        994   -1    0    0    0    0 -0.00000000000E+00 -0.00000000000E+00  0.11368683772E-12  0.17120000000E+03  0.17120000000E+03 0.  0.
         13    1    1    2    0    0 -0.33604016645E+01 -0.12896143319E+02  0.10763143922E+02  0.17130652147E+02  0.10566000000E+00 0.  1.
        994    1    1    2    0    0  0.19240558429E+01  0.92059444915E+01  0.67994216448E+01  0.17159290061E+03  0.17120000000E+03 0.  0.
        998    1    1    2    0    0  0.14363458216E+01  0.36901988280E+01  0.14824374307E+04  0.14824764472E+04  0.10000000000E+02 0.  1.
</event>
<event>
 5    1  0.1334136E-008  0.3838831E+03  0.7957747E-01  0.3434423E+00
         13   -1    0    0    0    0  0.00000000000E+00  0.00000000000E+00  0.14999999963E+04  0.15000000000E+04  0.10566000000E+00 0.  1.
        994   -1    0    0    0    0 -0.00000000000E+00 -0.00000000000E+00  0.11368683772E-12  0.17120000000E+03  0.17120000000E+03 0.  0.
         13    1    1    2    0    0 -0.67972087544E+01  0.10120589593E+02  0.31612345493E+02  0.33881852549E+02  0.10566000000E+00 0.  1.
        994    1    1    2    0    0  0.36413989289E+01 -0.24235047586E+02  0.41705416228E+01  0.17299546449E+03  0.17120000000E+03 0.  0.
        998    1    1    2    0    0  0.31558098255E+01  0.14114457993E+02  0.14642171092E+04  0.14643226830E+04  0.10000000000E+02 0.  1.
</event>
<event>
 5    1  0.1334136E-008  0.3853177E+03  0.7957747E-01  0.3428326E+00
         13   -1    0    0    0    0  0.00000000000E+00  0.00000000000E+00  0.14999999963E+04  0.15000000000E+04  0.10566000000E+00 0. -1.
        994   -1    0    0    0    0 -0.00000000000E+00 -0.00000000000E+00  0.11368683772E-12  0.17120000000E+03  0.17120000000E+03 0.  0.
         13    1    1    2    0    0  0.11098648656E+02 -0.67211471674E+01  0.57759338465E+02  0.59198869628E+02  0.10566000000E+00 0. -1.
        994    1    1    2    0    0 -0.58285009649E+01  0.47600830188E+01  0.16585465903E+01  0.17137333687E+03  0.17120000000E+03 0.  0.
        998    1    1    2    0    0 -0.52701476909E+01  0.19610641487E+01  0.14405821112E+04  0.14406277935E+04  0.10000000000E+02 0. -1.
</event>
<event>
 5    1  0.1334136E-008  0.3843776E+03  0.7957747E-01  0.3432316E+00
         13   -1    0    0    0    0  0.00000000000E+00  0.00000000000E+00  0.14999999963E+04  0.15000000000E+04  0.10566000000E+00 0. -1.
        994   -1    0    0    0    0 -0.00000000000E+00 -0.00000000000E+00  0.11368683772E-12  0.17120000000E+03  0.17120000000E+03 0.  0.
         13    1    1    2    0    0  0.12092770393E+02  0.29768953736E+01  0.39471549618E+02  0.41389749880E+02  0.10566000000E+00 0. -1.
        994    1    1    2    0    0 -0.73269033447E+01 -0.83564210807E+01  0.23465926004E+01  0.17157639634E+03  0.17120000000E+03 0.  0.
        998    1    1    2    0    0 -0.47658670479E+01  0.53795257071E+01  0.14581818541E+04  0.14582338538E+04  0.10000000000E+02 0. -1.
</event>
<event>
 5    1  0.1334136E-008  0.3816283E+03  0.7957747E-01  0.3444099E+00
         13   -1    0    0    0    0  0.00000000000E+00  0.00000000000E+00  0.14999999963E+04  0.15000000000E+04  0.10566000000E+00 0. -1.
        994   -1    0    0    0    0 -0.00000000000E+00 -0.00000000000E+00  0.11368683772E-12  0.17120000000E+03  0.17120000000E+03 0.  0.
         13    1    1    2    0    0  0.35684043186E+01 -0.14690278109E+02  0.32044370146E+02  0.35431491676E+02  0.10566000000E+00 0. -1.
        994    1    1    2    0    0 -0.73572206044E-01  0.21729371252E+02  0.48850191389E+01  0.17264262046E+03  0.17120000000E+03 0.  0.
        998    1    1    2    0    0 -0.34948321126E+01 -0.70390931427E+01  0.14630706070E+04  0.14631258879E+04  0.10000000000E+02 0. -1.
</event>
<event>
 5    1  0.1334136E-008  0.3704816E+03  0.7957747E-01  0.3493681E+00
         13   -1    0    0    0    0  0.00000000000E+00  0.00000000000E+00  0.14999999963E+04  0.15000000000E+04  0.10566000000E+00 0.  1.
        994   -1    0    0    0    0 -0.00000000000E+00 -0.00000000000E+00  0.11368683772E-12  0.17120000000E+03  0.17120000000E+03 0.  0.
         13    1    1    2    0    0 -0.45864285348E+02 -0.11374798652E+02  0.12420975173E+03  0.13289466619E+03  0.10566000000E+00 0.  1.
        994    1    1    2    0    0  0.17581695137E+02  0.21344334327E+02  0.11661763039E+02  0.17381062490E+03  0.17120000000E+03 0.  0.
        998    1    1    2    0    0  0.28282590211E+02 -0.99695356752E+01  0.13641284815E+04  0.13644947089E+04  0.10000000000E+02 0.  1.
</event>
<event>
 5    1  0.1334136E-008  0.3691219E+03  0.7957747E-01  0.3499936E+00
         13   -1    0    0    0    0  0.00000000000E+00  0.00000000000E+00  0.14999999963E+04  0.15000000000E+04  0.10566000000E+00 0.  1.
        994   -1    0    0    0    0 -0.00000000000E+00 -0.00000000000E+00  0.11368683772E-12  0.17120000000E+03  0.17120000000E+03 0.  0.
         13    1    1    2    0    0 -0.50402394463E+02 -0.20870583072E+02  0.13944912483E+03  0.14973994853E+03  0.10566000000E+00 0.  1.
        994    1    1    2    0    0  0.17084505046E+02  0.43027712659E+02  0.17982627395E+02  0.17825846195E+03  0.17120000000E+03 0.  0.
        998    1    1    2    0    0  0.33317889417E+02 -0.22157129586E+02  0.13425682441E+04  0.13432015895E+04  0.10000000000E+02 0.  1.
</event>
<event>
 5    1  0.1334136E-008  0.3779426E+03  0.7957747E-01  0.3460166E+00
         13   -1    0    0    0    0  0.00000000000E+00  0.00000000000E+00  0.14999999963E+04  0.15000000000E+04  0.10566000000E+00 0.  1.
        994   -1    0    0    0    0 -0.00000000000E+00 -0.00000000000E+00  0.11368683772E-12  0.17120000000E+03  0.17120000000E+03 0.  0.
         13    1    1    2    0    0 -0.55159671443E+01 -0.12373778866E+02  0.15508751110E+02  0.20592931360E+02  0.10566000000E+00 0.  1.
        994    1    1    2    0    0 -0.39384036059E+01  0.11542178505E+02  0.56761071861E+01  0.17172766551E+03  0.17120000000E+03 0.  0.
        998    1    1    2    0    0  0.94543707503E+01  0.83160036128E+00  0.14788151380E+04  0.14788794031E+04  0.10000000000E+02 0.  1.
</event>
<event>
 5    1  0.1334136E-008  0.3860711E+03  0.7957747E-01  0.3425142E+00
         13   -1    0    0    0    0  0.00000000000E+00  0.00000000000E+00  0.14999999963E+04  0.15000000000E+04  0.10566000000E+00 0. -1.
        994   -1    0    0    0    0 -0.00000000000E+00 -0.00000000000E+00  0.11368683772E-12  0.17120000000E+03  0.17120000000E+03 0.  0.
         13    1    1    2    0    0  0.11638051060E+02  0.36511928392E+01  0.64196394307E+02  0.65344958854E+02  0.10566000000E+00 0. -1.
        994    1    1    2    0    0 -0.15970344451E+02 -0.53132681673E+01  0.20282532075E+01  0.17203731145E+03  0.17120000000E+03 0.  0.
        998    1    1    2    0    0  0.43322933917E+01  0.16620753281E+01  0.14337753488E+04  0.14338177297E+04  0.10000000000E+02 0. -1.
</event>
<event>
 5    1  0.1334136E-008  0.3747712E+03  0.7957747E-01  0.3474247E+00
         13   -1    0    0    0    0  0.00000000000E+00  0.00000000000E+00  0.14999999963E+04  0.15000000000E+04  0.10566000000E+00 0. -1.
        994   -1    0    0    0    0 -0.00000000000E+00 -0.00000000000E+00  0.11368683772E-12  0.17120000000E+03  0.17120000000E+03 0.  0.
         13    1    1    2    0    0  0.11009498607E+02  0.35633052068E+01  0.66464884018E+01  0.13345155514E+02  0.10566000000E+00 0. -1.
        994    1    1    2    0    0 -0.16236313260E+02  0.32063984535E+01  0.77285651367E+01  0.17217162826E+03  0.17120000000E+03 0.  0.
        998    1    1    2    0    0  0.52268146533E+01 -0.67697036603E+01  0.14856249427E+04  0.14856832162E+04  0.10000000000E+02 0. -1.
</event>
<event>
 5    1  0.1334136E-008  0.3797375E+03  0.7957747E-01  0.3452302E+00
         13   -1    0    0    0    0  0.00000000000E+00  0.00000000000E+00  0.14999999963E+04  0.15000000000E+04  0.10566000000E+00 0.  1.
        994   -1    0    0    0    0 -0.00000000000E+00 -0.00000000000E+00  0.11368683772E-12  0.17120000000E+03  0.17120000000E+03 0.  0.
         13    1    1    2    0    0 -0.30614782202E+02  0.75640887069E+01  0.11409667991E+03  0.11837459127E+03  0.10566000000E+00 0.  1.
        994    1    1    2    0    0  0.20555931427E+02 -0.25682377231E+01  0.57028803449E+01  0.17254305262E+03  0.17120000000E+03 0.  0.
        998    1    1    2    0    0  0.10058850775E+02 -0.49958509838E+01  0.13802004360E+04  0.13802823561E+04  0.10000000000E+02 0.  1.
</event>
<event>
 5    1  0.1334136E-008  0.2783479E+03  0.7957747E-01  0.4063849E+00
         13   -1    0    0    0    0  0.00000000000E+00  0.00000000000E+00  0.14999999963E+04  0.15000000000E+04  0.10566000000E+00 0. -1.
        994   -1    0    0    0    0 -0.00000000000E+00 -0.00000000000E+00  0.11368683772E-12  0.17120000000E+03  0.17120000000E+03 0.  0.
         13    1    1    2    0    0 -0.12787077550E+03 -0.98980226456E+02  0.77190935560E+03  0.78866474809E+03  0.10566000000E+00 0. -1.
        994    1    1    2    0    0  0.54646505847E+02 -0.48148944849E+02  0.61557686810E+02  0.19596772769E+03  0.17120000000E+03 0.  0.
        998    1    1    2    0    0  0.73224269653E+02  0.14712917131E+03  0.66653295387E+03  0.68656752422E+03  0.10000000000E+02 0. -1.
</event>
<event>
 5    1  0.1334136E-008  0.3855905E+03  0.7957747E-01  0.3427172E+00
         13   -1    0    0    0    0  0.00000000000E+00  0.00000000000E+00  0.14999999963E+04  0.15000000000E+04  0.10566000000E+00 0.  1.
        994   -1    0    0    0    0 -0.00000000000E+00 -0.00000000000E+00  0.11368683772E-12  0.17120000000E+03  0.17120000000E+03 0.  0.
         13    1    1    2    0    0  0.84748288619E+01 -0.73039494993E+01  0.45397317371E+02  0.46755726826E+02  0.10566000000E+00 0.  1.
        994    1    1    2    0    0 -0.11695865916E+02  0.73891907383E+01  0.19657136524E+01  0.17176931463E+03  0.17120000000E+03 0.  0.
        998    1    1    2    0    0  0.32210370543E+01 -0.85241238973E-01  0.14526369653E+04  0.14526749585E+04  0.10000000000E+02 0.  1.
</event>
<event>
 5    1  0.1334136E-008  0.3778898E+03  0.7957747E-01  0.3460399E+00
         13   -1    0    0    0    0  0.00000000000E+00  0.00000000000E+00  0.14999999963E+04  0.15000000000E+04  0.10566000000E+00 0.  1.
        994   -1    0    0    0    0 -0.00000000000E+00 -0.00000000000E+00  0.11368683772E-12  0.17120000000E+03  0.17120000000E+03 0.  0.
         13    1    1    2    0    0 -0.28434924510E+02 -0.10035680520E+02  0.91274738751E+02  0.96126733605E+02  0.10566000000E+00 0.  1.
        994    1    1    2    0    0  0.79515599310E-01  0.12385822899E+02  0.57188115279E+01  0.17174271378E+03  0.17120000000E+03 0.  0.
        998    1    1    2    0    0  0.28355408911E+02 -0.23501423788E+01  0.14030064460E+04  0.14033305526E+04  0.10000000000E+02 0.  1.
</event>
<event>
 5    1  0.1334136E-008  0.3850873E+03  0.7957747E-01  0.3429302E+00
         13   -1    0    0    0    0  0.00000000000E+00  0.00000000000E+00  0.14999999963E+04  0.15000000000E+04  0.10566000000E+00 0.  1.
        994   -1    0    0    0    0 -0.00000000000E+00 -0.00000000000E+00  0.11368683772E-12  0.17120000000E+03  0.17120000000E+03 0.  0.
         13    1    1    2    0    0  0.79626017773E+01 -0.12095117529E+02  0.63006888704E+02  0.64649625546E+02  0.10566000000E+00 0.  1.
        994    1    1    2    0    0 -0.49622153034E+01  0.17492598406E+02  0.26745311468E+01  0.17218364526E+03  0.17120000000E+03 0.  0.
        998    1    1    2    0    0 -0.30003864739E+01 -0.53974808771E+01  0.14343185764E+04  0.14343667292E+04  0.10000000000E+02 0.  1.
</event>
<event>
 5    1  0.1334136E-008  0.3849518E+03  0.7957747E-01  0.3429877E+00
         13   -1    0    0    0    0  0.00000000000E+00  0.00000000000E+00  0.14999999963E+04  0.15000000000E+04  0.10566000000E+00 0. -1.
        994   -1    0    0    0    0 -0.00000000000E+00 -0.00000000000E+00  0.11368683772E-12  0.17120000000E+03  0.17120000000E+03 0.  0.
         13    1    1    2    0    0 -0.14624284582E+02  0.46729681588E+01  0.63956485952E+02  0.65773471783E+02  0.10566000000E+00 0. -1.
        994    1    1    2    0    0  0.27719346174E+02 -0.43624283031E+01  0.42482114732E+01  0.17353639455E+03  0.17120000000E+03 0.  0.
        998    1    1    2    0    0 -0.13095061593E+02 -0.31053985576E+00  0.14317952989E+04  0.14318901337E+04  0.10000000000E+02 0. -1.
</event>
<event>
 5    1  0.1334136E-008  0.3843101E+03  0.7957747E-01  0.3432604E+00
         13   -1    0    0    0    0  0.00000000000E+00  0.00000000000E+00  0.14999999963E+04  0.15000000000E+04  0.10566000000E+00 0. -1.
        994   -1    0    0    0    0 -0.00000000000E+00 -0.00000000000E+00  0.11368683772E-12  0.17120000000E+03  0.17120000000E+03 0.  0.
         13    1    1    2    0    0  0.15062269979E+02 -0.18387853494E+02  0.13316840576E+03  0.13527313329E+03  0.10566000000E+00 0. -1.
        994    1    1    2    0    0 -0.12186805169E+02  0.19860873525E+02  0.37647523083E+01  0.17281951822E+03  0.17120000000E+03 0.  0.
        998    1    1    2    0    0 -0.28754648106E+01 -0.14730200311E+01  0.13630668382E+04  0.13631073485E+04  0.10000000000E+02 0. -1.
</event>
<event>
 5    1  0.1334136E-008  0.3861080E+03  0.7957747E-01  0.3424987E+00
         13   -1    0    0    0    0  0.00000000000E+00  0.00000000000E+00  0.14999999963E+04  0.15000000000E+04  0.10566000000E+00 0.  1.
        994   -1    0    0    0    0 -0.00000000000E+00 -0.00000000000E+00  0.11368683772E-12  0.17120000000E+03  0.17120000000E+03 0.  0.
         13    1    1    2    0    0 -0.12551011208E+02 -0.87075750215E+00  0.73015893944E+02  0.74091956604E+02  0.10566000000E+00 0.  1.
        994    1    1    2    0    0  0.10212835068E+02  0.11274620269E+01  0.14270657869E+01  0.17151399269E+03  0.17120000000E+03 0.  0.
        998    1    1    2    0    0  0.23381761396E+01 -0.25670452471E+00  0.14255570365E+04  0.14255940507E+04  0.10000000000E+02 0.  1.
</event>
<event>
 5    1  0.1334136E-008  0.3847083E+03  0.7957747E-01  0.3430910E+00
         13   -1    0    0    0    0  0.00000000000E+00  0.00000000000E+00  0.14999999963E+04  0.15000000000E+04  0.10566000000E+00 0. -1.
        994   -1    0    0    0    0 -0.00000000000E+00 -0.00000000000E+00  0.11368683772E-12  0.17120000000E+03  0.17120000000E+03 0.  0.
         13    1    1    2    0    0  0.27617065376E+02  0.24559231014E+02  0.28890167729E+02  0.46909605449E+02  0.10566000000E+00 0. -1.
        994    1    1    2    0    0 -0.12088625715E+02 -0.22379544883E+02  0.21326956301E+02  0.17438823918E+03  0.17120000000E+03 0.  0.
        998    1    1    2    0    0 -0.15528439661E+02 -0.21796861310E+01  0.14497828722E+04  0.14499021554E+04  0.10000000000E+02 0. -1.
</event>
<event>
 5    1  0.1334136E-008  0.3821437E+03  0.7957747E-01  0.3441877E+00
         13   -1    0    0    0    0  0.00000000000E+00  0.00000000000E+00  0.14999999963E+04  0.15000000000E+04  0.10566000000E+00 0.  1.
        994   -1    0    0    0    0 -0.00000000000E+00 -0.00000000000E+00  0.11368683772E-12  0.17120000000E+03  0.17120000000E+03 0.  0.
         13    1    1    2    0    0  0.10041460639E+02  0.42859618083E+01  0.18790029867E+02  0.21731930122E+02  0.10566000000E+00 0.  1.
        994    1    1    2    0    0  0.34305000487E+01 -0.40113859330E+01  0.31474043752E+01  0.17131026152E+03  0.17120000000E+03 0.  0.
        998    1    1    2    0    0 -0.13471960688E+02 -0.27457587532E+00  0.14780625620E+04  0.14781578084E+04  0.10000000000E+02 0.  1.
</event>
<event>
 5    1  0.1334136E-008  0.3797130E+03  0.7957747E-01  0.3452409E+00
         13   -1    0    0    0    0  0.00000000000E+00  0.00000000000E+00  0.14999999963E+04  0.15000000000E+04  0.10566000000E+00 0. -1.
        994   -1    0    0    0    0 -0.00000000000E+00 -0.00000000000E+00  0.11368683772E-12  0.17120000000E+03  0.17120000000E+03 0.  0.
         13    1    1    2    0    0  0.43683646028E+02  0.65377459625E+02  0.47367725197E+03  0.48015895634E+03  0.10566000000E+00 0. -1.
        994    1    1    2    0    0 -0.41357758039E+02 -0.70470053700E+02  0.26952075226E+02  0.19160466325E+03  0.17120000000E+03 0.  0.
        998    1    1    2    0    0 -0.23258879887E+01  0.50925940751E+01  0.99937066908E+03  0.99943638041E+03  0.10000000000E+02 0.  0.
</event>
<event>
 5    1  0.1334136E-008  0.3809425E+03  0.7957747E-01  0.3447065E+00
         13   -1    0    0    0    0  0.00000000000E+00  0.00000000000E+00  0.14999999963E+04  0.15000000000E+04  0.10566000000E+00 0.  1.
        994   -1    0    0    0    0 -0.00000000000E+00 -0.00000000000E+00  0.11368683772E-12  0.17120000000E+03  0.17120000000E+03 0.  0.
         13    1    1    2    0    0  0.13336708576E+02  0.22689231089E+02  0.10044719898E+03  0.10383795043E+03  0.10566000000E+00 0.  1.
        994    1    1    2    0    0 -0.73393237138E+01  0.83474538719E+00  0.38399755168E+01  0.17140229836E+03  0.17120000000E+03 0.  0.
        998    1    1    2    0    0 -0.59973848624E+01 -0.23523976476E+02  0.13957128218E+04  0.13959597512E+04  0.10000000000E+02 0.  1.
</event>
<event>
 5    1  0.1334136E-008  0.3786413E+03  0.7957747E-01  0.3457096E+00
         13   -1    0    0    0    0  0.00000000000E+00  0.00000000000E+00  0.14999999963E+04  0.15000000000E+04  0.10566000000E+00 0.  1.
        994   -1    0    0    0    0 -0.00000000000E+00 -0.00000000000E+00  0.11368683772E-12  0.17120000000E+03  0.17120000000E+03 0.  0.
         13    1    1    2    0    0  0.73346275772E+01  0.40417968930E+02  0.19180374927E+03  0.19615325226E+03  0.10566000000E+00 0.  1.
        994    1    1    2    0    0 -0.91177999921E+01 -0.76372160121E+01  0.52957354445E+01  0.17169433933E+03  0.17120000000E+03 0.  0.
        998    1    1    2    0    0  0.17831724149E+01 -0.32780752918E+02  0.13029005116E+04  0.13033524084E+04  0.10000000000E+02 0.  1.
</event>
<event>
 5    1  0.1334136E-008  0.3825121E+03  0.7957747E-01  0.3440293E+00
         13   -1    0    0    0    0  0.00000000000E+00  0.00000000000E+00  0.14999999963E+04  0.15000000000E+04  0.10566000000E+00 0.  1.
        994   -1    0    0    0    0 -0.00000000000E+00 -0.00000000000E+00  0.11368683772E-12  0.17120000000E+03  0.17120000000E+03 0.  0.
         13    1    1    2    0    0  0.98855898576E+00 -0.20109089421E+02  0.67952168199E+02  0.70872145820E+02  0.10566000000E+00 0.  1.
        994    1    1    2    0    0  0.11453875755E+02  0.18704880134E+02  0.44669603509E+01  0.17265705183E+03  0.17120000000E+03 0.  0.
        998    1    1    2    0    0 -0.12442434741E+02  0.14042092878E+01  0.14275808677E+04  0.14276708024E+04  0.10000000000E+02 0.  1.
</event>
<event>
 5    1  0.1334136E-008  0.3697273E+03  0.7957747E-01  0.3497145E+00
         13   -1    0    0    0    0  0.00000000000E+00  0.00000000000E+00  0.14999999963E+04  0.15000000000E+04  0.10566000000E+00 0.  1.
        994   -1    0    0    0    0 -0.00000000000E+00 -0.00000000000E+00  0.11368683772E-12  0.17120000000E+03  0.17120000000E+03 0.  0.
         13    1    1    2    0    0  0.27418186254E+02  0.43719219848E+02  0.13513517884E+03  0.14465356839E+03  0.10566000000E+00 0.  1.
        994    1    1    2    0    0  0.86852459928E+01 -0.80972488263E+01  0.11287278177E+02  0.17198209670E+03  0.17120000000E+03 0.  0.
        998    1    1    2    0    0 -0.36103432247E+02 -0.35621971022E+02  0.13535775393E+04  0.13545643349E+04  0.10000000000E+02 0.  1.
</event>
<event>
 5    1  0.1334136E-008  0.3843119E+03  0.7957747E-01  0.3432596E+00
         13   -1    0    0    0    0  0.00000000000E+00  0.00000000000E+00  0.14999999963E+04  0.15000000000E+04  0.10566000000E+00 0. -1.
        994   -1    0    0    0    0 -0.00000000000E+00 -0.00000000000E+00  0.11368683772E-12  0.17120000000E+03  0.17120000000E+03 0.  0.
         13    1    1    2    0    0 -0.89071252796E+01  0.57843858285E+01  0.27554532150E+02  0.29530651977E+02  0.10566000000E+00 0. -1.
        994    1    1    2    0    0  0.97533990949E+01 -0.73547461564E+01  0.24641560242E+01  0.17165294390E+03  0.17120000000E+03 0.  0.
        998    1    1    2    0    0 -0.84627381529E+00  0.15703603278E+01  0.14699813081E+04  0.14700164041E+04  0.10000000000E+02 0. -1.
</event>
<event>
 5    1  0.1334136E-008  0.3788437E+03  0.7957747E-01  0.3456209E+00
         13   -1    0    0    0    0  0.00000000000E+00  0.00000000000E+00  0.14999999963E+04  0.15000000000E+04  0.10566000000E+00 0. -1.
        994   -1    0    0    0    0 -0.00000000000E+00 -0.00000000000E+00  0.11368683772E-12  0.17120000000E+03  0.17120000000E+03 0.  0.
         13    1    1    2    0    0 -0.17565940548E+02  0.31794963441E+00  0.31666506115E+02  0.36213838969E+02  0.10566000000E+00 0. -1.
        994    1    1    2    0    0  0.26339934625E+01 -0.99273502732E+01  0.50720278950E+01  0.17158279538E+03  0.17120000000E+03 0.  0.
        998    1    1    2    0    0  0.14931947086E+02  0.96094006388E+01  0.14632614623E+04  0.14634033656E+04  0.10000000000E+02 0. -1.
</event>
<event>
 5    1  0.1334136E-008  0.3862481E+03  0.7957747E-01  0.3424396E+00
         13   -1    0    0    0    0  0.00000000000E+00  0.00000000000E+00  0.14999999963E+04  0.15000000000E+04  0.10566000000E+00 0.  1.
        994   -1    0    0    0    0 -0.00000000000E+00 -0.00000000000E+00  0.11368683772E-12  0.17120000000E+03  0.17120000000E+03 0.  0.
         13    1    1    2    0    0  0.81203132132E+01  0.62784485609E+01  0.61758960494E+02  0.62606219886E+02  0.10566000000E+00 0.  1.
        994    1    1    2    0    0 -0.28762224026E+01  0.22796516999E+02  0.27428870255E+01  0.17275681541E+03  0.17120000000E+03 0.  0.
        998    1    1    2    0    0 -0.52440908106E+01 -0.29074965560E+02  0.14354981488E+04  0.14358369647E+04  0.10000000000E+02 0.  1.
</event>
<event>
 5    1  0.1334136E-008  0.3826453E+03  0.7957747E-01  0.3439721E+00
         13   -1    0    0    0    0  0.00000000000E+00  0.00000000000E+00  0.14999999963E+04  0.15000000000E+04  0.10566000000E+00 0. -1.
        994   -1    0    0    0    0 -0.00000000000E+00 -0.00000000000E+00  0.11368683772E-12  0.17120000000E+03  0.17120000000E+03 0.  0.
         13    1    1    2    0    0  0.14292075161E+02  0.43160398290E+01  0.38148186064E+02  0.40965679247E+02  0.10566000000E+00 0. -1.
        994    1    1    2    0    0 -0.16209968556E+02  0.35769810339E+01  0.37174715369E+01  0.17204306864E+03  0.17120000000E+03 0.  0.
        998    1    1    2    0    0  0.19178933952E+01 -0.78930208629E+01  0.14581343387E+04  0.14581912521E+04  0.10000000000E+02 0. -1.
</event>
<event>
 5    1  0.1334136E-008  0.2917664E+03  0.7957747E-01  0.3956611E+00
         13   -1    0    0    0    0  0.00000000000E+00  0.00000000000E+00  0.14999999963E+04  0.15000000000E+04  0.10566000000E+00 0.  1.
        994   -1    0    0    0    0 -0.00000000000E+00 -0.00000000000E+00  0.11368683772E-12  0.17120000000E+03  0.17120000000E+03 0.  0.
         13    1    1    2    0    0 -0.91477109075E+02  0.14715003957E+03  0.60385049434E+03  0.62821702167E+03  0.10566000000E+00 0.  1.
        994    1    1    2    0    0  0.91898663496E+02 -0.14335716402E+03  0.12526585240E+03  0.27202502570E+03  0.17120000000E+03 0.  0.
        998    1    1    2    0    0 -0.42155442086E+00 -0.37928755504E+01  0.77088364954E+03  0.77095795264E+03  0.10000000000E+02 0.  0.
</event>
