<event>
 5    1  0.1556794E-008  0.3802042E+03  0.7957747E-01  0.3450270E+00
         13   -1    0    0    0    0  0.00000000000E+00  0.00000000000E+00  0.14999999963E+04  0.15000000000E+04  0.10566000000E+00 0. -1.
        994   -1    0    0    0    0 -0.00000000000E+00 -0.00000000000E+00  0.11368683772E-12  0.17120000000E+03  0.17120000000E+03 0.  0.
         13    1    1    2    0    0 -0.32655997396E+02 -0.39587802485E+02  0.26773952144E+03  0.27261340902E+03  0.10566000000E+00 0. -1.
        994    1    1    2    0    0  0.31910132545E+02  0.41149659503E+02  0.13142176158E+02  0.17942605115E+03  0.17120000000E+03 0.  0.
        998    1    1    2    0    0  0.74586485149E+00 -0.15618570186E+01  0.12191182987E+04  0.12191605398E+04  0.10000000000E+02 0.  0.
</event>
<event>
 5    1  0.1556794E-008  0.3791228E+03  0.7957747E-01  0.3454987E+00
         13   -1    0    0    0    0  0.00000000000E+00  0.00000000000E+00  0.14999999963E+04  0.15000000000E+04  0.10566000000E+00 0.  1.
        994   -1    0    0    0    0 -0.00000000000E+00 -0.00000000000E+00  0.11368683772E-12  0.17120000000E+03  0.17120000000E+03 0.  0.
         13    1    1    2    0    0  0.10950880314E+02 -0.31506428327E+02  0.12142849335E+03  0.12592643474E+03  0.10566000000E+00 0.  1.
        994    1    1    2    0    0 -0.86566311614E+01  0.15760607284E+02  0.56613575600E+01  0.17223479606E+03  0.17120000000E+03 0.  0.
        998    1    1    2    0    0 -0.22942491526E+01  0.15745821043E+02  0.13729101454E+04  0.13730387692E+04  0.10000000000E+02 0.  1.
</event>
<event>
 5    1  0.1556794E-008  0.3841695E+03  0.7957747E-01  0.3433202E+00
         13   -1    0    0    0    0  0.00000000000E+00  0.00000000000E+00  0.14999999963E+04  0.15000000000E+04  0.10566000000E+00 0. -1.
        994   -1    0    0    0    0 -0.00000000000E+00 -0.00000000000E+00  0.11368683772E-12  0.17120000000E+03  0.17120000000E+03 0.  0.
         13    1    1    2    0    0  0.16834034084E+00  0.13836873177E+02  0.47250760789E+02  0.49235484733E+02  0.10566000000E+00 0. -1.
        994    1    1    2    0    0  0.17336376332E+01 -0.57442842282E+01  0.21617625062E+01  0.17131875413E+03  0.17120000000E+03 0.  0.
        998    1    1    2    0    0 -0.19019779740E+01 -0.80925889484E+01  0.14505874730E+04  0.14506457611E+04  0.10000000000E+02 0. -1.
</event>
<event>
 5    1  0.1556794E-008  0.3827368E+03  0.7957747E-01  0.3439328E+00
         13   -1    0    0    0    0  0.00000000000E+00  0.00000000000E+00  0.14999999963E+04  0.15000000000E+04  0.10566000000E+00 0.  1.
        994   -1    0    0    0    0 -0.00000000000E+00 -0.00000000000E+00  0.11368683772E-12  0.17120000000E+03  0.17120000000E+03 0.  0.
         13    1    1    2    0    0 -0.82931018937E+01  0.25446266842E+02  0.12725330061E+03  0.13003730893E+03  0.10566000000E+00 0.  1.
        994    1    1    2    0    0  0.10007795716E+02 -0.15857477872E+02  0.39237338893E+01  0.17226854404E+03  0.17120000000E+03 0.  0.
        998    1    1    2    0    0 -0.17146938228E+01 -0.95887889709E+01  0.13688229618E+04  0.13688941470E+04  0.10000000000E+02 0.  1.
</event>
<event>
 5    1  0.1556794E-008  0.2910691E+03  0.7957747E-01  0.3961915E+00
         13   -1    0    0    0    0  0.00000000000E+00  0.00000000000E+00  0.14999999963E+04  0.15000000000E+04  0.10566000000E+00 0.  1.
        994   -1    0    0    0    0 -0.00000000000E+00 -0.00000000000E+00  0.11368683772E-12  0.17120000000E+03  0.17120000000E+03 0.  0.
         13    1    1    2    0    0 -0.50394460389E+02 -0.21084995476E+03  0.83955179982E+03  0.86708969594E+03  0.10566000000E+00 0.  1.
        994    1    1    2    0    0 -0.11136526549E+02  0.70907583155E+02  0.77152970121E+02  0.20103215755E+03  0.17120000000E+03 0.  0.
        998    1    1    2    0    0  0.61530986938E+02  0.13994237161E+03  0.58329522634E+03  0.60307814651E+03  0.10000000000E+02 0.  1.
</event>
<event>
 5    1  0.1556794E-008  0.4113434E+03  0.7957747E-01  0.3325094E+00
         13   -1    0    0    0    0  0.00000000000E+00  0.00000000000E+00  0.14999999963E+04  0.15000000000E+04  0.10566000000E+00 0.  1.
        994   -1    0    0    0    0 -0.00000000000E+00 -0.00000000000E+00  0.11368683772E-12  0.17120000000E+03  0.17120000000E+03 0.  0.
         13    1    1    2    0    0 -0.11771440402E+02 -0.35994305881E+02  0.76081987414E+01  0.38627098222E+02  0.10566000000E+00 0.  1.
        994    1    1    2    0    0  0.32732224855E+02 -0.23582359342E+01  0.39175139939E+02  0.17866474585E+03  0.17120000000E+03 0.  0.
        998    1    1    2    0    0 -0.20960784453E+02  0.38352541815E+02  0.14532166576E+04  0.14539081559E+04  0.10000000000E+02 0.  1.
</event>
<event>
 5    1  0.1556794E-008  0.3861225E+03  0.7957747E-01  0.3424926E+00
         13   -1    0    0    0    0  0.00000000000E+00  0.00000000000E+00  0.14999999963E+04  0.15000000000E+04  0.10566000000E+00 0. -1.
        994   -1    0    0    0    0 -0.00000000000E+00 -0.00000000000E+00  0.11368683772E-12  0.17120000000E+03  0.17120000000E+03 0.  0.
         13    1    1    2    0    0 -0.57294094700E+01  0.10116269579E+02  0.62983117930E+02  0.64047243120E+02  0.10566000000E+00 0. -1.
        994    1    1    2    0    0  0.58070782225E+01 -0.75904111935E+01  0.13732176905E+01  0.17147204503E+03  0.17120000000E+03 0.  0.
        998    1    1    2    0    0 -0.77668752578E-01 -0.25258583851E+01  0.14356436607E+04  0.14356807119E+04  0.10000000000E+02 0. -1.
</event>
<event>
 5    1  0.1556794E-008  0.3772460E+03  0.7957747E-01  0.3463239E+00
         13   -1    0    0    0    0  0.00000000000E+00  0.00000000000E+00  0.14999999963E+04  0.15000000000E+04  0.10566000000E+00 0.  1.
        994   -1    0    0    0    0 -0.00000000000E+00 -0.00000000000E+00  0.11368683772E-12  0.17120000000E+03  0.17120000000E+03 0.  0.
         13    1    1    2    0    0 -0.39347027103E+02 -0.19501061246E+02  0.16359227660E+03  0.16938395455E+03  0.10566000000E+00 0.  1.
        994    1    1    2    0    0  0.31387854464E+02  0.15066185415E+02  0.96302669633E+01  0.17496962420E+03  0.17120000000E+03 0.  0.
        998    1    1    2    0    0  0.79591726389E+01  0.44348758309E+01  0.13267774527E+04  0.13268464213E+04  0.10000000000E+02 0.  1.
</event>
<event>
 5    1  0.1556794E-008  0.3848809E+03  0.7957747E-01  0.3430178E+00
         13   -1    0    0    0    0  0.00000000000E+00  0.00000000000E+00  0.14999999963E+04  0.15000000000E+04  0.10566000000E+00 0.  1.
        994   -1    0    0    0    0 -0.00000000000E+00 -0.00000000000E+00  0.11368683772E-12  0.17120000000E+03  0.17120000000E+03 0.  0.
         13    1    1    2    0    0  0.12656947739E+02  0.81835245453E+01  0.66004263402E+02  0.67703340769E+02  0.10566000000E+00 0.  1.
        994    1    1    2    0    0 -0.68753541523E+01 -0.12979976149E+02  0.23994167307E+01  0.17184570834E+03  0.17120000000E+03 0.  0.
        998    1    1    2    0    0 -0.57815935868E+01  0.47964516038E+01  0.14315963161E+04  0.14316509509E+04  0.10000000000E+02 0.  1.
</event>
<event>
 5    1  0.1556794E-008  0.3800277E+03  0.7957747E-01  0.3451038E+00
         13   -1    0    0    0    0  0.00000000000E+00  0.00000000000E+00  0.14999999963E+04  0.15000000000E+04  0.10566000000E+00 0.  1.
        994   -1    0    0    0    0 -0.00000000000E+00 -0.00000000000E+00  0.11368683772E-12  0.17120000000E+03  0.17120000000E+03 0.  0.
         13    1    1    2    0    0  0.62720735166E+02 -0.95119688696E+01  0.10935596607E+03  0.12642431195E+03  0.10566000000E+00 0.  1.
        994    1    1    2    0    0 -0.62785579908E+02  0.13426097848E+02  0.31437098117E+02  0.18552633313E+03  0.17120000000E+03 0.  0.
        998    1    1    2    0    0  0.64844741932E-01 -0.39141289787E+01  0.13592069321E+04  0.13592493549E+04  0.10000000000E+02 0.  1.
</event>
<event>
 5    1  0.1556794E-008  0.3840613E+03  0.7957747E-01  0.3433663E+00
         13   -1    0    0    0    0  0.00000000000E+00  0.00000000000E+00  0.14999999963E+04  0.15000000000E+04  0.10566000000E+00 0. -1.
        994   -1    0    0    0    0 -0.00000000000E+00 -0.00000000000E+00  0.11368683772E-12  0.17120000000E+03  0.17120000000E+03 0.  0.
         13    1    1    2    0    0  0.53094051696E+01 -0.21794828469E+02  0.11677915028E+03  0.11891419358E+03  0.10566000000E+00 0. -1.
        994    1    1    2    0    0 -0.68030487527E+01  0.15864214622E+02  0.30803824881E+01  0.17209556512E+03  0.17120000000E+03 0.  0.
        998    1    1    2    0    0  0.14936435830E+01  0.59306138478E+01  0.13801404635E+04  0.13801902413E+04  0.10000000000E+02 0. -1.
</event>
<event>
 5    1  0.1556794E-008  0.3822261E+03  0.7957747E-01  0.3441522E+00
         13   -1    0    0    0    0  0.00000000000E+00  0.00000000000E+00  0.14999999963E+04  0.15000000000E+04  0.10566000000E+00 0. -1.
        994   -1    0    0    0    0 -0.00000000000E+00 -0.00000000000E+00  0.11368683772E-12  0.17120000000E+03  0.17120000000E+03 0.  0.
         13    1    1    2    0    0 -0.24644050386E+02  0.61184270656E+02  0.36966987898E+03  0.37550855487E+03  0.10566000000E+00 0. -1.
        994    1    1    2    0    0  0.74344605702E+02 -0.80825071582E+02  0.44123837397E+02  0.20812536035E+03  0.17120000000E+03 0.  0.
        998    1    1    2    0    0 -0.49700555317E+02  0.19640800926E+02  0.10862062799E+04  0.10875660848E+04  0.10000000000E+02 0. -1.
</event>
<event>
 5    1  0.1556794E-008  0.3771138E+03  0.7957747E-01  0.3463823E+00
         13   -1    0    0    0    0  0.00000000000E+00  0.00000000000E+00  0.14999999963E+04  0.15000000000E+04  0.10566000000E+00 0. -1.
        994   -1    0    0    0    0 -0.00000000000E+00 -0.00000000000E+00  0.11368683772E-12  0.17120000000E+03  0.17120000000E+03 0.  0.
         13    1    1    2    0    0  0.93306770412E+01  0.12216216749E+02  0.18946046115E+02  0.24397977645E+02  0.10566000000E+00 0. -1.
        994    1    1    2    0    0  0.39409318709E+01 -0.10172800222E+02  0.59990476103E+01  0.17165210567E+03  0.17120000000E+03 0.  0.
        998    1    1    2    0    0 -0.13271608912E+02 -0.20434165271E+01  0.14750549026E+04  0.14751499167E+04  0.10000000000E+02 0. -1.
</event>
<event>
 5    1  0.1556794E-008  0.3709697E+03  0.7957747E-01  0.3491446E+00
         13   -1    0    0    0    0  0.00000000000E+00  0.00000000000E+00  0.14999999963E+04  0.15000000000E+04  0.10566000000E+00 0.  1.
        994   -1    0    0    0    0 -0.00000000000E+00 -0.00000000000E+00  0.11368683772E-12  0.17120000000E+03  0.17120000000E+03 0.  0.
         13    1    1    2    0    0  0.23112285374E+02  0.26672001665E+01  0.28043776506E+02  0.36438389875E+02  0.10566000000E+00 0.  1.
        994    1    1    2    0    0 -0.36161590084E+01 -0.91103975554E+01  0.90942310595E+01  0.17172134692E+03  0.17120000000E+03 0.  0.
        998    1    1    2    0    0 -0.19496126366E+02  0.64431973890E+01  0.14628619887E+04  0.14630402632E+04  0.10000000000E+02 0.  1.
</event>
<event>
 5    1  0.1556794E-008  0.3801518E+03  0.7957747E-01  0.3450498E+00
         13   -1    0    0    0    0  0.00000000000E+00  0.00000000000E+00  0.14999999963E+04  0.15000000000E+04  0.10566000000E+00 0.  1.
        994   -1    0    0    0    0 -0.00000000000E+00 -0.00000000000E+00  0.11368683772E-12  0.17120000000E+03  0.17120000000E+03 0.  0.
         13    1    1    2    0    0 -0.88102336401E+02  0.16685531696E+03  0.85149094598E+03  0.87214652481E+03  0.10566000000E+00 0.  1.
        994    1    1    2    0    0  0.83940187860E+02 -0.19754018300E+03  0.17752007777E+03  0.32694173342E+03  0.17120000000E+03 0.  0.
        998    1    1    2    0    0  0.41621485410E+01  0.30684866043E+02  0.47098897252E+03  0.47211174178E+03  0.10000000000E+02 0. -1.
</event>
<event>
 5    1  0.1556794E-008  0.3770835E+03  0.7957747E-01  0.3463957E+00
         13   -1    0    0    0    0  0.00000000000E+00  0.00000000000E+00  0.14999999963E+04  0.15000000000E+04  0.10566000000E+00 0. -1.
        994   -1    0    0    0    0 -0.00000000000E+00 -0.00000000000E+00  0.11368683772E-12  0.17120000000E+03  0.17120000000E+03 0.  0.
         13    1    1    2    0    0  0.27404315980E+02 -0.18970310518E+02  0.97656236231E+02  0.10318730956E+03  0.10566000000E+00 0. -1.
        994    1    1    2    0    0 -0.23395204365E+02 -0.62548060080E+00  0.74636948417E+01  0.17295338549E+03  0.17120000000E+03 0.  0.
        998    1    1    2    0    0 -0.40091116152E+01  0.19595791119E+02  0.13948800652E+04  0.13950593049E+04  0.10000000000E+02 0. -1.
</event>
<event>
 5    1  0.1556794E-008  0.3823991E+03  0.7957747E-01  0.3440778E+00
         13   -1    0    0    0    0  0.00000000000E+00  0.00000000000E+00  0.14999999963E+04  0.15000000000E+04  0.10566000000E+00 0. -1.
        994   -1    0    0    0    0 -0.00000000000E+00 -0.00000000000E+00  0.11368683772E-12  0.17120000000E+03  0.17120000000E+03 0.  0.
         13    1    1    2    0    0  0.11704205003E+02  0.13648573549E+02  0.56102724817E+02  0.58913486322E+02  0.10566000000E+00 0. -1.
        994    1    1    2    0    0 -0.16353991719E+01 -0.44936637592E+01  0.30028134508E+01  0.17129309511E+03  0.17120000000E+03 0.  0.
        998    1    1    2    0    0 -0.10068805831E+02 -0.91549097899E+01  0.14408944580E+04  0.14409934186E+04  0.10000000000E+02 0. -1.
</event>
<event>
 5    1  0.1556794E-008  0.3812945E+03  0.7957747E-01  0.3445541E+00
         13   -1    0    0    0    0  0.00000000000E+00  0.00000000000E+00  0.14999999963E+04  0.15000000000E+04  0.10566000000E+00 0. -1.
        994   -1    0    0    0    0 -0.00000000000E+00 -0.00000000000E+00  0.11368683772E-12  0.17120000000E+03  0.17120000000E+03 0.  0.
         13    1    1    2    0    0  0.25265867558E+02  0.14793366282E+02  0.14036326876E+03  0.14338433014E+03  0.10566000000E+00 0. -1.
        994    1    1    2    0    0  0.11207367186E+02 -0.13353330423E+02  0.44934215105E+01  0.17214397274E+03  0.17120000000E+03 0.  0.
        998    1    1    2    0    0 -0.36473234744E+02 -0.14400358589E+01  0.13551433060E+04  0.13556716971E+04  0.10000000000E+02 0. -1.
</event>
<event>
 5    1  0.1556794E-008  0.3819016E+03  0.7957747E-01  0.3442920E+00
         13   -1    0    0    0    0  0.00000000000E+00  0.00000000000E+00  0.14999999963E+04  0.15000000000E+04  0.10566000000E+00 0.  1.
        994   -1    0    0    0    0 -0.00000000000E+00 -0.00000000000E+00  0.11368683772E-12  0.17120000000E+03  0.17120000000E+03 0.  0.
         13    1    1    2    0    0  0.20592784709E+01  0.10032524293E+02  0.15123447699E+02  0.18265322495E+02  0.10566000000E+00 0.  1.
        994    1    1    2    0    0 -0.41677674134E+01 -0.85866622236E+01  0.34789783431E+01  0.17150114969E+03  0.17120000000E+03 0.  0.
        998    1    1    2    0    0  0.21084889426E+01 -0.14458620694E+01  0.14813975702E+04  0.14814335278E+04  0.10000000000E+02 0.  1.
</event>
<event>
 5    1  0.1556794E-008  0.3846152E+03  0.7957747E-01  0.3431306E+00
         13   -1    0    0    0    0  0.00000000000E+00  0.00000000000E+00  0.14999999963E+04  0.15000000000E+04  0.10566000000E+00 0.  1.
        994   -1    0    0    0    0 -0.00000000000E+00 -0.00000000000E+00  0.11368683772E-12  0.17120000000E+03  0.17120000000E+03 0.  0.
         13    1    1    2    0    0  0.27936441136E+01  0.11190909929E+02  0.33928814746E+02  0.35835967219E+02  0.10566000000E+00 0.  1.
        994    1    1    2    0    0 -0.60220122081E+01 -0.21667948719E+02  0.34884547623E+01  0.17270603333E+03  0.17120000000E+03 0.  0.
        998    1    1    2    0    0  0.32283680945E+01  0.10477038790E+02  0.14625827268E+04  0.14626579994E+04  0.10000000000E+02 0.  1.
</event>
<event>
 5    1  0.1556794E-008  0.3797859E+03  0.7957747E-01  0.3452091E+00
         13   -1    0    0    0    0  0.00000000000E+00  0.00000000000E+00  0.14999999963E+04  0.15000000000E+04  0.10566000000E+00 0. -1.
        994   -1    0    0    0    0 -0.00000000000E+00 -0.00000000000E+00  0.11368683772E-12  0.17120000000E+03  0.17120000000E+03 0.  0.
         13    1    1    2    0    0  0.11974949127E+02 -0.20162677842E+01  0.15386143971E+02  0.19601258447E+02  0.10566000000E+00 0. -1.
        994    1    1    2    0    0 -0.12772869603E+02  0.42228369730E+01  0.48468915489E+01  0.17179613182E+03  0.17120000000E+03 0.  0.
        998    1    1    2    0    0  0.79792047522E+00 -0.22065691887E+01  0.14797669608E+04  0.14798026097E+04  0.10000000000E+02 0. -1.
</event>
<event>
 5    1  0.1556794E-008  0.3832309E+03  0.7957747E-01  0.3437210E+00
         13   -1    0    0    0    0  0.00000000000E+00  0.00000000000E+00  0.14999999963E+04  0.15000000000E+04  0.10566000000E+00 0. -1.
        994   -1    0    0    0    0 -0.00000000000E+00 -0.00000000000E+00  0.11368683772E-12  0.17120000000E+03  0.17120000000E+03 0.  0.
         13    1    1    2    0    0  0.54694855392E+01 -0.15308873253E+02  0.53614109998E+02  0.56024644820E+02  0.10566000000E+00 0. -1.
        994    1    1    2    0    0 -0.25806601799E+01  0.32468452875E+01  0.25679170828E+01  0.17126948359E+03  0.17120000000E+03 0.  0.
        998    1    1    2    0    0 -0.28888253593E+01  0.12062027965E+02  0.14438179692E+04  0.14439058716E+04  0.10000000000E+02 0. -1.
</event>
<event>
 5    1  0.1786890E-008  0.3860251E+03  0.7957747E-01  0.3425336E+00
         13   -1    0    0    0    0  0.00000000000E+00  0.00000000000E+00  0.14999999963E+04  0.15000000000E+04  0.10566000000E+00 0.  1.
        994   -1    0    0    0    0 -0.00000000000E+00 -0.00000000000E+00  0.11368683772E-12  0.17120000000E+03  0.17120000000E+03 0.  0.
         13    1    1    2    0    0  0.12373323579E+02 -0.77863354101E+01  0.77772342632E+02  0.79134534800E+02  0.10566000000E+00 0.  1.
        994    1    1    2    0    0 -0.41961839255E+02  0.30031787874E+01  0.69446771630E+01  0.17642982621E+03  0.17120000000E+03 0.  0.
        998    1    1    2    0    0  0.29588515675E+02  0.47831566227E+01  0.14152829765E+04  0.14156356390E+04  0.10000000000E+02 0. -1.
</event>
<event>
 5    1  0.1556794E-008  0.3804101E+03  0.7957747E-01  0.3449375E+00
         13   -1    0    0    0    0  0.00000000000E+00  0.00000000000E+00  0.14999999963E+04  0.15000000000E+04  0.10566000000E+00 0.  1.
        994   -1    0    0    0    0 -0.00000000000E+00 -0.00000000000E+00  0.11368683772E-12  0.17120000000E+03  0.17120000000E+03 0.  0.
         13    1    1    2    0    0  0.13890849133E+02  0.41334445967E+01  0.25711136246E+02  0.29514653055E+02  0.10566000000E+00 0.  1.
        994    1    1    2    0    0 -0.30727071371E+01  0.48229643002E+00  0.39585634991E+01  0.17127400376E+03  0.17120000000E+03 0.  0.
        998    1    1    2    0    0 -0.10818141996E+02 -0.46157410268E+01  0.14703302965E+04  0.14704113432E+04  0.10000000000E+02 0.  1.
</event>
<event>
 5    1  0.1556794E-008  0.3758664E+03  0.7957747E-01  0.3469357E+00
         13   -1    0    0    0    0  0.00000000000E+00  0.00000000000E+00  0.14999999963E+04  0.15000000000E+04  0.10566000000E+00 0. -1.
        994   -1    0    0    0    0 -0.00000000000E+00 -0.00000000000E+00  0.11368683772E-12  0.17120000000E+03  0.17120000000E+03 0.  0.
         13    1    1    2    0    0  0.76943513199E+02 -0.26221868809E+02  0.48277531874E+03  0.48957114924E+03  0.10566000000E+00 0. -1.
        994    1    1    2    0    0 -0.46516901712E+02  0.37651986260E+02  0.18471404135E+02  0.18229681013E+03  0.17120000000E+03 0.  0.
        998    1    1    2    0    0 -0.30426611487E+02 -0.11430117451E+02  0.99875327341E+03  0.99933204062E+03  0.10000000000E+02 0. -1.
</event>
<event>
 5    1  0.1556794E-008  0.3767671E+03  0.7957747E-01  0.3465357E+00
         13   -1    0    0    0    0  0.00000000000E+00  0.00000000000E+00  0.14999999963E+04  0.15000000000E+04  0.10566000000E+00 0.  1.
        994   -1    0    0    0    0 -0.00000000000E+00 -0.00000000000E+00  0.11368683772E-12  0.17120000000E+03  0.17120000000E+03 0.  0.
         13    1    1    2    0    0 -0.79095795792E+01 -0.14957166148E+02  0.23110624617E+02  0.28642458039E+02  0.10566000000E+00 0.  1.
        994    1    1    2    0    0  0.46649296575E+01 -0.38307891828E+01  0.58972312946E+01  0.17140785820E+03  0.17120000000E+03 0.  0.
        998    1    1    2    0    0  0.32446499217E+01  0.18787955331E+02  0.14709921404E+04  0.14711496838E+04  0.10000000000E+02 0.  1.
</event>
<event>
 5    1  0.1556794E-008  0.3829545E+03  0.7957747E-01  0.3438394E+00
         13   -1    0    0    0    0  0.00000000000E+00  0.00000000000E+00  0.14999999963E+04  0.15000000000E+04  0.10566000000E+00 0.  1.
        994   -1    0    0    0    0 -0.00000000000E+00 -0.00000000000E+00  0.11368683772E-12  0.17120000000E+03  0.17120000000E+03 0.  0.
         13    1    1    2    0    0  0.11055732616E+02 -0.10010134897E+02  0.39041299917E+02  0.41793136847E+02  0.10566000000E+00 0.  1.
        994    1    1    2    0    0 -0.39203221785E+02 -0.84255639491E+01  0.79904727791E+01  0.17601468797E+03  0.17120000000E+03 0.  0.
        998    1    1    2    0    0  0.28147489169E+02  0.18435698846E+02  0.14529682236E+04  0.14533921752E+04  0.10000000000E+02 0.  1.
</event>
<event>
 5    1  0.1556794E-008  0.3845391E+03  0.7957747E-01  0.3431629E+00
         13   -1    0    0    0    0  0.00000000000E+00  0.00000000000E+00  0.14999999963E+04  0.15000000000E+04  0.10566000000E+00 0. -1.
        994   -1    0    0    0    0 -0.00000000000E+00 -0.00000000000E+00  0.11368683772E-12  0.17120000000E+03  0.17120000000E+03 0.  0.
         13    1    1    2    0    0  0.19129442304E+02 -0.45316929980E+01  0.10920053463E+03  0.11095602611E+03  0.10566000000E+00 0. -1.
        994    1    1    2    0    0 -0.55702663019E+01  0.17259650716E+01  0.19711395515E+01  0.17131063077E+03  0.17120000000E+03 0.  0.
        998    1    1    2    0    0 -0.13559176002E+02  0.28057279264E+01  0.13888283221E+04  0.13889333431E+04  0.10000000000E+02 0. -1.
</event>
<event>
 5    1  0.1556794E-008  0.3838561E+03  0.7957747E-01  0.3434538E+00
         13   -1    0    0    0    0  0.00000000000E+00  0.00000000000E+00  0.14999999963E+04  0.15000000000E+04  0.10566000000E+00 0. -1.
        994   -1    0    0    0    0 -0.00000000000E+00 -0.00000000000E+00  0.11368683772E-12  0.17120000000E+03  0.17120000000E+03 0.  0.
         13    1    1    2    0    0  0.14322335720E+02 -0.58242109400E+01  0.54468195540E+02  0.56620192714E+02  0.10566000000E+00 0. -1.
        994    1    1    2    0    0 -0.90265564828E+01 -0.11047425299E+01  0.24721742109E+01  0.17145918122E+03  0.17120000000E+03 0.  0.
        998    1    1    2    0    0 -0.52957792372E+01  0.69289534699E+01  0.14430596265E+04  0.14431206261E+04  0.10000000000E+02 0. -1.
</event>
<event>
 5    1  0.1556794E-008  0.3723124E+03  0.7957747E-01  0.3485331E+00
         13   -1    0    0    0    0  0.00000000000E+00  0.00000000000E+00  0.14999999963E+04  0.15000000000E+04  0.10566000000E+00 0.  1.
        994   -1    0    0    0    0 -0.00000000000E+00 -0.00000000000E+00  0.11368683772E-12  0.17120000000E+03  0.17120000000E+03 0.  0.
         13    1    1    2    0    0 -0.30754483365E+02  0.10288409642E+02  0.66073750669E+02  0.73603269707E+02  0.10566000000E+00 0.  1.
        994    1    1    2    0    0  0.12529527621E+01 -0.42650246349E+01  0.81331951055E+01  0.17145071942E+03  0.17120000000E+03 0.  0.
        998    1    1    2    0    0  0.29501530603E+02 -0.60233850073E+01  0.14257930505E+04  0.14261460109E+04  0.10000000000E+02 0.  1.
</event>
<event>
 5    1  0.1556794E-008  0.3858400E+03  0.7957747E-01  0.3426118E+00
         13   -1    0    0    0    0  0.00000000000E+00  0.00000000000E+00  0.14999999963E+04  0.15000000000E+04  0.10566000000E+00 0.  1.
        994   -1    0    0    0    0 -0.00000000000E+00 -0.00000000000E+00  0.11368683772E-12  0.17120000000E+03  0.17120000000E+03 0.  0.
         13    1    1    2    0    0 -0.10247984401E+02 -0.63480277700E+01  0.60401122983E+02  0.61592414002E+02  0.10566000000E+00 0.  1.
        994    1    1    2    0    0  0.84264943527E+01  0.18166600880E+01  0.14574196016E+01  0.17142307351E+03  0.17120000000E+03 0.  0.
        998    1    1    2    0    0  0.18214900482E+01  0.45313676821E+01  0.14381414537E+04  0.14381845125E+04  0.10000000000E+02 0.  1.
</event>
<event>
 5    1  0.1556794E-008  0.3768788E+03  0.7957747E-01  0.3464863E+00
         13   -1    0    0    0    0  0.00000000000E+00  0.00000000000E+00  0.14999999963E+04  0.15000000000E+04  0.10566000000E+00 0. -1.
        994   -1    0    0    0    0 -0.00000000000E+00 -0.00000000000E+00  0.11368683772E-12  0.17120000000E+03  0.17120000000E+03 0.  0.
         13    1    1    2    0    0  0.23072896549E+00  0.12104884321E+02  0.10152186055E+02  0.15800617267E+02  0.10566000000E+00 0. -1.
        994    1    1    2    0    0 -0.46255694679E+00 -0.13261111160E+02  0.63120282098E+01  0.17182942917E+03  0.17120000000E+03 0.  0.
        998    1    1    2    0    0  0.23182798130E+00  0.11562268386E+01  0.14835357820E+04  0.14835699536E+04  0.10000000000E+02 0. -1.
</event>
<event>
 5    1  0.1556794E-008  0.3740000E+03  0.7957747E-01  0.3477707E+00
         13   -1    0    0    0    0  0.00000000000E+00  0.00000000000E+00  0.14999999963E+04  0.15000000000E+04  0.10566000000E+00 0.  1.
        994   -1    0    0    0    0 -0.00000000000E+00 -0.00000000000E+00  0.11368683772E-12  0.17120000000E+03  0.17120000000E+03 0.  0.
         13    1    1    2    0    0 -0.26632839041E+02 -0.99056938579E+02  0.44170196399E+03  0.45345586484E+03  0.10566000000E+00 0.  1.
        994    1    1    2    0    0  0.83048962548E+01  0.11878628916E+03  0.57210271367E+02  0.21624432696E+03  0.17120000000E+03 0.  0.
        998    1    1    2    0    0  0.18327942787E+02 -0.19729350580E+02  0.10010877609E+04  0.10014998082E+04  0.10000000000E+02 0.  1.
</event>
<event>
 5    1  0.1556794E-008  0.3768368E+03  0.7957747E-01  0.3465048E+00
         13   -1    0    0    0    0  0.00000000000E+00  0.00000000000E+00  0.14999999963E+04  0.15000000000E+04  0.10566000000E+00 0.  1.
        994   -1    0    0    0    0 -0.00000000000E+00 -0.00000000000E+00  0.11368683772E-12  0.17120000000E+03  0.17120000000E+03 0.  0.
         13    1    1    2    0    0 -0.84488834208E+02 -0.87065026815E+01  0.20898017541E+03  0.22558122966E+03  0.10566000000E+00 0.  1.
        994    1    1    2    0    0  0.84176046077E+02  0.66099561957E+01  0.40602518507E+02  0.19515968529E+03  0.17120000000E+03 0.  0.
        998    1    1    2    0    0  0.31278813142E+00  0.20965464858E+01  0.12504173024E+04  0.12504590851E+04  0.10000000000E+02 0.  0.
</event>
<event>
 5    1  0.1556794E-008  0.3686614E+03  0.7957747E-01  0.3502066E+00
         13   -1    0    0    0    0  0.00000000000E+00  0.00000000000E+00  0.14999999963E+04  0.15000000000E+04  0.10566000000E+00 0. -1.
        994   -1    0    0    0    0 -0.00000000000E+00 -0.00000000000E+00  0.11368683772E-12  0.17120000000E+03  0.17120000000E+03 0.  0.
         13    1    1    2    0    0  0.81740378172E+02 -0.19182651272E+02  0.30917119518E+03  0.32036901009E+03  0.10566000000E+00 0. -1.
        994    1    1    2    0    0 -0.60621936776E+02  0.22806808852E+02  0.24976393673E+02  0.18473881560E+03  0.17120000000E+03 0.  0.
        998    1    1    2    0    0 -0.21118441396E+02 -0.36241575797E+01  0.11658524074E+04  0.11660921743E+04  0.10000000000E+02 0. -1.
</event>
<event>
 5    1  0.1556794E-008  0.3762327E+03  0.7957747E-01  0.3467728E+00
         13   -1    0    0    0    0  0.00000000000E+00  0.00000000000E+00  0.14999999963E+04  0.15000000000E+04  0.10566000000E+00 0. -1.
        994   -1    0    0    0    0 -0.00000000000E+00 -0.00000000000E+00  0.11368683772E-12  0.17120000000E+03  0.17120000000E+03 0.  0.
         13    1    1    2    0    0  0.42525140334E+01  0.41159099369E+02  0.16472920954E+03  0.16984663369E+03  0.10566000000E+00 0. -1.
        994    1    1    2    0    0  0.44549099360E+02 -0.20504375123E+01  0.12809358603E+02  0.17737628425E+03  0.17120000000E+03 0.  0.
        998    1    1    2    0    0 -0.48801613393E+02 -0.39108661857E+02  0.13224614281E+04  0.13239770821E+04  0.10000000000E+02 0. -1.
</event>
<event>
 5    1  0.1556794E-008  0.3836164E+03  0.7957747E-01  0.3435561E+00
         13   -1    0    0    0    0  0.00000000000E+00  0.00000000000E+00  0.14999999963E+04  0.15000000000E+04  0.10566000000E+00 0.  1.
        994   -1    0    0    0    0 -0.00000000000E+00 -0.00000000000E+00  0.11368683772E-12  0.17120000000E+03  0.17120000000E+03 0.  0.
         13    1    1    2    0    0  0.37176200175E+01 -0.21092121039E+02  0.95594178446E+02  0.97964056599E+02  0.10566000000E+00 0.  1.
        994    1    1    2    0    0  0.70811391249E+01  0.19458803765E+02  0.37363753353E+01  0.17248822591E+03  0.17120000000E+03 0.  0.
        998    1    1    2    0    0 -0.10798759142E+02  0.16333172739E+01  0.14006694425E+04  0.14007477175E+04  0.10000000000E+02 0.  1.
</event>
<event>
 5    1  0.1556794E-008  0.3841241E+03  0.7957747E-01  0.3433395E+00
         13   -1    0    0    0    0  0.00000000000E+00  0.00000000000E+00  0.14999999963E+04  0.15000000000E+04  0.10566000000E+00 0.  1.
        994   -1    0    0    0    0 -0.00000000000E+00 -0.00000000000E+00  0.11368683772E-12  0.17120000000E+03  0.17120000000E+03 0.  0.
         13    1    1    2    0    0 -0.80156062815E+01 -0.14058432236E+02  0.63937934408E+02  0.65954227169E+02  0.10566000000E+00 0.  1.
        994    1    1    2    0    0  0.10885650815E+02  0.30444050497E+01  0.24871151111E+01  0.17159076763E+03  0.17120000000E+03 0.  0.
        998    1    1    2    0    0 -0.28700445332E+01  0.11014027186E+02  0.14335749468E+04  0.14336550052E+04  0.10000000000E+02 0.  1.
</event>
<event>
 5    1  0.1556794E-008  0.3833271E+03  0.7957747E-01  0.3436798E+00
         13   -1    0    0    0    0  0.00000000000E+00  0.00000000000E+00  0.14999999963E+04  0.15000000000E+04  0.10566000000E+00 0.  1.
        994   -1    0    0    0    0 -0.00000000000E+00 -0.00000000000E+00  0.11368683772E-12  0.17120000000E+03  0.17120000000E+03 0.  0.
         13    1    1    2    0    0  0.74995590844E+01 -0.87090090455E+01  0.25741864350E+02  0.28191221493E+02  0.10566000000E+00 0.  1.
        994    1    1    2    0    0 -0.45974564301E+01  0.10076269141E+02  0.28686991266E+01  0.17158186746E+03  0.17120000000E+03 0.  0.
        998    1    1    2    0    0 -0.29021026544E+01 -0.13672600955E+01  0.14713894328E+04  0.14714269111E+04  0.10000000000E+02 0.  1.
</event>
<event>
 5    1  0.1556794E-008  0.3857228E+03  0.7957747E-01  0.3426613E+00
         13   -1    0    0    0    0  0.00000000000E+00  0.00000000000E+00  0.14999999963E+04  0.15000000000E+04  0.10566000000E+00 0. -1.
        994   -1    0    0    0    0 -0.00000000000E+00 -0.00000000000E+00  0.11368683772E-12  0.17120000000E+03  0.17120000000E+03 0.  0.
         13    1    1    2    0    0 -0.99749310375E+01  0.41289829665E+01  0.47011844650E+02  0.48235593196E+02  0.10566000000E+00 0. -1.
        994    1    1    2    0    0  0.30327285525E+01 -0.37571837389E+01  0.13482177789E+01  0.17127338253E+03  0.17120000000E+03 0.  0.
        998    1    1    2    0    0  0.69422024849E+01 -0.37179922760E+00  0.14516399338E+04  0.14516910243E+04  0.10000000000E+02 0. -1.
</event>
<event>
 5    1  0.1556794E-008  0.3859954E+03  0.7957747E-01  0.3425461E+00
         13   -1    0    0    0    0  0.00000000000E+00  0.00000000000E+00  0.14999999963E+04  0.15000000000E+04  0.10566000000E+00 0. -1.
        994   -1    0    0    0    0 -0.00000000000E+00 -0.00000000000E+00  0.11368683772E-12  0.17120000000E+03  0.17120000000E+03 0.  0.
         13    1    1    2    0    0 -0.12645516945E+02 -0.21586520586E+01  0.75542566095E+02  0.76624143282E+02  0.10566000000E+00 0. -1.
        994    1    1    2    0    0  0.55861969615E+01 -0.47680894017E+01  0.13135686705E+01  0.17136249804E+03  0.17120000000E+03 0.  0.
        998    1    1    2    0    0  0.70593199835E+01  0.69267414604E+01  0.14231438615E+04  0.14232133587E+04  0.10000000000E+02 0. -1.
</event>
<event>
 5    1  0.1556794E-008  0.3776511E+03  0.7957747E-01  0.3461450E+00
         13   -1    0    0    0    0  0.00000000000E+00  0.00000000000E+00  0.14999999963E+04  0.15000000000E+04  0.10566000000E+00 0.  1.
        994   -1    0    0    0    0 -0.00000000000E+00 -0.00000000000E+00  0.11368683772E-12  0.17120000000E+03  0.17120000000E+03 0.  0.
         13    1    1    2    0    0  0.20508357268E+02  0.34177858996E+02  0.17477090250E+03  0.17925846783E+03  0.10566000000E+00 0.  1.
        994    1    1    2    0    0 -0.37056850271E+01  0.65406593768E+01  0.55140109564E+01  0.17145365742E+03  0.17120000000E+03 0.  0.
        998    1    1    2    0    0 -0.16802672241E+02 -0.40718518373E+02  0.13197150828E+04  0.13204878747E+04  0.10000000000E+02 0.  1.
</event>
<event>
 5    1  0.1556794E-008  0.3786228E+03  0.7957747E-01  0.3457177E+00
         13   -1    0    0    0    0  0.00000000000E+00  0.00000000000E+00  0.14999999963E+04  0.15000000000E+04  0.10566000000E+00 0.  1.
        994   -1    0    0    0    0 -0.00000000000E+00 -0.00000000000E+00  0.11368683772E-12  0.17120000000E+03  0.17120000000E+03 0.  0.
         13    1    1    2    0    0 -0.14748101356E+02 -0.12195523250E+03  0.40044845673E+03  0.41886699905E+03  0.10566000000E+00 0.  1.
        994    1    1    2    0    0 -0.53458728990E+01  0.10224840353E+03  0.54415057070E+02  0.20676980635E+03  0.17120000000E+03 0.  0.
        998    1    1    2    0    0  0.20093974255E+02  0.19706828965E+02  0.10451364825E+04  0.10455631946E+04  0.10000000000E+02 0.  1.
</event>
<event>
 5    1  0.1556794E-008  0.3746545E+03  0.7957747E-01  0.3474770E+00
         13   -1    0    0    0    0  0.00000000000E+00  0.00000000000E+00  0.14999999963E+04  0.15000000000E+04  0.10566000000E+00 0.  1.
        994   -1    0    0    0    0 -0.00000000000E+00 -0.00000000000E+00  0.11368683772E-12  0.17120000000E+03  0.17120000000E+03 0.  0.
         13    1    1    2    0    0  0.89584111527E+01  0.15304951301E+02  0.20049152654E+02  0.26767038516E+02  0.10566000000E+00 0.  1.
        994    1    1    2    0    0 -0.69643116436E+01 -0.92347456567E+01  0.73116781465E+01  0.17174598336E+03  0.17120000000E+03 0.  0.
        998    1    1    2    0    0 -0.19940995092E+01 -0.60702056441E+01  0.14726391655E+04  0.14726869781E+04  0.10000000000E+02 0.  1.
</event>
<event>
 5    1  0.1556794E-008  0.3859868E+03  0.7957747E-01  0.3425498E+00
         13   -1    0    0    0    0  0.00000000000E+00  0.00000000000E+00  0.14999999963E+04  0.15000000000E+04  0.10566000000E+00 0. -1.
        994   -1    0    0    0    0 -0.00000000000E+00 -0.00000000000E+00  0.11368683772E-12  0.17120000000E+03  0.17120000000E+03 0.  0.
         13    1    1    2    0    0 -0.62424449536E+01 -0.11632358296E+02  0.76913709227E+02  0.78038514271E+02  0.10566000000E+00 0. -1.
        994    1    1    2    0    0  0.60907704482E+01  0.71780052972E+01  0.14315618515E+01  0.17146460455E+03  0.17120000000E+03 0.  0.
        998    1    1    2    0    0  0.15167450549E+00  0.44543529988E+01  0.14216547252E+04  0.14216968812E+04  0.10000000000E+02 0. -1.
</event>
<event>
 5    1  0.1556794E-008  0.3831093E+03  0.7957747E-01  0.3437731E+00
         13   -1    0    0    0    0  0.00000000000E+00  0.00000000000E+00  0.14999999963E+04  0.15000000000E+04  0.10566000000E+00 0.  1.
        994   -1    0    0    0    0 -0.00000000000E+00 -0.00000000000E+00  0.11368683772E-12  0.17120000000E+03  0.17120000000E+03 0.  0.
         13    1    1    2    0    0  0.14908292832E+02  0.52312046197E+01  0.48700485515E+02  0.51199327635E+02  0.10566000000E+00 0.  1.
        994    1    1    2    0    0 -0.95949657942E+01  0.84846469690E+01  0.31147696960E+01  0.17170671039E+03  0.17120000000E+03 0.  0.
        998    1    1    2    0    0 -0.53133270375E+01 -0.13715851589E+02  0.14481847411E+04  0.14482939620E+04  0.10000000000E+02 0.  1.
</event>
<event>
 5    1  0.1556794E-008  0.3824625E+03  0.7957747E-01  0.3440506E+00
         13   -1    0    0    0    0  0.00000000000E+00  0.00000000000E+00  0.14999999963E+04  0.15000000000E+04  0.10566000000E+00 0. -1.
        994   -1    0    0    0    0 -0.00000000000E+00 -0.00000000000E+00  0.11368683772E-12  0.17120000000E+03  0.17120000000E+03 0.  0.
         13    1    1    2    0    0 -0.32042357726E+01 -0.29667346452E+02  0.16237020530E+03  0.16508941004E+03  0.10566000000E+00 0. -1.
        994    1    1    2    0    0  0.93406042234E+00  0.99311544051E+01  0.32252169126E+01  0.17152067607E+03  0.17120000000E+03 0.  0.
        998    1    1    2    0    0  0.22701753502E+01  0.19736192047E+02  0.13344045741E+04  0.13345899139E+04  0.10000000000E+02 0.  0.
</event>
<event>
 5    1  0.1556794E-008  0.3833387E+03  0.7957747E-01  0.3436749E+00
         13   -1    0    0    0    0  0.00000000000E+00  0.00000000000E+00  0.14999999963E+04  0.15000000000E+04  0.10566000000E+00 0. -1.
        994   -1    0    0    0    0 -0.00000000000E+00 -0.00000000000E+00  0.11368683772E-12  0.17120000000E+03  0.17120000000E+03 0.  0.
         13    1    1    2    0    0 -0.25140197334E+02  0.91069486855E+01  0.13855065726E+03  0.14110727064E+03  0.10566000000E+00 0. -1.
        994    1    1    2    0    0  0.19880256139E+02 -0.94217211487E+01  0.40591381956E+01  0.17265546622E+03  0.17120000000E+03 0.  0.
        998    1    1    2    0    0  0.52599411945E+01  0.31477246319E+00  0.13573902008E+04  0.13574372631E+04  0.10000000000E+02 0. -1.
</event>
<event>
 5    1  0.1556794E-008  0.3842596E+03  0.7957747E-01  0.3432818E+00
         13   -1    0    0    0    0  0.00000000000E+00  0.00000000000E+00  0.14999999963E+04  0.15000000000E+04  0.10566000000E+00 0. -1.
        994   -1    0    0    0    0 -0.00000000000E+00 -0.00000000000E+00  0.11368683772E-12  0.17120000000E+03  0.17120000000E+03 0.  0.
         13    1    1    2    0    0  0.11889834421E+02 -0.39823582265E+01  0.38921058362E+02  0.40891163931E+02  0.10566000000E+00 0. -1.
        994    1    1    2    0    0 -0.93147671232E+01 -0.13605049215E+01  0.22903422781E+01  0.17147390918E+03  0.17120000000E+03 0.  0.
        998    1    1    2    0    0 -0.25750672978E+01  0.53428631479E+01  0.14587885956E+04  0.14588349269E+04  0.10000000000E+02 0. -1.
</event>
<event>
 5    1  0.1556794E-008  0.3840981E+03  0.7957747E-01  0.3433506E+00
         13   -1    0    0    0    0  0.00000000000E+00  0.00000000000E+00  0.14999999963E+04  0.15000000000E+04  0.10566000000E+00 0. -1.
        994   -1    0    0    0    0 -0.00000000000E+00 -0.00000000000E+00  0.11368683772E-12  0.17120000000E+03  0.17120000000E+03 0.  0.
         13    1    1    2    0    0  0.52465099558E+01 -0.10048792701E+02  0.30332663823E+02  0.32381873943E+02  0.10566000000E+00 0. -1.
        994    1    1    2    0    0 -0.46631611122E+01  0.65135378139E+01  0.22902703370E+01  0.17140261545E+03  0.17120000000E+03 0.  0.
        998    1    1    2    0    0 -0.58334884359E+00  0.35352548873E+01  0.14673770621E+04  0.14674155106E+04  0.10000000000E+02 0. -1.
</event>
<event>
 5    1  0.1556794E-008  0.3761062E+03  0.7957747E-01  0.3468290E+00
         13   -1    0    0    0    0  0.00000000000E+00  0.00000000000E+00  0.14999999963E+04  0.15000000000E+04  0.10566000000E+00 0.  1.
        994   -1    0    0    0    0 -0.00000000000E+00 -0.00000000000E+00  0.11368683772E-12  0.17120000000E+03  0.17120000000E+03 0.  0.
         13    1    1    2    0    0  0.30063095988E+02 -0.20307797067E+02  0.11770970154E+03  0.12317378520E+03  0.10566000000E+00 0.  1.
        994    1    1    2    0    0  0.16066946331E+02  0.23091404789E+02  0.87963927801E+01  0.17371866988E+03  0.17120000000E+03 0.  0.
        998    1    1    2    0    0 -0.46130042319E+02 -0.27836077226E+01  0.13734939020E+04  0.13743075449E+04  0.10000000000E+02 0.  1.
</event>
<event>
 5    1  0.1556794E-008  0.3838616E+03  0.7957747E-01  0.3434515E+00
         13   -1    0    0    0    0  0.00000000000E+00  0.00000000000E+00  0.14999999963E+04  0.15000000000E+04  0.10566000000E+00 0. -1.
        994   -1    0    0    0    0 -0.00000000000E+00 -0.00000000000E+00  0.11368683772E-12  0.17120000000E+03  0.17120000000E+03 0.  0.
         13    1    1    2    0    0  0.16794615354E+00  0.13240294830E+02  0.39439330533E+02  0.41602951458E+02  0.10566000000E+00 0. -1.
        994    1    1    2    0    0  0.40122426357E+01 -0.84364393360E+01  0.24845066134E+01  0.17147269279E+03  0.17120000000E+03 0.  0.
        998    1    1    2    0    0 -0.41801887892E+01 -0.48038554943E+01  0.14580761591E+04  0.14581243558E+04  0.10000000000E+02 0. -1.
</event>
<event>
 5    1  0.1556794E-008  0.3758820E+03  0.7957747E-01  0.3469288E+00
         13   -1    0    0    0    0  0.00000000000E+00  0.00000000000E+00  0.14999999963E+04  0.15000000000E+04  0.10566000000E+00 0. -1.
        994   -1    0    0    0    0 -0.00000000000E+00 -0.00000000000E+00  0.11368683772E-12  0.17120000000E+03  0.17120000000E+03 0.  0.
         13    1    1    2    0    0 -0.13556932198E+01 -0.16038584910E+02  0.19220097683E+02  0.25069850997E+02  0.10566000000E+00 0. -1.
        994    1    1    2    0    0 -0.85476663310E+01 -0.12477761548E+02  0.70021757737E+01  0.17200938230E+03  0.17120000000E+03 0.  0.
        998    1    1    2    0    0  0.99033595508E+01  0.28516346458E+02  0.14737777228E+04  0.14741207667E+04  0.10000000000E+02 0. -1.
</event>
<event>
 5    1  0.1556794E-008  0.3779795E+03  0.7957747E-01  0.3460004E+00
         13   -1    0    0    0    0  0.00000000000E+00  0.00000000000E+00  0.14999999963E+04  0.15000000000E+04  0.10566000000E+00 0.  1.
        994   -1    0    0    0    0 -0.00000000000E+00 -0.00000000000E+00  0.11368683772E-12  0.17120000000E+03  0.17120000000E+03 0.  0.
         13    1    1    2    0    0 -0.22358701621E+02 -0.14921009536E+02  0.64872218417E+02  0.70220822767E+02  0.10566000000E+00 0.  1.
        994    1    1    2    0    0  0.29088385735E+02  0.10213869752E+02  0.83618604688E+01  0.17415458085E+03  0.17120000000E+03 0.  0.
        998    1    1    2    0    0 -0.67296841139E+01  0.47071397843E+01  0.14267659174E+04  0.14268245964E+04  0.10000000000E+02 0.  1.
</event>
<event>
 5    1  0.1556794E-008  0.3763666E+03  0.7957747E-01  0.3467133E+00
         13   -1    0    0    0    0  0.00000000000E+00  0.00000000000E+00  0.14999999963E+04  0.15000000000E+04  0.10566000000E+00 0.  1.
        994   -1    0    0    0    0 -0.00000000000E+00 -0.00000000000E+00  0.11368683772E-12  0.17120000000E+03  0.17120000000E+03 0.  0.
         13    1    1    2    0    0  0.85868063117E+01 -0.29472730264E+02  0.84190824561E+02  0.89612952056E+02  0.10566000000E+00 0.  1.
        994    1    1    2    0    0 -0.66010860498E+01 -0.58377034463E+01  0.62414092204E+01  0.17154022359E+03  0.17120000000E+03 0.  0.
        998    1    1    2    0    0 -0.19857202619E+01  0.35310433710E+02  0.14095677625E+04  0.14100468244E+04  0.10000000000E+02 0.  1.
</event>
<event>
 5    1  0.1556794E-008  0.3844834E+03  0.7957747E-01  0.3431866E+00
         13   -1    0    0    0    0  0.00000000000E+00  0.00000000000E+00  0.14999999963E+04  0.15000000000E+04  0.10566000000E+00 0. -1.
        994   -1    0    0    0    0 -0.00000000000E+00 -0.00000000000E+00  0.11368683772E-12  0.17120000000E+03  0.17120000000E+03 0.  0.
         13    1    1    2    0    0 -0.11320391294E+02  0.59305998457E+01  0.43842088136E+02  0.45666871250E+02  0.10566000000E+00 0. -1.
        994    1    1    2    0    0  0.44772400445E+01 -0.10193136119E+01  0.19562968753E+01  0.17127274090E+03  0.17120000000E+03 0.  0.
        998    1    1    2    0    0  0.68431512499E+01 -0.49112862338E+01  0.14542016113E+04  0.14542603878E+04  0.10000000000E+02 0. -1.
</event>
<event>
 5    1  0.1556794E-008  0.3802702E+03  0.7957747E-01  0.3449983E+00
         13   -1    0    0    0    0  0.00000000000E+00  0.00000000000E+00  0.14999999963E+04  0.15000000000E+04  0.10566000000E+00 0. -1.
        994   -1    0    0    0    0 -0.00000000000E+00 -0.00000000000E+00  0.11368683772E-12  0.17120000000E+03  0.17120000000E+03 0.  0.
         13    1    1    2    0    0  0.19139672520E+02  0.23039431074E+01  0.45710479361E+02  0.49609417508E+02  0.10566000000E+00 0. -1.
        994    1    1    2    0    0 -0.68793612511E+01 -0.13348895421E+02  0.47503705215E+01  0.17192301952E+03  0.17120000000E+03 0.  0.
        998    1    1    2    0    0 -0.12260311269E+02  0.11044952313E+02  0.14495391464E+04  0.14496675630E+04  0.10000000000E+02 0. -1.
</event>
<event>
 5    1  0.1556794E-008  0.3797780E+03  0.7957747E-01  0.3452126E+00
         13   -1    0    0    0    0  0.00000000000E+00  0.00000000000E+00  0.14999999963E+04  0.15000000000E+04  0.10566000000E+00 0.  1.
        994   -1    0    0    0    0 -0.00000000000E+00 -0.00000000000E+00  0.11368683772E-12  0.17120000000E+03  0.17120000000E+03 0.  0.
         13    1    1    2    0    0  0.53939114977E+02  0.24985262212E+02  0.33425544952E+03  0.33950023292E+03  0.10566000000E+00 0.  1.
        994    1    1    2    0    0 -0.51720725655E+02 -0.22643840041E+02  0.14984278277E+02  0.18089152979E+03  0.17120000000E+03 0.  0.
        998    1    1    2    0    0 -0.22183893223E+01 -0.23414221715E+01  0.11507602685E+04  0.11508082373E+04  0.10000000000E+02 0.  1.
</event>
<event>
 5    1  0.1556794E-008  0.3803841E+03  0.7957747E-01  0.3449488E+00
         13   -1    0    0    0    0  0.00000000000E+00  0.00000000000E+00  0.14999999963E+04  0.15000000000E+04  0.10566000000E+00 0. -1.
        994   -1    0    0    0    0 -0.00000000000E+00 -0.00000000000E+00  0.11368683772E-12  0.17120000000E+03  0.17120000000E+03 0.  0.
         13    1    1    2    0    0 -0.31145164550E+02 -0.20265066853E+02  0.16281482646E+03  0.16700111703E+03  0.10566000000E+00 0. -1.
        994    1    1    2    0    0  0.18670484327E+02  0.29687945009E+02  0.80567232556E+01  0.17494088102E+03  0.17120000000E+03 0.  0.
        998    1    1    2    0    0  0.12474680223E+02 -0.94228781562E+01  0.13291284466E+04  0.13292580019E+04  0.10000000000E+02 0. -1.
</event>
<event>
 5    1  0.1556794E-008  0.3830513E+03  0.7957747E-01  0.3437979E+00
         13   -1    0    0    0    0  0.00000000000E+00  0.00000000000E+00  0.14999999963E+04  0.15000000000E+04  0.10566000000E+00 0. -1.
        994   -1    0    0    0    0 -0.00000000000E+00 -0.00000000000E+00  0.11368683772E-12  0.17120000000E+03  0.17120000000E+03 0.  0.
         13    1    1    2    0    0  0.32073192127E+02  0.10991829366E+02  0.18800106713E+03  0.19103382520E+03  0.10566000000E+00 0. -1.
        994    1    1    2    0    0 -0.36556997459E+02 -0.11287585446E+02  0.74604895837E+01  0.17558166918E+03  0.17120000000E+03 0.  0.
        998    1    1    2    0    0  0.44838053322E+01  0.29575607961E+00  0.13045384396E+04  0.13045845056E+04  0.10000000000E+02 0. -1.
</event>
<event>
 5    1  0.1556794E-008  0.3768015E+03  0.7957747E-01  0.3465205E+00
         13   -1    0    0    0    0  0.00000000000E+00  0.00000000000E+00  0.14999999963E+04  0.15000000000E+04  0.10566000000E+00 0.  1.
        994   -1    0    0    0    0 -0.00000000000E+00 -0.00000000000E+00  0.11368683772E-12  0.17120000000E+03  0.17120000000E+03 0.  0.
         13    1    1    2    0    0  0.14259120842E+02 -0.10518909522E+02  0.24472318738E+02  0.30213830164E+02  0.10566000000E+00 0.  1.
        994    1    1    2    0    0 -0.15753578643E+02  0.94523516999E+01  0.68977408352E+01  0.17232104056E+03  0.17120000000E+03 0.  0.
        998    1    1    2    0    0  0.14944578005E+01  0.10665578224E+01  0.14686299367E+04  0.14686651293E+04  0.10000000000E+02 0.  1.
</event>
<event>
 5    1  0.1556794E-008  0.3830663E+03  0.7957747E-01  0.3437915E+00
         13   -1    0    0    0    0  0.00000000000E+00  0.00000000000E+00  0.14999999963E+04  0.15000000000E+04  0.10566000000E+00 0.  1.
        994   -1    0    0    0    0 -0.00000000000E+00 -0.00000000000E+00  0.11368683772E-12  0.17120000000E+03  0.17120000000E+03 0.  0.
         13    1    1    2    0    0  0.14847918128E+02  0.63121597779E+01  0.51149962435E+02  0.53634260086E+02  0.10566000000E+00 0.  1.
        994    1    1    2    0    0 -0.14811117791E+01 -0.46263883182E+01  0.26713556804E+01  0.17128973496E+03  0.17120000000E+03 0.  0.
        998    1    1    2    0    0 -0.13366806349E+02 -0.16857714597E+01  0.14461786782E+04  0.14462760050E+04  0.10000000000E+02 0.  1.
</event>
<event>
 5    1  0.1556794E-008  0.3753492E+03  0.7957747E-01  0.3471663E+00
         13   -1    0    0    0    0  0.00000000000E+00  0.00000000000E+00  0.14999999963E+04  0.15000000000E+04  0.10566000000E+00 0.  1.
        994   -1    0    0    0    0 -0.00000000000E+00 -0.00000000000E+00  0.11368683772E-12  0.17120000000E+03  0.17120000000E+03 0.  0.
         13    1    1    2    0    0  0.12321755861E+02  0.16049217762E+00  0.86759979029E+01  0.15071016186E+02  0.10566000000E+00 0.  1.
        994    1    1    2    0    0 -0.12290103701E+02  0.45523946693E+00  0.70132253874E+01  0.17178439749E+03  0.17120000000E+03 0.  0.
        998    1    1    2    0    0 -0.31652160171E-01 -0.61573164455E+00  0.14843107730E+04  0.14843445863E+04  0.10000000000E+02 0.  1.
</event>
<event>
 5    1  0.1556794E-008  0.3854762E+03  0.7957747E-01  0.3427655E+00
         13   -1    0    0    0    0  0.00000000000E+00  0.00000000000E+00  0.14999999963E+04  0.15000000000E+04  0.10566000000E+00 0.  1.
        994   -1    0    0    0    0 -0.00000000000E+00 -0.00000000000E+00  0.11368683772E-12  0.17120000000E+03  0.17120000000E+03 0.  0.
         13    1    1    2    0    0  0.16520950335E+02  0.29378241743E+01  0.97571703373E+02  0.99004146751E+02  0.10566000000E+00 0.  1.
        994    1    1    2    0    0 -0.14859411964E+02 -0.48512999742E+01  0.21965942577E+01  0.17192615351E+03  0.17120000000E+03 0.  0.
        998    1    1    2    0    0 -0.16615383715E+01  0.19134757999E+01  0.14002316986E+04  0.14002696997E+04  0.10000000000E+02 0.  1.
</event>
<event>
 5    1  0.1556794E-008  0.3807503E+03  0.7957747E-01  0.3447898E+00
         13   -1    0    0    0    0  0.00000000000E+00  0.00000000000E+00  0.14999999963E+04  0.15000000000E+04  0.10566000000E+00 0. -1.
        994   -1    0    0    0    0 -0.00000000000E+00 -0.00000000000E+00  0.11368683772E-12  0.17120000000E+03  0.17120000000E+03 0.  0.
         13    1    1    2    0    0 -0.20667096834E+02  0.12779260946E+02  0.73690750366E+02  0.77593661181E+02  0.10566000000E+00 0. -1.
        994    1    1    2    0    0  0.37475983458E+02  0.10922580276E+02  0.88528195838E+01  0.17581684934E+03  0.17120000000E+03 0.  0.
        998    1    1    2    0    0 -0.16808886624E+02 -0.23701841222E+02  0.14174564263E+04  0.14177894895E+04  0.10000000000E+02 0. -1.
</event>
<event>
 5    1  0.1556794E-008  0.3808960E+03  0.7957747E-01  0.3447267E+00
         13   -1    0    0    0    0  0.00000000000E+00  0.00000000000E+00  0.14999999963E+04  0.15000000000E+04  0.10566000000E+00 0.  1.
        994   -1    0    0    0    0 -0.00000000000E+00 -0.00000000000E+00  0.11368683772E-12  0.17120000000E+03  0.17120000000E+03 0.  0.
         13    1    1    2    0    0 -0.77860673785E+01 -0.25201284579E+02  0.87601217336E+02  0.91486130273E+02  0.10566000000E+00 0.  1.
        994    1    1    2    0    0  0.56990040727E+01  0.28206850233E+02  0.64465715170E+01  0.17372133816E+03  0.17120000000E+03 0.  0.
        998    1    1    2    0    0  0.20870633057E+01 -0.30055656544E+01  0.14059522074E+04  0.14059925316E+04  0.10000000000E+02 0.  1.
</event>
<event>
 5    1  0.1556794E-008  0.3789472E+03  0.7957747E-01  0.3455756E+00
         13   -1    0    0    0    0  0.00000000000E+00  0.00000000000E+00  0.14999999963E+04  0.15000000000E+04  0.10566000000E+00 0. -1.
        994   -1    0    0    0    0 -0.00000000000E+00 -0.00000000000E+00  0.11368683772E-12  0.17120000000E+03  0.17120000000E+03 0.  0.
         13    1    1    2    0    0  0.45675015159E+02 -0.86988491618E+00  0.58897470105E+02  0.74537821663E+02  0.10566000000E+00 0. -1.
        994    1    1    2    0    0 -0.41895613622E+02  0.25838766395E+01  0.22136945831E+02  0.17765529328E+03  0.17120000000E+03 0.  0.
        998    1    1    2    0    0 -0.37794015365E+01 -0.17139917233E+01  0.14189655803E+04  0.14190068851E+04  0.10000000000E+02 0. -1.
</event>
<event>
 5    1  0.1556794E-008  0.3141226E+03  0.7957747E-01  0.3800085E+00
         13   -1    0    0    0    0  0.00000000000E+00  0.00000000000E+00  0.14999999963E+04  0.15000000000E+04  0.10566000000E+00 0. -1.
        994   -1    0    0    0    0 -0.00000000000E+00 -0.00000000000E+00  0.11368683772E-12  0.17120000000E+03  0.17120000000E+03 0.  0.
         13    1    1    2    0    0 -0.49512467977E+02  0.24445214793E+03  0.62125593318E+03  0.66945297280E+03  0.10566000000E+00 0. -1.
        994    1    1    2    0    0 -0.24624020289E+02 -0.24173159066E+03  0.31516883767E+03  0.43322204531E+03  0.17120000000E+03 0.  0.
        998    1    1    2    0    0  0.74136488266E+02 -0.27205572686E+01  0.56357522542E+03  0.56852498189E+03  0.10000000000E+02 0. -1.
</event>
<event>
 5    1  0.1556794E-008  0.3855124E+03  0.7957747E-01  0.3427502E+00
         13   -1    0    0    0    0  0.00000000000E+00  0.00000000000E+00  0.14999999963E+04  0.15000000000E+04  0.10566000000E+00 0. -1.
        994   -1    0    0    0    0 -0.00000000000E+00 -0.00000000000E+00  0.11368683772E-12  0.17120000000E+03  0.17120000000E+03 0.  0.
         13    1    1    2    0    0 -0.18282169426E+03 -0.18703656658E+03  0.11006615156E+04  0.11313099629E+04  0.10566000000E+00 0. -1.
        994    1    1    2    0    0  0.19166742557E+03  0.19006793564E+03  0.29599249970E+03  0.43564116204E+03  0.17120000000E+03 0.  0.
        998    1    1    2    0    0 -0.88457313144E+01 -0.30313690572E+01  0.10334598102E+03  0.10424887507E+03  0.10000000000E+02 0. -1.
</event>
<event>
 5    1  0.1556794E-008  0.3798353E+03  0.7957747E-01  0.3451876E+00
         13   -1    0    0    0    0  0.00000000000E+00  0.00000000000E+00  0.14999999963E+04  0.15000000000E+04  0.10566000000E+00 0. -1.
        994   -1    0    0    0    0 -0.00000000000E+00 -0.00000000000E+00  0.11368683772E-12  0.17120000000E+03  0.17120000000E+03 0.  0.
         13    1    1    2    0    0  0.17333661656E+02  0.81048279425E+01  0.41174997401E+02  0.45404136787E+02  0.10566000000E+00 0. -1.
        994    1    1    2    0    0 -0.18723218740E+02 -0.39677976095E+00  0.53902130550E+01  0.17230557377E+03  0.17120000000E+03 0.  0.
        998    1    1    2    0    0  0.13895570837E+01 -0.77080481815E+01  0.14534347858E+04  0.14534902894E+04  0.10000000000E+02 0. -1.
</event>
<event>
 5    1  0.1556794E-008  0.3746495E+03  0.7957747E-01  0.3474792E+00
         13   -1    0    0    0    0  0.00000000000E+00  0.00000000000E+00  0.14999999963E+04  0.15000000000E+04  0.10566000000E+00 0.  1.
        994   -1    0    0    0    0 -0.00000000000E+00 -0.00000000000E+00  0.11368683772E-12  0.17120000000E+03  0.17120000000E+03 0.  0.
         13    1    1    2    0    0 -0.22361347925E+02  0.40179454060E+01  0.34381184786E+02  0.41209838602E+02  0.10566000000E+00 0.  1.
        994    1    1    2    0    0  0.19473697876E+02 -0.62762311979E+01  0.82847561823E+01  0.17261718678E+03  0.17120000000E+03 0.  0.
        998    1    1    2    0    0  0.28876500483E+01  0.22582857918E+01  0.14573340553E+04  0.14573729746E+04  0.10000000000E+02 0.  1.
</event>
<event>
 5    1  0.1556794E-008  0.3835372E+03  0.7957747E-01  0.3435900E+00
         13   -1    0    0    0    0  0.00000000000E+00  0.00000000000E+00  0.14999999963E+04  0.15000000000E+04  0.10566000000E+00 0. -1.
        994   -1    0    0    0    0 -0.00000000000E+00 -0.00000000000E+00  0.11368683772E-12  0.17120000000E+03  0.17120000000E+03 0.  0.
         13    1    1    2    0    0 -0.59897091930E+01 -0.17537204543E+02  0.73761624143E+02  0.76054049988E+02  0.10566000000E+00 0. -1.
        994    1    1    2    0    0 -0.36175467388E+01  0.99776202635E+01  0.27304217851E+01  0.17155038547E+03  0.17120000000E+03 0.  0.
        998    1    1    2    0    0  0.96072559319E+01  0.75595842800E+01  0.14235079504E+04  0.14235955645E+04  0.10000000000E+02 0. -1.
</event>
<event>
 5    1  0.1556794E-008  0.3851255E+03  0.7957747E-01  0.3429140E+00
         13   -1    0    0    0    0  0.00000000000E+00  0.00000000000E+00  0.14999999963E+04  0.15000000000E+04  0.10566000000E+00 0. -1.
        994   -1    0    0    0    0 -0.00000000000E+00 -0.00000000000E+00  0.11368683772E-12  0.17120000000E+03  0.17120000000E+03 0.  0.
         13    1    1    2    0    0  0.11723101208E+02 -0.84671610755E+01  0.74246662145E+02  0.75641932302E+02  0.10566000000E+00 0. -1.
        994    1    1    2    0    0  0.38991764905E+01 -0.40941316305E+01  0.16729551029E+01  0.17130150107E+03  0.17120000000E+03 0.  0.
        998    1    1    2    0    0 -0.15622277699E+02  0.12561292706E+02  0.14240803790E+04  0.14242565666E+04  0.10000000000E+02 0. -1.
</event>
<event>
 5    1  0.1556794E-008  0.3782281E+03  0.7957747E-01  0.3458910E+00
         13   -1    0    0    0    0  0.00000000000E+00  0.00000000000E+00  0.14999999963E+04  0.15000000000E+04  0.10566000000E+00 0. -1.
        994   -1    0    0    0    0 -0.00000000000E+00 -0.00000000000E+00  0.11368683772E-12  0.17120000000E+03  0.17120000000E+03 0.  0.
         13    1    1    2    0    0 -0.43415978524E+01  0.15129598689E+02  0.22348084456E+02  0.27335000847E+02  0.10566000000E+00 0. -1.
        994    1    1    2    0    0  0.15451923068E+01 -0.13923270623E+02  0.56904510597E+01  0.17186641998E+03  0.17120000000E+03 0.  0.
        998    1    1    2    0    0  0.27964055456E+01 -0.12063280658E+01  0.14719614608E+04  0.14719985792E+04  0.10000000000E+02 0. -1.
</event>
<event>
 5    1  0.1556794E-008  0.3858379E+03  0.7957747E-01  0.3426126E+00
         13   -1    0    0    0    0  0.00000000000E+00  0.00000000000E+00  0.14999999963E+04  0.15000000000E+04  0.10566000000E+00 0.  1.
        994   -1    0    0    0    0 -0.00000000000E+00 -0.00000000000E+00  0.11368683772E-12  0.17120000000E+03  0.17120000000E+03 0.  0.
         13    1    1    2    0    0  0.11008003008E+02  0.86770594499E+01  0.81103183476E+02  0.82305558895E+02  0.10566000000E+00 0.  1.
        994    1    1    2    0    0 -0.19216039003E+01 -0.13874168215E+02  0.18583846116E+01  0.17178206745E+03  0.17120000000E+03 0.  0.
        998    1    1    2    0    0 -0.90863991079E+01  0.51971087649E+01  0.14170384282E+04  0.14171123737E+04  0.10000000000E+02 0.  1.
</event>
<event>
 5    1  0.1556794E-008  0.3775988E+03  0.7957747E-01  0.3461681E+00
         13   -1    0    0    0    0  0.00000000000E+00  0.00000000000E+00  0.14999999963E+04  0.15000000000E+04  0.10566000000E+00 0. -1.
        994   -1    0    0    0    0 -0.00000000000E+00 -0.00000000000E+00  0.11368683772E-12  0.17120000000E+03  0.17120000000E+03 0.  0.
         13    1    1    2    0    0  0.40498864954E+01 -0.17583715223E+02  0.27330410837E+02  0.32749826598E+02  0.10566000000E+00 0. -1.
        994    1    1    2    0    0 -0.11421009964E+02  0.21979430501E+02  0.74203340340E+01  0.17314166509E+03  0.17120000000E+03 0.  0.
        998    1    1    2    0    0  0.73711234684E+01 -0.43957152783E+01  0.14652492514E+04  0.14653085083E+04  0.10000000000E+02 0. -1.
</event>
<event>
 5    1  0.1556794E-008  0.3844864E+03  0.7957747E-01  0.3431853E+00
         13   -1    0    0    0    0  0.00000000000E+00  0.00000000000E+00  0.14999999963E+04  0.15000000000E+04  0.10566000000E+00 0.  1.
        994   -1    0    0    0    0 -0.00000000000E+00 -0.00000000000E+00  0.11368683772E-12  0.17120000000E+03  0.17120000000E+03 0.  0.
         13    1    1    2    0    0  0.12223740846E+02 -0.20191023145E+00  0.36226107474E+02  0.38233527626E+02  0.10566000000E+00 0.  1.
        994    1    1    2    0    0 -0.26468386323E+02 -0.34897512787E+01  0.42367784436E+01  0.17332092814E+03  0.17120000000E+03 0.  0.
        998    1    1    2    0    0  0.14244645477E+02  0.36916615101E+01  0.14595371104E+04  0.14596455442E+04  0.10000000000E+02 0.  1.
</event>
<event>
 5    1  0.1556794E-008  0.3707672E+03  0.7957747E-01  0.3492372E+00
         13   -1    0    0    0    0  0.00000000000E+00  0.00000000000E+00  0.14999999963E+04  0.15000000000E+04  0.10566000000E+00 0. -1.
        994   -1    0    0    0    0 -0.00000000000E+00 -0.00000000000E+00  0.11368683772E-12  0.17120000000E+03  0.17120000000E+03 0.  0.
         13    1    1    2    0    0 -0.65006313624E+02 -0.10093885542E+03  0.66475723909E+03  0.67551215491E+03  0.10566000000E+00 0. -1.
        994    1    1    2    0    0  0.55291217561E+01  0.79761224259E+02  0.34103352893E+02  0.19200235093E+03  0.17120000000E+03 0.  0.
        998    1    1    2    0    0  0.59477191868E+02  0.21177631161E+02  0.80113940429E+03  0.80368549416E+03  0.10000000000E+02 0. -1.
</event>
<event>
 5    1  0.1556794E-008  0.4024036E+03  0.7957747E-01  0.3359056E+00
         13   -1    0    0    0    0  0.00000000000E+00  0.00000000000E+00  0.14999999963E+04  0.15000000000E+04  0.10566000000E+00 0.  1.
        994   -1    0    0    0    0 -0.00000000000E+00 -0.00000000000E+00  0.11368683772E-12  0.17120000000E+03  0.17120000000E+03 0.  0.
         13    1    1    2    0    0  0.87542014812E+02 -0.34170115323E+02  0.13034907191E+03  0.16069254136E+03  0.10566000000E+00 0.  1.
        994    1    1    2    0    0 -0.90642013032E+02  0.24697357916E+02  0.65052953217E+02  0.20583308951E+03  0.17120000000E+03 0.  0.
        998    1    1    2    0    0  0.30999982196E+01  0.94727574068E+01  0.13045979712E+04  0.13046743691E+04  0.10000000000E+02 0.  1.
</event>
<event>
 5    1  0.2488094E-008  0.3859310E+03  0.7957747E-01  0.3425733E+00
         13   -1    0    0    0    0  0.00000000000E+00  0.00000000000E+00  0.14999999963E+04  0.15000000000E+04  0.10566000000E+00 0.  1.
        994   -1    0    0    0    0 -0.00000000000E+00 -0.00000000000E+00  0.11368683772E-12  0.17120000000E+03  0.17120000000E+03 0.  0.
         13    1    1    2    0    0 -0.27007290271E+01 -0.11881402282E+02  0.65454984580E+02  0.66579485037E+02  0.10566000000E+00 0.  1.
        994    1    1    2    0    0  0.40459044499E+01  0.47589030051E+01  0.12965286010E+01  0.17131881825E+03  0.17120000000E+03 0.  0.
        998    1    1    2    0    0 -0.13451754228E+01  0.71224992774E+01  0.14332484831E+04  0.14333016967E+04  0.10000000000E+02 0.  1.
</event>
<event>
 5    1  0.1556794E-008  0.3834095E+03  0.7957747E-01  0.3436446E+00
         13   -1    0    0    0    0  0.00000000000E+00  0.00000000000E+00  0.14999999963E+04  0.15000000000E+04  0.10566000000E+00 0.  1.
        994   -1    0    0    0    0 -0.00000000000E+00 -0.00000000000E+00  0.11368683772E-12  0.17120000000E+03  0.17120000000E+03 0.  0.
         13    1    1    2    0    0 -0.83389333560E+01 -0.67714017485E+01  0.21941725383E+02  0.24430312482E+02  0.10566000000E+00 0.  1.
        994    1    1    2    0    0  0.24941823071E+02  0.34656412879E+01  0.45208307834E+01  0.17310107775E+03  0.17120000000E+03 0.  0.
        998    1    1    2    0    0 -0.16602889715E+02  0.33057604606E+01  0.14735374401E+04  0.14736686098E+04  0.10000000000E+02 0.  1.
</event>
<event>
 5    1  0.1556794E-008  0.3853458E+03  0.7957747E-01  0.3428207E+00
         13   -1    0    0    0    0  0.00000000000E+00  0.00000000000E+00  0.14999999963E+04  0.15000000000E+04  0.10566000000E+00 0.  1.
        994   -1    0    0    0    0 -0.00000000000E+00 -0.00000000000E+00  0.11368683772E-12  0.17120000000E+03  0.17120000000E+03 0.  0.
         13    1    1    2    0    0  0.11401534276E+02  0.64157585997E+01  0.77684609981E+02  0.78778593121E+02  0.10566000000E+00 0.  1.
        994    1    1    2    0    0  0.20678350993E+01  0.46715473341E+02  0.86747023573E+01  0.17768315016E+03  0.17120000000E+03 0.  0.
        998    1    1    2    0    0 -0.13469369375E+02 -0.53131231940E+02  0.14136406839E+04  0.14147382567E+04  0.10000000000E+02 0.  1.
</event>
<event>
 5    1  0.1556794E-008  0.3784982E+03  0.7957747E-01  0.3457724E+00
         13   -1    0    0    0    0  0.00000000000E+00  0.00000000000E+00  0.14999999963E+04  0.15000000000E+04  0.10566000000E+00 0. -1.
        994   -1    0    0    0    0 -0.00000000000E+00 -0.00000000000E+00  0.11368683772E-12  0.17120000000E+03  0.17120000000E+03 0.  0.
         13    1    1    2    0    0  0.61905714932E+02  0.70859105967E+01  0.12596772838E+03  0.14053614278E+03  0.10566000000E+00 0. -1.
        994    1    1    2    0    0 -0.29120412415E+02  0.18732300191E+02  0.19837396365E+02  0.17578924820E+03  0.17120000000E+03 0.  0.
        998    1    1    2    0    0 -0.32785302518E+02 -0.25818210788E+02  0.13541948715E+04  0.13548746090E+04  0.10000000000E+02 0. -1.
</event>
<event>
 5    1  0.1556794E-008  0.3781387E+03  0.7957747E-01  0.3459303E+00
         13   -1    0    0    0    0  0.00000000000E+00  0.00000000000E+00  0.14999999963E+04  0.15000000000E+04  0.10566000000E+00 0. -1.
        994   -1    0    0    0    0 -0.00000000000E+00 -0.00000000000E+00  0.11368683772E-12  0.17120000000E+03  0.17120000000E+03 0.  0.
         13    1    1    2    0    0  0.38316072243E+00 -0.28741236431E+02  0.74730281035E+02  0.80067668577E+02  0.10566000000E+00 0. -1.
        994    1    1    2    0    0  0.68221844981E+00  0.33137676519E+02  0.87797174199E+01  0.17459981233E+03  0.17120000000E+03 0.  0.
        998    1    1    2    0    0 -0.10653791722E+01 -0.43964400880E+01  0.14164899978E+04  0.14165325191E+04  0.10000000000E+02 0. -1.
</event>
<event>
 5    1  0.1556794E-008  0.3837945E+03  0.7957747E-01  0.3434801E+00
         13   -1    0    0    0    0  0.00000000000E+00  0.00000000000E+00  0.14999999963E+04  0.15000000000E+04  0.10566000000E+00 0.  1.
        994   -1    0    0    0    0 -0.00000000000E+00 -0.00000000000E+00  0.11368683772E-12  0.17120000000E+03  0.17120000000E+03 0.  0.
         13    1    1    2    0    0 -0.83037346835E+00  0.14460355627E+02  0.47091969510E+02  0.49269221237E+02  0.10566000000E+00 0.  1.
        994    1    1    2    0    0  0.17960333570E+02 -0.60965260492E+01  0.34184447541E+01  0.17228135992E+03  0.17120000000E+03 0.  0.
        998    1    1    2    0    0 -0.17129960102E+02 -0.83638295779E+01  0.14494895820E+04  0.14496494188E+04  0.10000000000E+02 0.  1.
</event>
<event>
 5    1  0.1556794E-008  0.3802983E+03  0.7957747E-01  0.3449861E+00
         13   -1    0    0    0    0  0.00000000000E+00  0.00000000000E+00  0.14999999963E+04  0.15000000000E+04  0.10566000000E+00 0.  1.
        994   -1    0    0    0    0 -0.00000000000E+00 -0.00000000000E+00  0.11368683772E-12  0.17120000000E+03  0.17120000000E+03 0.  0.
         13    1    1    2    0    0 -0.19142834496E+03  0.83747507201E+02  0.11056315624E+04  0.11252020348E+04  0.10566000000E+00 0.  1.
        994    1    1    2    0    0  0.18771046058E+03 -0.80888015027E+02  0.15912804276E+03  0.31049840898E+03  0.17120000000E+03 0.  0.
        998    1    1    2    0    0  0.37178843821E+01 -0.28594921741E+01  0.23524039115E+03  0.23549955624E+03  0.10000000000E+02 0.  0.
</event>
<event>
 5    1  0.1556794E-008  0.3853824E+03  0.7957747E-01  0.3428052E+00
         13   -1    0    0    0    0  0.00000000000E+00  0.00000000000E+00  0.14999999963E+04  0.15000000000E+04  0.10566000000E+00 0. -1.
        994   -1    0    0    0    0 -0.00000000000E+00 -0.00000000000E+00  0.11368683772E-12  0.17120000000E+03  0.17120000000E+03 0.  0.
         13    1    1    2    0    0 -0.24982244396E+01 -0.10106070105E+02  0.38132107572E+02  0.39527744310E+02  0.10566000000E+00 0. -1.
        994    1    1    2    0    0  0.35810332031E+01  0.38540564122E+01  0.15313154789E+01  0.17128766002E+03  0.17120000000E+03 0.  0.
        998    1    1    2    0    0 -0.10828087636E+01  0.62520136929E+01  0.14603365732E+04  0.14603845957E+04  0.10000000000E+02 0. -1.
</event>
<event>
 5    1  0.1556794E-008  0.3767382E+03  0.7957747E-01  0.3465485E+00
         13   -1    0    0    0    0  0.00000000000E+00  0.00000000000E+00  0.14999999963E+04  0.15000000000E+04  0.10566000000E+00 0. -1.
        994   -1    0    0    0    0 -0.00000000000E+00 -0.00000000000E+00  0.11368683772E-12  0.17120000000E+03  0.17120000000E+03 0.  0.
         13    1    1    2    0    0 -0.23050472164E+02  0.40555105045E+02  0.19098093667E+03  0.19659544793E+03  0.10566000000E+00 0. -1.
        994    1    1    2    0    0  0.34169110152E+02 -0.76714478040E+01  0.99444178216E+01  0.17502774250E+03  0.17120000000E+03 0.  0.
        998    1    1    2    0    0 -0.11118637988E+02 -0.32883657241E+02  0.12990746418E+04  0.12995768096E+04  0.10000000000E+02 0. -1.
</event>
<event>
 5    1  0.1556794E-008  0.3711702E+03  0.7957747E-01  0.3490530E+00
         13   -1    0    0    0    0  0.00000000000E+00  0.00000000000E+00  0.14999999963E+04  0.15000000000E+04  0.10566000000E+00 0. -1.
        994   -1    0    0    0    0 -0.00000000000E+00 -0.00000000000E+00  0.11368683772E-12  0.17120000000E+03  0.17120000000E+03 0.  0.
         13    1    1    2    0    0  0.95237328082E+01 -0.20657099129E+02  0.17200170469E+02  0.28517963798E+02  0.10566000000E+00 0. -1.
        994    1    1    2    0    0 -0.63926153493E+01  0.21840331935E+02  0.13378896260E+02  0.17322326777E+03  0.17120000000E+03 0.  0.
        998    1    1    2    0    0 -0.31311174589E+01 -0.11832328069E+01  0.14694209295E+04  0.14694587684E+04  0.10000000000E+02 0. -1.
</event>
<event>
 5    1  0.1556794E-008  0.3753291E+03  0.7957747E-01  0.3471752E+00
         13   -1    0    0    0    0  0.00000000000E+00  0.00000000000E+00  0.14999999963E+04  0.15000000000E+04  0.10566000000E+00 0. -1.
        994   -1    0    0    0    0 -0.00000000000E+00 -0.00000000000E+00  0.11368683772E-12  0.17120000000E+03  0.17120000000E+03 0.  0.
         13    1    1    2    0    0 -0.74794668044E+02  0.18136422137E+01  0.17928145467E+03  0.19426626783E+03  0.10566000000E+00 0. -1.
        994    1    1    2    0    0  0.70364190758E+02  0.16803627283E+02  0.32673101409E+02  0.18870732044E+03  0.17120000000E+03 0.  0.
        998    1    1    2    0    0  0.44304772866E+01 -0.18617269497E+02  0.12880454402E+04  0.12882264117E+04  0.10000000000E+02 0. -1.
</event>
<event>
 5    1  0.1556794E-008  0.3863556E+03  0.7957747E-01  0.3423943E+00
         13   -1    0    0    0    0  0.00000000000E+00  0.00000000000E+00  0.14999999963E+04  0.15000000000E+04  0.10566000000E+00 0. -1.
        994   -1    0    0    0    0 -0.00000000000E+00 -0.00000000000E+00  0.11368683772E-12  0.17120000000E+03  0.17120000000E+03 0.  0.
         13    1    1    2    0    0  0.19496845343E+01 -0.10639731612E+02  0.58197783032E+02  0.59194579755E+02  0.10566000000E+00 0. -1.
        994    1    1    2    0    0 -0.28245231634E+01  0.15608716725E+02  0.17828682830E+01  0.17194251536E+03  0.17120000000E+03 0.  0.
        998    1    1    2    0    0  0.87483862911E+00 -0.49689851127E+01  0.14400193450E+04  0.14400629049E+04  0.10000000000E+02 0. -1.
</event>
<event>
 5    1  0.1556794E-008  0.3793257E+03  0.7957747E-01  0.3454100E+00
         13   -1    0    0    0    0  0.00000000000E+00  0.00000000000E+00  0.14999999963E+04  0.15000000000E+04  0.10566000000E+00 0. -1.
        994   -1    0    0    0    0 -0.00000000000E+00 -0.00000000000E+00  0.11368683772E-12  0.17120000000E+03  0.17120000000E+03 0.  0.
         13    1    1    2    0    0 -0.25436258029E+02 -0.44407162706E+01  0.68838590024E+02  0.73522009114E+02  0.10566000000E+00 0. -1.
        994    1    1    2    0    0  0.29726645788E+02  0.40743694920E+01  0.74960348164E+01  0.17397098751E+03  0.17120000000E+03 0.  0.
        998    1    1    2    0    0 -0.42903877589E+01  0.36634677860E+00  0.14236653714E+04  0.14237070034E+04  0.10000000000E+02 0. -1.
</event>
<event>
 5    1  0.1556794E-008  0.3704001E+03  0.7957747E-01  0.3494054E+00
         13   -1    0    0    0    0  0.00000000000E+00  0.00000000000E+00  0.14999999963E+04  0.15000000000E+04  0.10566000000E+00 0. -1.
        994   -1    0    0    0    0 -0.00000000000E+00 -0.00000000000E+00  0.11368683772E-12  0.17120000000E+03  0.17120000000E+03 0.  0.
         13    1    1    2    0    0 -0.46857252755E+02  0.44160220486E+02  0.19396873341E+03  0.20437614321E+03  0.10566000000E+00 0. -1.
        994    1    1    2    0    0  0.12088229083E+02 -0.24721906989E+02  0.13806292818E+02  0.17394640464E+03  0.17120000000E+03 0.  0.
        998    1    1    2    0    0  0.34769023672E+02 -0.19438313496E+02  0.12922249701E+04  0.12928774521E+04  0.10000000000E+02 0. -1.
</event>
<event>
 5    1  0.1556794E-008  0.3847735E+03  0.7957747E-01  0.3430634E+00
         13   -1    0    0    0    0  0.00000000000E+00  0.00000000000E+00  0.14999999963E+04  0.15000000000E+04  0.10566000000E+00 0. -1.
        994   -1    0    0    0    0 -0.00000000000E+00 -0.00000000000E+00  0.11368683772E-12  0.17120000000E+03  0.17120000000E+03 0.  0.
         13    1    1    2    0    0 -0.19223662709E+01  0.19704449294E+02  0.11332831577E+03  0.11504468320E+03  0.10566000000E+00 0. -1.
        994    1    1    2    0    0  0.11510737214E+02 -0.10546044095E+02  0.25451482439E+01  0.17192915371E+03  0.17120000000E+03 0.  0.
        998    1    1    2    0    0 -0.95883709429E+01 -0.91584051986E+01  0.13841265323E+04  0.13842261631E+04  0.10000000000E+02 0. -1.
</event>
<event>
 5    1  0.1556794E-008  0.3708398E+03  0.7957747E-01  0.3492040E+00
         13   -1    0    0    0    0  0.00000000000E+00  0.00000000000E+00  0.14999999963E+04  0.15000000000E+04  0.10566000000E+00 0.  1.
        994   -1    0    0    0    0 -0.00000000000E+00 -0.00000000000E+00  0.11368683772E-12  0.17120000000E+03  0.17120000000E+03 0.  0.
         13    1    1    2    0    0  0.40166980815E+02 -0.72726167461E+02  0.41738896127E+03  0.42557729960E+03  0.10566000000E+00 0.  1.
        994    1    1    2    0    0 -0.24456027284E+02 -0.58352038368E+01  0.13603216171E+02  0.17357025772E+03  0.17120000000E+03 0.  0.
        998    1    1    2    0    0 -0.15710953531E+02  0.78561371298E+02  0.10690078188E+04  0.10720524427E+04  0.10000000000E+02 0.  1.
</event>
<event>
 5    1  0.1556794E-008  0.3897613E+03  0.7957747E-01  0.3409727E+00
         13   -1    0    0    0    0  0.00000000000E+00  0.00000000000E+00  0.14999999963E+04  0.15000000000E+04  0.10566000000E+00 0.  1.
        994   -1    0    0    0    0 -0.00000000000E+00 -0.00000000000E+00  0.11368683772E-12  0.17120000000E+03  0.17120000000E+03 0.  0.
         13    1    1    2    0    0  0.32064710480E+02  0.68169784926E+02  0.12269682693E+03  0.14397842803E+03  0.10566000000E+00 0.  1.
        994    1    1    2    0    0 -0.24119015198E+02 -0.47227074235E+02  0.32442892130E+02  0.18213759822E+03  0.17120000000E+03 0.  0.
        998    1    1    2    0    0 -0.79456952818E+01 -0.20942710692E+02  0.13448602772E+04  0.13450839738E+04  0.10000000000E+02 0.  1.
</event>
<event>
 5    1  0.1556794E-008  0.3834144E+03  0.7957747E-01  0.3436425E+00
         13   -1    0    0    0    0  0.00000000000E+00  0.00000000000E+00  0.14999999963E+04  0.15000000000E+04  0.10566000000E+00 0.  1.
        994   -1    0    0    0    0 -0.00000000000E+00 -0.00000000000E+00  0.11368683772E-12  0.17120000000E+03  0.17120000000E+03 0.  0.
         13    1    1    2    0    0  0.99466878203E+01  0.19327929492E+02  0.92679634784E+02  0.95194702189E+02  0.10566000000E+00 0.  1.
        994    1    1    2    0    0 -0.12197852715E+02 -0.17283283832E+02  0.39000661913E+01  0.17254608088E+03  0.17120000000E+03 0.  0.
        998    1    1    2    0    0  0.22511648950E+01 -0.20446456600E+01  0.14034202953E+04  0.14034592169E+04  0.10000000000E+02 0.  1.
</event>
<event>
 5    1  0.1556794E-008  0.3859271E+03  0.7957747E-01  0.3425750E+00
         13   -1    0    0    0    0  0.00000000000E+00  0.00000000000E+00  0.14999999963E+04  0.15000000000E+04  0.10566000000E+00 0.  1.
        994   -1    0    0    0    0 -0.00000000000E+00 -0.00000000000E+00  0.11368683772E-12  0.17120000000E+03  0.17120000000E+03 0.  0.
         13    1    1    2    0    0 -0.94765941650E+01 -0.92352458710E+01  0.74631175718E+02  0.75795244946E+02  0.10566000000E+00 0.  1.
        994    1    1    2    0    0  0.18559036073E+00  0.14837237916E+02  0.18927973031E+01  0.17185226433E+03  0.17120000000E+03 0.  0.
        998    1    1    2    0    0  0.92910038043E+01 -0.56019920451E+01  0.14234760233E+04  0.14235524907E+04  0.10000000000E+02 0.  1.
</event>
<event>
 5    1  0.1556794E-008  0.3791904E+03  0.7957747E-01  0.3454691E+00
         13   -1    0    0    0    0  0.00000000000E+00  0.00000000000E+00  0.14999999963E+04  0.15000000000E+04  0.10566000000E+00 0. -1.
        994   -1    0    0    0    0 -0.00000000000E+00 -0.00000000000E+00  0.11368683772E-12  0.17120000000E+03  0.17120000000E+03 0.  0.
         13    1    1    2    0    0 -0.14632852545E+02 -0.13904775088E+02  0.41944591861E+02  0.46549147084E+02  0.10566000000E+00 0. -1.
        994    1    1    2    0    0  0.15965143194E+02  0.14261515231E+02  0.60799693728E+01  0.17264032739E+03  0.17120000000E+03 0.  0.
        998    1    1    2    0    0 -0.13322906486E+01 -0.35674014287E+00  0.14519754350E+04  0.14520105255E+04  0.10000000000E+02 0. -1.
</event>
<event>
 5    1  0.1556794E-008  0.3787814E+03  0.7957747E-01  0.3456482E+00
         13   -1    0    0    0    0  0.00000000000E+00  0.00000000000E+00  0.14999999963E+04  0.15000000000E+04  0.10566000000E+00 0.  1.
        994   -1    0    0    0    0 -0.00000000000E+00 -0.00000000000E+00  0.11368683772E-12  0.17120000000E+03  0.17120000000E+03 0.  0.
         13    1    1    2    0    0  0.12865595052E+03  0.21221498666E+02  0.38991737924E+03  0.41114265093E+03  0.10566000000E+00 0.  1.
        994    1    1    2    0    0 -0.12655643758E+03 -0.19512028663E+02  0.77472746088E+02  0.22739550906E+03  0.17120000000E+03 0.  0.
        998    1    1    2    0    0 -0.20995129416E+01 -0.17094700028E+01  0.10326098709E+04  0.10326618400E+04  0.10000000000E+02 0.  0.
</event>
<event>
 5    1  0.1556794E-008  0.3814183E+03  0.7957747E-01  0.3445006E+00
         13   -1    0    0    0    0  0.00000000000E+00  0.00000000000E+00  0.14999999963E+04  0.15000000000E+04  0.10566000000E+00 0. -1.
        994   -1    0    0    0    0 -0.00000000000E+00 -0.00000000000E+00  0.11368683772E-12  0.17120000000E+03  0.17120000000E+03 0.  0.
         13    1    1    2    0    0  0.67117490087E+01  0.10008700733E+02  0.19648397106E+02  0.23049779565E+02  0.10566000000E+00 0. -1.
        994    1    1    2    0    0 -0.59026639941E+01 -0.10691468335E+02  0.39153211458E+01  0.17167969792E+03  0.17120000000E+03 0.  0.
        998    1    1    2    0    0 -0.80908501455E+00  0.68276760207E+00  0.14764362780E+04  0.14764705225E+04  0.10000000000E+02 0. -1.
</event>
<event>
 5    1  0.1556794E-008  0.3760152E+03  0.7957747E-01  0.3468695E+00
         13   -1    0    0    0    0  0.00000000000E+00  0.00000000000E+00  0.14999999963E+04  0.15000000000E+04  0.10566000000E+00 0.  1.
        994   -1    0    0    0    0 -0.00000000000E+00 -0.00000000000E+00  0.11368683772E-12  0.17120000000E+03  0.17120000000E+03 0.  0.
         13    1    1    2    0    0  0.11168415208E+03 -0.18330966251E+02  0.33130379072E+03  0.35010225229E+03  0.10566000000E+00 0.  1.
        994    1    1    2    0    0 -0.11787833175E+03  0.10718581297E+02  0.66050128555E+02  0.21836265377E+03  0.17120000000E+03 0.  0.
        998    1    1    2    0    0  0.61941796742E+01  0.76123849533E+01  0.11026460770E+04  0.11027350939E+04  0.10000000000E+02 0.  1.
</event>
<event>
 5    1  0.1556794E-008  0.3794973E+03  0.7957747E-01  0.3453350E+00
         13   -1    0    0    0    0  0.00000000000E+00  0.00000000000E+00  0.14999999963E+04  0.15000000000E+04  0.10566000000E+00 0.  1.
        994   -1    0    0    0    0 -0.00000000000E+00 -0.00000000000E+00  0.11368683772E-12  0.17120000000E+03  0.17120000000E+03 0.  0.
         13    1    1    2    0    0 -0.83800676097E+00 -0.44035381792E+02  0.20539602411E+03  0.21006512083E+03  0.10566000000E+00 0.  1.
        994    1    1    2    0    0  0.40872007744E+01  0.34544229406E+02  0.84494703381E+01  0.17490238004E+03  0.17120000000E+03 0.  0.
        998    1    1    2    0    0 -0.32491940134E+01  0.94911523860E+01  0.12861545018E+04  0.12862324991E+04  0.10000000000E+02 0.  0.
</event>
<event>
 5    1  0.1556794E-008  0.3780829E+03  0.7957747E-01  0.3459549E+00
         13   -1    0    0    0    0  0.00000000000E+00  0.00000000000E+00  0.14999999963E+04  0.15000000000E+04  0.10566000000E+00 0.  1.
        994   -1    0    0    0    0 -0.00000000000E+00 -0.00000000000E+00  0.11368683772E-12  0.17120000000E+03  0.17120000000E+03 0.  0.
         13    1    1    2    0    0  0.47317658117E+02 -0.22546046207E+02  0.23072867286E+03  0.23660730464E+03  0.10566000000E+00 0.  1.
        994    1    1    2    0    0 -0.51035976985E+02  0.11243229162E+02  0.14347636174E+02  0.17957275911E+03  0.17120000000E+03 0.  0.
        998    1    1    2    0    0  0.37183188683E+01  0.11302817045E+02  0.12549236872E+04  0.12550199363E+04  0.10000000000E+02 0.  1.
</event>
<event>
 5    1  0.1556794E-008  0.3820410E+03  0.7957747E-01  0.3442319E+00
         13   -1    0    0    0    0  0.00000000000E+00  0.00000000000E+00  0.14999999963E+04  0.15000000000E+04  0.10566000000E+00 0.  1.
        994   -1    0    0    0    0 -0.00000000000E+00 -0.00000000000E+00  0.11368683772E-12  0.17120000000E+03  0.17120000000E+03 0.  0.
         13    1    1    2    0    0  0.33941010615E+02 -0.30692298740E+02  0.27141171364E+03  0.27524232754E+03  0.10566000000E+00 0.  1.
        994    1    1    2    0    0 -0.40047180333E+02  0.27782848628E+02  0.11035300286E+02  0.17834483784E+03  0.17120000000E+03 0.  0.
        998    1    1    2    0    0  0.61061697186E+01  0.29094501117E+01  0.12175529824E+04  0.12176128346E+04  0.10000000000E+02 0.  1.
</event>
<event>
 5    1  0.1556794E-008  0.3809646E+03  0.7957747E-01  0.3446969E+00
         13   -1    0    0    0    0  0.00000000000E+00  0.00000000000E+00  0.14999999963E+04  0.15000000000E+04  0.10566000000E+00 0. -1.
        994   -1    0    0    0    0 -0.00000000000E+00 -0.00000000000E+00  0.11368683772E-12  0.17120000000E+03  0.17120000000E+03 0.  0.
         13    1    1    2    0    0 -0.50174895609E+01 -0.43096611545E+02  0.23982018019E+03  0.24371340365E+03  0.10566000000E+00 0. -1.
        994    1    1    2    0    0 -0.42209993447E+01  0.33683378174E+02  0.74966582970E+01  0.17469409459E+03  0.17120000000E+03 0.  0.
        998    1    1    2    0    0  0.92384889057E+01  0.94132333705E+01  0.12526831578E+04  0.12527925018E+04  0.10000000000E+02 0.  0.
</event>
<event>
 5    1  0.1556794E-008  0.3845118E+03  0.7957747E-01  0.3431745E+00
         13   -1    0    0    0    0  0.00000000000E+00  0.00000000000E+00  0.14999999963E+04  0.15000000000E+04  0.10566000000E+00 0. -1.
        994   -1    0    0    0    0 -0.00000000000E+00 -0.00000000000E+00  0.11368683772E-12  0.17120000000E+03  0.17120000000E+03 0.  0.
         13    1    1    2    0    0  0.14226165840E+02 -0.12442094445E+02  0.91296508785E+02  0.93232254017E+02  0.10566000000E+00 0. -1.
        994    1    1    2    0    0 -0.65604003449E+01  0.20053873463E+02  0.33405044029E+01  0.17252766637E+03  0.17120000000E+03 0.  0.
        998    1    1    2    0    0 -0.76657654948E+01 -0.76117790189E+01  0.14053629831E+04  0.14054400796E+04  0.10000000000E+02 0. -1.
</event>
<event>
 5    1  0.1556794E-008  0.3844309E+03  0.7957747E-01  0.3432089E+00
         13   -1    0    0    0    0  0.00000000000E+00  0.00000000000E+00  0.14999999963E+04  0.15000000000E+04  0.10566000000E+00 0.  1.
        994   -1    0    0    0    0 -0.00000000000E+00 -0.00000000000E+00  0.11368683772E-12  0.17120000000E+03  0.17120000000E+03 0.  0.
         13    1    1    2    0    0 -0.19100861979E+02  0.60242394856E+00  0.96397182164E+02  0.98273260534E+02  0.10566000000E+00 0.  1.
        994    1    1    2    0    0  0.10559824737E+02  0.39550896393E+01  0.23319986720E+01  0.17158680267E+03  0.17120000000E+03 0.  0.
        998    1    1    2    0    0  0.85410372418E+01 -0.45575135878E+01  0.14012708154E+04  0.14013399368E+04  0.10000000000E+02 0.  1.
</event>
<event>
 5    1  0.1556794E-008  0.3847569E+03  0.7957747E-01  0.3430704E+00
         13   -1    0    0    0    0  0.00000000000E+00  0.00000000000E+00  0.14999999963E+04  0.15000000000E+04  0.10566000000E+00 0. -1.
        994   -1    0    0    0    0 -0.00000000000E+00 -0.00000000000E+00  0.11368683772E-12  0.17120000000E+03  0.17120000000E+03 0.  0.
         13    1    1    2    0    0 -0.10353609213E+02 -0.14829869014E+02  0.10037831326E+03  0.10199479975E+03  0.10566000000E+00 0. -1.
        994    1    1    2    0    0  0.40349288224E+01 -0.20954210539E+00  0.18046127522E+01  0.17125717849E+03  0.17120000000E+03 0.  0.
        998    1    1    2    0    0  0.63186803907E+01  0.15039411119E+02  0.13978170703E+04  0.13979480218E+04  0.10000000000E+02 0. -1.
</event>
<event>
 5    1  0.1556794E-008  0.3703269E+03  0.7957747E-01  0.3494390E+00
         13   -1    0    0    0    0  0.00000000000E+00  0.00000000000E+00  0.14999999963E+04  0.15000000000E+04  0.10566000000E+00 0.  1.
        994   -1    0    0    0    0 -0.00000000000E+00 -0.00000000000E+00  0.11368683772E-12  0.17120000000E+03  0.17120000000E+03 0.  0.
         13    1    1    2    0    0 -0.28491303190E+02  0.17736618346E+02  0.49921748027E+02  0.60154252368E+02  0.10566000000E+00 0.  1.
        994    1    1    2    0    0 -0.65117324677E+01 -0.28702370489E+01  0.11289051005E+02  0.17171931631E+03  0.17120000000E+03 0.  0.
        998    1    1    2    0    0  0.35003035658E+02 -0.14866381297E+02  0.14387891972E+04  0.14393264313E+04  0.10000000000E+02 0.  1.
</event>
<event>
 5    1  0.1556794E-008  0.3805284E+03  0.7957747E-01  0.3448861E+00
         13   -1    0    0    0    0  0.00000000000E+00  0.00000000000E+00  0.14999999963E+04  0.15000000000E+04  0.10566000000E+00 0. -1.
        994   -1    0    0    0    0 -0.00000000000E+00 -0.00000000000E+00  0.11368683772E-12  0.17120000000E+03  0.17120000000E+03 0.  0.
         13    1    1    2    0    0  0.71561128905E+01 -0.17509354682E+02  0.47508027749E+02  0.51135225801E+02  0.10566000000E+00 0. -1.
        994    1    1    2    0    0  0.33390572732E+01 -0.17579921457E+01  0.39141644063E+01  0.17128631155E+03  0.17120000000E+03 0.  0.
        998    1    1    2    0    0 -0.10495170164E+02  0.19267346827E+02  0.14485778041E+04  0.14487784627E+04  0.10000000000E+02 0. -1.
</event>
<event>
 5    1  0.1556794E-008  0.3787321E+03  0.7957747E-01  0.3456698E+00
         13   -1    0    0    0    0  0.00000000000E+00  0.00000000000E+00  0.14999999963E+04  0.15000000000E+04  0.10566000000E+00 0.  1.
        994   -1    0    0    0    0 -0.00000000000E+00 -0.00000000000E+00  0.11368683772E-12  0.17120000000E+03  0.17120000000E+03 0.  0.
         13    1    1    2    0    0 -0.25862889472E+02  0.30210025563E+02  0.15276029917E+03  0.15785200304E+03  0.10566000000E+00 0.  1.
        994    1    1    2    0    0  0.30910342484E+02 -0.20096178251E+02  0.93512515984E+01  0.17537443246E+03  0.17120000000E+03 0.  0.
        998    1    1    2    0    0 -0.50474530121E+01 -0.10113847312E+02  0.13378884455E+04  0.13379735645E+04  0.10000000000E+02 0.  1.
</event>
<event>
 5    1  0.1556794E-008  0.3801668E+03  0.7957747E-01  0.3450432E+00
         13   -1    0    0    0    0  0.00000000000E+00  0.00000000000E+00  0.14999999963E+04  0.15000000000E+04  0.10566000000E+00 0.  1.
        994   -1    0    0    0    0 -0.00000000000E+00 -0.00000000000E+00  0.11368683772E-12  0.17120000000E+03  0.17120000000E+03 0.  0.
         13    1    1    2    0    0 -0.30782325184E+02 -0.27326737110E+02  0.17668628048E+03  0.18141762588E+03  0.10566000000E+00 0.  1.
        994    1    1    2    0    0  0.32565273355E+02  0.35321119127E+02  0.11799251970E+02  0.17820421104E+03  0.17120000000E+03 0.  0.
        998    1    1    2    0    0 -0.17829481711E+01 -0.79943820169E+01  0.13115144638E+04  0.13115781631E+04  0.10000000000E+02 0.  1.
</event>
<event>
 5    1  0.1556794E-008  0.3797869E+03  0.7957747E-01  0.3452087E+00
         13   -1    0    0    0    0  0.00000000000E+00  0.00000000000E+00  0.14999999963E+04  0.15000000000E+04  0.10566000000E+00 0. -1.
        994   -1    0    0    0    0 -0.00000000000E+00 -0.00000000000E+00  0.11368683772E-12  0.17120000000E+03  0.17120000000E+03 0.  0.
         13    1    1    2    0    0  0.13843506540E+02 -0.17171261777E+01  0.21393920422E+02  0.25540207335E+02  0.10566000000E+00 0. -1.
        994    1    1    2    0    0 -0.44861804571E+01  0.13031767810E+02  0.48764325562E+01  0.17182308454E+03  0.17120000000E+03 0.  0.
        998    1    1    2    0    0 -0.93573260833E+01 -0.11314641633E+02  0.14737296433E+04  0.14738367081E+04  0.10000000000E+02 0. -1.
</event>
<event>
 5    1  0.1556794E-008  0.3699781E+03  0.7957747E-01  0.3495992E+00
         13   -1    0    0    0    0  0.00000000000E+00  0.00000000000E+00  0.14999999963E+04  0.15000000000E+04  0.10566000000E+00 0.  1.
        994   -1    0    0    0    0 -0.00000000000E+00 -0.00000000000E+00  0.11368683772E-12  0.17120000000E+03  0.17120000000E+03 0.  0.
         13    1    1    2    0    0  0.16776717990E+02  0.11931735528E+02  0.14466348662E+02  0.25161696820E+02  0.10566000000E+00 0.  1.
        994    1    1    2    0    0 -0.18100195563E+02 -0.98812507306E+01  0.12415178166E+02  0.17288387098E+03  0.17120000000E+03 0.  0.
        998    1    1    2    0    0  0.13234775735E+01 -0.20504847971E+01  0.14731184695E+04  0.14731544322E+04  0.10000000000E+02 0.  1.
</event>
<event>
 5    1  0.1556794E-008  0.3776701E+03  0.7957747E-01  0.3461366E+00
         13   -1    0    0    0    0  0.00000000000E+00  0.00000000000E+00  0.14999999963E+04  0.15000000000E+04  0.10566000000E+00 0. -1.
        994   -1    0    0    0    0 -0.00000000000E+00 -0.00000000000E+00  0.11368683772E-12  0.17120000000E+03  0.17120000000E+03 0.  0.
         13    1    1    2    0    0  0.14032475089E+02 -0.57365336764E+02  0.31919790494E+03  0.32461516585E+03  0.10566000000E+00 0. -1.
        994    1    1    2    0    0 -0.22332165251E+02  0.32125806440E+02  0.10488320991E+02  0.17592679705E+03  0.17120000000E+03 0.  0.
        998    1    1    2    0    0  0.82996901623E+01  0.25239530324E+02  0.11703137703E+04  0.11706580371E+04  0.10000000000E+02 0. -1.
</event>
<event>
 5    1  0.1556794E-008  0.3830142E+03  0.7957747E-01  0.3438138E+00
         13   -1    0    0    0    0  0.00000000000E+00  0.00000000000E+00  0.14999999963E+04  0.15000000000E+04  0.10566000000E+00 0. -1.
        994   -1    0    0    0    0 -0.00000000000E+00 -0.00000000000E+00  0.11368683772E-12  0.17120000000E+03  0.17120000000E+03 0.  0.
         13    1    1    2    0    0 -0.28156477517E+02  0.11104092580E+02  0.18289439895E+03  0.18538193124E+03  0.10566000000E+00 0. -1.
        994    1    1    2    0    0  0.10009500521E+02 -0.79538236630E+01  0.31604628037E+01  0.17170580053E+03  0.17120000000E+03 0.  0.
        998    1    1    2    0    0  0.18146976997E+02 -0.31502689169E+01  0.13139451345E+04  0.13141122682E+04  0.10000000000E+02 0. -1.
</event>
<event>
 5    1  0.1556794E-008  0.3785487E+03  0.7957747E-01  0.3457502E+00
         13   -1    0    0    0    0  0.00000000000E+00  0.00000000000E+00  0.14999999963E+04  0.15000000000E+04  0.10566000000E+00 0. -1.
        994   -1    0    0    0    0 -0.00000000000E+00 -0.00000000000E+00  0.11368683772E-12  0.17120000000E+03  0.17120000000E+03 0.  0.
         13    1    1    2    0    0  0.10094553930E+02  0.63285754142E+01  0.12281170144E+02  0.17111083834E+02  0.10566000000E+00 0. -1.
        994    1    1    2    0    0 -0.12000337094E+02 -0.70531840393E+01  0.55186187956E+01  0.17185357328E+03  0.17120000000E+03 0.  0.
        998    1    1    2    0    0  0.19057831632E+01  0.72460862517E+00  0.14822002073E+04  0.14822353429E+04  0.10000000000E+02 0. -1.
</event>
<event>
 5    1  0.1556794E-008  0.3854313E+03  0.7957747E-01  0.3427845E+00
         13   -1    0    0    0    0  0.00000000000E+00  0.00000000000E+00  0.14999999963E+04  0.15000000000E+04  0.10566000000E+00 0.  1.
        994   -1    0    0    0    0 -0.00000000000E+00 -0.00000000000E+00  0.11368683772E-12  0.17120000000E+03  0.17120000000E+03 0.  0.
         13    1    1    2    0    0 -0.12043986953E+02  0.10219995544E+01  0.51393198032E+02  0.52795587626E+02  0.10566000000E+00 0.  1.
        994    1    1    2    0    0  0.90291192727E+01 -0.40310718255E+01  0.17373317479E+01  0.17149411901E+03  0.17120000000E+03 0.  0.
        998    1    1    2    0    0  0.30148676799E+01  0.30090722711E+01  0.14468694665E+04  0.14469102934E+04  0.10000000000E+02 0.  1.
</event>
<event>
 5    1  0.1556794E-008  0.3818931E+03  0.7957747E-01  0.3442957E+00
         13   -1    0    0    0    0  0.00000000000E+00  0.00000000000E+00  0.14999999963E+04  0.15000000000E+04  0.10566000000E+00 0. -1.
        994   -1    0    0    0    0 -0.00000000000E+00 -0.00000000000E+00  0.11368683772E-12  0.17120000000E+03  0.17120000000E+03 0.  0.
         13    1    1    2    0    0  0.14274695039E+02 -0.35973932789E+02  0.22288866658E+03  0.22622391476E+03  0.10566000000E+00 0. -1.
        994    1    1    2    0    0 -0.38285956734E+01  0.28758039621E+02  0.59817696648E+01  0.17374378998E+03  0.17120000000E+03 0.  0.
        998    1    1    2    0    0 -0.10446099366E+02  0.72158931679E+01  0.12711295600E+04  0.12712322953E+04  0.10000000000E+02 0. -1.
</event>
<event>
 5    1  0.1556794E-008  0.3845515E+03  0.7957747E-01  0.3431577E+00
         13   -1    0    0    0    0  0.00000000000E+00  0.00000000000E+00  0.14999999963E+04  0.15000000000E+04  0.10566000000E+00 0.  1.
        994   -1    0    0    0    0 -0.00000000000E+00 -0.00000000000E+00  0.11368683772E-12  0.17120000000E+03  0.17120000000E+03 0.  0.
         13    1    1    2    0    0  0.85396302297E+01 -0.84242181862E+01  0.38438940679E+02  0.40267307596E+02  0.10566000000E+00 0.  1.
        994    1    1    2    0    0 -0.72950520435E+01  0.46172489643E+01  0.20985132814E+01  0.17143039558E+03  0.17120000000E+03 0.  0.
        998    1    1    2    0    0 -0.12445781862E+01  0.38069692220E+01  0.14594625423E+04  0.14595022968E+04  0.10000000000E+02 0.  1.
</event>
<event>
 5    1  0.1556794E-008  0.3838539E+03  0.7957747E-01  0.3434548E+00
         13   -1    0    0    0    0  0.00000000000E+00  0.00000000000E+00  0.14999999963E+04  0.15000000000E+04  0.10566000000E+00 0.  1.
        994   -1    0    0    0    0 -0.00000000000E+00 -0.00000000000E+00  0.11368683772E-12  0.17120000000E+03  0.17120000000E+03 0.  0.
         13    1    1    2    0    0  0.89344332548E+01  0.18095740957E+02  0.95662065784E+02  0.97767693706E+02  0.10566000000E+00 0.  1.
        994    1    1    2    0    0 -0.92524329544E+01 -0.33515162100E+01  0.25199721747E+01  0.17150110914E+03  0.17120000000E+03 0.  0.
        998    1    1    2    0    0  0.31799969951E+00 -0.14744224747E+02  0.14018179583E+04  0.14019311972E+04  0.10000000000E+02 0.  1.
</event>
<event>
 5    1  0.1556794E-008  0.4286798E+03  0.7957747E-01  0.3263213E+00
         13   -1    0    0    0    0  0.00000000000E+00  0.00000000000E+00  0.14999999963E+04  0.15000000000E+04  0.10566000000E+00 0.  1.
        994   -1    0    0    0    0 -0.00000000000E+00 -0.00000000000E+00  0.11368683772E-12  0.17120000000E+03  0.17120000000E+03 0.  0.
         13    1    1    2    0    0 -0.60184046253E+02  0.15531549200E+02  0.31427269972E+02  0.69649356823E+02  0.10566000000E+00 0.  1.
        994    1    1    2    0    0 -0.20432068780E+02 -0.26950838016E+02  0.51281615212E+02  0.18188749590E+03  0.17120000000E+03 0.  0.
        998    1    1    2    0    0  0.80616115034E+02  0.11419288816E+02  0.14172911111E+04  0.14196631473E+04  0.10000000000E+02 0.  1.
</event>
<event>
 5    1  0.1556794E-008  0.3845070E+03  0.7957747E-01  0.3431766E+00
         13   -1    0    0    0    0  0.00000000000E+00  0.00000000000E+00  0.14999999963E+04  0.15000000000E+04  0.10566000000E+00 0.  1.
        994   -1    0    0    0    0 -0.00000000000E+00 -0.00000000000E+00  0.11368683772E-12  0.17120000000E+03  0.17120000000E+03 0.  0.
         13    1    1    2    0    0  0.94707392923E+01  0.50241702718E+01  0.30253630283E+02  0.32097203913E+02  0.10566000000E+00 0.  1.
        994    1    1    2    0    0 -0.56130109089E+01 -0.46426833336E+01  0.20499129568E+01  0.17136715713E+03  0.17120000000E+03 0.  0.
        998    1    1    2    0    0 -0.38577283834E+01 -0.38148693823E+00  0.14676964530E+04  0.14677356390E+04  0.10000000000E+02 0.  1.
</event>
<event>
 5    1  0.1556794E-008  0.3796001E+03  0.7957747E-01  0.3452902E+00
         13   -1    0    0    0    0  0.00000000000E+00  0.00000000000E+00  0.14999999963E+04  0.15000000000E+04  0.10566000000E+00 0.  1.
        994   -1    0    0    0    0 -0.00000000000E+00 -0.00000000000E+00  0.11368683772E-12  0.17120000000E+03  0.17120000000E+03 0.  0.
         13    1    1    2    0    0  0.59392276093E+02 -0.52267088128E+01  0.12175778912E+03  0.13557186773E+03  0.10566000000E+00 0.  1.
        994    1    1    2    0    0 -0.10457196038E+00 -0.52423550236E+02  0.26119127053E+02  0.18094167113E+03  0.17120000000E+03 0.  0.
        998    1    1    2    0    0 -0.59287704133E+02  0.57650259048E+02  0.13521230801E+04  0.13546864611E+04  0.10000000000E+02 0.  1.
</event>
<event>
 5    1  0.1556794E-008  0.3730884E+03  0.7957747E-01  0.3481816E+00
         13   -1    0    0    0    0  0.00000000000E+00  0.00000000000E+00  0.14999999963E+04  0.15000000000E+04  0.10566000000E+00 0.  1.
        994   -1    0    0    0    0 -0.00000000000E+00 -0.00000000000E+00  0.11368683772E-12  0.17120000000E+03  0.17120000000E+03 0.  0.
         13    1    1    2    0    0 -0.24809419619E+02 -0.40988070854E+02  0.18713316131E+03  0.19316925346E+03  0.10566000000E+00 0.  1.
        994    1    1    2    0    0 -0.14697623884E+02 -0.79548937611E+01  0.86197846964E+01  0.17222961758E+03  0.17120000000E+03 0.  0.
        998    1    1    2    0    0  0.39507043503E+02  0.48942964615E+02  0.13042470503E+04  0.13058011290E+04  0.10000000000E+02 0.  1.
</event>
<event>
 5    1  0.1556794E-008  0.3858870E+03  0.7957747E-01  0.3425919E+00
         13   -1    0    0    0    0  0.00000000000E+00  0.00000000000E+00  0.14999999963E+04  0.15000000000E+04  0.10566000000E+00 0.  1.
        994   -1    0    0    0    0 -0.00000000000E+00 -0.00000000000E+00  0.11368683772E-12  0.17120000000E+03  0.17120000000E+03 0.  0.
         13    1    1    2    0    0 -0.26728146474E+01 -0.12670231985E+02  0.76055255806E+02  0.77149801143E+02  0.10566000000E+00 0.  1.
        994    1    1    2    0    0 -0.32022966902E+01  0.96067074183E+00  0.12270384397E+01  0.17123703810E+03  0.17120000000E+03 0.  0.
        998    1    1    2    0    0  0.58751113376E+01  0.11709561243E+02  0.14227177020E+04  0.14228131608E+04  0.10000000000E+02 0.  1.
</event>
<event>
 5    1  0.1556794E-008  0.3858319E+03  0.7957747E-01  0.3426152E+00
         13   -1    0    0    0    0  0.00000000000E+00  0.00000000000E+00  0.14999999963E+04  0.15000000000E+04  0.10566000000E+00 0.  1.
        994   -1    0    0    0    0 -0.00000000000E+00 -0.00000000000E+00  0.11368683772E-12  0.17120000000E+03  0.17120000000E+03 0.  0.
         13    1    1    2    0    0 -0.10145378461E+02  0.76374957735E+00  0.47290335932E+02  0.48372503079E+02  0.10566000000E+00 0.  1.
        994    1    1    2    0    0 -0.84986971148E+01  0.19486951670E+01  0.14670733100E+01  0.17142817029E+03  0.17120000000E+03 0.  0.
        998    1    1    2    0    0  0.18644075576E+02 -0.27124447443E+01  0.14512425870E+04  0.14513993266E+04  0.10000000000E+02 0.  1.
</event>
<event>
 5    1  0.1556794E-008  0.3846193E+03  0.7957747E-01  0.3431288E+00
         13   -1    0    0    0    0  0.00000000000E+00  0.00000000000E+00  0.14999999963E+04  0.15000000000E+04  0.10566000000E+00 0. -1.
        994   -1    0    0    0    0 -0.00000000000E+00 -0.00000000000E+00  0.11368683772E-12  0.17120000000E+03  0.17120000000E+03 0.  0.
         13    1    1    2    0    0 -0.18802516763E+01 -0.17136704473E+02  0.77843542424E+02  0.79729732520E+02  0.10566000000E+00 0. -1.
        994    1    1    2    0    0  0.45959869461E+01  0.17844354510E+02  0.29380591242E+01  0.17221386784E+03  0.17120000000E+03 0.  0.
        998    1    1    2    0    0 -0.27157352698E+01 -0.70765003675E+00  0.14192183947E+04  0.14192563996E+04  0.10000000000E+02 0.  0.
</event>
<event>
 5    1  0.1556794E-008  0.3730113E+03  0.7957747E-01  0.3482165E+00
         13   -1    0    0    0    0  0.00000000000E+00  0.00000000000E+00  0.14999999963E+04  0.15000000000E+04  0.10566000000E+00 0.  1.
        994   -1    0    0    0    0 -0.00000000000E+00 -0.00000000000E+00  0.11368683772E-12  0.17120000000E+03  0.17120000000E+03 0.  0.
         13    1    1    2    0    0 -0.22151520740E+02  0.99817172877E+01  0.34405645394E+02  0.42119878325E+02  0.10566000000E+00 0.  1.
        994    1    1    2    0    0  0.24241313060E+02 -0.69039013953E+01  0.98806880708E+01  0.17332735823E+03  0.17120000000E+03 0.  0.
        998    1    1    2    0    0 -0.20897923199E+01 -0.30778158924E+01  0.14557136628E+04  0.14557527634E+04  0.10000000000E+02 0.  1.
</event>
<event>
 5    1  0.1556794E-008  0.3830615E+03  0.7957747E-01  0.3437935E+00
         13   -1    0    0    0    0  0.00000000000E+00  0.00000000000E+00  0.14999999963E+04  0.15000000000E+04  0.10566000000E+00 0. -1.
        994   -1    0    0    0    0 -0.00000000000E+00 -0.00000000000E+00  0.11368683772E-12  0.17120000000E+03  0.17120000000E+03 0.  0.
         13    1    1    2    0    0  0.11994585882E+02  0.99444382065E+01  0.46425114490E+02  0.48970035339E+02  0.10566000000E+00 0. -1.
        994    1    1    2    0    0 -0.90843232768E+01 -0.18211645209E+01  0.28797499299E+01  0.17147470522E+03  0.17120000000E+03 0.  0.
        998    1    1    2    0    0 -0.29102626051E+01 -0.81232736856E+01  0.14506951319E+04  0.14507552594E+04  0.10000000000E+02 0. -1.
</event>
<event>
 5    1  0.1556794E-008  0.3828669E+03  0.7957747E-01  0.3438769E+00
         13   -1    0    0    0    0  0.00000000000E+00  0.00000000000E+00  0.14999999963E+04  0.15000000000E+04  0.10566000000E+00 0.  1.
        994   -1    0    0    0    0 -0.00000000000E+00 -0.00000000000E+00  0.11368683772E-12  0.17120000000E+03  0.17120000000E+03 0.  0.
         13    1    1    2    0    0 -0.20008555935E+02 -0.48902684340E+01  0.82631949432E+02  0.85160479490E+02  0.10566000000E+00 0.  1.
        994    1    1    2    0    0  0.64786829961E+01 -0.13398907187E+02  0.34267500440E+01  0.17187986113E+03  0.17120000000E+03 0.  0.
        998    1    1    2    0    0  0.13529872938E+02  0.18289175621E+02  0.14139412968E+04  0.14141596594E+04  0.10000000000E+02 0.  1.
</event>
<event>
 5    1  0.1556794E-008  0.3746504E+03  0.7957747E-01  0.3474788E+00
         13   -1    0    0    0    0  0.00000000000E+00  0.00000000000E+00  0.14999999963E+04  0.15000000000E+04  0.10566000000E+00 0.  1.
        994   -1    0    0    0    0 -0.00000000000E+00 -0.00000000000E+00  0.11368683772E-12  0.17120000000E+03  0.17120000000E+03 0.  0.
         13    1    1    2    0    0 -0.53669007823E+02  0.30969610904E+02  0.24401309031E+03  0.25175757904E+03  0.10566000000E+00 0.  1.
        994    1    1    2    0    0  0.41238955203E+02 -0.39992831769E+02  0.18173394129E+02  0.18149322377E+03  0.17120000000E+03 0.  0.
        998    1    1    2    0    0  0.12430052620E+02  0.90232208652E+01  0.12378135118E+04  0.12379491972E+04  0.10000000000E+02 0.  1.
</event>
<event>
 5    1  0.1556794E-008  0.3846833E+03  0.7957747E-01  0.3431017E+00
         13   -1    0    0    0    0  0.00000000000E+00  0.00000000000E+00  0.14999999963E+04  0.15000000000E+04  0.10566000000E+00 0. -1.
        994   -1    0    0    0    0 -0.00000000000E+00 -0.00000000000E+00  0.11368683772E-12  0.17120000000E+03  0.17120000000E+03 0.  0.
         13    1    1    2    0    0  0.94243716221E+01  0.19840890480E+02  0.12174720228E+03  0.12371286167E+03  0.10566000000E+00 0. -1.
        994    1    1    2    0    0 -0.14985019716E+02 -0.21814894414E+02  0.40967447292E+01  0.17328203528E+03  0.17120000000E+03 0.  0.
        998    1    1    2    0    0  0.55606480941E+01  0.19740039338E+01  0.13741560493E+04  0.13742051031E+04  0.10000000000E+02 0. -1.
</event>
<event>
 5    1  0.1556794E-008  0.3826821E+03  0.7957747E-01  0.3439563E+00
         13   -1    0    0    0    0  0.00000000000E+00  0.00000000000E+00  0.14999999963E+04  0.15000000000E+04  0.10566000000E+00 0. -1.
        994   -1    0    0    0    0 -0.00000000000E+00 -0.00000000000E+00  0.11368683772E-12  0.17120000000E+03  0.17120000000E+03 0.  0.
         13    1    1    2    0    0  0.56588151934E+01  0.20603946527E+02  0.89528255073E+02  0.92042731502E+02  0.10566000000E+00 0. -1.
        994    1    1    2    0    0  0.17687324599E+01  0.29540529066E+01  0.28246109709E+01  0.17125791447E+03  0.17120000000E+03 0.  0.
        998    1    1    2    0    0 -0.74275476533E+01 -0.23557999434E+02  0.14076471302E+04  0.14078993540E+04  0.10000000000E+02 0. -1.
</event>
<event>
 5    1  0.1665894E-008  0.3858622E+03  0.7957747E-01  0.3426024E+00
         13   -1    0    0    0    0  0.00000000000E+00  0.00000000000E+00  0.14999999963E+04  0.15000000000E+04  0.10566000000E+00 0. -1.
        994   -1    0    0    0    0 -0.00000000000E+00 -0.00000000000E+00  0.11368683772E-12  0.17120000000E+03  0.17120000000E+03 0.  0.
         13    1    1    2    0    0  0.81243809751E+01 -0.77751019111E+01  0.50858056077E+02  0.52086570322E+02  0.10566000000E+00 0. -1.
        994    1    1    2    0    0 -0.10781202590E+02  0.92478042058E+01  0.18645951662E+01  0.17179834961E+03  0.17120000000E+03 0.  0.
        998    1    1    2    0    0  0.26568216149E+01 -0.14727022947E+01  0.14472773450E+04  0.14473150801E+04  0.10000000000E+02 0. -1.
</event>
<event>
 5    1  0.1556794E-008  0.3858407E+03  0.7957747E-01  0.3426115E+00
         13   -1    0    0    0    0  0.00000000000E+00  0.00000000000E+00  0.14999999963E+04  0.15000000000E+04  0.10566000000E+00 0.  1.
        994   -1    0    0    0    0 -0.00000000000E+00 -0.00000000000E+00  0.11368683772E-12  0.17120000000E+03  0.17120000000E+03 0.  0.
         13    1    1    2    0    0  0.36266345826E+01  0.13243284022E+02  0.80935082464E+02  0.82091630435E+02  0.10566000000E+00 0.  1.
        994    1    1    2    0    0 -0.17895306818E+02 -0.94988603707E+00  0.22673083119E+01  0.17215029764E+03  0.17120000000E+03 0.  0.
        998    1    1    2    0    0  0.14268672235E+02 -0.12293397985E+02  0.14167976055E+04  0.14169580719E+04  0.10000000000E+02 0.  1.
</event>
<event>
 5    1  0.1556794E-008  0.3859613E+03  0.7957747E-01  0.3425606E+00
         13   -1    0    0    0    0  0.00000000000E+00  0.00000000000E+00  0.14999999963E+04  0.15000000000E+04  0.10566000000E+00 0.  1.
        994   -1    0    0    0    0 -0.00000000000E+00 -0.00000000000E+00  0.11368683772E-12  0.17120000000E+03  0.17120000000E+03 0.  0.
         13    1    1    2    0    0 -0.10758631593E+02 -0.81935007761E+01  0.78404279438E+02  0.79562075180E+02  0.10566000000E+00 0.  1.
        994    1    1    2    0    0  0.17568918188E+02 -0.35138827949E+01  0.22067685610E+01  0.17214913327E+03  0.17120000000E+03 0.  0.
        998    1    1    2    0    0 -0.68102865951E+01  0.11707383571E+02  0.14193889483E+04  0.14194887915E+04  0.10000000000E+02 0.  1.
</event>
<event>
 5    1  0.1556794E-008  0.3787228E+03  0.7957747E-01  0.3456738E+00
         13   -1    0    0    0    0  0.00000000000E+00  0.00000000000E+00  0.14999999963E+04  0.15000000000E+04  0.10566000000E+00 0. -1.
        994   -1    0    0    0    0 -0.00000000000E+00 -0.00000000000E+00  0.11368683772E-12  0.17120000000E+03  0.17120000000E+03 0.  0.
         13    1    1    2    0    0  0.12642988851E+02 -0.23853369188E+02  0.80732336024E+02  0.85126668164E+02  0.10566000000E+00 0. -1.
        994    1    1    2    0    0 -0.27050115459E+01 -0.29230687130E+01  0.48324937982E+01  0.17131448980E+03  0.17120000000E+03 0.  0.
        998    1    1    2    0    0 -0.99379773051E+01  0.26776437901E+02  0.14144351665E+04  0.14147588420E+04  0.10000000000E+02 0. -1.
</event>
<event>
 5    1  0.1556794E-008  0.3722162E+03  0.7957747E-01  0.3485767E+00
         13   -1    0    0    0    0  0.00000000000E+00  0.00000000000E+00  0.14999999963E+04  0.15000000000E+04  0.10566000000E+00 0.  1.
        994   -1    0    0    0    0 -0.00000000000E+00 -0.00000000000E+00  0.11368683772E-12  0.17120000000E+03  0.17120000000E+03 0.  0.
         13    1    1    2    0    0  0.12733902612E+02  0.68749502999E+01  0.30958833228E+01  0.14799083584E+02  0.10566000000E+00 0.  1.
        994    1    1    2    0    0 -0.10735832025E+02 -0.52845583525E+01  0.12620143514E+02  0.17208106424E+03  0.17120000000E+03 0.  0.
        998    1    1    2    0    0 -0.19980705865E+01 -0.15903919473E+01  0.14842839694E+04  0.14843198522E+04  0.10000000000E+02 0.  1.
</event>
<event>
 5    1  0.1556794E-008  0.3845339E+03  0.7957747E-01  0.3431651E+00
         13   -1    0    0    0    0  0.00000000000E+00  0.00000000000E+00  0.14999999963E+04  0.15000000000E+04  0.10566000000E+00 0. -1.
        994   -1    0    0    0    0 -0.00000000000E+00 -0.00000000000E+00  0.11368683772E-12  0.17120000000E+03  0.17120000000E+03 0.  0.
         13    1    1    2    0    0  0.75568362616E+01 -0.69158378185E+01  0.27721970797E+02  0.29554245311E+02  0.10566000000E+00 0. -1.
        994    1    1    2    0    0 -0.50287193093E+01  0.52457603263E+01  0.20356452793E+01  0.17136624484E+03  0.17120000000E+03 0.  0.
        998    1    1    2    0    0 -0.25281169523E+01  0.16700774922E+01  0.14702423802E+04  0.14702795098E+04  0.10000000000E+02 0. -1.
</event>
<event>
 5    1  0.1556794E-008  0.3854105E+03  0.7957747E-01  0.3427933E+00
         13   -1    0    0    0    0  0.00000000000E+00  0.00000000000E+00  0.14999999963E+04  0.15000000000E+04  0.10566000000E+00 0. -1.
        994   -1    0    0    0    0 -0.00000000000E+00 -0.00000000000E+00  0.11368683772E-12  0.17120000000E+03  0.17120000000E+03 0.  0.
         13    1    1    2    0    0 -0.15508336895E+02  0.49255255378E+01  0.88811204411E+02  0.90289592468E+02  0.10566000000E+00 0. -1.
        994    1    1    2    0    0  0.12971696200E+02 -0.14737866626E+02  0.26935039681E+01  0.17234315936E+03  0.17120000000E+03 0.  0.
        998    1    1    2    0    0  0.25366406950E+01  0.98123410883E+01  0.14084952879E+04  0.14085672482E+04  0.10000000000E+02 0. -1.
</event>
<event>
 5    1  0.1556794E-008  0.3698766E+03  0.7957747E-01  0.3496458E+00
         13   -1    0    0    0    0  0.00000000000E+00  0.00000000000E+00  0.14999999963E+04  0.15000000000E+04  0.10566000000E+00 0. -1.
        994   -1    0    0    0    0 -0.00000000000E+00 -0.00000000000E+00  0.11368683772E-12  0.17120000000E+03  0.17120000000E+03 0.  0.
         13    1    1    2    0    0 -0.33432985667E+02  0.16405279612E+02  0.67385516798E+02  0.76991666873E+02  0.10566000000E+00 0. -1.
        994    1    1    2    0    0  0.26799608065E+02 -0.35668462876E+02  0.16250500483E+02  0.17766253686E+03  0.17120000000E+03 0.  0.
        998    1    1    2    0    0  0.66333776016E+01  0.19263183264E+02  0.14163639790E+04  0.14165457963E+04  0.10000000000E+02 0. -1.
</event>
<event>
 5    1  0.1556794E-008  0.3813322E+03  0.7957747E-01  0.3445378E+00
         13   -1    0    0    0    0  0.00000000000E+00  0.00000000000E+00  0.14999999963E+04  0.15000000000E+04  0.10566000000E+00 0.  1.
        994   -1    0    0    0    0 -0.00000000000E+00 -0.00000000000E+00  0.11368683772E-12  0.17120000000E+03  0.17120000000E+03 0.  0.
         13    1    1    2    0    0  0.33351397236E+02 -0.11806272646E+02  0.17198231820E+03  0.17558369147E+03  0.10566000000E+00 0.  1.
        994    1    1    2    0    0 -0.21557073491E+02  0.19292396506E+02  0.62525858683E+01  0.17373957180E+03  0.17120000000E+03 0.  0.
        998    1    1    2    0    0 -0.11794323745E+02 -0.74861238594E+01  0.13217650922E+04  0.13218767367E+04  0.10000000000E+02 0.  1.
</event>
<event>
 5    1  0.1556794E-008  0.3833846E+03  0.7957747E-01  0.3436552E+00
         13   -1    0    0    0    0  0.00000000000E+00  0.00000000000E+00  0.14999999963E+04  0.15000000000E+04  0.10566000000E+00 0.  1.
        994   -1    0    0    0    0 -0.00000000000E+00 -0.00000000000E+00  0.11368683772E-12  0.17120000000E+03  0.17120000000E+03 0.  0.
         13    1    1    2    0    0  0.60270524045E+01 -0.30917458638E+02  0.17461345860E+03  0.17743191849E+03  0.10566000000E+00 0.  1.
        994    1    1    2    0    0 -0.63772373233E+01  0.35772039959E+02  0.68114212892E+01  0.17514606321E+03  0.17120000000E+03 0.  0.
        998    1    1    2    0    0  0.35018491886E+00 -0.48545813218E+01  0.13185751164E+04  0.13186220183E+04  0.10000000000E+02 0.  1.
</event>
<event>
 5    1  0.1556794E-008  0.3821039E+03  0.7957747E-01  0.3442048E+00
         13   -1    0    0    0    0  0.00000000000E+00  0.00000000000E+00  0.14999999963E+04  0.15000000000E+04  0.10566000000E+00 0. -1.
        994   -1    0    0    0    0 -0.00000000000E+00 -0.00000000000E+00  0.11368683772E-12  0.17120000000E+03  0.17120000000E+03 0.  0.
         13    1    1    2    0    0  0.34019021253E+01 -0.11632081916E+02  0.22510165892E+02  0.25565543223E+02  0.10566000000E+00 0. -1.
        994    1    1    2    0    0  0.59341680763E+01  0.13352104974E+02  0.37839249204E+01  0.17186404844E+03  0.17120000000E+03 0.  0.
        998    1    1    2    0    0 -0.93360702016E+01 -0.17200230572E+01  0.14737059055E+04  0.14737704083E+04  0.10000000000E+02 0. -1.
</event>
<event>
 5    1  0.1556794E-008  0.3838507E+03  0.7957747E-01  0.3434561E+00
         13   -1    0    0    0    0  0.00000000000E+00  0.00000000000E+00  0.14999999963E+04  0.15000000000E+04  0.10566000000E+00 0.  1.
        994   -1    0    0    0    0 -0.00000000000E+00 -0.00000000000E+00  0.11368683772E-12  0.17120000000E+03  0.17120000000E+03 0.  0.
         13    1    1    2    0    0  0.31446749610E+01 -0.12666299558E+02  0.35478229897E+02  0.37802646544E+02  0.10566000000E+00 0.  1.
        994    1    1    2    0    0 -0.10767048457E+01  0.26475849949E+02  0.45229399424E+01  0.17329750982E+03  0.17120000000E+03 0.  0.
        998    1    1    2    0    0 -0.20679701153E+01 -0.13809550391E+02  0.14599988264E+04  0.14600998436E+04  0.10000000000E+02 0.  1.
</event>
<event>
 5    1  0.1556794E-008  0.3809527E+03  0.7957747E-01  0.3447021E+00
         13   -1    0    0    0    0  0.00000000000E+00  0.00000000000E+00  0.14999999963E+04  0.15000000000E+04  0.10566000000E+00 0. -1.
        994   -1    0    0    0    0 -0.00000000000E+00 -0.00000000000E+00  0.11368683772E-12  0.17120000000E+03  0.17120000000E+03 0.  0.
         13    1    1    2    0    0 -0.17680218781E+03 -0.18456411641E+03  0.10838674960E+04  0.11135940404E+04  0.10566000000E+00 0. -1.
        994    1    1    2    0    0  0.16378808729E+03  0.20401160462E+03  0.28189222700E+03  0.42097498738E+03  0.17120000000E+03 0.  0.
        998    1    1    2    0    0  0.13014100521E+02 -0.19447488208E+02  0.13424027327E+03  0.13663097225E+03  0.10000000000E+02 0. -1.
</event>
<event>
 5    1  0.1556794E-008  0.4029319E+03  0.7957747E-01  0.3357008E+00
         13   -1    0    0    0    0  0.00000000000E+00  0.00000000000E+00  0.14999999963E+04  0.15000000000E+04  0.10566000000E+00 0.  1.
        994   -1    0    0    0    0 -0.00000000000E+00 -0.00000000000E+00  0.11368683772E-12  0.17120000000E+03  0.17120000000E+03 0.  0.
         13    1    1    2    0    0 -0.47788200590E+02 -0.26745342746E+02  0.38342484278E+02  0.66851946411E+02  0.10566000000E+00 0.  1.
        994    1    1    2    0    0  0.53207716141E+02  0.30608348243E+02  0.44627529658E+02  0.18726715794E+03  0.17120000000E+03 0.  0.
        998    1    1    2    0    0 -0.54195155505E+01 -0.38630054969E+01  0.14170299823E+04  0.14170808957E+04  0.10000000000E+02 0.  1.
</event>
<event>
 5    1  0.1556794E-008  0.3718642E+03  0.7957747E-01  0.3487367E+00
         13   -1    0    0    0    0  0.00000000000E+00  0.00000000000E+00  0.14999999963E+04  0.15000000000E+04  0.10566000000E+00 0.  1.
        994   -1    0    0    0    0 -0.00000000000E+00 -0.00000000000E+00  0.11368683772E-12  0.17120000000E+03  0.17120000000E+03 0.  0.
         13    1    1    2    0    0  0.72919720651E+02  0.86363220602E+02  0.30258673650E+03  0.32300872403E+03  0.10566000000E+00 0.  1.
        994    1    1    2    0    0 -0.10880267157E+03 -0.11887553917E+03  0.10986068763E+03  0.25951536725E+03  0.17120000000E+03 0.  0.
        998    1    1    2    0    0  0.35882950916E+02  0.32512318568E+02  0.10875525722E+04  0.10886759087E+04  0.10000000000E+02 0.  1.
</event>
<event>
 5    1  0.1556794E-008  0.3812781E+03  0.7957747E-01  0.3445612E+00
         13   -1    0    0    0    0  0.00000000000E+00  0.00000000000E+00  0.14999999963E+04  0.15000000000E+04  0.10566000000E+00 0. -1.
        994   -1    0    0    0    0 -0.00000000000E+00 -0.00000000000E+00  0.11368683772E-12  0.17120000000E+03  0.17120000000E+03 0.  0.
         13    1    1    2    0    0 -0.20549620569E+02 -0.76480434451E+01  0.70480170291E+02  0.73812228272E+02  0.10566000000E+00 0. -1.
        994    1    1    2    0    0  0.12762218623E+02 -0.18116260993E+02  0.51257588949E+01  0.17270433272E+03  0.17120000000E+03 0.  0.
        998    1    1    2    0    0  0.77874019460E+01  0.25764304438E+02  0.14243940671E+04  0.14246834390E+04  0.10000000000E+02 0. -1.
</event>
<event>
 5    1  0.1556794E-008  0.3851724E+03  0.7957747E-01  0.3428941E+00
         13   -1    0    0    0    0  0.00000000000E+00  0.00000000000E+00  0.14999999963E+04  0.15000000000E+04  0.10566000000E+00 0.  1.
        994   -1    0    0    0    0 -0.00000000000E+00 -0.00000000000E+00  0.11368683772E-12  0.17120000000E+03  0.17120000000E+03 0.  0.
         13    1    1    2    0    0  0.45154065683E+01 -0.10262532231E+02  0.39589010717E+02  0.41146195423E+02  0.10566000000E+00 0.  1.
        994    1    1    2    0    0 -0.61279020312E+01  0.11222602167E+02  0.20821415100E+01  0.17168946763E+03  0.17120000000E+03 0.  0.
        998    1    1    2    0    0  0.16124954629E+01 -0.96006993600E+00  0.14583288441E+04  0.14583643369E+04  0.10000000000E+02 0.  1.
</event>
<event>
 5    1  0.1556794E-008  0.3793085E+03  0.7957747E-01  0.3454175E+00
         13   -1    0    0    0    0  0.00000000000E+00  0.00000000000E+00  0.14999999963E+04  0.15000000000E+04  0.10566000000E+00 0. -1.
        994   -1    0    0    0    0 -0.00000000000E+00 -0.00000000000E+00  0.11368683772E-12  0.17120000000E+03  0.17120000000E+03 0.  0.
         13    1    1    2    0    0  0.13568469517E+01 -0.42850835638E+02  0.19381093173E+03  0.19849615506E+03  0.10566000000E+00 0. -1.
        994    1    1    2    0    0  0.19472999947E-01  0.31789747022E+02  0.78760824356E+01  0.17430450674E+03  0.17120000000E+03 0.  0.
        998    1    1    2    0    0 -0.13763199517E+01  0.11061088616E+02  0.12983129821E+04  0.12983993382E+04  0.10000000000E+02 0.  0.
</event>
<event>
 5    1  0.1556794E-008  0.3800878E+03  0.7957747E-01  0.3450776E+00
         13   -1    0    0    0    0  0.00000000000E+00  0.00000000000E+00  0.14999999963E+04  0.15000000000E+04  0.10566000000E+00 0.  1.
        994   -1    0    0    0    0 -0.00000000000E+00 -0.00000000000E+00  0.11368683772E-12  0.17120000000E+03  0.17120000000E+03 0.  0.
         13    1    1    2    0    0  0.13857885595E+02 -0.84998128035E+01  0.31369901400E+02  0.35332275454E+02  0.10566000000E+00 0.  1.
        994    1    1    2    0    0 -0.12462882934E+01  0.60169735239E+01  0.42150043232E+01  0.17136208293E+03  0.17120000000E+03 0.  0.
        998    1    1    2    0    0 -0.12611597301E+02  0.24828392796E+01  0.14644150906E+04  0.14645056416E+04  0.10000000000E+02 0.  1.
</event>
<event>
 5    1  0.1556794E-008  0.3821846E+03  0.7957747E-01  0.3441701E+00
         13   -1    0    0    0    0  0.00000000000E+00  0.00000000000E+00  0.14999999963E+04  0.15000000000E+04  0.10566000000E+00 0.  1.
        994   -1    0    0    0    0 -0.00000000000E+00 -0.00000000000E+00  0.11368683772E-12  0.17120000000E+03  0.17120000000E+03 0.  0.
         13    1    1    2    0    0 -0.16048117119E+02 -0.83376087166E+01  0.55048560852E+02  0.57943187677E+02  0.10566000000E+00 0.  1.
        994    1    1    2    0    0 -0.29866953808E+00  0.67131973010E+01  0.31843014884E+01  0.17136141922E+03  0.17120000000E+03 0.  0.
        998    1    1    2    0    0  0.16346786657E+02  0.16244114156E+01  0.14417671339E+04  0.14418953931E+04  0.10000000000E+02 0.  1.
</event>
<event>
 5    1  0.1556794E-008  0.3777861E+03  0.7957747E-01  0.3460855E+00
         13   -1    0    0    0    0  0.00000000000E+00  0.00000000000E+00  0.14999999963E+04  0.15000000000E+04  0.10566000000E+00 0. -1.
        994   -1    0    0    0    0 -0.00000000000E+00 -0.00000000000E+00  0.11368683772E-12  0.17120000000E+03  0.17120000000E+03 0.  0.
         13    1    1    2    0    0 -0.83669970682E+01  0.49321890125E+02  0.17352644745E+03  0.18059372806E+03  0.10566000000E+00 0. -1.
        994    1    1    2    0    0  0.46902080082E+02 -0.75362146624E+02  0.32265623032E+02  0.19552434296E+03  0.17120000000E+03 0.  0.
        998    1    1    2    0    0 -0.38535083014E+02  0.26040256499E+02  0.12942079258E+04  0.12950819290E+04  0.10000000000E+02 0. -1.
</event>
<event>
 5    1  0.1556794E-008  0.3823970E+03  0.7957747E-01  0.3440788E+00
         13   -1    0    0    0    0  0.00000000000E+00  0.00000000000E+00  0.14999999963E+04  0.15000000000E+04  0.10566000000E+00 0.  1.
        994   -1    0    0    0    0 -0.00000000000E+00 -0.00000000000E+00  0.11368683772E-12  0.17120000000E+03  0.17120000000E+03 0.  0.
         13    1    1    2    0    0 -0.16804350147E+02 -0.17098990618E+02  0.10706466044E+03  0.10971606238E+03  0.10566000000E+00 0.  1.
        994    1    1    2    0    0  0.19098166517E+01 -0.25844987232E+01  0.29622991086E+01  0.17125578019E+03  0.17120000000E+03 0.  0.
        998    1    1    2    0    0  0.14894533495E+02  0.19683489341E+02  0.13899730367E+04  0.13902281574E+04  0.10000000000E+02 0.  1.
</event>
<event>
 5    1  0.1556794E-008  0.3848846E+03  0.7957747E-01  0.3430162E+00
         13   -1    0    0    0    0  0.00000000000E+00  0.00000000000E+00  0.14999999963E+04  0.15000000000E+04  0.10566000000E+00 0.  1.
        994   -1    0    0    0    0 -0.00000000000E+00 -0.00000000000E+00  0.11368683772E-12  0.17120000000E+03  0.17120000000E+03 0.  0.
         13    1    1    2    0    0  0.16943239927E+02 -0.49301082274E-01  0.88260513727E+02  0.89872160635E+02  0.10566000000E+00 0.  1.
        994    1    1    2    0    0 -0.58715689790E+01  0.42562409423E+01  0.18604796185E+01  0.17136362594E+03  0.17120000000E+03 0.  0.
        998    1    1    2    0    0 -0.11071670948E+02 -0.42069398600E+01  0.14098790029E+04  0.14099642134E+04  0.10000000000E+02 0.  1.
</event>
<event>
 5    1  0.1556794E-008  0.3697918E+03  0.7957747E-01  0.3496848E+00
         13   -1    0    0    0    0  0.00000000000E+00  0.00000000000E+00  0.14999999963E+04  0.15000000000E+04  0.10566000000E+00 0.  1.
        994   -1    0    0    0    0 -0.00000000000E+00 -0.00000000000E+00  0.11368683772E-12  0.17120000000E+03  0.17120000000E+03 0.  0.
         13    1    1    2    0    0 -0.71210386864E+02 -0.13810470998E+03  0.71973412323E+03  0.73631586254E+03  0.10566000000E+00 0.  1.
        994    1    1    2    0    0  0.68043433720E+02  0.12593356036E+03  0.84014137656E+02  0.23844702938E+03  0.17120000000E+03 0.  0.
        998    1    1    2    0    0  0.31669531441E+01  0.12171149620E+02  0.69625173539E+03  0.69643710808E+03  0.10000000000E+02 0.  1.
</event>
<event>
 5    1  0.1556794E-008  0.3727836E+03  0.7957747E-01  0.3483195E+00
         13   -1    0    0    0    0  0.00000000000E+00  0.00000000000E+00  0.14999999963E+04  0.15000000000E+04  0.10566000000E+00 0.  1.
        994   -1    0    0    0    0 -0.00000000000E+00 -0.00000000000E+00  0.11368683772E-12  0.17120000000E+03  0.17120000000E+03 0.  0.
         13    1    1    2    0    0  0.62119268997E+02  0.13474643695E+01  0.17053528871E+03  0.18150183222E+03  0.10566000000E+00 0.  1.
        994    1    1    2    0    0 -0.10848324111E+02  0.69517604393E+01  0.13004650115E+02  0.17217599726E+03  0.17120000000E+03 0.  0.
        998    1    1    2    0    0 -0.51270944886E+02 -0.82992248088E+01  0.13164600575E+04  0.13175221705E+04  0.10000000000E+02 0.  1.
</event>
<event>
 5    1  0.1556794E-008  0.3836484E+03  0.7957747E-01  0.3435425E+00
         13   -1    0    0    0    0  0.00000000000E+00  0.00000000000E+00  0.14999999963E+04  0.15000000000E+04  0.10566000000E+00 0.  1.
        994   -1    0    0    0    0 -0.00000000000E+00 -0.00000000000E+00  0.11368683772E-12  0.17120000000E+03  0.17120000000E+03 0.  0.
         13    1    1    2    0    0  0.92529895407E+01  0.11264978064E+02  0.48500142651E+02  0.50643780935E+02  0.10566000000E+00 0.  1.
        994    1    1    2    0    0  0.35246202262E+01  0.16892791020E+01  0.23531401784E+01  0.17126077741E+03  0.17120000000E+03 0.  0.
        998    1    1    2    0    0 -0.12777609767E+02 -0.12954257166E+02  0.14491467134E+04  0.14492954417E+04  0.10000000000E+02 0.  1.
</event>
<event>
 5    1  0.1556794E-008  0.3831787E+03  0.7957747E-01  0.3437433E+00
         13   -1    0    0    0    0  0.00000000000E+00  0.00000000000E+00  0.14999999963E+04  0.15000000000E+04  0.10566000000E+00 0. -1.
        994   -1    0    0    0    0 -0.00000000000E+00 -0.00000000000E+00  0.11368683772E-12  0.17120000000E+03  0.17120000000E+03 0.  0.
         13    1    1    2    0    0 -0.25357655840E+02 -0.10548223864E+02  0.14461075256E+03  0.14719564075E+03  0.10566000000E+00 0. -1.
        994    1    1    2    0    0  0.19578249015E+02  0.35235746390E+01  0.38472837419E+01  0.17239479402E+03  0.17120000000E+03 0.  0.
        998    1    1    2    0    0  0.57794068248E+01  0.70246492245E+01  0.13515419600E+04  0.13516095652E+04  0.10000000000E+02 0. -1.
</event>
<event>
 5    1  0.1556794E-008  0.3754774E+03  0.7957747E-01  0.3471091E+00
         13   -1    0    0    0    0  0.00000000000E+00  0.00000000000E+00  0.14999999963E+04  0.15000000000E+04  0.10566000000E+00 0.  1.
        994   -1    0    0    0    0 -0.00000000000E+00 -0.00000000000E+00  0.11368683772E-12  0.17120000000E+03  0.17120000000E+03 0.  0.
         13    1    1    2    0    0 -0.11134943607E+03 -0.62481168054E+02  0.41154817287E+03  0.43089964380E+03  0.10566000000E+00 0.  1.
        994    1    1    2    0    0  0.11433509751E+03  0.54945543187E+02  0.73691230535E+02  0.22545812182E+03  0.17120000000E+03 0.  0.
        998    1    1    2    0    0 -0.29856614306E+01  0.75356248673E+01  0.10147605929E+04  0.10148422344E+04  0.10000000000E+02 0.  1.
</event>
<event>
 5    1  0.1556794E-008  0.3805338E+03  0.7957747E-01  0.3448838E+00
         13   -1    0    0    0    0  0.00000000000E+00  0.00000000000E+00  0.14999999963E+04  0.15000000000E+04  0.10566000000E+00 0. -1.
        994   -1    0    0    0    0 -0.00000000000E+00 -0.00000000000E+00  0.11368683772E-12  0.17120000000E+03  0.17120000000E+03 0.  0.
         13    1    1    2    0    0 -0.10051428237E+02  0.11083693429E+02  0.28010373946E+02  0.31756443162E+02  0.10566000000E+00 0. -1.
        994    1    1    2    0    0  0.40811865793E+01 -0.10683096110E+01  0.39233303505E+01  0.17129690566E+03  0.17120000000E+03 0.  0.
        998    1    1    2    0    0  0.59702416582E+01 -0.10015383818E+02  0.14680662920E+04  0.14681466512E+04  0.10000000000E+02 0. -1.
</event>
<event>
 5    1  0.1556794E-008  0.3697004E+03  0.7957747E-01  0.3497269E+00
         13   -1    0    0    0    0  0.00000000000E+00  0.00000000000E+00  0.14999999963E+04  0.15000000000E+04  0.10566000000E+00 0.  1.
        994   -1    0    0    0    0 -0.00000000000E+00 -0.00000000000E+00  0.11368683772E-12  0.17120000000E+03  0.17120000000E+03 0.  0.
         13    1    1    2    0    0 -0.16229187026E+03 -0.60717863529E+02  0.61720576779E+03  0.64106807834E+03  0.10566000000E+00 0.  1.
        994    1    1    2    0    0  0.17031741434E+03  0.76145091936E+02  0.14445070220E+03  0.29151593785E+03  0.17120000000E+03 0.  0.
        998    1    1    2    0    0 -0.80255440882E+01 -0.15427228407E+02  0.73834352629E+03  0.73861598381E+03  0.10000000000E+02 0.  1.
</event>
<event>
 5    1  0.1556794E-008  0.3777939E+03  0.7957747E-01  0.3460821E+00
         13   -1    0    0    0    0  0.00000000000E+00  0.00000000000E+00  0.14999999963E+04  0.15000000000E+04  0.10566000000E+00 0. -1.
        994   -1    0    0    0    0 -0.00000000000E+00 -0.00000000000E+00  0.11368683772E-12  0.17120000000E+03  0.17120000000E+03 0.  0.
         13    1    1    2    0    0 -0.64946069858E+02  0.29585277117E+02  0.13547614103E+03  0.15312438265E+03  0.10566000000E+00 0. -1.
        994    1    1    2    0    0  0.10005942794E+03 -0.11134873104E+02  0.52521482120E+02  0.20543568483E+03  0.17120000000E+03 0.  0.
        998    1    1    2    0    0 -0.35113358079E+02 -0.18450404013E+02  0.13120023731E+04  0.13126399325E+04  0.10000000000E+02 0. -1.
</event>
<event>
 5    1  0.1556794E-008  0.3797534E+03  0.7957747E-01  0.3452233E+00
         13   -1    0    0    0    0  0.00000000000E+00  0.00000000000E+00  0.14999999963E+04  0.15000000000E+04  0.10566000000E+00 0. -1.
        994   -1    0    0    0    0 -0.00000000000E+00 -0.00000000000E+00  0.11368683772E-12  0.17120000000E+03  0.17120000000E+03 0.  0.
         13    1    1    2    0    0 -0.21873569078E+02  0.47926552438E+02  0.27351916362E+03  0.27854649788E+03  0.10566000000E+00 0. -1.
        994    1    1    2    0    0  0.20696729310E+02 -0.45671406957E+02  0.12715706241E+02  0.17884451684E+03  0.17120000000E+03 0.  0.
        998    1    1    2    0    0  0.11768397681E+01 -0.22551454816E+01  0.12137651264E+04  0.12138089853E+04  0.10000000000E+02 0.  1.
</event>
<event>
 5    1  0.1556794E-008  0.3819306E+03  0.7957747E-01  0.3442795E+00
         13   -1    0    0    0    0  0.00000000000E+00  0.00000000000E+00  0.14999999963E+04  0.15000000000E+04  0.10566000000E+00 0. -1.
        994   -1    0    0    0    0 -0.00000000000E+00 -0.00000000000E+00  0.11368683772E-12  0.17120000000E+03  0.17120000000E+03 0.  0.
         13    1    1    2    0    0  0.15789931714E+01  0.19500741101E+02  0.57990486764E+02  0.61201959463E+02  0.10566000000E+00 0. -1.
        994    1    1    2    0    0 -0.58347024455E+01 -0.17913629251E+02  0.43416446028E+01  0.17228822288E+03  0.17120000000E+03 0.  0.
        998    1    1    2    0    0  0.42557092742E+01 -0.15871118496E+01  0.14376678649E+04  0.14377098177E+04  0.10000000000E+02 0. -1.
</event>
<event>
 5    1  0.1556794E-008  0.3786114E+03  0.7957747E-01  0.3457227E+00
         13   -1    0    0    0    0  0.00000000000E+00  0.00000000000E+00  0.14999999963E+04  0.15000000000E+04  0.10566000000E+00 0.  1.
        994   -1    0    0    0    0 -0.00000000000E+00 -0.00000000000E+00  0.11368683772E-12  0.17120000000E+03  0.17120000000E+03 0.  0.
         13    1    1    2    0    0  0.66521737450E+01 -0.45622703179E+02  0.18451039894E+03  0.19018354541E+03  0.10566000000E+00 0.  1.
        994    1    1    2    0    0  0.12396346818E+02  0.55523074492E+02  0.15782841848E+02  0.18109395162E+03  0.17120000000E+03 0.  0.
        998    1    1    2    0    0 -0.19048520564E+02 -0.99003713127E+01  0.12997067555E+04  0.12999225030E+04  0.10000000000E+02 0.  1.
</event>
<event>
 5    1  0.1556794E-008  0.3721271E+03  0.7957747E-01  0.3486172E+00
         13   -1    0    0    0    0  0.00000000000E+00  0.00000000000E+00  0.14999999963E+04  0.15000000000E+04  0.10566000000E+00 0.  1.
        994   -1    0    0    0    0 -0.00000000000E+00 -0.00000000000E+00  0.11368683772E-12  0.17120000000E+03  0.17120000000E+03 0.  0.
         13    1    1    2    0    0  0.14522342922E+02  0.84834823825E+01  0.14659779726E+02  0.22311168121E+02  0.10566000000E+00 0.  1.
        994    1    1    2    0    0  0.18420452710E+02  0.16125134996E+01  0.93359280379E+01  0.17244858025E+03  0.17120000000E+03 0.  0.
        998    1    1    2    0    0 -0.32942795632E+02 -0.10095995882E+02  0.14760042885E+04  0.14764402516E+04  0.10000000000E+02 0.  1.
</event>
<event>
 5    1  0.1556794E-008  0.3714223E+03  0.7957747E-01  0.3489380E+00
         13   -1    0    0    0    0  0.00000000000E+00  0.00000000000E+00  0.14999999963E+04  0.15000000000E+04  0.10566000000E+00 0.  1.
        994   -1    0    0    0    0 -0.00000000000E+00 -0.00000000000E+00  0.11368683772E-12  0.17120000000E+03  0.17120000000E+03 0.  0.
         13    1    1    2    0    0 -0.13268154320E+02 -0.10244603288E+03  0.55289785255E+03  0.56246535902E+03  0.10566000000E+00 0.  1.
        994    1    1    2    0    0 -0.64282540369E+01  0.40391145439E+02  0.17593152736E+02  0.17689467517E+03  0.17120000000E+03 0.  0.
        998    1    1    2    0    0  0.19696408357E+02  0.62054887444E+02  0.92950899099E+03  0.93183996581E+03  0.10000000000E+02 0.  1.
</event>
<event>
 5    1  0.1556794E-008  0.3803071E+03  0.7957747E-01  0.3449822E+00
         13   -1    0    0    0    0  0.00000000000E+00  0.00000000000E+00  0.14999999963E+04  0.15000000000E+04  0.10566000000E+00 0. -1.
        994   -1    0    0    0    0 -0.00000000000E+00 -0.00000000000E+00  0.11368683772E-12  0.17120000000E+03  0.17120000000E+03 0.  0.
         13    1    1    2    0    0  0.27922199076E+02  0.23579655271E+01  0.10996430251E+03  0.11347849221E+03  0.10566000000E+00 0. -1.
        994    1    1    2    0    0  0.30310183469E+01  0.18135621341E+02  0.51080432094E+01  0.17226032607E+03  0.17120000000E+03 0.  0.
        998    1    1    2    0    0 -0.30953217423E+02 -0.20493586868E+02  0.13849276506E+04  0.13854611817E+04  0.10000000000E+02 0. -1.
</event>
<event>
 5    1  0.1556794E-008  0.3843625E+03  0.7957747E-01  0.3432381E+00
         13   -1    0    0    0    0  0.00000000000E+00  0.00000000000E+00  0.14999999963E+04  0.15000000000E+04  0.10566000000E+00 0. -1.
        994   -1    0    0    0    0 -0.00000000000E+00 -0.00000000000E+00  0.11368683772E-12  0.17120000000E+03  0.17120000000E+03 0.  0.
         13    1    1    2    0    0  0.11736981448E+02 -0.13082719448E+02  0.75167834631E+02  0.77195393702E+02  0.10566000000E+00 0. -1.
        994    1    1    2    0    0 -0.13243263416E+02  0.14274144420E+02  0.31974169272E+01  0.17233339404E+03  0.17120000000E+03 0.  0.
        998    1    1    2    0    0  0.15062819682E+01 -0.11914249718E+01  0.14216347447E+04  0.14216712123E+04  0.10000000000E+02 0. -1.
</event>
<event>
 5    1  0.1556794E-008  0.3827229E+03  0.7957747E-01  0.3439388E+00
         13   -1    0    0    0    0  0.00000000000E+00  0.00000000000E+00  0.14999999963E+04  0.15000000000E+04  0.10566000000E+00 0.  1.
        994   -1    0    0    0    0 -0.00000000000E+00 -0.00000000000E+00  0.11368683772E-12  0.17120000000E+03  0.17120000000E+03 0.  0.
         13    1    1    2    0    0  0.68936060341E+00 -0.15325095388E+02  0.41513604335E+02  0.44257477059E+02  0.10566000000E+00 0.  1.
        994    1    1    2    0    0  0.12028381539E+01  0.11163103042E+02  0.31827009251E+01  0.17159729390E+03  0.17120000000E+03 0.  0.
        998    1    1    2    0    0 -0.18921987573E+01  0.41619923458E+01  0.14553036910E+04  0.14553452290E+04  0.10000000000E+02 0.  1.
</event>
<event>
 5    1  0.1556794E-008  0.3860763E+03  0.7957747E-01  0.3425120E+00
         13   -1    0    0    0    0  0.00000000000E+00  0.00000000000E+00  0.14999999963E+04  0.15000000000E+04  0.10566000000E+00 0. -1.
        994   -1    0    0    0    0 -0.00000000000E+00 -0.00000000000E+00  0.11368683772E-12  0.17120000000E+03  0.17120000000E+03 0.  0.
         13    1    1    2    0    0  0.69877891912E+01 -0.11063093919E+02  0.78588801408E+02  0.79670773284E+02  0.10566000000E+00 0. -1.
        994    1    1    2    0    0 -0.77394468118E+01  0.61342337537E+01  0.14163806469E+01  0.17149044870E+03  0.17120000000E+03 0.  0.
        998    1    1    2    0    0  0.75165762058E+00  0.49288601652E+01  0.14199948142E+04  0.14200387780E+04  0.10000000000E+02 0. -1.
</event>
<event>
 5    1  0.1556794E-008  0.3717293E+03  0.7957747E-01  0.3487981E+00
         13   -1    0    0    0    0  0.00000000000E+00  0.00000000000E+00  0.14999999963E+04  0.15000000000E+04  0.10566000000E+00 0. -1.
        994   -1    0    0    0    0 -0.00000000000E+00 -0.00000000000E+00  0.11368683772E-12  0.17120000000E+03  0.17120000000E+03 0.  0.
         13    1    1    2    0    0 -0.50845762028E+01  0.15226106738E+02  0.55409926044E+01  0.16982373352E+02  0.10566000000E+00 0. -1.
        994    1    1    2    0    0  0.20119445150E+01 -0.10360998442E+02  0.12248057028E+02  0.17196177805E+03  0.17120000000E+03 0.  0.
        998    1    1    2    0    0  0.30726316878E+01 -0.48651082969E+01  0.14822109466E+04  0.14822558486E+04  0.10000000000E+02 0. -1.
</event>
<event>
 5    1  0.1556794E-008  0.3796342E+03  0.7957747E-01  0.3452753E+00
         13   -1    0    0    0    0  0.00000000000E+00  0.00000000000E+00  0.14999999963E+04  0.15000000000E+04  0.10566000000E+00 0. -1.
        994   -1    0    0    0    0 -0.00000000000E+00 -0.00000000000E+00  0.11368683772E-12  0.17120000000E+03  0.17120000000E+03 0.  0.
         13    1    1    2    0    0  0.99031871446E+01 -0.74542342331E+01  0.15779700257E+02  0.20066111428E+02  0.10566000000E+00 0. -1.
        994    1    1    2    0    0 -0.12217628789E+02  0.51622184106E+01  0.49069018488E+01  0.17178310929E+03  0.17120000000E+03 0.  0.
        998    1    1    2    0    0  0.23144416445E+01  0.22920158225E+01  0.14793133942E+04  0.14793507793E+04  0.10000000000E+02 0. -1.
</event>
<event>
 5    1  0.1556794E-008  0.3730517E+03  0.7957747E-01  0.3481982E+00
         13   -1    0    0    0    0  0.00000000000E+00  0.00000000000E+00  0.14999999963E+04  0.15000000000E+04  0.10566000000E+00 0. -1.
        994   -1    0    0    0    0 -0.00000000000E+00 -0.00000000000E+00  0.11368683772E-12  0.17120000000E+03  0.17120000000E+03 0.  0.
         13    1    1    2    0    0 -0.19293789383E+02  0.56153033263E+02  0.12734135815E+03  0.14050354484E+03  0.10566000000E+00 0. -1.
        994    1    1    2    0    0  0.17185012818E+02 -0.52295644371E+02  0.23347848787E+02  0.18134144901E+03  0.17120000000E+03 0.  0.
        998    1    1    2    0    0  0.21087765653E+01 -0.38573888918E+01  0.13493107893E+04  0.13493550061E+04  0.10000000000E+02 0. -1.
</event>
<event>
 5    1  0.1556794E-008  0.3703203E+03  0.7957747E-01  0.3494420E+00
         13   -1    0    0    0    0  0.00000000000E+00  0.00000000000E+00  0.14999999963E+04  0.15000000000E+04  0.10566000000E+00 0.  1.
        994   -1    0    0    0    0 -0.00000000000E+00 -0.00000000000E+00  0.11368683772E-12  0.17120000000E+03  0.17120000000E+03 0.  0.
         13    1    1    2    0    0  0.10709682452E+02 -0.16951371691E+02  0.13080290400E+02  0.23940581894E+02  0.10566000000E+00 0.  1.
        994    1    1    2    0    0 -0.16642169257E+02  0.13255136143E+02  0.12694128942E+02  0.17298335568E+03  0.17120000000E+03 0.  0.
        998    1    1    2    0    0  0.59324868053E+01  0.36962355487E+01  0.14742255769E+04  0.14742760624E+04  0.10000000000E+02 0.  1.
</event>
<event>
 5    1  0.1556794E-008  0.3692672E+03  0.7957747E-01  0.3499265E+00
         13   -1    0    0    0    0  0.00000000000E+00  0.00000000000E+00  0.14999999963E+04  0.15000000000E+04  0.10566000000E+00 0.  1.
        994   -1    0    0    0    0 -0.00000000000E+00 -0.00000000000E+00  0.11368683772E-12  0.17120000000E+03  0.17120000000E+03 0.  0.
         13    1    1    2    0    0 -0.25857618812E+02  0.40870846106E+02  0.10233189298E+03  0.11318511385E+03  0.10566000000E+00 0.  1.
        994    1    1    2    0    0  0.20849310673E+02 -0.38015376947E+02  0.17135792196E+02  0.17743432028E+03  0.17120000000E+03 0.  0.
        998    1    1    2    0    0  0.50083081393E+01 -0.28554691590E+01  0.13805323111E+04  0.13805805659E+04  0.10000000000E+02 0.  1.
</event>
<event>
 5    1  0.1556794E-008  0.3821768E+03  0.7957747E-01  0.3441735E+00
         13   -1    0    0    0    0  0.00000000000E+00  0.00000000000E+00  0.14999999963E+04  0.15000000000E+04  0.10566000000E+00 0.  1.
        994   -1    0    0    0    0 -0.00000000000E+00 -0.00000000000E+00  0.11368683772E-12  0.17120000000E+03  0.17120000000E+03 0.  0.
         13    1    1    2    0    0 -0.17416583597E+02 -0.88245033157E+01  0.73340432937E+02  0.75894924141E+02  0.10566000000E+00 0.  1.
        994    1    1    2    0    0 -0.13415153834E+02 -0.18922247181E+02  0.48260926783E+01  0.17283156240E+03  0.17120000000E+03 0.  0.
        998    1    1    2    0    0  0.30831737431E+02  0.27746750496E+02  0.14218334707E+04  0.14224735135E+04  0.10000000000E+02 0.  1.
</event>
<event>
 5    1  0.1556794E-008  0.3802041E+03  0.7957747E-01  0.3450270E+00
         13   -1    0    0    0    0  0.00000000000E+00  0.00000000000E+00  0.14999999963E+04  0.15000000000E+04  0.10566000000E+00 0.  1.
        994   -1    0    0    0    0 -0.00000000000E+00 -0.00000000000E+00  0.11368683772E-12  0.17120000000E+03  0.17120000000E+03 0.  0.
         13    1    1    2    0    0  0.58052361860E+01 -0.93830992283E+01  0.13189059748E+02  0.17196097795E+02  0.10566000000E+00 0.  1.
        994    1    1    2    0    0 -0.40764640410E+01  0.12986956538E+02  0.46493447290E+01  0.17180318683E+03  0.17120000000E+03 0.  0.
        998    1    1    2    0    0 -0.17287721450E+01 -0.36038573094E+01  0.14821615918E+04  0.14822007154E+04  0.10000000000E+02 0.  1.
</event>
<event>
 5    1  0.1556794E-008  0.3782160E+03  0.7957747E-01  0.3458963E+00
         13   -1    0    0    0    0  0.00000000000E+00  0.00000000000E+00  0.14999999963E+04  0.15000000000E+04  0.10566000000E+00 0.  1.
        994   -1    0    0    0    0 -0.00000000000E+00 -0.00000000000E+00  0.11368683772E-12  0.17120000000E+03  0.17120000000E+03 0.  0.
         13    1    1    2    0    0 -0.41274309117E+02 -0.27396674221E+00  0.15203218106E+03  0.15753551629E+03  0.10566000000E+00 0.  1.
        994    1    1    2    0    0  0.40890194540E+02  0.27581738176E+01  0.10705383044E+02  0.17636229971E+03  0.17120000000E+03 0.  0.
        998    1    1    2    0    0  0.38411457735E+00 -0.24842070754E+01  0.13372624322E+04  0.13373021840E+04  0.10000000000E+02 0.  0.
</event>
<event>
 5    1  0.1556794E-008  0.3684175E+03  0.7957747E-01  0.3503196E+00
         13   -1    0    0    0    0  0.00000000000E+00  0.00000000000E+00  0.14999999963E+04  0.15000000000E+04  0.10566000000E+00 0. -1.
        994   -1    0    0    0    0 -0.00000000000E+00 -0.00000000000E+00  0.11368683772E-12  0.17120000000E+03  0.17120000000E+03 0.  0.
         13    1    1    2    0    0 -0.93449604580E+01 -0.12692655205E+02  0.77830219335E+01  0.17578918527E+02  0.10566000000E+00 0. -1.
        994    1    1    2    0    0 -0.11753938494E+02  0.20549245059E+02  0.12049421346E+02  0.17324853563E+03  0.17120000000E+03 0.  0.
        998    1    1    2    0    0  0.21098898952E+02 -0.78565898540E+01  0.14801675530E+04  0.14803725458E+04  0.10000000000E+02 0. -1.
</event>
<event>
 5    1  0.1556794E-008  0.3794732E+03  0.7957747E-01  0.3453455E+00
         13   -1    0    0    0    0  0.00000000000E+00  0.00000000000E+00  0.14999999963E+04  0.15000000000E+04  0.10566000000E+00 0. -1.
        994   -1    0    0    0    0 -0.00000000000E+00 -0.00000000000E+00  0.11368683772E-12  0.17120000000E+03  0.17120000000E+03 0.  0.
         13    1    1    2    0    0 -0.10052043758E+02  0.20263689708E+02  0.48665256188E+02  0.53665436067E+02  0.10566000000E+00 0. -1.
        994    1    1    2    0    0 -0.50254486881E+01 -0.64867769281E+02  0.18707712849E+02  0.18409916118E+03  0.17120000000E+03 0.  0.
        998    1    1    2    0    0  0.15077492446E+02  0.44604079573E+02  0.14326270272E+04  0.14334354028E+04  0.10000000000E+02 0. -1.
</event>
<event>
 5    1  0.1556794E-008  0.3773345E+03  0.7957747E-01  0.3462847E+00
         13   -1    0    0    0    0  0.00000000000E+00  0.00000000000E+00  0.14999999963E+04  0.15000000000E+04  0.10566000000E+00 0. -1.
        994   -1    0    0    0    0 -0.00000000000E+00 -0.00000000000E+00  0.11368683772E-12  0.17120000000E+03  0.17120000000E+03 0.  0.
         13    1    1    2    0    0  0.40098589841E+01  0.17852704204E+02  0.28598938964E+02  0.33951560942E+02  0.10566000000E+00 0. -1.
        994    1    1    2    0    0  0.23665484254E+02 -0.13590310109E+02  0.80006188698E+01  0.17354596387E+03  0.17120000000E+03 0.  0.
        998    1    1    2    0    0 -0.27675343238E+02 -0.42623940948E+01  0.14634004384E+04  0.14637024752E+04  0.10000000000E+02 0. -1.
</event>
<event>
 5    1  0.1556794E-008  0.3741697E+03  0.7957747E-01  0.3476944E+00
         13   -1    0    0    0    0  0.00000000000E+00  0.00000000000E+00  0.14999999963E+04  0.15000000000E+04  0.10566000000E+00 0. -1.
        994   -1    0    0    0    0 -0.00000000000E+00 -0.00000000000E+00  0.11368683772E-12  0.17120000000E+03  0.17120000000E+03 0.  0.
         13    1    1    2    0    0 -0.36125794214E+02 -0.24002610941E+02  0.12913658797E+03  0.13622579733E+03  0.10566000000E+00 0. -1.
        994    1    1    2    0    0  0.21825551772E+02  0.16591725662E+02  0.96721072284E+01  0.17365088462E+03  0.17120000000E+03 0.  0.
        998    1    1    2    0    0  0.14300242443E+02  0.74108852798E+01  0.13611913011E+04  0.13613233181E+04  0.10000000000E+02 0. -1.
</event>
<event>
 5    1  0.1556794E-008  0.3730526E+03  0.7957747E-01  0.3481978E+00
         13   -1    0    0    0    0  0.00000000000E+00  0.00000000000E+00  0.14999999963E+04  0.15000000000E+04  0.10566000000E+00 0.  1.
        994   -1    0    0    0    0 -0.00000000000E+00 -0.00000000000E+00  0.11368683772E-12  0.17120000000E+03  0.17120000000E+03 0.  0.
         13    1    1    2    0    0 -0.65452809364E+02  0.12580699831E+03  0.61540757367E+03  0.63153619371E+03  0.10566000000E+00 0.  1.
        994    1    1    2    0    0  0.50179548424E+02 -0.14850899568E+03  0.97073197223E+02  0.25160595084E+03  0.17120000000E+03 0.  0.
        998    1    1    2    0    0  0.15273260940E+02  0.22701997367E+02  0.78751922539E+03  0.78805785545E+03  0.10000000000E+02 0.  1.
</event>
<event>
 5    1  0.1556794E-008  0.3844906E+03  0.7957747E-01  0.3431835E+00
         13   -1    0    0    0    0  0.00000000000E+00  0.00000000000E+00  0.14999999963E+04  0.15000000000E+04  0.10566000000E+00 0. -1.
        994   -1    0    0    0    0 -0.00000000000E+00 -0.00000000000E+00  0.11368683772E-12  0.17120000000E+03  0.17120000000E+03 0.  0.
         13    1    1    2    0    0  0.10853954435E+02 -0.56887373739E+01  0.40986659152E+02  0.42779521412E+02  0.10566000000E+00 0. -1.
        994    1    1    2    0    0 -0.26388192848E+01 -0.35166689666E+01  0.19469217994E+01  0.17126751248E+03  0.17120000000E+03 0.  0.
        998    1    1    2    0    0 -0.82151351501E+01  0.92054063405E+01  0.14570664153E+04  0.14571529661E+04  0.10000000000E+02 0. -1.
</event>
<event>
 5    1  0.1556794E-008  0.3825834E+03  0.7957747E-01  0.3439986E+00
         13   -1    0    0    0    0  0.00000000000E+00  0.00000000000E+00  0.14999999963E+04  0.15000000000E+04  0.10566000000E+00 0.  1.
        994   -1    0    0    0    0 -0.00000000000E+00 -0.00000000000E+00  0.11368683772E-12  0.17120000000E+03  0.17120000000E+03 0.  0.
         13    1    1    2    0    0  0.17029858774E+02  0.10264249004E+02  0.74677230635E+02  0.77279174664E+02  0.10566000000E+00 0.  1.
        994    1    1    2    0    0  0.29360546718E+00  0.43597632142E+01  0.28980138656E+01  0.17128027389E+03  0.17120000000E+03 0.  0.
        998    1    1    2    0    0 -0.17323464241E+02 -0.14624012218E+02  0.14224247518E+04  0.14226405514E+04  0.10000000000E+02 0.  1.
</event>
<event>
 5    1  0.1556794E-008  0.3845465E+03  0.7957747E-01  0.3431598E+00
         13   -1    0    0    0    0  0.00000000000E+00  0.00000000000E+00  0.14999999963E+04  0.15000000000E+04  0.10566000000E+00 0.  1.
        994   -1    0    0    0    0 -0.00000000000E+00 -0.00000000000E+00  0.11368683772E-12  0.17120000000E+03  0.17120000000E+03 0.  0.
         13    1    1    2    0    0  0.17746005116E+02  0.40964132490E+01  0.86283413260E+02  0.88184691794E+02  0.10566000000E+00 0.  1.
        994    1    1    2    0    0 -0.17274783517E+02  0.11691980419E+01  0.28434226881E+01  0.17209680480E+03  0.17120000000E+03 0.  0.
        998    1    1    2    0    0 -0.47122159856E+00 -0.52656112909E+01  0.14108731603E+04  0.14109185034E+04  0.10000000000E+02 0.  1.
</event>
<event>
 5    1  0.1556794E-008  0.3734617E+03  0.7957747E-01  0.3480131E+00
         13   -1    0    0    0    0  0.00000000000E+00  0.00000000000E+00  0.14999999963E+04  0.15000000000E+04  0.10566000000E+00 0. -1.
        994   -1    0    0    0    0 -0.00000000000E+00 -0.00000000000E+00  0.11368683772E-12  0.17120000000E+03  0.17120000000E+03 0.  0.
         13    1    1    2    0    0  0.94436596571E+01 -0.12203021027E+02  0.12571942313E+02  0.19903801834E+02  0.10566000000E+00 0. -1.
        994    1    1    2    0    0 -0.88981001597E+01  0.96201381356E+01  0.80577728288E+01  0.17188976394E+03  0.17120000000E+03 0.  0.
        998    1    1    2    0    0 -0.54555949738E+00  0.25828828911E+01  0.14793702811E+04  0.14794064342E+04  0.10000000000E+02 0. -1.
</event>
<event>
 5    1  0.1556794E-008  0.3766473E+03  0.7957747E-01  0.3465888E+00
         13   -1    0    0    0    0  0.00000000000E+00  0.00000000000E+00  0.14999999963E+04  0.15000000000E+04  0.10566000000E+00 0.  1.
        994   -1    0    0    0    0 -0.00000000000E+00 -0.00000000000E+00  0.11368683772E-12  0.17120000000E+03  0.17120000000E+03 0.  0.
         13    1    1    2    0    0  0.67525261920E+01  0.30414502605E+02  0.74943828868E+02  0.81161734999E+02  0.10566000000E+00 0.  1.
        994    1    1    2    0    0 -0.73688123264E+01 -0.38821056860E+02  0.11131579339E+02  0.17605319057E+03  0.17120000000E+03 0.  0.
        998    1    1    2    0    0  0.61628613440E+00  0.84065542541E+01  0.14139245881E+04  0.14139850744E+04  0.10000000000E+02 0.  1.
</event>
<event>
 5    1  0.1556794E-008  0.4459218E+03  0.7957747E-01  0.3206333E+00
         13   -1    0    0    0    0  0.00000000000E+00  0.00000000000E+00  0.14999999963E+04  0.15000000000E+04  0.10566000000E+00 0.  1.
        994   -1    0    0    0    0 -0.00000000000E+00 -0.00000000000E+00  0.11368683772E-12  0.17120000000E+03  0.17120000000E+03 0.  0.
         13    1    1    2    0    0 -0.56428017816E+02  0.12511387208E+03  0.18897416036E+03  0.23355694515E+03  0.10566000000E+00 0.  1.
        994    1    1    2    0    0  0.55365943843E+02 -0.43010268516E+01  0.73852784529E+02  0.19454449453E+03  0.17120000000E+03 0.  0.
        998    1    1    2    0    0  0.10620739729E+01 -0.12081284523E+03  0.12371730514E+04  0.12430985603E+04  0.10000000000E+02 0.  1.
</event>
<event>
 5    1  0.1556794E-008  0.3831851E+03  0.7957747E-01  0.3437406E+00
         13   -1    0    0    0    0  0.00000000000E+00  0.00000000000E+00  0.14999999963E+04  0.15000000000E+04  0.10566000000E+00 0. -1.
        994   -1    0    0    0    0 -0.00000000000E+00 -0.00000000000E+00  0.11368683772E-12  0.17120000000E+03  0.17120000000E+03 0.  0.
         13    1    1    2    0    0 -0.22010790004E+02 -0.18569470113E+02  0.16911242937E+03  0.17154685957E+03  0.10566000000E+00 0. -1.
        994    1    1    2    0    0  0.85306641455E+01  0.95804262281E+01  0.30784524238E+01  0.17170752362E+03  0.17120000000E+03 0.  0.
        998    1    1    2    0    0  0.13480125858E+02  0.89890438848E+01  0.13278091145E+04  0.13279456168E+04  0.10000000000E+02 0. -1.
</event>
<event>
 5    1  0.1556794E-008  0.3703057E+03  0.7957747E-01  0.3494487E+00
         13   -1    0    0    0    0  0.00000000000E+00  0.00000000000E+00  0.14999999963E+04  0.15000000000E+04  0.10566000000E+00 0. -1.
        994   -1    0    0    0    0 -0.00000000000E+00 -0.00000000000E+00  0.11368683772E-12  0.17120000000E+03  0.17120000000E+03 0.  0.
         13    1    1    2    0    0  0.35013640354E+02 -0.14701282510E+02  0.59093516937E+02  0.70243416961E+02  0.10566000000E+00 0. -1.
        994    1    1    2    0    0 -0.40033088887E+02 -0.46792657809E+01  0.16807572035E+02  0.17668185592E+03  0.17120000000E+03 0.  0.
        998    1    1    2    0    0  0.50194485335E+01  0.19380548291E+02  0.14240989073E+04  0.14242747271E+04  0.10000000000E+02 0. -1.
</event>
<event>
 5    1  0.1556794E-008  0.3806162E+03  0.7957747E-01  0.3448480E+00
         13   -1    0    0    0    0  0.00000000000E+00  0.00000000000E+00  0.14999999963E+04  0.15000000000E+04  0.10566000000E+00 0. -1.
        994   -1    0    0    0    0 -0.00000000000E+00 -0.00000000000E+00  0.11368683772E-12  0.17120000000E+03  0.17120000000E+03 0.  0.
         13    1    1    2    0    0 -0.80832396765E+01  0.11245655356E+02  0.24159385584E+02  0.27847631926E+02  0.10566000000E+00 0. -1.
        994    1    1    2    0    0  0.28802160477E+01  0.10757395552E+01  0.38539431596E+01  0.17127097167E+03  0.17120000000E+03 0.  0.
        998    1    1    2    0    0  0.52030236289E+01 -0.12321394911E+02  0.14719866675E+04  0.14720813964E+04  0.10000000000E+02 0. -1.
</event>
<event>
 5    1  0.1556794E-008  0.3793637E+03  0.7957747E-01  0.3453934E+00
         13   -1    0    0    0    0  0.00000000000E+00  0.00000000000E+00  0.14999999963E+04  0.15000000000E+04  0.10566000000E+00 0.  1.
        994   -1    0    0    0    0 -0.00000000000E+00 -0.00000000000E+00  0.11368683772E-12  0.17120000000E+03  0.17120000000E+03 0.  0.
         13    1    1    2    0    0 -0.52266286756E+02  0.79445169312E+02  0.22319555046E+03  0.24260990204E+03  0.10566000000E+00 0.  1.
        994    1    1    2    0    0  0.53605192317E+02 -0.91365932909E+02  0.57758154542E+02  0.20944377469E+03  0.17120000000E+03 0.  0.
        998    1    1    2    0    0 -0.13389055610E+01  0.11920763597E+02  0.12190462913E+04  0.12191463233E+04  0.10000000000E+02 0.  1.
</event>
<event>
 5    1  0.1556794E-008  0.3854851E+03  0.7957747E-01  0.3427618E+00
         13   -1    0    0    0    0  0.00000000000E+00  0.00000000000E+00  0.14999999963E+04  0.15000000000E+04  0.10566000000E+00 0.  1.
        994   -1    0    0    0    0 -0.00000000000E+00 -0.00000000000E+00  0.11368683772E-12  0.17120000000E+03  0.17120000000E+03 0.  0.
         13    1    1    2    0    0 -0.19082623559E+01 -0.17743444917E+02  0.95043936474E+02  0.96704872304E+02  0.10566000000E+00 0.  1.
        994    1    1    2    0    0 -0.14213997591E+02  0.37723403585E+02  0.67437640897E+01  0.17601139526E+03  0.17120000000E+03 0.  0.
        998    1    1    2    0    0  0.16122259947E+02 -0.19979958668E+02  0.13982122957E+04  0.13984837324E+04  0.10000000000E+02 0.  1.
</event>
<event>
 5    1  0.1556794E-008  0.3854680E+03  0.7957747E-01  0.3427690E+00
         13   -1    0    0    0    0  0.00000000000E+00  0.00000000000E+00  0.14999999963E+04  0.15000000000E+04  0.10566000000E+00 0. -1.
        994   -1    0    0    0    0 -0.00000000000E+00 -0.00000000000E+00  0.11368683772E-12  0.17120000000E+03  0.17120000000E+03 0.  0.
         13    1    1    2    0    0 -0.23361171531E+01  0.11027922523E+02  0.45177541437E+02  0.46562795586E+02  0.10566000000E+00 0. -1.
        994    1    1    2    0    0 -0.50337236778E+01 -0.10576595679E+02  0.18486208236E+01  0.17161019827E+03  0.17120000000E+03 0.  0.
        998    1    1    2    0    0  0.73698408309E+01 -0.45132684344E+00  0.14529738340E+04  0.14530270061E+04  0.10000000000E+02 0. -1.
</event>
<event>
 5    1  0.1556794E-008  0.3807008E+03  0.7957747E-01  0.3448113E+00
         13   -1    0    0    0    0  0.00000000000E+00  0.00000000000E+00  0.14999999963E+04  0.15000000000E+04  0.10566000000E+00 0. -1.
        994   -1    0    0    0    0 -0.00000000000E+00 -0.00000000000E+00  0.11368683772E-12  0.17120000000E+03  0.17120000000E+03 0.  0.
         13    1    1    2    0    0  0.16799600509E+01 -0.27636336859E+02  0.93534920330E+02  0.97546818841E+02  0.10566000000E+00 0. -1.
        994    1    1    2    0    0 -0.65673112284E+01  0.29850303307E+02  0.69017022017E+01  0.17404379816E+03  0.17120000000E+03 0.  0.
        998    1    1    2    0    0  0.48873511775E+01 -0.22139664488E+01  0.13995633737E+04  0.13996093830E+04  0.10000000000E+02 0. -1.
</event>
<event>
 5    1  0.1556794E-008  0.3817880E+03  0.7957747E-01  0.3443410E+00
         13   -1    0    0    0    0  0.00000000000E+00  0.00000000000E+00  0.14999999963E+04  0.15000000000E+04  0.10566000000E+00 0.  1.
        994   -1    0    0    0    0 -0.00000000000E+00 -0.00000000000E+00  0.11368683772E-12  0.17120000000E+03  0.17120000000E+03 0.  0.
         13    1    1    2    0    0  0.48257154032E+01  0.13391587990E+02  0.30707673621E+02  0.33846632643E+02  0.10566000000E+00 0.  1.
        994    1    1    2    0    0  0.10423080856E+01 -0.46891689184E+01  0.33099945387E+01  0.17129936011E+03  0.17120000000E+03 0.  0.
        998    1    1    2    0    0 -0.58680234888E+01 -0.87024190720E+01  0.14659823281E+04  0.14660540072E+04  0.10000000000E+02 0.  1.
</event>
<event>
 5    1  0.1556794E-008  0.3788087E+03  0.7957747E-01  0.3456362E+00
         13   -1    0    0    0    0  0.00000000000E+00  0.00000000000E+00  0.14999999963E+04  0.15000000000E+04  0.10566000000E+00 0.  1.
        994   -1    0    0    0    0 -0.00000000000E+00 -0.00000000000E+00  0.11368683772E-12  0.17120000000E+03  0.17120000000E+03 0.  0.
         13    1    1    2    0    0 -0.11610431441E+02 -0.21338200894E+01  0.12695557994E+02  0.17336195178E+02  0.10566000000E+00 0.  1.
        994    1    1    2    0    0  0.60098541800E+01  0.26131436188E+01  0.48798844047E+01  0.17139486614E+03  0.17120000000E+03 0.  0.
        998    1    1    2    0    0  0.56005772608E+01 -0.47932352946E+00  0.14824245539E+04  0.14824689387E+04  0.10000000000E+02 0.  1.
</event>
<event>
 5    1  0.1556794E-008  0.3734511E+03  0.7957747E-01  0.3480179E+00
         13   -1    0    0    0    0  0.00000000000E+00  0.00000000000E+00  0.14999999963E+04  0.15000000000E+04  0.10566000000E+00 0. -1.
        994   -1    0    0    0    0 -0.00000000000E+00 -0.00000000000E+00  0.11368683772E-12  0.17120000000E+03  0.17120000000E+03 0.  0.
         13    1    1    2    0    0  0.95360977037E-02 -0.11226801684E+02  0.49155629615E+01  0.12256226591E+02  0.10566000000E+00 0. -1.
        994    1    1    2    0    0 -0.64091666199E+01  0.13308267419E+02  0.82221624644E+01  0.17203264619E+03  0.17120000000E+03 0.  0.
        998    1    1    2    0    0  0.63996305222E+01 -0.20814657342E+01  0.14868622709E+04  0.14869111272E+04  0.10000000000E+02 0. -1.
</event>
<event>
 5    1  0.1556794E-008  0.3943896E+03  0.7957747E-01  0.3390800E+00
         13   -1    0    0    0    0  0.00000000000E+00  0.00000000000E+00  0.14999999963E+04  0.15000000000E+04  0.10566000000E+00 0. -1.
        994   -1    0    0    0    0 -0.00000000000E+00 -0.00000000000E+00  0.11368683772E-12  0.17120000000E+03  0.17120000000E+03 0.  0.
         13    1    1    2    0    0  0.50501524648E+02 -0.51841425027E+02  0.87619576439E+02  0.11364479170E+03  0.10566000000E+00 0. -1.
        994    1    1    2    0    0 -0.61384708915E+02  0.70338852848E+02  0.58666255960E+02  0.20363400084E+03  0.17120000000E+03 0.  0.
        998    1    1    2    0    0  0.10883184267E+02 -0.18497427821E+02  0.13537141639E+04  0.13539212075E+04  0.10000000000E+02 0. -1.
</event>
<event>
 5    1  0.1556794E-008  0.3843458E+03  0.7957747E-01  0.3432451E+00
         13   -1    0    0    0    0  0.00000000000E+00  0.00000000000E+00  0.14999999963E+04  0.15000000000E+04  0.10566000000E+00 0.  1.
        994   -1    0    0    0    0 -0.00000000000E+00 -0.00000000000E+00  0.11368683772E-12  0.17120000000E+03  0.17120000000E+03 0.  0.
         13    1    1    2    0    0 -0.12555718802E+02 -0.10152573469E+02  0.67602377536E+02  0.69504053373E+02  0.10566000000E+00 0.  1.
        994    1    1    2    0    0  0.86556566711E+01  0.12102514012E+01  0.22070539965E+01  0.17143714938E+03  0.17120000000E+03 0.  0.
        998    1    1    2    0    0  0.39000621312E+01  0.89423220677E+01  0.14301905647E+04  0.14302587972E+04  0.10000000000E+02 0.  1.
</event>
<event>
 5    1  0.1556794E-008  0.3829177E+03  0.7957747E-01  0.3438552E+00
         13   -1    0    0    0    0  0.00000000000E+00  0.00000000000E+00  0.14999999963E+04  0.15000000000E+04  0.10566000000E+00 0.  1.
        994   -1    0    0    0    0 -0.00000000000E+00 -0.00000000000E+00  0.11368683772E-12  0.17120000000E+03  0.17120000000E+03 0.  0.
         13    1    1    2    0    0 -0.18436285665E+02 -0.30186265356E+02  0.20525026329E+03  0.20827575229E+03  0.10566000000E+00 0.  1.
        994    1    1    2    0    0  0.22283940555E+02  0.27502917672E+02  0.68272307538E+01  0.17495438139E+03  0.17120000000E+03 0.  0.
        998    1    1    2    0    0 -0.38476548907E+01  0.26833476840E+01  0.12879225022E+04  0.12879698663E+04  0.10000000000E+02 0.  0.
</event>
<event>
 5    1  0.1556794E-008  0.3705750E+03  0.7957747E-01  0.3493253E+00
         13   -1    0    0    0    0  0.00000000000E+00  0.00000000000E+00  0.14999999963E+04  0.15000000000E+04  0.10566000000E+00 0. -1.
        994   -1    0    0    0    0 -0.00000000000E+00 -0.00000000000E+00  0.11368683772E-12  0.17120000000E+03  0.17120000000E+03 0.  0.
         13    1    1    2    0    0  0.30815402806E+02  0.67053420057E+01  0.56193386398E+02  0.64438020612E+02  0.10566000000E+00 0. -1.
        994    1    1    2    0    0  0.72092942972E+01 -0.98664393662E+01  0.94842879213E+01  0.17189738877E+03  0.17120000000E+03 0.  0.
        998    1    1    2    0    0 -0.38024697103E+02  0.31610973605E+01  0.14343223220E+04  0.14348645906E+04  0.10000000000E+02 0. -1.
</event>
<event>
 5    1  0.1556794E-008  0.3797277E+03  0.7957747E-01  0.3452345E+00
         13   -1    0    0    0    0  0.00000000000E+00  0.00000000000E+00  0.14999999963E+04  0.15000000000E+04  0.10566000000E+00 0.  1.
        994   -1    0    0    0    0 -0.00000000000E+00 -0.00000000000E+00  0.11368683772E-12  0.17120000000E+03  0.17120000000E+03 0.  0.
         13    1    1    2    0    0 -0.42984478877E+01 -0.11562884285E+02  0.15742686323E+02  0.20000507091E+02  0.10566000000E+00 0.  1.
        994    1    1    2    0    0 -0.14685243839E+01  0.16450471824E+02  0.51838509530E+01  0.17207291157E+03  0.17120000000E+03 0.  0.
        998    1    1    2    0    0  0.57669722716E+01 -0.48875875394E+01  0.14790734590E+04  0.14791265813E+04  0.10000000000E+02 0.  1.
</event>
<event>
 5    1  0.1556794E-008  0.3855206E+03  0.7957747E-01  0.3427467E+00
         13   -1    0    0    0    0  0.00000000000E+00  0.00000000000E+00  0.14999999963E+04  0.15000000000E+04  0.10566000000E+00 0.  1.
        994   -1    0    0    0    0 -0.00000000000E+00 -0.00000000000E+00  0.11368683772E-12  0.17120000000E+03  0.17120000000E+03 0.  0.
         13    1    1    2    0    0  0.36193476328E+01 -0.12070725238E+02  0.55564326887E+02  0.56975500626E+02  0.10566000000E+00 0.  1.
        994    1    1    2    0    0 -0.77956118564E+01  0.14049445589E+02  0.22198855551E+01  0.17196664321E+03  0.17120000000E+03 0.  0.
        998    1    1    2    0    0  0.41762642236E+01 -0.19787203515E+01  0.14422157838E+04  0.14422578562E+04  0.10000000000E+02 0.  1.
</event>
<event>
 5    1  0.1556794E-008  0.3843644E+03  0.7957747E-01  0.3432372E+00
         13   -1    0    0    0    0  0.00000000000E+00  0.00000000000E+00  0.14999999963E+04  0.15000000000E+04  0.10566000000E+00 0.  1.
        994   -1    0    0    0    0 -0.00000000000E+00 -0.00000000000E+00  0.11368683772E-12  0.17120000000E+03  0.17120000000E+03 0.  0.
         13    1    1    2    0    0  0.25097313987E+02  0.42708760840E+02  0.59528694019E+02  0.77444108863E+02  0.10566000000E+00 0.  1.
        994    1    1    2    0    0  0.49173073345E+02 -0.59953134523E+02  0.41239193791E+02  0.19241226724E+03  0.17120000000E+03 0.  0.
        998    1    1    2    0    0 -0.74270387332E+02  0.17244373683E+02  0.13992321085E+04  0.14013436239E+04  0.10000000000E+02 0.  1.
</event>
<event>
 5    1  0.1556794E-008  0.3746445E+03  0.7957747E-01  0.3474814E+00
         13   -1    0    0    0    0  0.00000000000E+00  0.00000000000E+00  0.14999999963E+04  0.15000000000E+04  0.10566000000E+00 0. -1.
        994   -1    0    0    0    0 -0.00000000000E+00 -0.00000000000E+00  0.11368683772E-12  0.17120000000E+03  0.17120000000E+03 0.  0.
         13    1    1    2    0    0  0.25379211626E+02 -0.28315489885E+02  0.11199312976E+03  0.11827232824E+03  0.10566000000E+00 0. -1.
        994    1    1    2    0    0  0.66539774354E+01  0.11690887323E+02  0.74774445441E+01  0.17189038495E+03  0.17120000000E+03 0.  0.
        998    1    1    2    0    0 -0.32033189062E+02  0.16624602563E+02  0.13805294220E+04  0.13810372868E+04  0.10000000000E+02 0. -1.
</event>
<event>
 5    1  0.1556794E-008  0.3786073E+03  0.7957747E-01  0.3457245E+00
         13   -1    0    0    0    0  0.00000000000E+00  0.00000000000E+00  0.14999999963E+04  0.15000000000E+04  0.10566000000E+00 0. -1.
        994   -1    0    0    0    0 -0.00000000000E+00 -0.00000000000E+00  0.11368683772E-12  0.17120000000E+03  0.17120000000E+03 0.  0.
         13    1    1    2    0    0  0.15695659907E+02 -0.14750704395E+02  0.46102964988E+02  0.50886457578E+02  0.10566000000E+00 0. -1.
        994    1    1    2    0    0 -0.15566065907E+02  0.39539372866E+01  0.57045314996E+01  0.17204626618E+03  0.17120000000E+03 0.  0.
        998    1    1    2    0    0 -0.12959399958E+00  0.10796767109E+02  0.14481924998E+04  0.14482672762E+04  0.10000000000E+02 0. -1.
</event>
<event>
 5    1  0.1556794E-008  0.3856514E+03  0.7957747E-01  0.3426914E+00
         13   -1    0    0    0    0  0.00000000000E+00  0.00000000000E+00  0.14999999963E+04  0.15000000000E+04  0.10566000000E+00 0. -1.
        994   -1    0    0    0    0 -0.00000000000E+00 -0.00000000000E+00  0.11368683772E-12  0.17120000000E+03  0.17120000000E+03 0.  0.
         13    1    1    2    0    0 -0.13751070216E+02 -0.32698120250E+01  0.80703374429E+02  0.81931858340E+02  0.10566000000E+00 0. -1.
        994    1    1    2    0    0 -0.20325345298E+00  0.16803218075E+02  0.22343538704E+01  0.17203726860E+03  0.17120000000E+03 0.  0.
        998    1    1    2    0    0  0.13954323669E+02 -0.13533406050E+02  0.14170622680E+04  0.14172308731E+04  0.10000000000E+02 0. -1.
</event>
<event>
 5    1  0.1556794E-008  0.3854716E+03  0.7957747E-01  0.3427675E+00
         13   -1    0    0    0    0  0.00000000000E+00  0.00000000000E+00  0.14999999963E+04  0.15000000000E+04  0.10566000000E+00 0.  1.
        994   -1    0    0    0    0 -0.00000000000E+00 -0.00000000000E+00  0.11368683772E-12  0.17120000000E+03  0.17120000000E+03 0.  0.
         13    1    1    2    0    0 -0.88393122327E+01  0.73692855535E+01  0.44370127671E+02  0.45838403156E+02  0.10566000000E+00 0.  1.
        994    1    1    2    0    0  0.11860513159E+02 -0.17537658284E+02  0.28694263737E+01  0.17252801175E+03  0.17120000000E+03 0.  0.
        998    1    1    2    0    0 -0.30212009260E+01  0.10168372730E+02  0.14527604422E+04  0.14528335851E+04  0.10000000000E+02 0.  1.
</event>
<event>
 5    1  0.1556794E-008  0.3788613E+03  0.7957747E-01  0.3456132E+00
         13   -1    0    0    0    0  0.00000000000E+00  0.00000000000E+00  0.14999999963E+04  0.15000000000E+04  0.10566000000E+00 0.  1.
        994   -1    0    0    0    0 -0.00000000000E+00 -0.00000000000E+00  0.11368683772E-12  0.17120000000E+03  0.17120000000E+03 0.  0.
         13    1    1    2    0    0  0.22774360519E+02  0.24538361769E+02  0.13886149023E+03  0.14284021607E+03  0.10566000000E+00 0.  1.
        994    1    1    2    0    0 -0.40086010076E+00  0.12084801638E+02  0.51997947624E+01  0.17170521537E+03  0.17120000000E+03 0.  0.
        998    1    1    2    0    0 -0.22373500418E+02 -0.36623163408E+02  0.13559387113E+04  0.13566545686E+04  0.10000000000E+02 0.  1.
</event>
<event>
 5    1  0.1556794E-008  0.3758945E+03  0.7957747E-01  0.3469232E+00
         13   -1    0    0    0    0  0.00000000000E+00  0.00000000000E+00  0.14999999963E+04  0.15000000000E+04  0.10566000000E+00 0.  1.
        994   -1    0    0    0    0 -0.00000000000E+00 -0.00000000000E+00  0.11368683772E-12  0.17120000000E+03  0.17120000000E+03 0.  0.
         13    1    1    2    0    0  0.26983594836E+03 -0.45184583257E+01  0.81052117033E+03  0.85426953253E+03  0.10566000000E+00 0.  1.
        994    1    1    2    0    0 -0.28951792553E+03  0.26360779356E+02  0.38930209146E+03  0.51515151005E+03  0.17120000000E+03 0.  0.
        998    1    1    2    0    0  0.19681977170E+02 -0.21842321030E+02  0.30017673448E+03  0.30177895741E+03  0.10000000000E+02 0.  1.
</event>
<event>
 5    1  0.1556794E-008  0.3819240E+03  0.7957747E-01  0.3442824E+00
         13   -1    0    0    0    0  0.00000000000E+00  0.00000000000E+00  0.14999999963E+04  0.15000000000E+04  0.10566000000E+00 0.  1.
        994   -1    0    0    0    0 -0.00000000000E+00 -0.00000000000E+00  0.11368683772E-12  0.17120000000E+03  0.17120000000E+03 0.  0.
         13    1    1    2    0    0 -0.23532274082E+02 -0.13575850505E+02  0.13501294673E+03  0.13771920196E+03  0.10566000000E+00 0.  1.
        994    1    1    2    0    0 -0.27807691543E+02  0.43431790806E+02  0.12050543003E+02  0.17920447469E+03  0.17120000000E+03 0.  0.
        998    1    1    2    0    0  0.51339965626E+02 -0.29855940301E+02  0.13529365065E+04  0.13542763233E+04  0.10000000000E+02 0.  1.
</event>
<event>
 5    1  0.1556794E-008  0.3855091E+03  0.7957747E-01  0.3427516E+00
         13   -1    0    0    0    0  0.00000000000E+00  0.00000000000E+00  0.14999999963E+04  0.15000000000E+04  0.10566000000E+00 0. -1.
        994   -1    0    0    0    0 -0.00000000000E+00 -0.00000000000E+00  0.11368683772E-12  0.17120000000E+03  0.17120000000E+03 0.  0.
         13    1    1    2    0    0  0.74243381949E+00 -0.10247830693E+02  0.37946641394E+02  0.39313203877E+02  0.10566000000E+00 0. -1.
        994    1    1    2    0    0  0.21274693455E+01  0.94836652099E+01  0.16877940925E+01  0.17148397791E+03  0.17120000000E+03 0.  0.
        998    1    1    2    0    0 -0.28699031650E+01  0.76416548348E+00  0.14603655608E+04  0.14604028182E+04  0.10000000000E+02 0. -1.
</event>
<event>
 5    1  0.1556794E-008  0.3850341E+03  0.7957747E-01  0.3429528E+00
         13   -1    0    0    0    0  0.00000000000E+00  0.00000000000E+00  0.14999999963E+04  0.15000000000E+04  0.10566000000E+00 0.  1.
        994   -1    0    0    0    0 -0.00000000000E+00 -0.00000000000E+00  0.11368683772E-12  0.17120000000E+03  0.17120000000E+03 0.  0.
         13    1    1    2    0    0 -0.17505152260E+02  0.33014837467E+01  0.95897665246E+02  0.97538215660E+02  0.10566000000E+00 0.  1.
        994    1    1    2    0    0  0.13693254118E+02 -0.74664102993E+01  0.24134950083E+01  0.17192590686E+03  0.17120000000E+03 0.  0.
        998    1    1    2    0    0  0.38118981420E+01  0.41649265525E+01  0.14016888360E+04  0.14017358775E+04  0.10000000000E+02 0.  1.
</event>
<event>
 5    1  0.1556794E-008  0.3800327E+03  0.7957747E-01  0.3451016E+00
         13   -1    0    0    0    0  0.00000000000E+00  0.00000000000E+00  0.14999999963E+04  0.15000000000E+04  0.10566000000E+00 0.  1.
        994   -1    0    0    0    0 -0.00000000000E+00 -0.00000000000E+00  0.11368683772E-12  0.17120000000E+03  0.17120000000E+03 0.  0.
         13    1    1    2    0    0  0.25338351031E+02  0.23295279608E+02  0.13810749655E+03  0.14233198464E+03  0.10566000000E+00 0.  1.
        994    1    1    2    0    0 -0.16276502133E+02 -0.20030084565E+02  0.63464071594E+01  0.17325081729E+03  0.17120000000E+03 0.  0.
        998    1    1    2    0    0 -0.90618488980E+01 -0.32651950424E+01  0.13555460926E+04  0.13556171981E+04  0.10000000000E+02 0.  1.
</event>
<event>
 5    1  0.1556794E-008  0.2437372E+03  0.7957747E-01  0.4402945E+00
         13   -1    0    0    0    0  0.00000000000E+00  0.00000000000E+00  0.14999999963E+04  0.15000000000E+04  0.10566000000E+00 0. -1.
        994   -1    0    0    0    0 -0.00000000000E+00 -0.00000000000E+00  0.11368683772E-12  0.17120000000E+03  0.17120000000E+03 0.  0.
         13    1    1    2    0    0 -0.27547699631E+02 -0.16244406662E+03  0.23787731874E+03  0.28936582464E+03  0.10566000000E+00 0. -1.
        994    1    1    2    0    0  0.26781638939E+02  0.16919556617E+03  0.18529711104E+03  0.30494074040E+03  0.17120000000E+03 0.  0.
        998    1    1    2    0    0  0.76606069283E+00 -0.67514995555E+01  0.10768255665E+04  0.10768934350E+04  0.10000000000E+02 0.  1.
</event>
<event>
 5    1  0.1556794E-008  0.3831458E+03  0.7957747E-01  0.3437574E+00
         13   -1    0    0    0    0  0.00000000000E+00  0.00000000000E+00  0.14999999963E+04  0.15000000000E+04  0.10566000000E+00 0.  1.
        994   -1    0    0    0    0 -0.00000000000E+00 -0.00000000000E+00  0.11368683772E-12  0.17120000000E+03  0.17120000000E+03 0.  0.
         13    1    1    2    0    0 -0.14378834819E+02  0.56863115015E+01  0.44477793218E+02  0.47088961369E+02  0.10566000000E+00 0.  1.
        994    1    1    2    0    0  0.16739792520E+02 -0.75203658027E+01  0.36685246558E+01  0.17221984389E+03  0.17120000000E+03 0.  0.
        998    1    1    2    0    0 -0.23609577018E+01  0.18340543012E+01  0.14518536784E+04  0.14518911947E+04  0.10000000000E+02 0.  1.
</event>
<event>
 5    1  0.1556794E-008  0.3830635E+03  0.7957747E-01  0.3437927E+00
         13   -1    0    0    0    0  0.00000000000E+00  0.00000000000E+00  0.14999999963E+04  0.15000000000E+04  0.10566000000E+00 0. -1.
        994   -1    0    0    0    0 -0.00000000000E+00 -0.00000000000E+00  0.11368683772E-12  0.17120000000E+03  0.17120000000E+03 0.  0.
         13    1    1    2    0    0  0.18330339522E+02  0.24283433764E+02  0.16018409410E+03  0.16304797352E+03  0.10566000000E+00 0. -1.
        994    1    1    2    0    0 -0.27240490303E+02 -0.18513825191E+02  0.61930292798E+01  0.17444941859E+03  0.17120000000E+03 0.  0.
        998    1    1    2    0    0  0.89101507804E+01 -0.57696085738E+01  0.13336228729E+04  0.13337026079E+04  0.10000000000E+02 0. -1.
</event>
<event>
 5    1  0.1556794E-008  0.3743565E+03  0.7957747E-01  0.3476106E+00
         13   -1    0    0    0    0  0.00000000000E+00  0.00000000000E+00  0.14999999963E+04  0.15000000000E+04  0.10566000000E+00 0.  1.
        994   -1    0    0    0    0 -0.00000000000E+00 -0.00000000000E+00  0.11368683772E-12  0.17120000000E+03  0.17120000000E+03 0.  0.
         13    1    1    2    0    0 -0.10445164463E+02 -0.41653912666E+01 -0.18082434441E+01  0.11390033075E+02  0.10566000000E+00 0.  1.
        994    1    1    2    0    0  0.47456166809E+02  0.33816806561E+02  0.25416417230E+02  0.18262283110E+03  0.17120000000E+03 0.  0.
        998    1    1    2    0    0 -0.37011002347E+02 -0.29651415294E+02  0.14763918225E+04  0.14771871358E+04  0.10000000000E+02 0.  1.
</event>
<event>
 5    1  0.1556794E-008  0.3801649E+03  0.7957747E-01  0.3450441E+00
         13   -1    0    0    0    0  0.00000000000E+00  0.00000000000E+00  0.14999999963E+04  0.15000000000E+04  0.10566000000E+00 0.  1.
        994   -1    0    0    0    0 -0.00000000000E+00 -0.00000000000E+00  0.11368683772E-12  0.17120000000E+03  0.17120000000E+03 0.  0.
         13    1    1    2    0    0  0.16610433857E+02  0.10129703358E+02  0.43390142620E+02  0.47552424161E+02  0.10566000000E+00 0.  1.
        994    1    1    2    0    0 -0.29087296052E+02  0.90392302849E+00  0.68846310978E+01  0.17379219204E+03  0.17120000000E+03 0.  0.
        998    1    1    2    0    0  0.12476862194E+02 -0.11033626387E+02  0.14497252226E+04  0.14498553838E+04  0.10000000000E+02 0.  1.
</event>
<event>
 5    1  0.1556794E-008  0.3830301E+03  0.7957747E-01  0.3438070E+00
         13   -1    0    0    0    0  0.00000000000E+00  0.00000000000E+00  0.14999999963E+04  0.15000000000E+04  0.10566000000E+00 0. -1.
        994   -1    0    0    0    0 -0.00000000000E+00 -0.00000000000E+00  0.11368683772E-12  0.17120000000E+03  0.17120000000E+03 0.  0.
         13    1    1    2    0    0 -0.12867533293E+02 -0.23215220949E+02  0.14794569371E+03  0.15030788185E+03  0.10566000000E+00 0. -1.
        994    1    1    2    0    0  0.12137860628E+01  0.33530691428E+01  0.26534094225E+01  0.17125769160E+03  0.17120000000E+03 0.  0.
        998    1    1    2    0    0  0.11653747230E+02  0.19862151806E+02  0.13494008931E+04  0.13496344265E+04  0.10000000000E+02 0. -1.
</event>
<event>
 5    1  0.1556794E-008  0.3821937E+03  0.7957747E-01  0.3441662E+00
         13   -1    0    0    0    0  0.00000000000E+00  0.00000000000E+00  0.14999999963E+04  0.15000000000E+04  0.10566000000E+00 0. -1.
        994   -1    0    0    0    0 -0.00000000000E+00 -0.00000000000E+00  0.11368683772E-12  0.17120000000E+03  0.17120000000E+03 0.  0.
         13    1    1    2    0    0  0.38905875071E+01 -0.19524676440E+02  0.60934310908E+02  0.64104220385E+02  0.10566000000E+00 0. -1.
        994    1    1    2    0    0 -0.11146986003E+02  0.23143581496E+02  0.52229701945E+01  0.17319526575E+03  0.17120000000E+03 0.  0.
        998    1    1    2    0    0  0.72563984962E+01 -0.36189050553E+01  0.14338427152E+04  0.14339005139E+04  0.10000000000E+02 0. -1.
</event>
<event>
 5    1  0.1556794E-008  0.3789874E+03  0.7957747E-01  0.3455580E+00
         13   -1    0    0    0    0  0.00000000000E+00  0.00000000000E+00  0.14999999963E+04  0.15000000000E+04  0.10566000000E+00 0. -1.
        994   -1    0    0    0    0 -0.00000000000E+00 -0.00000000000E+00  0.11368683772E-12  0.17120000000E+03  0.17120000000E+03 0.  0.
         13    1    1    2    0    0  0.15645888294E+02 -0.39868070066E+02  0.23426231167E+03  0.23814512101E+03  0.10566000000E+00 0. -1.
        994    1    1    2    0    0  0.26321653757E+02  0.13995864911E+02  0.76318039279E+01  0.17394366365E+03  0.17120000000E+03 0.  0.
        998    1    1    2    0    0 -0.41967542051E+02  0.25872205155E+02  0.12581058807E+04  0.12591112153E+04  0.10000000000E+02 0. -1.
</event>
<event>
 5    1  0.1556794E-008  0.3698330E+03  0.7957747E-01  0.3496659E+00
         13   -1    0    0    0    0  0.00000000000E+00  0.00000000000E+00  0.14999999963E+04  0.15000000000E+04  0.10566000000E+00 0. -1.
        994   -1    0    0    0    0 -0.00000000000E+00 -0.00000000000E+00  0.11368683772E-12  0.17120000000E+03  0.17120000000E+03 0.  0.
         13    1    1    2    0    0  0.15000746900E+02  0.36734535505E+02  0.70494664124E+02  0.80894729991E+02  0.10566000000E+00 0. -1.
        994    1    1    2    0    0 -0.14734646360E+02 -0.12566218134E+02  0.12161902132E+02  0.17272050111E+03  0.17120000000E+03 0.  0.
        998    1    1    2    0    0 -0.26610054030E+00 -0.24168317371E+02  0.14173434300E+04  0.14175847689E+04  0.10000000000E+02 0. -1.
</event>
<event>
 5    1  0.1556794E-008  0.3742843E+03  0.7957747E-01  0.3476430E+00
         13   -1    0    0    0    0  0.00000000000E+00  0.00000000000E+00  0.14999999963E+04  0.15000000000E+04  0.10566000000E+00 0. -1.
        994   -1    0    0    0    0 -0.00000000000E+00 -0.00000000000E+00  0.11368683772E-12  0.17120000000E+03  0.17120000000E+03 0.  0.
         13    1    1    2    0    0  0.60989834904E+02 -0.17729423817E+02  0.24745364805E+03  0.25547487456E+03  0.10566000000E+00 0. -1.
        994    1    1    2    0    0 -0.53935366971E+02  0.21507336354E+02  0.18623376973E+02  0.18173568581E+03  0.17120000000E+03 0.  0.
        998    1    1    2    0    0 -0.70544679326E+01 -0.37779125370E+01  0.12339229713E+04  0.12339894396E+04  0.10000000000E+02 0. -1.
</event>
<event>
 5    1  0.1556794E-008  0.3879238E+03  0.7957747E-01  0.3417366E+00
         13   -1    0    0    0    0  0.00000000000E+00  0.00000000000E+00  0.14999999963E+04  0.15000000000E+04  0.10566000000E+00 0. -1.
        994   -1    0    0    0    0 -0.00000000000E+00 -0.00000000000E+00  0.11368683772E-12  0.17120000000E+03  0.17120000000E+03 0.  0.
         13    1    1    2    0    0 -0.44732992038E+02  0.54634828825E+01  0.39457736712E+02  0.59898367026E+02  0.10566000000E+00 0. -1.
        994    1    1    2    0    0  0.51433210944E+02  0.37738906538E+01  0.30743980963E+02  0.18142284808E+03  0.17120000000E+03 0.  0.
        998    1    1    2    0    0 -0.67002189067E+01 -0.92373735363E+01  0.14297982786E+04  0.14298787849E+04  0.10000000000E+02 0. -1.
</event>
<event>
 5    1  0.1556794E-008  0.3856007E+03  0.7957747E-01  0.3427129E+00
         13   -1    0    0    0    0  0.00000000000E+00  0.00000000000E+00  0.14999999963E+04  0.15000000000E+04  0.10566000000E+00 0.  1.
        994   -1    0    0    0    0 -0.00000000000E+00 -0.00000000000E+00  0.11368683772E-12  0.17120000000E+03  0.17120000000E+03 0.  0.
         13    1    1    2    0    0  0.93482647034E+01 -0.70788615293E+01  0.53641861885E+02  0.54908659099E+02  0.10566000000E+00 0.  1.
        994    1    1    2    0    0 -0.97174039764E+00  0.32209029765E+01  0.13693521495E+01  0.17123852844E+03  0.17120000000E+03 0.  0.
        998    1    1    2    0    0 -0.83765243058E+01  0.38579585528E+01  0.14449887822E+04  0.14450528125E+04  0.10000000000E+02 0.  1.
</event>
<event>
 5    1  0.1556794E-008  0.3738084E+03  0.7957747E-01  0.3478569E+00
         13   -1    0    0    0    0  0.00000000000E+00  0.00000000000E+00  0.14999999963E+04  0.15000000000E+04  0.10566000000E+00 0. -1.
        994   -1    0    0    0    0 -0.00000000000E+00 -0.00000000000E+00  0.11368683772E-12  0.17120000000E+03  0.17120000000E+03 0.  0.
         13    1    1    2    0    0  0.18620540797E+02 -0.23683065276E+01  0.20929126785E+02  0.28113571943E+02  0.10566000000E+00 0. -1.
        994    1    1    2    0    0 -0.15518225925E+02  0.16308870412E+01  0.81233227350E+01  0.17210143376E+03  0.17120000000E+03 0.  0.
        998    1    1    2    0    0 -0.31023148714E+01  0.73741948642E+00  0.14709475468E+04  0.14709849943E+04  0.10000000000E+02 0. -1.
</event>
<event>
 5    1  0.1556794E-008  0.3082279E+03  0.7957747E-01  0.3838976E+00
         13   -1    0    0    0    0  0.00000000000E+00  0.00000000000E+00  0.14999999963E+04  0.15000000000E+04  0.10566000000E+00 0. -1.
        994   -1    0    0    0    0 -0.00000000000E+00 -0.00000000000E+00  0.11368683772E-12  0.17120000000E+03  0.17120000000E+03 0.  0.
         13    1    1    2    0    0 -0.15815536362E+03 -0.10115811273E+03  0.72136036756E+03  0.74539041707E+03  0.10566000000E+00 0. -1.
        994    1    1    2    0    0  0.17063281199E+03  0.58155776469E+02  0.13959618834E+03  0.28512135427E+03  0.17120000000E+03 0.  0.
        998    1    1    2    0    0 -0.12477448375E+02  0.43002336260E+02  0.63904344039E+03  0.64068822866E+03  0.10000000000E+02 0. -1.
</event>
<event>
 5    1  0.1556794E-008  0.3841889E+03  0.7957747E-01  0.3433120E+00
         13   -1    0    0    0    0  0.00000000000E+00  0.00000000000E+00  0.14999999963E+04  0.15000000000E+04  0.10566000000E+00 0. -1.
        994   -1    0    0    0    0 -0.00000000000E+00 -0.00000000000E+00  0.11368683772E-12  0.17120000000E+03  0.17120000000E+03 0.  0.
         13    1    1    2    0    0 -0.23730341161E+02  0.73311058043E+01  0.13483790608E+03  0.13710633204E+03  0.10566000000E+00 0. -1.
        994    1    1    2    0    0  0.31696238204E+02  0.24005225041E+01  0.53721689990E+01  0.17420882361E+03  0.17120000000E+03 0.  0.
        998    1    1    2    0    0 -0.79658970434E+01 -0.97316283084E+01  0.13597899212E+04  0.13598848443E+04  0.10000000000E+02 0. -1.
</event>
<event>
 5    1  0.1556794E-008  0.3801443E+03  0.7957747E-01  0.3450531E+00
         13   -1    0    0    0    0  0.00000000000E+00  0.00000000000E+00  0.14999999963E+04  0.15000000000E+04  0.10566000000E+00 0.  1.
        994   -1    0    0    0    0 -0.00000000000E+00 -0.00000000000E+00  0.11368683772E-12  0.17120000000E+03  0.17120000000E+03 0.  0.
         13    1    1    2    0    0  0.12012396008E+02 -0.18379538063E+02  0.61009990269E+02  0.64840844796E+02  0.10566000000E+00 0.  1.
        994    1    1    2    0    0  0.14093837068E+02  0.11051939373E+02  0.51328988224E+01  0.17221082503E+03  0.17120000000E+03 0.  0.
        998    1    1    2    0    0 -0.26106233076E+02  0.73275986902E+01  0.14338571072E+04  0.14341483302E+04  0.10000000000E+02 0.  1.
</event>
<event>
 5    1  0.1844572E-008  0.3863154E+03  0.7957747E-01  0.3424112E+00
         13   -1    0    0    0    0  0.00000000000E+00  0.00000000000E+00  0.14999999963E+04  0.15000000000E+04  0.10566000000E+00 0.  1.
        994   -1    0    0    0    0 -0.00000000000E+00 -0.00000000000E+00  0.11368683772E-12  0.17120000000E+03  0.17120000000E+03 0.  0.
         13    1    1    2    0    0 -0.41310980609E+01 -0.94405975370E+01  0.55020793678E+02  0.55977582602E+02  0.10566000000E+00 0.  1.
        994    1    1    2    0    0  0.10456589524E+00  0.80968988873E+01  0.11932054741E+01  0.17139554966E+03  0.17120000000E+03 0.  0.
        998    1    1    2    0    0  0.40265321656E+01  0.13436986498E+01  0.14437859971E+04  0.14438268677E+04  0.10000000000E+02 0.  1.
</event>
<event>
 5    1  0.1556794E-008  0.3808397E+03  0.7957747E-01  0.3447511E+00
         13   -1    0    0    0    0  0.00000000000E+00  0.00000000000E+00  0.14999999963E+04  0.15000000000E+04  0.10566000000E+00 0. -1.
        994   -1    0    0    0    0 -0.00000000000E+00 -0.00000000000E+00  0.11368683772E-12  0.17120000000E+03  0.17120000000E+03 0.  0.
         13    1    1    2    0    0  0.28386898900E+02 -0.39710484299E+01  0.11542052698E+03  0.11892642459E+03  0.10566000000E+00 0. -1.
        994    1    1    2    0    0 -0.74527006252E+01  0.65096045715E+01  0.40363850080E+01  0.17153323323E+03  0.17120000000E+03 0.  0.
        998    1    1    2    0    0 -0.20934198275E+02 -0.25385561415E+01  0.13805430843E+04  0.13807403422E+04  0.10000000000E+02 0. -1.
</event>
<event>
 5    1  0.1556794E-008  0.3847712E+03  0.7957747E-01  0.3430643E+00
         13   -1    0    0    0    0  0.00000000000E+00  0.00000000000E+00  0.14999999963E+04  0.15000000000E+04  0.10566000000E+00 0.  1.
        994   -1    0    0    0    0 -0.00000000000E+00 -0.00000000000E+00  0.11368683772E-12  0.17120000000E+03  0.17120000000E+03 0.  0.
         13    1    1    2    0    0  0.62295048666E+01 -0.17287636078E+02  0.11099163759E+03  0.11250255051E+03  0.10566000000E+00 0.  1.
        994    1    1    2    0    0 -0.16134203799E+01 -0.58305792527E+01  0.18642589203E+01  0.17131699928E+03  0.17120000000E+03 0.  0.
        998    1    1    2    0    0 -0.46160844868E+01  0.23118215331E+02  0.13871440998E+04  0.13873804502E+04  0.10000000000E+02 0.  1.
</event>
<event>
 5    1  0.1556794E-008  0.3847272E+03  0.7957747E-01  0.3430830E+00
         13   -1    0    0    0    0  0.00000000000E+00  0.00000000000E+00  0.14999999963E+04  0.15000000000E+04  0.10566000000E+00 0.  1.
        994   -1    0    0    0    0 -0.00000000000E+00 -0.00000000000E+00  0.11368683772E-12  0.17120000000E+03  0.17120000000E+03 0.  0.
         13    1    1    2    0    0  0.63126091135E+01  0.12454649155E+02  0.62004614835E+02  0.63557460178E+02  0.10566000000E+00 0.  1.
        994    1    1    2    0    0 -0.18074365207E+02  0.19864494337E+02  0.41433891437E+01  0.17334326779E+03  0.17120000000E+03 0.  0.
        998    1    1    2    0    0  0.11761756094E+02 -0.32319143492E+02  0.14338519923E+04  0.14342992720E+04  0.10000000000E+02 0.  1.
</event>
<event>
 5    1  0.1556794E-008  0.3803118E+03  0.7957747E-01  0.3449802E+00
         13   -1    0    0    0    0  0.00000000000E+00  0.00000000000E+00  0.14999999963E+04  0.15000000000E+04  0.10566000000E+00 0.  1.
        994   -1    0    0    0    0 -0.00000000000E+00 -0.00000000000E+00  0.11368683772E-12  0.17120000000E+03  0.17120000000E+03 0.  0.
         13    1    1    2    0    0  0.10439343736E+02  0.25613549962E+02  0.95070739568E+02  0.99012577612E+02  0.10566000000E+00 0.  1.
        994    1    1    2    0    0 -0.15847812108E+02 -0.11400787823E+02  0.52496325710E+01  0.17238947112E+03  0.17120000000E+03 0.  0.
        998    1    1    2    0    0  0.54084683716E+01 -0.14212762139E+02  0.13996796241E+04  0.13997979513E+04  0.10000000000E+02 0.  1.
</event>
<event>
 5    1  0.1556794E-008  0.3821794E+03  0.7957747E-01  0.3441724E+00
         13   -1    0    0    0    0  0.00000000000E+00  0.00000000000E+00  0.14999999963E+04  0.15000000000E+04  0.10566000000E+00 0. -1.
        994   -1    0    0    0    0 -0.00000000000E+00 -0.00000000000E+00  0.11368683772E-12  0.17120000000E+03  0.17120000000E+03 0.  0.
         13    1    1    2    0    0  0.87160191359E+01  0.14811441720E+02  0.48982767117E+02  0.51910215121E+02  0.10566000000E+00 0. -1.
        994    1    1    2    0    0 -0.85610470489E+01 -0.26633375333E+00  0.32805659591E+01  0.17144551488E+03  0.17120000000E+03 0.  0.
        998    1    1    2    0    0 -0.15497208704E+00 -0.14545107967E+02  0.14477366632E+04  0.14478442700E+04  0.10000000000E+02 0. -1.
</event>
<event>
 5    1  0.1556794E-008  0.3745796E+03  0.7957747E-01  0.3475105E+00
         13   -1    0    0    0    0  0.00000000000E+00  0.00000000000E+00  0.14999999963E+04  0.15000000000E+04  0.10566000000E+00 0. -1.
        994   -1    0    0    0    0 -0.00000000000E+00 -0.00000000000E+00  0.11368683772E-12  0.17120000000E+03  0.17120000000E+03 0.  0.
         13    1    1    2    0    0 -0.43926677474E+02 -0.11050258664E+02  0.17113530476E+03  0.17702814722E+03  0.10566000000E+00 0. -1.
        994    1    1    2    0    0  0.23620777322E-01 -0.58978893665E+01  0.70131728244E+01  0.17144506482E+03  0.17120000000E+03 0.  0.
        998    1    1    2    0    0  0.43903056697E+02  0.16948148030E+02  0.13218515187E+04  0.13227267880E+04  0.10000000000E+02 0. -1.
</event>
<event>
 5    1  0.1556794E-008  0.3840442E+03  0.7957747E-01  0.3433736E+00
         13   -1    0    0    0    0  0.00000000000E+00  0.00000000000E+00  0.14999999963E+04  0.15000000000E+04  0.10566000000E+00 0.  1.
        994   -1    0    0    0    0 -0.00000000000E+00 -0.00000000000E+00  0.11368683772E-12  0.17120000000E+03  0.17120000000E+03 0.  0.
         13    1    1    2    0    0 -0.78153719601E+01  0.90497533622E+01  0.32482485749E+02  0.34613597317E+02  0.10566000000E+00 0.  1.
        994    1    1    2    0    0  0.94424780051E+01 -0.11644028964E+02  0.28471535387E+01  0.17187870748E+03  0.17120000000E+03 0.  0.
        998    1    1    2    0    0 -0.16271060450E+01  0.25942756017E+01  0.14646703570E+04  0.14647076952E+04  0.10000000000E+02 0.  1.
</event>
<event>
 5    1  0.1556794E-008  0.3837055E+03  0.7957747E-01  0.3435181E+00
         13   -1    0    0    0    0  0.00000000000E+00  0.00000000000E+00  0.14999999963E+04  0.15000000000E+04  0.10566000000E+00 0.  1.
        994   -1    0    0    0    0 -0.00000000000E+00 -0.00000000000E+00  0.11368683772E-12  0.17120000000E+03  0.17120000000E+03 0.  0.
         13    1    1    2    0    0  0.13950511656E+02 -0.75362744406E+01  0.51755675758E+02  0.54130151904E+02  0.10566000000E+00 0.  1.
        994    1    1    2    0    0 -0.23281222857E+02  0.31175213036E+01  0.40984526454E+01  0.17285245613E+03  0.17120000000E+03 0.  0.
        998    1    1    2    0    0  0.93307112009E+01  0.44187531370E+01  0.14441458679E+04  0.14442173920E+04  0.10000000000E+02 0.  1.
</event>
<event>
 5    1  0.1556794E-008  0.3759415E+03  0.7957747E-01  0.3469023E+00
         13   -1    0    0    0    0  0.00000000000E+00  0.00000000000E+00  0.14999999963E+04  0.15000000000E+04  0.10566000000E+00 0.  1.
        994   -1    0    0    0    0 -0.00000000000E+00 -0.00000000000E+00  0.11368683772E-12  0.17120000000E+03  0.17120000000E+03 0.  0.
         13    1    1    2    0    0  0.51843263657E+02 -0.41000156162E+02  0.39414383358E+03  0.39964748154E+03  0.10566000000E+00 0.  1.
        994    1    1    2    0    0 -0.43230730419E+02 -0.99469776077E+01  0.12893198270E+02  0.17732318793E+03  0.17120000000E+03 0.  0.
        998    1    1    2    0    0 -0.86125332384E+01  0.50947133769E+02  0.10929629644E+04  0.10942293305E+04  0.10000000000E+02 0.  1.
</event>
<event>
 5    1  0.1556794E-008  0.3829866E+03  0.7957747E-01  0.3438256E+00
         13   -1    0    0    0    0  0.00000000000E+00  0.00000000000E+00  0.14999999963E+04  0.15000000000E+04  0.10566000000E+00 0. -1.
        994   -1    0    0    0    0 -0.00000000000E+00 -0.00000000000E+00  0.11368683772E-12  0.17120000000E+03  0.17120000000E+03 0.  0.
         13    1    1    2    0    0  0.11193000462E+02  0.66657018218E+01  0.32701161772E+02  0.35200738421E+02  0.10566000000E+00 0. -1.
        994    1    1    2    0    0  0.57206162923E+01 -0.49862948956E+01  0.28237123959E+01  0.17139137067E+03  0.17120000000E+03 0.  0.
        998    1    1    2    0    0 -0.16913616754E+02 -0.16794069262E+01  0.14644751221E+04  0.14646078909E+04  0.10000000000E+02 0. -1.
</event>
<event>
 5    1  0.1556794E-008  0.3835069E+03  0.7957747E-01  0.3436029E+00
         13   -1    0    0    0    0  0.00000000000E+00  0.00000000000E+00  0.14999999963E+04  0.15000000000E+04  0.10566000000E+00 0. -1.
        994   -1    0    0    0    0 -0.00000000000E+00 -0.00000000000E+00  0.11368683772E-12  0.17120000000E+03  0.17120000000E+03 0.  0.
         13    1    1    2    0    0 -0.44640873074E-01  0.11591294193E+02  0.27959740748E+02  0.30267447210E+02  0.10566000000E+00 0. -1.
        994    1    1    2    0    0  0.14301443937E+01 -0.38814865775E+01  0.24298049823E+01  0.17126720411E+03  0.17120000000E+03 0.  0.
        998    1    1    2    0    0 -0.13855035206E+01 -0.77098076151E+01  0.14696104505E+04  0.14696653487E+04  0.10000000000E+02 0. -1.
</event>
<event>
 5    1  0.1556794E-008  0.3879587E+03  0.7957747E-01  0.3417220E+00
         13   -1    0    0    0    0  0.00000000000E+00  0.00000000000E+00  0.14999999963E+04  0.15000000000E+04  0.10566000000E+00 0.  1.
        994   -1    0    0    0    0 -0.00000000000E+00 -0.00000000000E+00  0.11368683772E-12  0.17120000000E+03  0.17120000000E+03 0.  0.
         13    1    1    2    0    0 -0.76341172884E+01  0.23327065122E+02  0.64260450942E+01  0.25371971416E+02  0.10566000000E+00 0.  1.
        994    1    1    2    0    0 -0.53512106710E+01  0.20262969786E+02  0.22410674825E+02  0.17392786363E+03  0.17120000000E+03 0.  0.
        998    1    1    2    0    0  0.12985327959E+02 -0.43590034908E+02  0.14711632764E+04  0.14719001650E+04  0.10000000000E+02 0.  1.
</event>
<event>
 5    1  0.1556794E-008  0.3779553E+03  0.7957747E-01  0.3460110E+00
         13   -1    0    0    0    0  0.00000000000E+00  0.00000000000E+00  0.14999999963E+04  0.15000000000E+04  0.10566000000E+00 0.  1.
        994   -1    0    0    0    0 -0.00000000000E+00 -0.00000000000E+00  0.11368683772E-12  0.17120000000E+03  0.17120000000E+03 0.  0.
         13    1    1    2    0    0  0.29755431228E+02  0.22058064133E+02  0.12431788761E+03  0.12971851150E+03  0.10566000000E+00 0.  1.
        994    1    1    2    0    0 -0.22618500014E+02 -0.23373301480E+02  0.87376770364E+01  0.17448121608E+03  0.17120000000E+03 0.  0.
        998    1    1    2    0    0 -0.71369312140E+01  0.13152373472E+01  0.13669444316E+04  0.13670002724E+04  0.10000000000E+02 0.  1.
</event>
<event>
 5    1  0.1556794E-008  0.3356902E+03  0.7957747E-01  0.3670141E+00
         13   -1    0    0    0    0  0.00000000000E+00  0.00000000000E+00  0.14999999963E+04  0.15000000000E+04  0.10566000000E+00 0. -1.
        994   -1    0    0    0    0 -0.00000000000E+00 -0.00000000000E+00  0.11368683772E-12  0.17120000000E+03  0.17120000000E+03 0.  0.
         13    1    1    2    0    0  0.18987418897E+03  0.11045057157E+03  0.10634865616E+04  0.10859351796E+04  0.10566000000E+00 0. -1.
        994    1    1    2    0    0 -0.10112642721E+03 -0.95107317095E+02  0.10985687244E+03  0.24627206189E+03  0.17120000000E+03 0.  0.
        998    1    1    2    0    0 -0.88747761763E+02 -0.15343254476E+02  0.32665656226E+03  0.33899275854E+03  0.10000000000E+02 0.  1.
</event>
<event>
 5    1  0.1556794E-008  0.3688008E+03  0.7957747E-01  0.3501420E+00
         13   -1    0    0    0    0  0.00000000000E+00  0.00000000000E+00  0.14999999963E+04  0.15000000000E+04  0.10566000000E+00 0.  1.
        994   -1    0    0    0    0 -0.00000000000E+00 -0.00000000000E+00  0.11368683772E-12  0.17120000000E+03  0.17120000000E+03 0.  0.
         13    1    1    2    0    0 -0.23662537655E+01 -0.63403431457E+02  0.17240779048E+03  0.18371187131E+03  0.10566000000E+00 0.  1.
        994    1    1    2    0    0 -0.86750341408E+02  0.68103075032E+02  0.53936778350E+02  0.21067099141E+03  0.17120000000E+03 0.  0.
        998    1    1    2    0    0  0.89116595173E+02 -0.46996435748E+01  0.12736554274E+04  0.12768171373E+04  0.10000000000E+02 0.  1.
</event>
<event>
 5    1  0.1556794E-008  0.4156862E+03  0.7957747E-01  0.3309117E+00
         13   -1    0    0    0    0  0.00000000000E+00  0.00000000000E+00  0.14999999963E+04  0.15000000000E+04  0.10566000000E+00 0. -1.
        994   -1    0    0    0    0 -0.00000000000E+00 -0.00000000000E+00  0.11368683772E-12  0.17120000000E+03  0.17120000000E+03 0.  0.
         13    1    1    2    0    0 -0.23311758541E+02 -0.76265052416E+02  0.88400331104E+02  0.11905639844E+03  0.10566000000E+00 0. -1.
        994    1    1    2    0    0 -0.45370710417E+02  0.36246106464E+01  0.46226633816E+02  0.18307916550E+03  0.17120000000E+03 0.  0.
        998    1    1    2    0    0  0.68682468958E+02  0.72640441770E+02  0.13653730314E+04  0.13690644361E+04  0.10000000000E+02 0. -1.
</event>
<event>
 5    1  0.1556794E-008  0.3837789E+03  0.7957747E-01  0.3434868E+00
         13   -1    0    0    0    0  0.00000000000E+00  0.00000000000E+00  0.14999999963E+04  0.15000000000E+04  0.10566000000E+00 0.  1.
        994   -1    0    0    0    0 -0.00000000000E+00 -0.00000000000E+00  0.11368683772E-12  0.17120000000E+03  0.17120000000E+03 0.  0.
         13    1    1    2    0    0  0.30701540608E+01 -0.13174044038E+02  0.40011665384E+02  0.42236545942E+02  0.10566000000E+00 0.  1.
        994    1    1    2    0    0  0.18352819920E+01  0.11445357915E+02  0.26813874493E+01  0.17161292002E+03  0.17120000000E+03 0.  0.
        998    1    1    2    0    0 -0.49054360527E+01  0.17286861223E+01  0.14573069434E+04  0.14573505340E+04  0.10000000000E+02 0.  1.
</event>
<event>
 5    1  0.1556794E-008  0.4104904E+03  0.7957747E-01  0.3328271E+00
         13   -1    0    0    0    0  0.00000000000E+00  0.00000000000E+00  0.14999999963E+04  0.15000000000E+04  0.10566000000E+00 0. -1.
        994   -1    0    0    0    0 -0.00000000000E+00 -0.00000000000E+00  0.11368683772E-12  0.17120000000E+03  0.17120000000E+03 0.  0.
         13    1    1    2    0    0 -0.13846252838E+03 -0.79906890451E+02  0.39094270449E+03  0.42236618267E+03  0.10566000000E+00 0. -1.
        994    1    1    2    0    0  0.64055104920E+02  0.62571124736E+02  0.67837755096E+02  0.20476719252E+03  0.17120000000E+03 0.  0.
        998    1    1    2    0    0  0.74407423464E+02  0.17335765715E+02  0.10412195367E+04  0.10440666248E+04  0.10000000000E+02 0. -1.
</event>
<event>
 5    1  0.1556794E-008  0.3841512E+03  0.7957747E-01  0.3433280E+00
         13   -1    0    0    0    0  0.00000000000E+00  0.00000000000E+00  0.14999999963E+04  0.15000000000E+04  0.10566000000E+00 0.  1.
        994   -1    0    0    0    0 -0.00000000000E+00 -0.00000000000E+00  0.11368683772E-12  0.17120000000E+03  0.17120000000E+03 0.  0.
         13    1    1    2    0    0 -0.13091727233E+02 -0.13622157904E+02  0.81996241786E+02  0.84144823602E+02  0.10566000000E+00 0.  1.
        994    1    1    2    0    0  0.19182560630E+02  0.10384559007E+02  0.36228050418E+01  0.17262205657E+03  0.17120000000E+03 0.  0.
        998    1    1    2    0    0 -0.60908333973E+01  0.32375988966E+01  0.14143809495E+04  0.14144331198E+04  0.10000000000E+02 0.  1.
</event>
<event>
 5    1  0.1556794E-008  0.3775193E+03  0.7957747E-01  0.3462032E+00
         13   -1    0    0    0    0  0.00000000000E+00  0.00000000000E+00  0.14999999963E+04  0.15000000000E+04  0.10566000000E+00 0.  1.
        994   -1    0    0    0    0 -0.00000000000E+00 -0.00000000000E+00  0.11368683772E-12  0.17120000000E+03  0.17120000000E+03 0.  0.
         13    1    1    2    0    0 -0.25200187880E+02 -0.51710659686E+02  0.27206363531E+03  0.27807854038E+03  0.10566000000E+00 0.  1.
        994    1    1    2    0    0  0.88184365849E+01  0.49087436158E+02  0.13820743616E+02  0.17885131860E+03  0.17120000000E+03 0.  0.
        998    1    1    2    0    0  0.16381751295E+02  0.26232235274E+01  0.12141156174E+04  0.12142701410E+04  0.10000000000E+02 0.  1.
</event>
<event>
 5    1  0.1556794E-008  0.3736432E+03  0.7957747E-01  0.3479313E+00
         13   -1    0    0    0    0  0.00000000000E+00  0.00000000000E+00  0.14999999963E+04  0.15000000000E+04  0.10566000000E+00 0.  1.
        994   -1    0    0    0    0 -0.00000000000E+00 -0.00000000000E+00  0.11368683772E-12  0.17120000000E+03  0.17120000000E+03 0.  0.
         13    1    1    2    0    0 -0.30809151098E+02  0.44295637275E+02  0.10756056936E+03  0.12033534193E+03  0.10566000000E+00 0.  1.
        994    1    1    2    0    0  0.23155077966E+01 -0.44145323108E+02  0.19830677168E+02  0.17792376706E+03  0.17120000000E+03 0.  0.
        998    1    1    2    0    0  0.28493643302E+02 -0.15031416718E+00  0.13726087497E+04  0.13729408910E+04  0.10000000000E+02 0.  1.
</event>
<event>
 5    1  0.1556794E-008  0.3823240E+03  0.7957747E-01  0.3441101E+00
         13   -1    0    0    0    0  0.00000000000E+00  0.00000000000E+00  0.14999999963E+04  0.15000000000E+04  0.10566000000E+00 0. -1.
        994   -1    0    0    0    0 -0.00000000000E+00 -0.00000000000E+00  0.11368683772E-12  0.17120000000E+03  0.17120000000E+03 0.  0.
         13    1    1    2    0    0  0.23577209923E+02 -0.21407563494E+02  0.15987046376E+03  0.16301148717E+03  0.10566000000E+00 0. -1.
        994    1    1    2    0    0 -0.29156075216E+02  0.84757973452E+01  0.60289946531E+01  0.17397616112E+03  0.17120000000E+03 0.  0.
        998    1    1    2    0    0  0.55788652925E+01  0.12931766149E+02  0.13341005379E+04  0.13342123517E+04  0.10000000000E+02 0. -1.
</event>
<event>
 5    1  0.1556794E-008  0.3760299E+03  0.7957747E-01  0.3468630E+00
         13   -1    0    0    0    0  0.00000000000E+00  0.00000000000E+00  0.14999999963E+04  0.15000000000E+04  0.10566000000E+00 0. -1.
        994   -1    0    0    0    0 -0.00000000000E+00 -0.00000000000E+00  0.11368683772E-12  0.17120000000E+03  0.17120000000E+03 0.  0.
         13    1    1    2    0    0  0.39239954105E+01  0.30041046567E+02  0.26061539219E+02  0.39963448416E+02  0.10566000000E+00 0. -1.
        994    1    1    2    0    0 -0.59266802136E+01 -0.30730690661E+02  0.17669644201E+02  0.17493186449E+03  0.17120000000E+03 0.  0.
        998    1    1    2    0    0  0.20026848031E+01  0.68964409485E+00  0.14562688129E+04  0.14563046871E+04  0.10000000000E+02 0. -1.
</event>
<event>
 5    1  0.1556794E-008  0.3863051E+03  0.7957747E-01  0.3424156E+00
         13   -1    0    0    0    0  0.00000000000E+00  0.00000000000E+00  0.14999999963E+04  0.15000000000E+04  0.10566000000E+00 0.  1.
        994   -1    0    0    0    0 -0.00000000000E+00 -0.00000000000E+00  0.11368683772E-12  0.17120000000E+03  0.17120000000E+03 0.  0.
         13    1    1    2    0    0  0.84940839082E+01 -0.84393539766E+01  0.66611695564E+02  0.67679400905E+02  0.10566000000E+00 0.  1.
        994    1    1    2    0    0 -0.42883789285E+01  0.26511649163E+02  0.33490709603E+01  0.17332603385E+03  0.17120000000E+03 0.  0.
        998    1    1    2    0    0 -0.42057049797E+01 -0.18072295186E+02  0.14300392298E+04  0.14301945652E+04  0.10000000000E+02 0.  1.
</event>
<event>
 5    1  0.1556794E-008  0.3825124E+03  0.7957747E-01  0.3440292E+00
         13   -1    0    0    0    0  0.00000000000E+00  0.00000000000E+00  0.14999999963E+04  0.15000000000E+04  0.10566000000E+00 0.  1.
        994   -1    0    0    0    0 -0.00000000000E+00 -0.00000000000E+00  0.11368683772E-12  0.17120000000E+03  0.17120000000E+03 0.  0.
         13    1    1    2    0    0 -0.11141279941E+02 -0.52923518366E+01  0.24892612852E+02  0.27781116704E+02  0.10566000000E+00 0.  1.
        994    1    1    2    0    0  0.13377055422E+02  0.74198504985E+01  0.36464429596E+01  0.17192072690E+03  0.17120000000E+03 0.  0.
        998    1    1    2    0    0 -0.22357754805E+01 -0.21274986619E+01  0.14714609405E+04  0.14714981564E+04  0.10000000000E+02 0.  1.
</event>
<event>
 5    1  0.1556794E-008  0.3691436E+03  0.7957747E-01  0.3499836E+00
         13   -1    0    0    0    0  0.00000000000E+00  0.00000000000E+00  0.14999999963E+04  0.15000000000E+04  0.10566000000E+00 0. -1.
        994   -1    0    0    0    0 -0.00000000000E+00 -0.00000000000E+00  0.11368683772E-12  0.17120000000E+03  0.17120000000E+03 0.  0.
         13    1    1    2    0    0 -0.33693920100E+00  0.10964148270E+02  0.79538051093E+00  0.10998630347E+02  0.10566000000E+00 0. -1.
        994    1    1    2    0    0  0.86284476326E+01 -0.14075686237E+02  0.11437300861E+02  0.17237409000E+03  0.17120000000E+03 0.  0.
        998    1    1    2    0    0 -0.82915084316E+01  0.31115379668E+01  0.14877673149E+04  0.14878272797E+04  0.10000000000E+02 0. -1.
</event>
<event>
 5    1  0.1556794E-008  0.3812535E+03  0.7957747E-01  0.3445719E+00
         13   -1    0    0    0    0  0.00000000000E+00  0.00000000000E+00  0.14999999963E+04  0.15000000000E+04  0.10566000000E+00 0. -1.
        994   -1    0    0    0    0 -0.00000000000E+00 -0.00000000000E+00  0.11368683772E-12  0.17120000000E+03  0.17120000000E+03 0.  0.
         13    1    1    2    0    0 -0.30687004472E+02  0.12107279701E+02  0.14587236619E+03  0.14955613276E+03  0.10566000000E+00 0. -1.
        994    1    1    2    0    0  0.22155824265E+02 -0.20083871012E+02  0.64844689679E+01  0.17391299768E+03  0.17120000000E+03 0.  0.
        998    1    1    2    0    0  0.85311802075E+01  0.79765913101E+01  0.13476431611E+04  0.13477308696E+04  0.10000000000E+02 0.  1.
</event>
<event>
 5    1  0.1556794E-008  0.3807256E+03  0.7957747E-01  0.3448005E+00
         13   -1    0    0    0    0  0.00000000000E+00  0.00000000000E+00  0.14999999963E+04  0.15000000000E+04  0.10566000000E+00 0. -1.
        994   -1    0    0    0    0 -0.00000000000E+00 -0.00000000000E+00  0.11368683772E-12  0.17120000000E+03  0.17120000000E+03 0.  0.
         13    1    1    2    0    0 -0.12576996693E+02  0.21985223634E+02  0.76710806560E+02  0.80784218206E+02  0.10566000000E+00 0. -1.
        994    1    1    2    0    0  0.15970434726E+02 -0.30938432969E+02  0.78206253682E+01  0.17487951167E+03  0.17120000000E+03 0.  0.
        998    1    1    2    0    0 -0.33934380330E+01  0.89532093351E+01  0.14154685644E+04  0.14155362701E+04  0.10000000000E+02 0. -1.
</event>
<event>
 5    1  0.1556794E-008  0.3856806E+03  0.7957747E-01  0.3426791E+00
         13   -1    0    0    0    0  0.00000000000E+00  0.00000000000E+00  0.14999999963E+04  0.15000000000E+04  0.10566000000E+00 0. -1.
        994   -1    0    0    0    0 -0.00000000000E+00 -0.00000000000E+00  0.11368683772E-12  0.17120000000E+03  0.17120000000E+03 0.  0.
         13    1    1    2    0    0 -0.12186536162E+02 -0.72420588782E+01  0.73237911924E+02  0.74597332308E+02  0.10566000000E+00 0. -1.
        994    1    1    2    0    0  0.16108704865E+02  0.87353296787E+01  0.23952832602E+01  0.17219458104E+03  0.17120000000E+03 0.  0.
        998    1    1    2    0    0 -0.39221687032E+01 -0.14932708005E+01  0.14243668011E+04  0.14244080867E+04  0.10000000000E+02 0. -1.
</event>
<event>
 5    1  0.1556794E-008  0.3712566E+03  0.7957747E-01  0.3490136E+00
         13   -1    0    0    0    0  0.00000000000E+00  0.00000000000E+00  0.14999999963E+04  0.15000000000E+04  0.10566000000E+00 0.  1.
        994   -1    0    0    0    0 -0.00000000000E+00 -0.00000000000E+00  0.11368683772E-12  0.17120000000E+03  0.17120000000E+03 0.  0.
         13    1    1    2    0    0  0.28103485614E+02  0.42780499268E+02  0.13094565525E+03  0.14059428443E+03  0.10566000000E+00 0.  1.
        994    1    1    2    0    0 -0.12781647793E+02 -0.64860565457E+02  0.23813031285E+02  0.18505881209E+03  0.17120000000E+03 0.  0.
        998    1    1    2    0    0 -0.15321837821E+02  0.22080066189E+02  0.13452413097E+04  0.13455469035E+04  0.10000000000E+02 0.  1.
</event>
<event>
 5    1  0.1556794E-008  0.3829881E+03  0.7957747E-01  0.3438250E+00
         13   -1    0    0    0    0  0.00000000000E+00  0.00000000000E+00  0.14999999963E+04  0.15000000000E+04  0.10566000000E+00 0. -1.
        994   -1    0    0    0    0 -0.00000000000E+00 -0.00000000000E+00  0.11368683772E-12  0.17120000000E+03  0.17120000000E+03 0.  0.
         13    1    1    2    0    0 -0.15013289627E+02 -0.87074002066E+01  0.53855424204E+02  0.56582997128E+02  0.10566000000E+00 0. -1.
        994    1    1    2    0    0  0.18123194714E+02  0.11473150279E+02  0.41567833061E+01  0.17258853441E+03  0.17120000000E+03 0.  0.
        998    1    1    2    0    0 -0.31099050870E+01 -0.27657500721E+01  0.14419877888E+04  0.14420284685E+04  0.10000000000E+02 0. -1.
</event>
<event>
 5    1  0.1556794E-008  0.3843352E+03  0.7957747E-01  0.3432497E+00
         13   -1    0    0    0    0  0.00000000000E+00  0.00000000000E+00  0.14999999963E+04  0.15000000000E+04  0.10566000000E+00 0. -1.
        994   -1    0    0    0    0 -0.00000000000E+00 -0.00000000000E+00  0.11368683772E-12  0.17120000000E+03  0.17120000000E+03 0.  0.
         13    1    1    2    0    0 -0.13377195027E+02  0.12255011266E+02  0.82383937645E+02  0.84357921939E+02  0.10566000000E+00 0. -1.
        994    1    1    2    0    0  0.84100453441E+01 -0.11541017075E+02  0.26329293553E+01  0.17181471490E+03  0.17120000000E+03 0.  0.
        998    1    1    2    0    0  0.49671496832E+01 -0.71399419096E+00  0.14149831293E+04  0.14150273632E+04  0.10000000000E+02 0. -1.
</event>
<event>
 5    1  0.1556794E-008  0.3838856E+03  0.7957747E-01  0.3434412E+00
         13   -1    0    0    0    0  0.00000000000E+00  0.00000000000E+00  0.14999999963E+04  0.15000000000E+04  0.10566000000E+00 0.  1.
        994   -1    0    0    0    0 -0.00000000000E+00 -0.00000000000E+00  0.11368683772E-12  0.17120000000E+03  0.17120000000E+03 0.  0.
         13    1    1    2    0    0  0.13627298131E+02  0.14631853709E+02  0.98342877015E+02  0.10035500496E+03  0.10566000000E+00 0.  1.
        994    1    1    2    0    0  0.53396533797E+01 -0.70504988743E+01  0.24426375323E+01  0.17144569960E+03  0.17120000000E+03 0.  0.
        998    1    1    2    0    0 -0.18966951511E+02 -0.75813548346E+01  0.13992144817E+04  0.13993992954E+04  0.10000000000E+02 0.  1.
</event>
<event>
 5    1  0.1556794E-008  0.3847177E+03  0.7957747E-01  0.3430870E+00
         13   -1    0    0    0    0  0.00000000000E+00  0.00000000000E+00  0.14999999963E+04  0.15000000000E+04  0.10566000000E+00 0.  1.
        994   -1    0    0    0    0 -0.00000000000E+00 -0.00000000000E+00  0.11368683772E-12  0.17120000000E+03  0.17120000000E+03 0.  0.
         13    1    1    2    0    0 -0.11125745441E+02  0.92699470687E+00  0.34457466742E+02  0.36221122416E+02  0.10566000000E+00 0.  1.
        994    1    1    2    0    0  0.10307523627E+02 -0.21036027043E+01  0.21347180690E+01  0.17153619796E+03  0.17120000000E+03 0.  0.
        998    1    1    2    0    0  0.81822181364E+00  0.11766079975E+01  0.14634078115E+04  0.14634426796E+04  0.10000000000E+02 0.  1.
</event>
<event>
 5    1  0.1556794E-008  0.3746326E+03  0.7957747E-01  0.3474867E+00
         13   -1    0    0    0    0  0.00000000000E+00  0.00000000000E+00  0.14999999963E+04  0.15000000000E+04  0.10566000000E+00 0. -1.
        994   -1    0    0    0    0 -0.00000000000E+00 -0.00000000000E+00  0.11368683772E-12  0.17120000000E+03  0.17120000000E+03 0.  0.
         13    1    1    2    0    0 -0.40094203433E+02  0.20460854244E+02  0.17908284845E+03  0.18465337656E+03  0.10566000000E+00 0. -1.
        994    1    1    2    0    0  0.84996165881E+00  0.23015065401E+02  0.86748079729E+01  0.17295984495E+03  0.17120000000E+03 0.  0.
        998    1    1    2    0    0  0.39244241774E+02 -0.43475919645E+02  0.13122423399E+04  0.13135867785E+04  0.10000000000E+02 0. -1.
</event>
<event>
 5    1  0.1556794E-008  0.3688771E+03  0.7957747E-01  0.3501067E+00
         13   -1    0    0    0    0  0.00000000000E+00  0.00000000000E+00  0.14999999963E+04  0.15000000000E+04  0.10566000000E+00 0.  1.
        994   -1    0    0    0    0 -0.00000000000E+00 -0.00000000000E+00  0.11368683772E-12  0.17120000000E+03  0.17120000000E+03 0.  0.
         13    1    1    2    0    0 -0.13213910391E+02  0.20434944038E+02  0.23915697512E+02  0.34119878622E+02  0.10566000000E+00 0.  1.
        994    1    1    2    0    0  0.10341572130E+02 -0.21790904058E+02  0.12374901040E+02  0.17333311798E+03  0.17120000000E+03 0.  0.
        998    1    1    2    0    0  0.28723382611E+01  0.13559600195E+01  0.14637093977E+04  0.14637470034E+04  0.10000000000E+02 0.  1.
</event>
<event>
 5    1  0.1556794E-008  0.3856530E+03  0.7957747E-01  0.3426908E+00
         13   -1    0    0    0    0  0.00000000000E+00  0.00000000000E+00  0.14999999963E+04  0.15000000000E+04  0.10566000000E+00 0.  1.
        994   -1    0    0    0    0 -0.00000000000E+00 -0.00000000000E+00  0.11368683772E-12  0.17120000000E+03  0.17120000000E+03 0.  0.
         13    1    1    2    0    0  0.11235217401E+02 -0.22069147153E+01  0.51804378588E+02  0.53054739539E+02  0.10566000000E+00 0.  1.
        994    1    1    2    0    0 -0.38032170500E+01 -0.31605920874E+00  0.13540863209E+01  0.17124788438E+03  0.17120000000E+03 0.  0.
        998    1    1    2    0    0 -0.74320003514E+01  0.25229739240E+01  0.14468415314E+04  0.14468973761E+04  0.10000000000E+02 0.  1.
</event>
<event>
 5    1  0.1556794E-008  0.3692087E+03  0.7957747E-01  0.3499535E+00
         13   -1    0    0    0    0  0.00000000000E+00  0.00000000000E+00  0.14999999963E+04  0.15000000000E+04  0.10566000000E+00 0.  1.
        994   -1    0    0    0    0 -0.00000000000E+00 -0.00000000000E+00  0.11368683772E-12  0.17120000000E+03  0.17120000000E+03 0.  0.
         13    1    1    2    0    0 -0.64066228810E+02 -0.74468487826E+01  0.18840185419E+03  0.19913615206E+03  0.10566000000E+00 0.  1.
        994    1    1    2    0    0  0.60119079888E+02  0.18197517555E+02  0.23489919820E+02  0.18386590153E+03  0.17120000000E+03 0.  0.
        998    1    1    2    0    0  0.39471489226E+01 -0.10750668772E+02  0.12881082223E+04  0.12881979464E+04  0.10000000000E+02 0.  1.
</event>
<event>
 5    1  0.1556794E-008  0.3819450E+03  0.7957747E-01  0.3442733E+00
         13   -1    0    0    0    0  0.00000000000E+00  0.00000000000E+00  0.14999999963E+04  0.15000000000E+04  0.10566000000E+00 0. -1.
        994   -1    0    0    0    0 -0.00000000000E+00 -0.00000000000E+00  0.11368683772E-12  0.17120000000E+03  0.17120000000E+03 0.  0.
         13    1    1    2    0    0 -0.10251038875E+01  0.25791449715E+02  0.11792990928E+03  0.12072168150E+03  0.10566000000E+00 0. -1.
        994    1    1    2    0    0 -0.65747151327E+01  0.26651009948E+01  0.33217193713E+01  0.17137912201E+03  0.17120000000E+03 0.  0.
        998    1    1    2    0    0  0.75998190203E+01 -0.28456550709E+02  0.13787483676E+04  0.13790991965E+04  0.10000000000E+02 0. -1.
</event>
<event>
 5    1  0.1556794E-008  0.3763211E+03  0.7957747E-01  0.3467335E+00
         13   -1    0    0    0    0  0.00000000000E+00  0.00000000000E+00  0.14999999963E+04  0.15000000000E+04  0.10566000000E+00 0.  1.
        994   -1    0    0    0    0 -0.00000000000E+00 -0.00000000000E+00  0.11368683772E-12  0.17120000000E+03  0.17120000000E+03 0.  0.
         13    1    1    2    0    0 -0.13750894225E+02  0.19085511217E+01  0.13216536827E+02  0.19168142036E+02  0.10566000000E+00 0.  1.
        994    1    1    2    0    0  0.15876904521E+02 -0.30390703424E+01  0.68866729885E+01  0.17209932687E+03  0.17120000000E+03 0.  0.
        998    1    1    2    0    0 -0.21260102958E+01  0.11305192207E+01  0.14798967865E+04  0.14799325311E+04  0.10000000000E+02 0.  1.
</event>
<event>
 5    1  0.1556794E-008  0.3831852E+03  0.7957747E-01  0.3437406E+00
         13   -1    0    0    0    0  0.00000000000E+00  0.00000000000E+00  0.14999999963E+04  0.15000000000E+04  0.10566000000E+00 0.  1.
        994   -1    0    0    0    0 -0.00000000000E+00 -0.00000000000E+00  0.11368683772E-12  0.17120000000E+03  0.17120000000E+03 0.  0.
         13    1    1    2    0    0 -0.16703924356E+02 -0.11407801131E+02  0.81653707195E+02  0.84121923886E+02  0.10566000000E+00 0.  1.
        994    1    1    2    0    0 -0.65984484321E+01  0.27595967627E+02  0.52016951713E+01  0.17361329034E+03  0.17120000000E+03 0.  0.
        998    1    1    2    0    0  0.23302372788E+02 -0.16188166496E+02  0.14131445939E+04  0.14134647858E+04  0.10000000000E+02 0.  1.
</event>
<event>
 5    1  0.1556794E-008  0.3814715E+03  0.7957747E-01  0.3444776E+00
         13   -1    0    0    0    0  0.00000000000E+00  0.00000000000E+00  0.14999999963E+04  0.15000000000E+04  0.10566000000E+00 0.  1.
        994   -1    0    0    0    0 -0.00000000000E+00 -0.00000000000E+00  0.11368683772E-12  0.17120000000E+03  0.17120000000E+03 0.  0.
         13    1    1    2    0    0 -0.20716054884E+03  0.12879011709E+03  0.12596704755E+04  0.12830713563E+04  0.10566000000E+00 0.  1.
        994    1    1    2    0    0  0.20147731687E+03 -0.12602979330E+03  0.22960409757E+03  0.37216138923E+03  0.17120000000E+03 0.  0.
        998    1    1    2    0    0  0.56832319682E+01 -0.27603237908E+01  0.10725423166E+02  0.15967254464E+02  0.10000000000E+02 0. -1.
</event>
<event>
 5    1  0.1556794E-008  0.3736235E+03  0.7957747E-01  0.3479402E+00
         13   -1    0    0    0    0  0.00000000000E+00  0.00000000000E+00  0.14999999963E+04  0.15000000000E+04  0.10566000000E+00 0. -1.
        994   -1    0    0    0    0 -0.00000000000E+00 -0.00000000000E+00  0.11368683772E-12  0.17120000000E+03  0.17120000000E+03 0.  0.
         13    1    1    2    0    0  0.44364146298E+02 -0.14813297059E+00  0.14601145689E+03  0.15260260852E+03  0.10566000000E+00 0. -1.
        994    1    1    2    0    0 -0.40012524419E+01  0.78084637610E+01  0.76502540562E+01  0.17159530447E+03  0.17120000000E+03 0.  0.
        998    1    1    2    0    0 -0.40362893856E+02 -0.76603307905E+01  0.13463382853E+04  0.13470020870E+04  0.10000000000E+02 0. -1.
</event>
<event>
 5    1  0.1556794E-008  0.3855306E+03  0.7957747E-01  0.3427425E+00
         13   -1    0    0    0    0  0.00000000000E+00  0.00000000000E+00  0.14999999963E+04  0.15000000000E+04  0.10566000000E+00 0.  1.
        994   -1    0    0    0    0 -0.00000000000E+00 -0.00000000000E+00  0.11368683772E-12  0.17120000000E+03  0.17120000000E+03 0.  0.
         13    1    1    2    0    0  0.12011831023E+02  0.55479033207E+01  0.65259638258E+02  0.66587497816E+02  0.10566000000E+00 0.  1.
        994    1    1    2    0    0 -0.96234491205E+01  0.43723592019E+01  0.17338352860E+01  0.17153476173E+03  0.17120000000E+03 0.  0.
        998    1    1    2    0    0 -0.23883819028E+01 -0.99202625226E+01  0.14330065227E+04  0.14330777405E+04  0.10000000000E+02 0.  1.
</event>
<event>
 5    1  0.1556794E-008  0.3855613E+03  0.7957747E-01  0.3427295E+00
         13   -1    0    0    0    0  0.00000000000E+00  0.00000000000E+00  0.14999999963E+04  0.15000000000E+04  0.10566000000E+00 0. -1.
        994   -1    0    0    0    0 -0.00000000000E+00 -0.00000000000E+00  0.11368683772E-12  0.17120000000E+03  0.17120000000E+03 0.  0.
         13    1    1    2    0    0  0.10598627078E+03  0.68538218644E+02  0.27479637175E+03  0.30239648493E+03  0.10566000000E+00 0. -1.
        994    1    1    2    0    0 -0.12878492147E+03 -0.85105620383E+02  0.11394188478E+03  0.25713948690E+03  0.17120000000E+03 0.  0.
        998    1    1    2    0    0  0.22798650694E+02  0.16567401739E+02  0.11112617398E+04  0.11116640282E+04  0.10000000000E+02 0. -1.
</event>
<event>
 5    1  0.1576076E-008  0.3849694E+03  0.7957747E-01  0.3429802E+00
         13   -1    0    0    0    0  0.00000000000E+00  0.00000000000E+00  0.14999999963E+04  0.15000000000E+04  0.10566000000E+00 0.  1.
        994   -1    0    0    0    0 -0.00000000000E+00 -0.00000000000E+00  0.11368683772E-12  0.17120000000E+03  0.17120000000E+03 0.  0.
         13    1    1    2    0    0  0.90011740291E+01  0.64402523159E+01  0.37490444942E+02  0.39090185594E+02  0.10566000000E+00 0.  1.
        994    1    1    2    0    0 -0.26919894797E+01 -0.50037543028E+01  0.17515133259E+01  0.17130321703E+03  0.17120000000E+03 0.  0.
        998    1    1    2    0    0 -0.63091845495E+01 -0.14364980131E+01  0.14607580380E+04  0.14608065974E+04  0.10000000000E+02 0.  1.
</event>
<event>
 5    1  0.2188278E-008  0.3862025E+03  0.7957747E-01  0.3424588E+00
         13   -1    0    0    0    0  0.00000000000E+00  0.00000000000E+00  0.14999999963E+04  0.15000000000E+04  0.10566000000E+00 0.  1.
        994   -1    0    0    0    0 -0.00000000000E+00 -0.00000000000E+00  0.11368683772E-12  0.17120000000E+03  0.17120000000E+03 0.  0.
         13    1    1    2    0    0 -0.69640965299E+01 -0.87060245482E+01  0.62623686097E+02  0.63608417119E+02  0.10566000000E+00 0.  1.
        994    1    1    2    0    0  0.12014742049E+00  0.51815289042E+01  0.11222825512E+01  0.17128211289E+03  0.17120000000E+03 0.  0.
        998    1    1    2    0    0  0.68439491094E+01  0.35244956441E+01  0.14362540276E+04  0.14363094700E+04  0.10000000000E+02 0.  1.
</event>
<event>
 5    1  0.1556794E-008  0.3839434E+03  0.7957747E-01  0.3434166E+00
         13   -1    0    0    0    0  0.00000000000E+00  0.00000000000E+00  0.14999999963E+04  0.15000000000E+04  0.10566000000E+00 0.  1.
        994   -1    0    0    0    0 -0.00000000000E+00 -0.00000000000E+00  0.11368683772E-12  0.17120000000E+03  0.17120000000E+03 0.  0.
         13    1    1    2    0    0  0.12628863237E+02 -0.26079978166E+02  0.16710009230E+03  0.16959394287E+03  0.10566000000E+00 0.  1.
        994    1    1    2    0    0 -0.17745130647E+02  0.29621365131E+02  0.61001385600E+01  0.17475401748E+03  0.17120000000E+03 0.  0.
        998    1    1    2    0    0  0.51162674095E+01 -0.35413869654E+01  0.13267997654E+04  0.13268520397E+04  0.10000000000E+02 0.  1.
</event>
<event>
 5    1  0.1556794E-008  0.3807435E+03  0.7957747E-01  0.3447927E+00
         13   -1    0    0    0    0  0.00000000000E+00  0.00000000000E+00  0.14999999963E+04  0.15000000000E+04  0.10566000000E+00 0. -1.
        994   -1    0    0    0    0 -0.00000000000E+00 -0.00000000000E+00  0.11368683772E-12  0.17120000000E+03  0.17120000000E+03 0.  0.
         13    1    1    2    0    0 -0.78406330343E+01 -0.26963167091E+02  0.11470978520E+03  0.11809671414E+03  0.10566000000E+00 0. -1.
        994    1    1    2    0    0  0.15922149708E+02 -0.47732599218E+01  0.46802119571E+01  0.17206871664E+03  0.17120000000E+03 0.  0.
        998    1    1    2    0    0 -0.80815166741E+01  0.31736427012E+02  0.13806099991E+04  0.13810345692E+04  0.10000000000E+02 0. -1.
</event>
<event>
 5    1  0.1556794E-008  0.3800556E+03  0.7957747E-01  0.3450917E+00
         13   -1    0    0    0    0  0.00000000000E+00  0.00000000000E+00  0.14999999963E+04  0.15000000000E+04  0.10566000000E+00 0. -1.
        994   -1    0    0    0    0 -0.00000000000E+00 -0.00000000000E+00  0.11368683772E-12  0.17120000000E+03  0.17120000000E+03 0.  0.
         13    1    1    2    0    0 -0.46869013044E+02  0.29247696133E+02  0.94437183536E+02  0.10940989403E+03  0.10566000000E+00 0. -1.
        994    1    1    2    0    0  0.54474276866E+01 -0.16248069508E+02  0.17422865745E+02  0.17293545178E+03  0.17120000000E+03 0.  0.
        998    1    1    2    0    0  0.41421585357E+02 -0.12999626626E+02  0.13881399470E+04  0.13888546542E+04  0.10000000000E+02 0. -1.
</event>
<event>
 5    1  0.1556794E-008  0.3935994E+03  0.7957747E-01  0.3394000E+00
         13   -1    0    0    0    0  0.00000000000E+00  0.00000000000E+00  0.14999999963E+04  0.15000000000E+04  0.10566000000E+00 0.  1.
        994   -1    0    0    0    0 -0.00000000000E+00 -0.00000000000E+00  0.11368683772E-12  0.17120000000E+03  0.17120000000E+03 0.  0.
         13    1    1    2    0    0 -0.48448630915E+01  0.10238634401E+03  0.16081630368E+03  0.19070482645E+03  0.10566000000E+00 0.  1.
        994    1    1    2    0    0 -0.20059000575E+01 -0.14056055458E+03  0.10409643684E+03  0.24475865930E+03  0.17120000000E+03 0.  0.
        998    1    1    2    0    0  0.68507631490E+01  0.38174210572E+02  0.12350872558E+04  0.12357365142E+04  0.10000000000E+02 0.  1.
</event>
<event>
 5    1  0.1556794E-008  0.3850113E+03  0.7957747E-01  0.3429624E+00
         13   -1    0    0    0    0  0.00000000000E+00  0.00000000000E+00  0.14999999963E+04  0.15000000000E+04  0.10566000000E+00 0. -1.
        994   -1    0    0    0    0 -0.00000000000E+00 -0.00000000000E+00  0.11368683772E-12  0.17120000000E+03  0.17120000000E+03 0.  0.
         13    1    1    2    0    0  0.10158210431E+02 -0.50815613627E+00  0.33211760314E+02  0.34734415916E+02  0.10566000000E+00 0. -1.
        994    1    1    2    0    0  0.34723588573E+01 -0.17486044609E+01  0.16742416319E+01  0.17125232255E+03  0.17120000000E+03 0.  0.
        998    1    1    2    0    0 -0.13630569288E+02  0.22567605971E+01  0.14651139943E+04  0.14652132615E+04  0.10000000000E+02 0. -1.
</event>
<event>
 5    1  0.1556794E-008  0.3826167E+03  0.7957747E-01  0.3439843E+00
         13   -1    0    0    0    0  0.00000000000E+00  0.00000000000E+00  0.14999999963E+04  0.15000000000E+04  0.10566000000E+00 0. -1.
        994   -1    0    0    0    0 -0.00000000000E+00 -0.00000000000E+00  0.11368683772E-12  0.17120000000E+03  0.17120000000E+03 0.  0.
         13    1    1    2    0    0 -0.20410174868E+02 -0.20761040096E+02  0.16313662155E+03  0.16571410464E+03  0.10566000000E+00 0. -1.
        994    1    1    2    0    0  0.69531733316E+01  0.21389674081E+01  0.29934525544E+01  0.17138063648E+03  0.17120000000E+03 0.  0.
        998    1    1    2    0    0  0.13457001537E+02  0.18622072688E+02  0.13338699222E+04  0.13341052589E+04  0.10000000000E+02 0. -1.
</event>
<event>
 5    1  0.1556794E-008  0.3837572E+03  0.7957747E-01  0.3434960E+00
         13   -1    0    0    0    0  0.00000000000E+00  0.00000000000E+00  0.14999999963E+04  0.15000000000E+04  0.10566000000E+00 0. -1.
        994   -1    0    0    0    0 -0.00000000000E+00 -0.00000000000E+00  0.11368683772E-12  0.17120000000E+03  0.17120000000E+03 0.  0.
         13    1    1    2    0    0  0.13186442004E+02 -0.64983077116E+01  0.48314681099E+02  0.50501780460E+02  0.10566000000E+00 0. -1.
        994    1    1    2    0    0 -0.63044877523E+01  0.12028347010E+01  0.23844658844E+01  0.17133685842E+03  0.17120000000E+03 0.  0.
        998    1    1    2    0    0 -0.68819542520E+01  0.52954730106E+01  0.14493008493E+04  0.14493613611E+04  0.10000000000E+02 0. -1.
</event>
<event>
 5    1  0.1556794E-008  0.3858969E+03  0.7957747E-01  0.3425877E+00
         13   -1    0    0    0    0  0.00000000000E+00  0.00000000000E+00  0.14999999963E+04  0.15000000000E+04  0.10566000000E+00 0.  1.
        994   -1    0    0    0    0 -0.00000000000E+00 -0.00000000000E+00  0.11368683772E-12  0.17120000000E+03  0.17120000000E+03 0.  0.
         13    1    1    2    0    0  0.26425748733E+01  0.11121554098E+02  0.59157696211E+02  0.60252106623E+02  0.10566000000E+00 0.  1.
        994    1    1    2    0    0  0.37466135573E+01 -0.18988499603E-01  0.12315469318E+01  0.17124542091E+03  0.17120000000E+03 0.  0.
        998    1    1    2    0    0 -0.63891884306E+01 -0.11102565598E+02  0.14396107531E+04  0.14397024725E+04  0.10000000000E+02 0.  1.
</event>
<event>
 5    1  0.1556794E-008  0.3820292E+03  0.7957747E-01  0.3442370E+00
         13   -1    0    0    0    0  0.00000000000E+00  0.00000000000E+00  0.14999999963E+04  0.15000000000E+04  0.10566000000E+00 0.  1.
        994   -1    0    0    0    0 -0.00000000000E+00 -0.00000000000E+00  0.11368683772E-12  0.17120000000E+03  0.17120000000E+03 0.  0.
         13    1    1    2    0    0 -0.13365449238E+02 -0.96666124845E+01  0.41874541954E+02  0.45006300205E+02  0.10566000000E+00 0.  1.
        994    1    1    2    0    0  0.11270182463E+02  0.10972627884E+02  0.39343185344E+01  0.17196608514E+03  0.17120000000E+03 0.  0.
        998    1    1    2    0    0  0.20952667746E+01 -0.13060153997E+01  0.14541911358E+04  0.14542276147E+04  0.10000000000E+02 0.  1.
</event>
<event>
 5    1  0.1556794E-008  0.3853350E+03  0.7957747E-01  0.3428253E+00
         13   -1    0    0    0    0  0.00000000000E+00  0.00000000000E+00  0.14999999963E+04  0.15000000000E+04  0.10566000000E+00 0. -1.
        994   -1    0    0    0    0 -0.00000000000E+00 -0.00000000000E+00  0.11368683772E-12  0.17120000000E+03  0.17120000000E+03 0.  0.
         13    1    1    2    0    0 -0.42422488920E+01 -0.11257796986E+02  0.50679616193E+02  0.52088092019E+02  0.10566000000E+00 0. -1.
        994    1    1    2    0    0  0.46052427792E+01  0.28414412904E+01  0.15601197033E+01  0.17129260353E+03  0.17120000000E+03 0.  0.
        998    1    1    2    0    0 -0.36299388729E+00  0.84163556953E+01  0.14477602604E+04  0.14478193045E+04  0.10000000000E+02 0. -1.
</event>
<event>
 5    1  0.1556794E-008  0.3777516E+03  0.7957747E-01  0.3461007E+00
         13   -1    0    0    0    0  0.00000000000E+00  0.00000000000E+00  0.14999999963E+04  0.15000000000E+04  0.10566000000E+00 0. -1.
        994   -1    0    0    0    0 -0.00000000000E+00 -0.00000000000E+00  0.11368683772E-12  0.17120000000E+03  0.17120000000E+03 0.  0.
         13    1    1    2    0    0 -0.47435265138E+02 -0.23073658934E+02  0.24029055604E+03  0.24601231799E+03  0.10566000000E+00 0. -1.
        994    1    1    2    0    0  0.26747965257E+02  0.43853822671E+02  0.14211238763E+02  0.17930424065E+03  0.17120000000E+03 0.  0.
        998    1    1    2    0    0  0.20687299881E+02 -0.20780163737E+02  0.12454982015E+04  0.12458834414E+04  0.10000000000E+02 0. -1.
</event>
<event>
 5    1  0.1556794E-008  0.3788278E+03  0.7957747E-01  0.3456279E+00
         13   -1    0    0    0    0  0.00000000000E+00  0.00000000000E+00  0.14999999963E+04  0.15000000000E+04  0.10566000000E+00 0.  1.
        994   -1    0    0    0    0 -0.00000000000E+00 -0.00000000000E+00  0.11368683772E-12  0.17120000000E+03  0.17120000000E+03 0.  0.
         13    1    1    2    0    0  0.33545545436E+02 -0.31814241134E+02  0.25343517132E+03  0.25761763679E+03  0.10566000000E+00 0.  1.
        994    1    1    2    0    0  0.43483827646E+01  0.22281392083E+02  0.64575029382E+01  0.17281929351E+03  0.17120000000E+03 0.  0.
        998    1    1    2    0    0 -0.37893928201E+02  0.95328490506E+01  0.12401073220E+04  0.12407630697E+04  0.10000000000E+02 0.  1.
</event>
<event>
 5    1  0.1556794E-008  0.3814514E+03  0.7957747E-01  0.3444863E+00
         13   -1    0    0    0    0  0.00000000000E+00  0.00000000000E+00  0.14999999963E+04  0.15000000000E+04  0.10566000000E+00 0. -1.
        994   -1    0    0    0    0 -0.00000000000E+00 -0.00000000000E+00  0.11368683772E-12  0.17120000000E+03  0.17120000000E+03 0.  0.
         13    1    1    2    0    0 -0.20050942743E+02 -0.24568860613E+02  0.14707405985E+03  0.15045417729E+03  0.10566000000E+00 0. -1.
        994    1    1    2    0    0  0.13871153080E+02  0.12385193994E+02  0.45535646180E+01  0.17226716712E+03  0.17120000000E+03 0.  0.
        998    1    1    2    0    0  0.61797896631E+01  0.12183666619E+02  0.13483723718E+04  0.13484786556E+04  0.10000000000E+02 0. -1.
</event>
<event>
 5    1  0.1556794E-008  0.3847520E+03  0.7957747E-01  0.3430725E+00
         13   -1    0    0    0    0  0.00000000000E+00  0.00000000000E+00  0.14999999963E+04  0.15000000000E+04  0.10566000000E+00 0. -1.
        994   -1    0    0    0    0 -0.00000000000E+00 -0.00000000000E+00  0.11368683772E-12  0.17120000000E+03  0.17120000000E+03 0.  0.
         13    1    1    2    0    0 -0.30182045923E+01 -0.14064851802E+02  0.56856046894E+02  0.58647684078E+02  0.10566000000E+00 0. -1.
        994    1    1    2    0    0 -0.73519571631E+00  0.16172864114E+02  0.26164596583E+01  0.17198368500E+03  0.17120000000E+03 0.  0.
        998    1    1    2    0    0  0.37534003086E+01 -0.21080123122E+01  0.14405274897E+04  0.14405686309E+04  0.10000000000E+02 0. -1.
</event>
<event>
 5    1  0.1556794E-008  0.3698389E+03  0.7957747E-01  0.3496632E+00
         13   -1    0    0    0    0  0.00000000000E+00  0.00000000000E+00  0.14999999963E+04  0.15000000000E+04  0.10566000000E+00 0.  1.
        994   -1    0    0    0    0 -0.00000000000E+00 -0.00000000000E+00  0.11368683772E-12  0.17120000000E+03  0.17120000000E+03 0.  0.
         13    1    1    2    0    0  0.70135993236E+01 -0.65754359158E+02  0.20576261772E+03  0.21612749094E+03  0.10566000000E+00 0.  1.
        994    1    1    2    0    0  0.98497646908E+00  0.31924007265E+02  0.14426270681E+02  0.17475030674E+03  0.17120000000E+03 0.  0.
        998    1    1    2    0    0 -0.79985757926E+01  0.33830351893E+02  0.12798111079E+04  0.12803222023E+04  0.10000000000E+02 0.  1.
</event>
<event>
 5    1  0.1556794E-008  0.3768344E+03  0.7957747E-01  0.3465059E+00
         13   -1    0    0    0    0  0.00000000000E+00  0.00000000000E+00  0.14999999963E+04  0.15000000000E+04  0.10566000000E+00 0. -1.
        994   -1    0    0    0    0 -0.00000000000E+00 -0.00000000000E+00  0.11368683772E-12  0.17120000000E+03  0.17120000000E+03 0.  0.
         13    1    1    2    0    0  0.21527902026E+02  0.24610318485E+02  0.91342300429E+02  0.97018273295E+02  0.10566000000E+00 0. -1.
        994    1    1    2    0    0 -0.38992587696E+02  0.75821403980E+01  0.11089008552E+02  0.17609746409E+03  0.17120000000E+03 0.  0.
        998    1    1    2    0    0  0.17464685670E+02 -0.32192458883E+02  0.13975686873E+04  0.13980842626E+04  0.10000000000E+02 0. -1.
</event>
<event>
 5    1  0.2000442E-008  0.3861099E+03  0.7957747E-01  0.3424979E+00
         13   -1    0    0    0    0  0.00000000000E+00  0.00000000000E+00  0.14999999963E+04  0.15000000000E+04  0.10566000000E+00 0. -1.
        994   -1    0    0    0    0 -0.00000000000E+00 -0.00000000000E+00  0.11368683772E-12  0.17120000000E+03  0.17120000000E+03 0.  0.
         13    1    1    2    0    0 -0.20459457545E+01  0.10459863639E+02  0.54741076482E+02  0.55769088749E+02  0.10566000000E+00 0. -1.
        994    1    1    2    0    0  0.39384819723E+01 -0.27534573867E+01  0.11557650055E+01  0.17127133140E+03  0.17120000000E+03 0.  0.
        998    1    1    2    0    0 -0.18925362178E+01 -0.77064062524E+01  0.14441031548E+04  0.14441595798E+04  0.10000000000E+02 0. -1.
</event>
<event>
 5    1  0.1556794E-008  0.3811340E+03  0.7957747E-01  0.3446236E+00
         13   -1    0    0    0    0  0.00000000000E+00  0.00000000000E+00  0.14999999963E+04  0.15000000000E+04  0.10566000000E+00 0. -1.
        994   -1    0    0    0    0 -0.00000000000E+00 -0.00000000000E+00  0.11368683772E-12  0.17120000000E+03  0.17120000000E+03 0.  0.
         13    1    1    2    0    0  0.10580329376E+02 -0.96183946976E+01  0.27305004666E+02  0.30822578252E+02  0.10566000000E+00 0. -1.
        994    1    1    2    0    0 -0.10995260171E+02  0.26185008677E+01  0.39873821094E+01  0.17161903015E+03  0.17120000000E+03 0.  0.
        998    1    1    2    0    0  0.41493079536E+00  0.69998938298E+01  0.14687076095E+04  0.14687583916E+04  0.10000000000E+02 0. -1.
</event>
<event>
 5    1  0.1556794E-008  0.3738455E+03  0.7957747E-01  0.3478402E+00
         13   -1    0    0    0    0  0.00000000000E+00  0.00000000000E+00  0.14999999963E+04  0.15000000000E+04  0.10566000000E+00 0. -1.
        994   -1    0    0    0    0 -0.00000000000E+00 -0.00000000000E+00  0.11368683772E-12  0.17120000000E+03  0.17120000000E+03 0.  0.
         13    1    1    2    0    0 -0.61477732731E+02 -0.27948820588E+02  0.28060541666E+03  0.28861749638E+03  0.10566000000E+00 0. -1.
        994    1    1    2    0    0  0.45649030383E+02  0.29544583823E+02  0.17430494181E+02  0.18047154495E+03  0.17120000000E+03 0.  0.
        998    1    1    2    0    0  0.15828702348E+02 -0.15957632348E+01  0.12019640854E+04  0.12021109587E+04  0.10000000000E+02 0. -1.
</event>
<event>
 5    1  0.1556794E-008  0.3723826E+03  0.7957747E-01  0.3485012E+00
         13   -1    0    0    0    0  0.00000000000E+00  0.00000000000E+00  0.14999999963E+04  0.15000000000E+04  0.10566000000E+00 0. -1.
        994   -1    0    0    0    0 -0.00000000000E+00 -0.00000000000E+00  0.11368683772E-12  0.17120000000E+03  0.17120000000E+03 0.  0.
         13    1    1    2    0    0  0.26683866094E+02 -0.24257945768E+02  0.66702204652E+02  0.75826591062E+02  0.10566000000E+00 0. -1.
        994    1    1    2    0    0 -0.76973053500E+02  0.18356116098E+02  0.29819197992E+02  0.19094612468E+03  0.17120000000E+03 0.  0.
        998    1    1    2    0    0  0.50289187406E+02  0.59018296702E+01  0.14034785936E+04  0.14044272843E+04  0.10000000000E+02 0. -1.
</event>
<event>
 5    1  0.1556794E-008  0.3831778E+03  0.7957747E-01  0.3437437E+00
         13   -1    0    0    0    0  0.00000000000E+00  0.00000000000E+00  0.14999999963E+04  0.15000000000E+04  0.10566000000E+00 0. -1.
        994   -1    0    0    0    0 -0.00000000000E+00 -0.00000000000E+00  0.11368683772E-12  0.17120000000E+03  0.17120000000E+03 0.  0.
         13    1    1    2    0    0 -0.30215490852E+02  0.20194597014E+01  0.16484565244E+03  0.16760415985E+03  0.10566000000E+00 0. -1.
        994    1    1    2    0    0  0.28033702325E+02 -0.13476718381E+02  0.57448123685E+01  0.17409753954E+03  0.17120000000E+03 0.  0.
        998    1    1    2    0    0  0.21817885261E+01  0.11457258680E+02  0.13294095315E+04  0.13294983006E+04  0.10000000000E+02 0. -1.
</event>
<event>
 5    1  0.1556794E-008  0.3709098E+03  0.7957747E-01  0.3491720E+00
         13   -1    0    0    0    0  0.00000000000E+00  0.00000000000E+00  0.14999999963E+04  0.15000000000E+04  0.10566000000E+00 0. -1.
        994   -1    0    0    0    0 -0.00000000000E+00 -0.00000000000E+00  0.11368683772E-12  0.17120000000E+03  0.17120000000E+03 0.  0.
         13    1    1    2    0    0 -0.48369507523E+02 -0.48577576756E+01  0.14304019039E+03  0.15107519419E+03  0.10566000000E+00 0. -1.
        994    1    1    2    0    0  0.99524047665E+01  0.71130752087E+01  0.93102563996E+01  0.17188882184E+03  0.17120000000E+03 0.  0.
        998    1    1    2    0    0  0.38417102756E+02 -0.22553175331E+01  0.13476495495E+04  0.13482359840E+04  0.10000000000E+02 0. -1.
</event>
<event>
 5    1  0.1556794E-008  0.3855809E+03  0.7957747E-01  0.3427212E+00
         13   -1    0    0    0    0  0.00000000000E+00  0.00000000000E+00  0.14999999963E+04  0.15000000000E+04  0.10566000000E+00 0. -1.
        994   -1    0    0    0    0 -0.00000000000E+00 -0.00000000000E+00  0.11368683772E-12  0.17120000000E+03  0.17120000000E+03 0.  0.
         13    1    1    2    0    0  0.81176895985E+01 -0.75580310422E+01  0.48034330189E+02  0.49298364663E+02  0.10566000000E+00 0. -1.
        994    1    1    2    0    0  0.11651021162E+02  0.13852457262E+02  0.24181872807E+01  0.17217120693E+03  0.17120000000E+03 0.  0.
        998    1    1    2    0    0 -0.19768710760E+02 -0.62944262201E+01  0.14495474788E+04  0.14497304284E+04  0.10000000000E+02 0. -1.
</event>
<event>
 5    1  0.1556794E-008  0.3694896E+03  0.7957747E-01  0.3498240E+00
         13   -1    0    0    0    0  0.00000000000E+00  0.00000000000E+00  0.14999999963E+04  0.15000000000E+04  0.10566000000E+00 0. -1.
        994   -1    0    0    0    0 -0.00000000000E+00 -0.00000000000E+00  0.11368683772E-12  0.17120000000E+03  0.17120000000E+03 0.  0.
         13    1    1    2    0    0  0.92675594001E+02 -0.16467317479E+03  0.84563505626E+03  0.86648986132E+03  0.10566000000E+00 0. -1.
        994    1    1    2    0    0 -0.85997602666E+02  0.15297708099E+03  0.12521106351E+03  0.27529043826E+03  0.17120000000E+03 0.  0.
        998    1    1    2    0    0 -0.66779913345E+01  0.11696093803E+02  0.52915387650E+03  0.52941970042E+03  0.10000000000E+02 0. -1.
</event>
<event>
 5    1  0.1556794E-008  0.3859474E+03  0.7957747E-01  0.3425664E+00
         13   -1    0    0    0    0  0.00000000000E+00  0.00000000000E+00  0.14999999963E+04  0.15000000000E+04  0.10566000000E+00 0. -1.
        994   -1    0    0    0    0 -0.00000000000E+00 -0.00000000000E+00  0.11368683772E-12  0.17120000000E+03  0.17120000000E+03 0.  0.
         13    1    1    2    0    0  0.65721308376E+01  0.89411753798E+01  0.56251984058E+02  0.57336152604E+02  0.10566000000E+00 0. -1.
        994    1    1    2    0    0  0.72715355833E+01 -0.63023653731E+01  0.14641481979E+01  0.17147646710E+03  0.17120000000E+03 0.  0.
        998    1    1    2    0    0 -0.13843666421E+02 -0.26388100067E+01  0.14422838640E+04  0.14423873803E+04  0.10000000000E+02 0. -1.
</event>
<event>
 5    1  0.1556794E-008  0.3804762E+03  0.7957747E-01  0.3449088E+00
         13   -1    0    0    0    0  0.00000000000E+00  0.00000000000E+00  0.14999999963E+04  0.15000000000E+04  0.10566000000E+00 0.  1.
        994   -1    0    0    0    0 -0.00000000000E+00 -0.00000000000E+00  0.11368683772E-12  0.17120000000E+03  0.17120000000E+03 0.  0.
         13    1    1    2    0    0 -0.22028426158E+02  0.34123049515E+02  0.43607680041E+02  0.59592574956E+02  0.10566000000E+00 0.  1.
        994    1    1    2    0    0  0.89370819486E+01 -0.27326659966E+02  0.19595232469E+02  0.17469983089E+03  0.17120000000E+03 0.  0.
        998    1    1    2    0    0  0.13091344210E+02 -0.67963895490E+01  0.14367970838E+04  0.14369075942E+04  0.10000000000E+02 0.  1.
</event>
<event>
 5    1  0.1556794E-008  0.3830293E+03  0.7957747E-01  0.3438074E+00
         13   -1    0    0    0    0  0.00000000000E+00  0.00000000000E+00  0.14999999963E+04  0.15000000000E+04  0.10566000000E+00 0. -1.
        994   -1    0    0    0    0 -0.00000000000E+00 -0.00000000000E+00  0.11368683772E-12  0.17120000000E+03  0.17120000000E+03 0.  0.
         13    1    1    2    0    0  0.10754218404E+02 -0.26114167686E+01  0.22976484906E+02  0.25502994602E+02  0.10566000000E+00 0. -1.
        994    1    1    2    0    0 -0.21718239058E+01 -0.32290925490E+01  0.26618750860E+01  0.17126491012E+03  0.17120000000E+03 0.  0.
        998    1    1    2    0    0 -0.85823944986E+01  0.58405093176E+01  0.14743616363E+04  0.14744320953E+04  0.10000000000E+02 0. -1.
</event>
<event>
 5    1  0.1556794E-008  0.3928052E+03  0.7957747E-01  0.3397229E+00
         13   -1    0    0    0    0  0.00000000000E+00  0.00000000000E+00  0.14999999963E+04  0.15000000000E+04  0.10566000000E+00 0.  1.
        994   -1    0    0    0    0 -0.00000000000E+00 -0.00000000000E+00  0.11368683772E-12  0.17120000000E+03  0.17120000000E+03 0.  0.
         13    1    1    2    0    0 -0.14439642968E+02 -0.13099107598E+02 -0.23908888096E+01  0.19642235673E+02  0.10566000000E+00 0.  1.
        994    1    1    2    0    0  0.23374673618E+02  0.32983420548E+00  0.25628131611E+02  0.17467892056E+03  0.17120000000E+03 0.  0.
        998    1    1    2    0    0 -0.89350306504E+01  0.12769273393E+02  0.14767627535E+04  0.14768788438E+04  0.10000000000E+02 0.  1.
</event>
<event>
 5    1  0.1556794E-008  0.3835245E+03  0.7957747E-01  0.3435954E+00
         13   -1    0    0    0    0  0.00000000000E+00  0.00000000000E+00  0.14999999963E+04  0.15000000000E+04  0.10566000000E+00 0.  1.
        994   -1    0    0    0    0 -0.00000000000E+00 -0.00000000000E+00  0.11368683772E-12  0.17120000000E+03  0.17120000000E+03 0.  0.
         13    1    1    2    0    0 -0.11287784984E+02 -0.30075745457E+01  0.28262978381E+02  0.30582130494E+02  0.10566000000E+00 0.  1.
        994    1    1    2    0    0  0.63940427816E+01  0.11819577996E+01  0.25042033446E+01  0.17134173993E+03  0.17120000000E+03 0.  0.
        998    1    1    2    0    0  0.48937422027E+01  0.18256167461E+01  0.14692328146E+04  0.14692761296E+04  0.10000000000E+02 0.  1.
</event>
<event>
 5    1  0.1556794E-008  0.3770029E+03  0.7957747E-01  0.3464313E+00
         13   -1    0    0    0    0  0.00000000000E+00  0.00000000000E+00  0.14999999963E+04  0.15000000000E+04  0.10566000000E+00 0.  1.
        994   -1    0    0    0    0 -0.00000000000E+00 -0.00000000000E+00  0.11368683772E-12  0.17120000000E+03  0.17120000000E+03 0.  0.
         13    1    1    2    0    0  0.18809104242E+02 -0.44276083839E+02  0.19051338596E+03  0.19649304159E+03  0.10566000000E+00 0.  1.
        994    1    1    2    0    0 -0.19811217173E+02  0.32777421814E+02  0.10622436721E+02  0.17575300814E+03  0.17120000000E+03 0.  0.
        998    1    1    2    0    0  0.10021129309E+01  0.11498662025E+02  0.12988641736E+04  0.12989539503E+04  0.10000000000E+02 0.  1.
</event>
<event>
 5    1  0.1556794E-008  0.3758728E+03  0.7957747E-01  0.3469329E+00
         13   -1    0    0    0    0  0.00000000000E+00  0.00000000000E+00  0.14999999963E+04  0.15000000000E+04  0.10566000000E+00 0.  1.
        994   -1    0    0    0    0 -0.00000000000E+00 -0.00000000000E+00  0.11368683772E-12  0.17120000000E+03  0.17120000000E+03 0.  0.
         13    1    1    2    0    0 -0.29391560130E+02 -0.34629153634E+02  0.18009299925E+03  0.18573244636E+03  0.10566000000E+00 0.  1.
        994    1    1    2    0    0  0.86914511014E+01  0.58454250734E+01  0.66031495541E+01  0.17164717271E+03  0.17120000000E+03 0.  0.
        998    1    1    2    0    0  0.20700109029E+02  0.28783728560E+02  0.13133038475E+04  0.13138203809E+04  0.10000000000E+02 0.  1.
</event>
<event>
 5    1  0.1556794E-008  0.3711706E+03  0.7957747E-01  0.3490528E+00
         13   -1    0    0    0    0  0.00000000000E+00  0.00000000000E+00  0.14999999963E+04  0.15000000000E+04  0.10566000000E+00 0. -1.
        994   -1    0    0    0    0 -0.00000000000E+00 -0.00000000000E+00  0.11368683772E-12  0.17120000000E+03  0.17120000000E+03 0.  0.
         13    1    1    2    0    0  0.59364557101E+01 -0.58840476619E+02  0.15917025456E+03  0.16980172053E+03  0.10566000000E+00 0. -1.
        994    1    1    2    0    0  0.60658205087E+01  0.19190122672E+02  0.12982277730E+02  0.17286710075E+03  0.17120000000E+03 0.  0.
        998    1    1    2    0    0 -0.12002276219E+02  0.39650353947E+02  0.13278474640E+04  0.13285311787E+04  0.10000000000E+02 0. -1.
</event>
<event>
 5    1  0.1556794E-008  0.3840535E+03  0.7957747E-01  0.3433696E+00
         13   -1    0    0    0    0  0.00000000000E+00  0.00000000000E+00  0.14999999963E+04  0.15000000000E+04  0.10566000000E+00 0.  1.
        994   -1    0    0    0    0 -0.00000000000E+00 -0.00000000000E+00  0.11368683772E-12  0.17120000000E+03  0.17120000000E+03 0.  0.
         13    1    1    2    0    0 -0.38775163544E+00  0.25993086897E+02  0.13005350811E+03  0.13262623064E+03  0.10566000000E+00 0.  1.
        994    1    1    2    0    0  0.11888845352E+02 -0.43054317231E+02  0.87098562339E+01  0.17714491376E+03  0.17120000000E+03 0.  0.
        998    1    1    2    0    0 -0.11501093716E+02  0.17061230333E+02  0.13612366319E+04  0.13614288556E+04  0.10000000000E+02 0.  1.
</event>
<event>
 5    1  0.1556794E-008  0.3803603E+03  0.7957747E-01  0.3449591E+00
         13   -1    0    0    0    0  0.00000000000E+00  0.00000000000E+00  0.14999999963E+04  0.15000000000E+04  0.10566000000E+00 0. -1.
        994   -1    0    0    0    0 -0.00000000000E+00 -0.00000000000E+00  0.11368683772E-12  0.17120000000E+03  0.17120000000E+03 0.  0.
         13    1    1    2    0    0 -0.11946717264E+02  0.14944864704E+02  0.41810821651E+02  0.45980746031E+02  0.10566000000E+00 0. -1.
        994    1    1    2    0    0 -0.17973561455E+02 -0.56083993421E+02  0.15620465490E+02  0.18171929499E+03  0.17120000000E+03 0.  0.
        998    1    1    2    0    0  0.29920278720E+02  0.41139128717E+02  0.14425687091E+04  0.14434999590E+04  0.10000000000E+02 0. -1.
</event>
<event>
 5    1  0.1556794E-008  0.3823673E+03  0.7957747E-01  0.3440915E+00
         13   -1    0    0    0    0  0.00000000000E+00  0.00000000000E+00  0.14999999963E+04  0.15000000000E+04  0.10566000000E+00 0.  1.
        994   -1    0    0    0    0 -0.00000000000E+00 -0.00000000000E+00  0.11368683772E-12  0.17120000000E+03  0.17120000000E+03 0.  0.
         13    1    1    2    0    0  0.11781865932E+01 -0.26954690348E+02  0.10603366579E+03  0.10941248969E+03  0.10566000000E+00 0.  1.
        994    1    1    2    0    0 -0.84055225418E+01  0.40438842572E+02  0.86221981026E+01  0.17632281502E+03  0.17120000000E+03 0.  0.
        998    1    1    2    0    0  0.72273359486E+01 -0.13484152224E+02  0.13853441324E+04  0.13854646953E+04  0.10000000000E+02 0.  1.
</event>
<event>
 5    1  0.1556794E-008  0.3850666E+03  0.7957747E-01  0.3429390E+00
         13   -1    0    0    0    0  0.00000000000E+00  0.00000000000E+00  0.14999999963E+04  0.15000000000E+04  0.10566000000E+00 0.  1.
        994   -1    0    0    0    0 -0.00000000000E+00 -0.00000000000E+00  0.11368683772E-12  0.17120000000E+03  0.17120000000E+03 0.  0.
         13    1    1    2    0    0 -0.40172386214E+01  0.15498630425E+02  0.79970699549E+02  0.81557769107E+02  0.10566000000E+00 0.  1.
        994    1    1    2    0    0  0.70065410158E+01 -0.96508001474E+01  0.20648451059E+01  0.17162730886E+03  0.17120000000E+03 0.  0.
        998    1    1    2    0    0 -0.29893023944E+01 -0.58478302779E+01  0.14179644516E+04  0.14180149220E+04  0.10000000000E+02 0.  1.
</event>
<event>
 5    1  0.1556794E-008  0.3817938E+03  0.7957747E-01  0.3443385E+00
         13   -1    0    0    0    0  0.00000000000E+00  0.00000000000E+00  0.14999999963E+04  0.15000000000E+04  0.10566000000E+00 0. -1.
        994   -1    0    0    0    0 -0.00000000000E+00 -0.00000000000E+00  0.11368683772E-12  0.17120000000E+03  0.17120000000E+03 0.  0.
         13    1    1    2    0    0  0.41325213643E+01 -0.13045175256E+02  0.28419700458E+02  0.31542746686E+02  0.10566000000E+00 0. -1.
        994    1    1    2    0    0 -0.59001034770E+01  0.49108172848E+00  0.33468640825E+01  0.17133503402E+03  0.17120000000E+03 0.  0.
        998    1    1    2    0    0  0.17675821127E+01  0.12554093528E+02  0.14682334317E+04  0.14683222193E+04  0.10000000000E+02 0. -1.
</event>
<event>
 5    1  0.1556794E-008  0.3780323E+03  0.7957747E-01  0.3459771E+00
         13   -1    0    0    0    0  0.00000000000E+00  0.00000000000E+00  0.14999999963E+04  0.15000000000E+04  0.10566000000E+00 0. -1.
        994   -1    0    0    0    0 -0.00000000000E+00 -0.00000000000E+00  0.11368683772E-12  0.17120000000E+03  0.17120000000E+03 0.  0.
         13    1    1    2    0    0  0.32707394094E+02 -0.17502112240E+02  0.15974149103E+03  0.16399223360E+03  0.10566000000E+00 0. -1.
        994    1    1    2    0    0  0.93717750534E+01 -0.13129790698E+01  0.54311385322E+01  0.17154734433E+03  0.17120000000E+03 0.  0.
        998    1    1    2    0    0 -0.42079169147E+02  0.18815091310E+02  0.13348273667E+04  0.13356604221E+04  0.10000000000E+02 0. -1.
</event>
<event>
 5    1  0.1556794E-008  0.3818895E+03  0.7957747E-01  0.3442972E+00
         13   -1    0    0    0    0  0.00000000000E+00  0.00000000000E+00  0.14999999963E+04  0.15000000000E+04  0.10566000000E+00 0.  1.
        994   -1    0    0    0    0 -0.00000000000E+00 -0.00000000000E+00  0.11368683772E-12  0.17120000000E+03  0.17120000000E+03 0.  0.
         13    1    1    2    0    0 -0.32445266943E+02 -0.31757912034E+02  0.23853396226E+03  0.24281623224E+03  0.10566000000E+00 0.  1.
        994    1    1    2    0    0  0.45591753304E+02  0.40202366652E+02  0.15555951979E+02  0.18233558593E+03  0.17120000000E+03 0.  0.
        998    1    1    2    0    0 -0.13146486362E+02 -0.84444546174E+01  0.12459100820E+04  0.12460481818E+04  0.10000000000E+02 0.  1.
</event>
<event>
 5    1  0.1556794E-008  0.3805390E+03  0.7957747E-01  0.3448815E+00
         13   -1    0    0    0    0  0.00000000000E+00  0.00000000000E+00  0.14999999963E+04  0.15000000000E+04  0.10566000000E+00 0.  1.
        994   -1    0    0    0    0 -0.00000000000E+00 -0.00000000000E+00  0.11368683772E-12  0.17120000000E+03  0.17120000000E+03 0.  0.
         13    1    1    2    0    0 -0.49194566131E+02 -0.43083259172E+02  0.38318728545E+03  0.38872712724E+03  0.10566000000E+00 0.  1.
        994    1    1    2    0    0  0.64775327236E+02  0.36043895667E+02  0.22421024395E+02  0.18790196318E+03  0.17120000000E+03 0.  0.
        998    1    1    2    0    0 -0.15580761104E+02  0.70393635048E+01  0.10943916864E+04  0.10945709096E+04  0.10000000000E+02 0.  1.
</event>
<event>
 5    1  0.1556794E-008  0.3773045E+03  0.7957747E-01  0.3462980E+00
         13   -1    0    0    0    0  0.00000000000E+00  0.00000000000E+00  0.14999999963E+04  0.15000000000E+04  0.10566000000E+00 0. -1.
        994   -1    0    0    0    0 -0.00000000000E+00 -0.00000000000E+00  0.11368683772E-12  0.17120000000E+03  0.17120000000E+03 0.  0.
         13    1    1    2    0    0 -0.29082261918E+02 -0.56765626145E+01  0.73420438737E+02  0.79174322288E+02  0.10566000000E+00 0. -1.
        994    1    1    2    0    0  0.34057201931E+02 -0.10693209657E+01  0.94262195408E+01  0.17481227092E+03  0.17120000000E+03 0.  0.
        998    1    1    2    0    0 -0.49749400127E+01  0.67458835801E+01  0.14171533380E+04  0.14172134068E+04  0.10000000000E+02 0. -1.
</event>
<event>
 5    1  0.1556794E-008  0.3808078E+03  0.7957747E-01  0.3447649E+00
         13   -1    0    0    0    0  0.00000000000E+00  0.00000000000E+00  0.14999999963E+04  0.15000000000E+04  0.10566000000E+00 0. -1.
        994   -1    0    0    0    0 -0.00000000000E+00 -0.00000000000E+00  0.11368683772E-12  0.17120000000E+03  0.17120000000E+03 0.  0.
         13    1    1    2    0    0 -0.25303671812E+02  0.56059769612E+01  0.88715993396E+02  0.92424246998E+02  0.10566000000E+00 0. -1.
        994    1    1    2    0    0  0.15558104618E+02 -0.52611233595E+01  0.46257619899E+01  0.17204816684E+03  0.17120000000E+03 0.  0.
        998    1    1    2    0    0  0.97455671937E+01 -0.34485360162E+00  0.14066582409E+04  0.14067275862E+04  0.10000000000E+02 0. -1.
</event>
<event>
 5    1  0.1556794E-008  0.3819589E+03  0.7957747E-01  0.3442673E+00
         13   -1    0    0    0    0  0.00000000000E+00  0.00000000000E+00  0.14999999963E+04  0.15000000000E+04  0.10566000000E+00 0. -1.
        994   -1    0    0    0    0 -0.00000000000E+00 -0.00000000000E+00  0.11368683772E-12  0.17120000000E+03  0.17120000000E+03 0.  0.
         13    1    1    2    0    0 -0.17375432685E+02 -0.35168350841E+02  0.36517820647E+02  0.53593665211E+02  0.10566000000E+00 0. -1.
        994    1    1    2    0    0  0.18772004253E+02  0.34782506882E+02  0.23130565051E+02  0.17721928216E+03  0.17120000000E+03 0.  0.
        998    1    1    2    0    0 -0.13965715682E+01  0.38584395921E+00  0.14403516106E+04  0.14403870526E+04  0.10000000000E+02 0. -1.
</event>
<event>
 5    1  0.1556794E-008  0.3811349E+03  0.7957747E-01  0.3446232E+00
         13   -1    0    0    0    0  0.00000000000E+00  0.00000000000E+00  0.14999999963E+04  0.15000000000E+04  0.10566000000E+00 0. -1.
        994   -1    0    0    0    0 -0.00000000000E+00 -0.00000000000E+00  0.11368683772E-12  0.17120000000E+03  0.17120000000E+03 0.  0.
         13    1    1    2    0    0  0.41951674774E+02 -0.23077166972E+02  0.27107258909E+03  0.27526870213E+03  0.10566000000E+00 0. -1.
        994    1    1    2    0    0 -0.41625304443E+02  0.19130458986E+02  0.10582508979E+02  0.17753892510E+03  0.17120000000E+03 0.  0.
        998    1    1    2    0    0 -0.32637033136E+00  0.39467079863E+01  0.12183448982E+04  0.12183923728E+04  0.10000000000E+02 0. -1.
</event>
<event>
 5    1  0.1556794E-008  0.3792412E+03  0.7957747E-01  0.3454469E+00
         13   -1    0    0    0    0  0.00000000000E+00  0.00000000000E+00  0.14999999963E+04  0.15000000000E+04  0.10566000000E+00 0.  1.
        994   -1    0    0    0    0 -0.00000000000E+00 -0.00000000000E+00  0.11368683772E-12  0.17120000000E+03  0.17120000000E+03 0.  0.
         13    1    1    2    0    0  0.77966763508E+01 -0.70527597000E+02  0.15299988551E+03  0.16865321292E+03  0.10566000000E+00 0.  1.
        994    1    1    2    0    0  0.27985681505E+02  0.48816753492E+02  0.27442483023E+02  0.18228769477E+03  0.17120000000E+03 0.  0.
        998    1    1    2    0    0 -0.35782357856E+02  0.21710843508E+02  0.13195576277E+04  0.13202590923E+04  0.10000000000E+02 0.  1.
</event>
<event>
 5    1  0.1556794E-008  0.3795634E+03  0.7957747E-01  0.3453062E+00
         13   -1    0    0    0    0  0.00000000000E+00  0.00000000000E+00  0.14999999963E+04  0.15000000000E+04  0.10566000000E+00 0. -1.
        994   -1    0    0    0    0 -0.00000000000E+00 -0.00000000000E+00  0.11368683772E-12  0.17120000000E+03  0.17120000000E+03 0.  0.
         13    1    1    2    0    0  0.64204282298E+02 -0.29798924298E+02  0.42063325361E+03  0.42654719664E+03  0.10566000000E+00 0. -1.
        994    1    1    2    0    0 -0.62994878136E+02  0.28849913903E+02  0.20596410023E+02  0.18583413117E+03  0.17120000000E+03 0.  0.
        998    1    1    2    0    0 -0.12094041617E+01  0.94901039496E+00  0.10587703326E+04  0.10588186722E+04  0.10000000000E+02 0.  0.
</event>
<event>
 5    1  0.1556794E-008  0.3831676E+03  0.7957747E-01  0.3437481E+00
         13   -1    0    0    0    0  0.00000000000E+00  0.00000000000E+00  0.14999999963E+04  0.15000000000E+04  0.10566000000E+00 0. -1.
        994   -1    0    0    0    0 -0.00000000000E+00 -0.00000000000E+00  0.11368683772E-12  0.17120000000E+03  0.17120000000E+03 0.  0.
         13    1    1    2    0    0 -0.26200937266E+02 -0.85578017369E+00  0.12840473645E+03  0.13105345848E+03  0.10566000000E+00 0. -1.
        994    1    1    2    0    0  0.22052046166E+02  0.16952467238E+02  0.51064175934E+01  0.17352001149E+03  0.17120000000E+03 0.  0.
        998    1    1    2    0    0  0.41488911002E+01 -0.16096687065E+02  0.13664888422E+04  0.13666265300E+04  0.10000000000E+02 0. -1.
</event>
<event>
 5    1  0.1556794E-008  0.3851010E+03  0.7957747E-01  0.3429244E+00
         13   -1    0    0    0    0  0.00000000000E+00  0.00000000000E+00  0.14999999963E+04  0.15000000000E+04  0.10566000000E+00 0. -1.
        994   -1    0    0    0    0 -0.00000000000E+00 -0.00000000000E+00  0.11368683772E-12  0.17120000000E+03  0.17120000000E+03 0.  0.
         13    1    1    2    0    0 -0.11609208954E+02 -0.78601468170E+00  0.42984131662E+02  0.44531318085E+02  0.10566000000E+00 0. -1.
        994    1    1    2    0    0  0.74189190561E+01 -0.59800837488E+01  0.18785840670E+01  0.17147527763E+03  0.17120000000E+03 0.  0.
        998    1    1    2    0    0  0.41902898975E+01  0.67660984305E+01  0.14551372805E+04  0.14551934043E+04  0.10000000000E+02 0. -1.
</event>
<event>
 5    1  0.1556794E-008  0.3815840E+03  0.7957747E-01  0.3444290E+00
         13   -1    0    0    0    0  0.00000000000E+00  0.00000000000E+00  0.14999999963E+04  0.15000000000E+04  0.10566000000E+00 0. -1.
        994   -1    0    0    0    0 -0.00000000000E+00 -0.00000000000E+00  0.11368683772E-12  0.17120000000E+03  0.17120000000E+03 0.  0.
         13    1    1    2    0    0 -0.29091092787E+02  0.16408862610E+02  0.19576689780E+03  0.19859564923E+03  0.10566000000E+00 0. -1.
        994    1    1    2    0    0  0.86760781722E+00  0.21029805982E+01  0.33529150153E+01  0.17124794104E+03  0.17120000000E+03 0.  0.
        998    1    1    2    0    0  0.28223484970E+02 -0.18511843208E+02  0.13008801835E+04  0.13013564097E+04  0.10000000000E+02 0. -1.
</event>
<event>
 5    1  0.1556794E-008  0.3710003E+03  0.7957747E-01  0.3491306E+00
         13   -1    0    0    0    0  0.00000000000E+00  0.00000000000E+00  0.14999999963E+04  0.15000000000E+04  0.10566000000E+00 0. -1.
        994   -1    0    0    0    0 -0.00000000000E+00 -0.00000000000E+00  0.11368683772E-12  0.17120000000E+03  0.17120000000E+03 0.  0.
         13    1    1    2    0    0  0.20566888257E+02  0.82345907168E+01  0.25649897175E+02  0.33892975172E+02  0.10566000000E+00 0. -1.
        994    1    1    2    0    0  0.85720638922E+00  0.12269977619E+02  0.92686397485E+01  0.17189134602E+03  0.17120000000E+03 0.  0.
        998    1    1    2    0    0 -0.21424094646E+02 -0.20504568336E+02  0.14650814594E+04  0.14654156788E+04  0.10000000000E+02 0. -1.
</event>
<event>
 5    1  0.1556794E-008  0.3724771E+03  0.7957747E-01  0.3484583E+00
         13   -1    0    0    0    0  0.00000000000E+00  0.00000000000E+00  0.14999999963E+04  0.15000000000E+04  0.10566000000E+00 0. -1.
        994   -1    0    0    0    0 -0.00000000000E+00 -0.00000000000E+00  0.11368683772E-12  0.17120000000E+03  0.17120000000E+03 0.  0.
         13    1    1    2    0    0 -0.54392104526E+00 -0.40029266492E+02  0.91437047300E+02  0.99816746135E+02  0.10566000000E+00 0. -1.
        994    1    1    2    0    0 -0.37961553326E+01  0.42086129809E+02  0.14126787915E+02  0.17690296565E+03  0.17120000000E+03 0.  0.
        998    1    1    2    0    0  0.43400763778E+01 -0.20568633169E+01  0.13944361611E+04  0.13944802882E+04  0.10000000000E+02 0. -1.
</event>
<event>
 5    1  0.1556794E-008  0.3790124E+03  0.7957747E-01  0.3455470E+00
         13   -1    0    0    0    0  0.00000000000E+00  0.00000000000E+00  0.14999999963E+04  0.15000000000E+04  0.10566000000E+00 0.  1.
        994   -1    0    0    0    0 -0.00000000000E+00 -0.00000000000E+00  0.11368683772E-12  0.17120000000E+03  0.17120000000E+03 0.  0.
         13    1    1    2    0    0  0.70791130575E+01  0.28237413729E+02  0.10690123073E+03  0.11079417706E+03  0.10566000000E+00 0.  1.
        994    1    1    2    0    0  0.17960075477E+02  0.11608590367E+02  0.61678316578E+01  0.17264068416E+03  0.17120000000E+03 0.  0.
        998    1    1    2    0    0 -0.25039188534E+02 -0.39846004095E+02  0.13869309339E+04  0.13877651388E+04  0.10000000000E+02 0.  1.
</event>
<event>
 5    1  0.1556794E-008  0.3773864E+03  0.7957747E-01  0.3462618E+00
         13   -1    0    0    0    0  0.00000000000E+00  0.00000000000E+00  0.14999999963E+04  0.15000000000E+04  0.10566000000E+00 0. -1.
        994   -1    0    0    0    0 -0.00000000000E+00 -0.00000000000E+00  0.11368683772E-12  0.17120000000E+03  0.17120000000E+03 0.  0.
         13    1    1    2    0    0  0.29342066826E+02 -0.11760590152E+03  0.67483479947E+03  0.68563410264E+03  0.10566000000E+00 0. -1.
        994    1    1    2    0    0 -0.10235186001E+02  0.12658438952E+03  0.61933078758E+02  0.22197637925E+03  0.17120000000E+03 0.  0.
        998    1    1    2    0    0 -0.19106880825E+02 -0.89784880029E+01  0.76323211805E+03  0.76358951811E+03  0.10000000000E+02 0.  1.
</event>
<event>
 5    1  0.1556794E-008  0.3785522E+03  0.7957747E-01  0.3457487E+00
         13   -1    0    0    0    0  0.00000000000E+00  0.00000000000E+00  0.14999999963E+04  0.15000000000E+04  0.10566000000E+00 0.  1.
        994   -1    0    0    0    0 -0.00000000000E+00 -0.00000000000E+00  0.11368683772E-12  0.17120000000E+03  0.17120000000E+03 0.  0.
         13    1    1    2    0    0 -0.77454166172E+01  0.93468621815E+01  0.13063783901E+02  0.17833365500E+02  0.10566000000E+00 0.  1.
        994    1    1    2    0    0 -0.12137068301E+01 -0.98443493832E+01  0.51962952532E+01  0.17156580599E+03  0.17120000000E+03 0.  0.
        998    1    1    2    0    0  0.89591234473E+01  0.49748720163E+00  0.14817399171E+04  0.14818008285E+04  0.10000000000E+02 0.  1.
</event>
<event>
 5    1  0.1556794E-008  0.3754464E+03  0.7957747E-01  0.3471229E+00
         13   -1    0    0    0    0  0.00000000000E+00  0.00000000000E+00  0.14999999963E+04  0.15000000000E+04  0.10566000000E+00 0.  1.
        994   -1    0    0    0    0 -0.00000000000E+00 -0.00000000000E+00  0.11368683772E-12  0.17120000000E+03  0.17120000000E+03 0.  0.
         13    1    1    2    0    0  0.38253666641E+02  0.34819119286E+02  0.89084837758E+02  0.10301375424E+03  0.10566000000E+00 0.  1.
        994    1    1    2    0    0 -0.42779380709E+02 -0.17781382463E+02  0.21537136321E+02  0.17866040753E+03  0.17120000000E+03 0.  0.
        998    1    1    2    0    0  0.45257140683E+01 -0.17037736822E+02  0.13893780222E+04  0.13895258382E+04  0.10000000000E+02 0.  1.
</event>
<event>
 5    1  0.1556794E-008  0.3733513E+03  0.7957747E-01  0.3480629E+00
         13   -1    0    0    0    0  0.00000000000E+00  0.00000000000E+00  0.14999999963E+04  0.15000000000E+04  0.10566000000E+00 0.  1.
        994   -1    0    0    0    0 -0.00000000000E+00 -0.00000000000E+00  0.11368683772E-12  0.17120000000E+03  0.17120000000E+03 0.  0.
         13    1    1    2    0    0 -0.52902399855E+02  0.14824523855E+02  0.19754786807E+03  0.20504536513E+03  0.10566000000E+00 0.  1.
        994    1    1    2    0    0  0.29979352103E+02 -0.13356008795E+02  0.11218611698E+02  0.17467810902E+03  0.17120000000E+03 0.  0.
        998    1    1    2    0    0  0.22923047752E+02 -0.14685150596E+01  0.12912335165E+04  0.12914765258E+04  0.10000000000E+02 0.  1.
</event>
<event>
 5    1  0.1556794E-008  0.3835531E+03  0.7957747E-01  0.3435832E+00
         13   -1    0    0    0    0  0.00000000000E+00  0.00000000000E+00  0.14999999963E+04  0.15000000000E+04  0.10566000000E+00 0.  1.
        994   -1    0    0    0    0 -0.00000000000E+00 -0.00000000000E+00  0.11368683772E-12  0.17120000000E+03  0.17120000000E+03 0.  0.
         13    1    1    2    0    0  0.23831650512E+01 -0.13139797924E+02  0.39112186941E+02  0.41329264408E+02  0.10566000000E+00 0.  1.
        994    1    1    2    0    0 -0.67403753027E+01 -0.35885637135E+01  0.25428856083E+01  0.17138907992E+03  0.17120000000E+03 0.  0.
        998    1    1    2    0    0  0.43572102514E+01  0.16728361637E+02  0.14583449237E+04  0.14584816557E+04  0.10000000000E+02 0.  1.
</event>
<event>
 5    1  0.1556794E-008  0.3828426E+03  0.7957747E-01  0.3438874E+00
         13   -1    0    0    0    0  0.00000000000E+00  0.00000000000E+00  0.14999999963E+04  0.15000000000E+04  0.10566000000E+00 0. -1.
        994   -1    0    0    0    0 -0.00000000000E+00 -0.00000000000E+00  0.11368683772E-12  0.17120000000E+03  0.17120000000E+03 0.  0.
         13    1    1    2    0    0  0.18913911518E+02 -0.18976538373E+02  0.14734205926E+03  0.14975826738E+03  0.10566000000E+00 0. -1.
        994    1    1    2    0    0  0.10690164641E+01  0.36150937083E+01  0.27521415443E+01  0.17126361546E+03  0.17120000000E+03 0.  0.
        998    1    1    2    0    0 -0.19982927982E+02  0.15361444665E+02  0.13499057955E+04  0.13501781172E+04  0.10000000000E+02 0. -1.
</event>
<event>
 5    1  0.1556794E-008  0.3797167E+03  0.7957747E-01  0.3452393E+00
         13   -1    0    0    0    0  0.00000000000E+00  0.00000000000E+00  0.14999999963E+04  0.15000000000E+04  0.10566000000E+00 0. -1.
        994   -1    0    0    0    0 -0.00000000000E+00 -0.00000000000E+00  0.11368683772E-12  0.17120000000E+03  0.17120000000E+03 0.  0.
         13    1    1    2    0    0  0.66270282370E+02 -0.12144235089E+02  0.17581544600E+03  0.18828254031E+03  0.10566000000E+00 0. -1.
        994    1    1    2    0    0  0.20443526140E+02 -0.13522642925E+02  0.18349371646E+02  0.17391647154E+03  0.17120000000E+03 0.  0.
        998    1    1    2    0    0 -0.86713808510E+02  0.25666878013E+02  0.13058351786E+04  0.13090009881E+04  0.10000000000E+02 0. -1.
</event>
<event>
 5    1  0.1556794E-008  0.3856167E+03  0.7957747E-01  0.3427061E+00
         13   -1    0    0    0    0  0.00000000000E+00  0.00000000000E+00  0.14999999963E+04  0.15000000000E+04  0.10566000000E+00 0.  1.
        994   -1    0    0    0    0 -0.00000000000E+00 -0.00000000000E+00  0.11368683772E-12  0.17120000000E+03  0.17120000000E+03 0.  0.
         13    1    1    2    0    0 -0.46407961568E+01  0.10010752278E+02  0.45808346043E+02  0.47118657466E+02  0.10566000000E+00 0.  1.
        994    1    1    2    0    0  0.48663164725E+01 -0.76313431041E+01  0.15931779454E+01  0.17144648334E+03  0.17120000000E+03 0.  0.
        998    1    1    2    0    0 -0.22552031572E+00 -0.23794091737E+01  0.14525984723E+04  0.14526348592E+04  0.10000000000E+02 0.  1.
</event>
<event>
 5    1  0.1556794E-008  0.3832680E+03  0.7957747E-01  0.3437051E+00
         13   -1    0    0    0    0  0.00000000000E+00  0.00000000000E+00  0.14999999963E+04  0.15000000000E+04  0.10566000000E+00 0. -1.
        994   -1    0    0    0    0 -0.00000000000E+00 -0.00000000000E+00  0.11368683772E-12  0.17120000000E+03  0.17120000000E+03 0.  0.
         13    1    1    2    0    0 -0.18221950159E+01 -0.12191249811E+02  0.30328014653E+02  0.32737541194E+02  0.10566000000E+00 0. -1.
        994    1    1    2    0    0 -0.68228618750E+00  0.26333014971E+01  0.25169807782E+01  0.17124010916E+03  0.17120000000E+03 0.  0.
        998    1    1    2    0    0  0.25044812034E+01  0.95579483138E+01  0.14671550008E+04  0.14672223497E+04  0.10000000000E+02 0. -1.
</event>
<event>
 5    1  0.1556794E-008  0.3849973E+03  0.7957747E-01  0.3429684E+00
         13   -1    0    0    0    0  0.00000000000E+00  0.00000000000E+00  0.14999999963E+04  0.15000000000E+04  0.10566000000E+00 0. -1.
        994   -1    0    0    0    0 -0.00000000000E+00 -0.00000000000E+00  0.11368683772E-12  0.17120000000E+03  0.17120000000E+03 0.  0.
         13    1    1    2    0    0 -0.26737671832E+01  0.12723457243E+02  0.52136720828E+02  0.53733455295E+02  0.10566000000E+00 0. -1.
        994    1    1    2    0    0  0.34583355893E+01 -0.68396147271E+01  0.18246734366E+01  0.17138118289E+03  0.17120000000E+03 0.  0.
        998    1    1    2    0    0 -0.78456840618E+00 -0.58838425159E+01  0.14460386020E+04  0.14460853618E+04  0.10000000000E+02 0. -1.
</event>
<event>
 5    1  0.1556794E-008  0.3821643E+03  0.7957747E-01  0.3441789E+00
         13   -1    0    0    0    0  0.00000000000E+00  0.00000000000E+00  0.14999999963E+04  0.15000000000E+04  0.10566000000E+00 0. -1.
        994   -1    0    0    0    0 -0.00000000000E+00 -0.00000000000E+00  0.11368683772E-12  0.17120000000E+03  0.17120000000E+03 0.  0.
         13    1    1    2    0    0  0.81863692324E+00  0.10033009407E+02  0.15397766002E+02  0.18396570497E+02  0.10566000000E+00 0. -1.
        994    1    1    2    0    0 -0.79082315543E+00 -0.71812086334E+01  0.32178812620E+01  0.17138258347E+03  0.17120000000E+03 0.  0.
        998    1    1    2    0    0 -0.27813767805E-01 -0.28518007731E+01  0.14813843490E+04  0.14814208460E+04  0.10000000000E+02 0. -1.
</event>
<event>
 5    1  0.1556794E-008  0.3769504E+03  0.7957747E-01  0.3464545E+00
         13   -1    0    0    0    0  0.00000000000E+00  0.00000000000E+00  0.14999999963E+04  0.15000000000E+04  0.10566000000E+00 0. -1.
        994   -1    0    0    0    0 -0.00000000000E+00 -0.00000000000E+00  0.11368683772E-12  0.17120000000E+03  0.17120000000E+03 0.  0.
         13    1    1    2    0    0  0.32544421112E+02  0.42514347551E+02  0.24277347200E+03  0.24860727858E+03  0.10566000000E+00 0. -1.
        994    1    1    2    0    0 -0.29249494062E+02 -0.21870228456E+02  0.10198139273E+02  0.17534902863E+03  0.17120000000E+03 0.  0.
        998    1    1    2    0    0 -0.32949270500E+01 -0.20644119095E+02  0.12470283850E+04  0.12472436928E+04  0.10000000000E+02 0. -1.
</event>
<event>
 5    1  0.1556794E-008  0.3852663E+03  0.7957747E-01  0.3428543E+00
         13   -1    0    0    0    0  0.00000000000E+00  0.00000000000E+00  0.14999999963E+04  0.15000000000E+04  0.10566000000E+00 0.  1.
        994   -1    0    0    0    0 -0.00000000000E+00 -0.00000000000E+00  0.11368683772E-12  0.17120000000E+03  0.17120000000E+03 0.  0.
         13    1    1    2    0    0  0.46760252970E+01 -0.11041314466E+02  0.47190544810E+02  0.48690189168E+02  0.10566000000E+00 0.  1.
        994    1    1    2    0    0 -0.83911846673E+01  0.87189549863E+01  0.19792620805E+01  0.17163854356E+03  0.17120000000E+03 0.  0.
        998    1    1    2    0    0  0.37151593703E+01  0.23223594794E+01  0.14508301894E+04  0.14508712673E+04  0.10000000000E+02 0.  1.
</event>
<event>
 5    1  0.1556794E-008  0.3709907E+03  0.7957747E-01  0.3491350E+00
         13   -1    0    0    0    0  0.00000000000E+00  0.00000000000E+00  0.14999999963E+04  0.15000000000E+04  0.10566000000E+00 0.  1.
        994   -1    0    0    0    0 -0.00000000000E+00 -0.00000000000E+00  0.11368683772E-12  0.17120000000E+03  0.17120000000E+03 0.  0.
         13    1    1    2    0    0  0.77595458655E+01 -0.25020402941E+02  0.25425139476E+02  0.36505889892E+02  0.10566000000E+00 0.  1.
        994    1    1    2    0    0 -0.43430084763E+01  0.14166462755E+02  0.12234178764E+02  0.17227497067E+03  0.17120000000E+03 0.  0.
        998    1    1    2    0    0 -0.34165373891E+01  0.10853940187E+02  0.14623406780E+04  0.14624191394E+04  0.10000000000E+02 0.  1.
</event>
<event>
 5    1  0.1556794E-008  0.3764467E+03  0.7957747E-01  0.3466778E+00
         13   -1    0    0    0    0  0.00000000000E+00  0.00000000000E+00  0.14999999963E+04  0.15000000000E+04  0.10566000000E+00 0.  1.
        994   -1    0    0    0    0 -0.00000000000E+00 -0.00000000000E+00  0.11368683772E-12  0.17120000000E+03  0.17120000000E+03 0.  0.
         13    1    1    2    0    0 -0.95508597558E+01  0.85752821327E+02  0.36219963513E+03  0.37233499989E+03  0.10566000000E+00 0.  1.
        994    1    1    2    0    0 -0.92213385052E+01  0.27701770406E+01  0.14720763719E+02  0.17210127207E+03  0.17120000000E+03 0.  0.
        998    1    1    2    0    0  0.18772198261E+02 -0.88522998367E+02  0.11230795974E+04  0.11267637280E+04  0.10000000000E+02 0.  1.
</event>
<event>
 5    1  0.1556794E-008  0.3860525E+03  0.7957747E-01  0.3425221E+00
         13   -1    0    0    0    0  0.00000000000E+00  0.00000000000E+00  0.14999999963E+04  0.15000000000E+04  0.10566000000E+00 0.  1.
        994   -1    0    0    0    0 -0.00000000000E+00 -0.00000000000E+00  0.11368683772E-12  0.17120000000E+03  0.17120000000E+03 0.  0.
         13    1    1    2    0    0  0.48315456075E+01  0.89021926658E+01  0.47402230047E+02  0.48472419423E+02  0.10566000000E+00 0.  1.
        994    1    1    2    0    0  0.66749757253E+01 -0.95369026998E+01  0.15527299247E+01  0.17160232744E+03  0.17120000000E+03 0.  0.
        998    1    1    2    0    0 -0.11506521333E+02  0.63471003406E+00  0.14510450363E+04  0.14511252531E+04  0.10000000000E+02 0.  1.
</event>
<event>
 5    1  0.1556794E-008  0.3790058E+03  0.7957747E-01  0.3455499E+00
         13   -1    0    0    0    0  0.00000000000E+00  0.00000000000E+00  0.14999999963E+04  0.15000000000E+04  0.10566000000E+00 0. -1.
        994   -1    0    0    0    0 -0.00000000000E+00 -0.00000000000E+00  0.11368683772E-12  0.17120000000E+03  0.17120000000E+03 0.  0.
         13    1    1    2    0    0 -0.57849537341E+02  0.67544678509E+02  0.33391307973E+03  0.34555290267E+03  0.10566000000E+00 0. -1.
        994    1    1    2    0    0  0.10359721366E+03 -0.12474635276E+03  0.98575260029E+02  0.25557886669E+03  0.17120000000E+03 0.  0.
        998    1    1    2    0    0 -0.45747676323E+02  0.57201674255E+02  0.10675116565E+04  0.10700682306E+04  0.10000000000E+02 0. -1.
</event>
<event>
 5    1  0.1556794E-008  0.3784228E+03  0.7957747E-01  0.3458055E+00
         13   -1    0    0    0    0  0.00000000000E+00  0.00000000000E+00  0.14999999963E+04  0.15000000000E+04  0.10566000000E+00 0.  1.
        994   -1    0    0    0    0 -0.00000000000E+00 -0.00000000000E+00  0.11368683772E-12  0.17120000000E+03  0.17120000000E+03 0.  0.
         13    1    1    2    0    0  0.13531673262E+02 -0.10851051343E+02  0.28547880953E+02  0.33404253733E+02  0.10566000000E+00 0.  1.
        994    1    1    2    0    0 -0.14804101925E+02 -0.63865184205E+00  0.56696369852E+01  0.17193357465E+03  0.17120000000E+03 0.  0.
        998    1    1    2    0    0  0.12724286629E+01  0.11489703185E+02  0.14657824783E+04  0.14658621716E+04  0.10000000000E+02 0.  1.
</event>
<event>
 5    1  0.1556794E-008  0.3690765E+03  0.7957747E-01  0.3500146E+00
         13   -1    0    0    0    0  0.00000000000E+00  0.00000000000E+00  0.14999999963E+04  0.15000000000E+04  0.10566000000E+00 0.  1.
        994   -1    0    0    0    0 -0.00000000000E+00 -0.00000000000E+00  0.11368683772E-12  0.17120000000E+03  0.17120000000E+03 0.  0.
         13    1    1    2    0    0 -0.12135135570E+02 -0.64781228368E+02  0.19710834360E+03  0.20783546220E+03  0.10566000000E+00 0.  1.
        994    1    1    2    0    0  0.55311820726E+02  0.38400193030E+02  0.26422266239E+02  0.18585356733E+03  0.17120000000E+03 0.  0.
        998    1    1    2    0    0 -0.43176685156E+02  0.26381035338E+02  0.12764693864E+04  0.12775109705E+04  0.10000000000E+02 0.  1.
</event>
<event>
 5    1  0.1556794E-008  0.3839924E+03  0.7957747E-01  0.3433957E+00
         13   -1    0    0    0    0  0.00000000000E+00  0.00000000000E+00  0.14999999963E+04  0.15000000000E+04  0.10566000000E+00 0. -1.
        994   -1    0    0    0    0 -0.00000000000E+00 -0.00000000000E+00  0.11368683772E-12  0.17120000000E+03  0.17120000000E+03 0.  0.
         13    1    1    2    0    0 -0.95607223569E+01  0.29504529947E+01  0.23070225918E+02  0.25146750741E+02  0.10566000000E+00 0. -1.
        994    1    1    2    0    0  0.37036256206E+01 -0.12126111772E+01  0.21813213201E+01  0.17125824194E+03  0.17120000000E+03 0.  0.
        998    1    1    2    0    0  0.58570967363E+01 -0.17378418175E+01  0.14747484490E+04  0.14747950073E+04  0.10000000000E+02 0. -1.
</event>
<event>
 5    1  0.2980666E-008  0.3863219E+03  0.7957747E-01  0.3424085E+00
         13   -1    0    0    0    0  0.00000000000E+00  0.00000000000E+00  0.14999999963E+04  0.15000000000E+04  0.10566000000E+00 0.  1.
        994   -1    0    0    0    0 -0.00000000000E+00 -0.00000000000E+00  0.11368683772E-12  0.17120000000E+03  0.17120000000E+03 0.  0.
         13    1    1    2    0    0  0.10868771734E+02  0.30763871329E+01  0.65147062831E+02  0.66119175103E+02  0.10566000000E+00 0.  1.
        994    1    1    2    0    0 -0.93365340032E+01 -0.45083774341E+01  0.13273193595E+01  0.17151879813E+03  0.17120000000E+03 0.  0.
        998    1    1    2    0    0 -0.15322377311E+01  0.14319903012E+01  0.14335256141E+04  0.14335620268E+04  0.10000000000E+02 0.  1.
</event>
<event>
 5    1  0.1556794E-008  0.3830122E+03  0.7957747E-01  0.3438147E+00
         13   -1    0    0    0    0  0.00000000000E+00  0.00000000000E+00  0.14999999963E+04  0.15000000000E+04  0.10566000000E+00 0. -1.
        994   -1    0    0    0    0 -0.00000000000E+00 -0.00000000000E+00  0.11368683772E-12  0.17120000000E+03  0.17120000000E+03 0.  0.
         13    1    1    2    0    0  0.15003267206E+02  0.23462383671E+02  0.15846492120E+03  0.16089351724E+03  0.10566000000E+00 0. -1.
        994    1    1    2    0    0 -0.54888066275E+01 -0.54733780244E+01  0.28191801417E+01  0.17139857830E+03  0.17120000000E+03 0.  0.
        998    1    1    2    0    0 -0.95144605786E+01 -0.17989005646E+02  0.13387158949E+04  0.13389079045E+04  0.10000000000E+02 0. -1.
</event>
<event>
 5    1  0.1556794E-008  0.3793261E+03  0.7957747E-01  0.3454098E+00
         13   -1    0    0    0    0  0.00000000000E+00  0.00000000000E+00  0.14999999963E+04  0.15000000000E+04  0.10566000000E+00 0. -1.
        994   -1    0    0    0    0 -0.00000000000E+00 -0.00000000000E+00  0.11368683772E-12  0.17120000000E+03  0.17120000000E+03 0.  0.
         13    1    1    2    0    0  0.21287872644E+02 -0.71759562663E+01  0.54391784246E+02  0.58848493843E+02  0.10566000000E+00 0. -1.
        994    1    1    2    0    0 -0.18858925116E+02 -0.52104355827E+01  0.57572944246E+01  0.17241053951E+03  0.17120000000E+03 0.  0.
        998    1    1    2    0    0 -0.24289475279E+01  0.12386391849E+02  0.14398509176E+04  0.14399409666E+04  0.10000000000E+02 0. -1.
</event>
<event>
 5    1  0.1556794E-008  0.3797188E+03  0.7957747E-01  0.3452384E+00
         13   -1    0    0    0    0  0.00000000000E+00  0.00000000000E+00  0.14999999963E+04  0.15000000000E+04  0.10566000000E+00 0.  1.
        994   -1    0    0    0    0 -0.00000000000E+00 -0.00000000000E+00  0.11368683772E-12  0.17120000000E+03  0.17120000000E+03 0.  0.
         13    1    1    2    0    0 -0.27012028716E+02  0.94415488209E+01  0.88092950580E+02  0.92623817917E+02  0.10566000000E+00 0.  1.
        994    1    1    2    0    0  0.29777071176E+02 -0.11326481905E+02  0.76787062577E+01  0.17430824906E+03  0.17120000000E+03 0.  0.
        998    1    1    2    0    0 -0.27650424608E+01  0.18849330841E+01  0.14042283394E+04  0.14042679330E+04  0.10000000000E+02 0.  1.
</event>
<event>
 5    1  0.1556794E-008  0.3774198E+03  0.7957747E-01  0.3462471E+00
         13   -1    0    0    0    0  0.00000000000E+00  0.00000000000E+00  0.14999999963E+04  0.15000000000E+04  0.10566000000E+00 0. -1.
        994   -1    0    0    0    0 -0.00000000000E+00 -0.00000000000E+00  0.11368683772E-12  0.17120000000E+03  0.17120000000E+03 0.  0.
         13    1    1    2    0    0 -0.34223119573E+01 -0.28846908685E+02  0.74936513109E+02  0.80370072295E+02  0.10566000000E+00 0. -1.
        994    1    1    2    0    0  0.33260230568E+01  0.19970837209E+02  0.68245908118E+01  0.17252800297E+03  0.17120000000E+03 0.  0.
        998    1    1    2    0    0  0.96288900493E-01  0.88760714764E+01  0.14182388924E+04  0.14183019247E+04  0.10000000000E+02 0. -1.
</event>
<event>
 5    1  0.1556794E-008  0.4184299E+03  0.7957747E-01  0.3299191E+00
         13   -1    0    0    0    0  0.00000000000E+00  0.00000000000E+00  0.14999999963E+04  0.15000000000E+04  0.10566000000E+00 0. -1.
        994   -1    0    0    0    0 -0.00000000000E+00 -0.00000000000E+00  0.11368683772E-12  0.17120000000E+03  0.17120000000E+03 0.  0.
         13    1    1    2    0    0  0.84944445640E+02  0.25488830866E+02  0.82894528211E+02  0.12139503003E+03  0.10566000000E+00 0. -1.
        994    1    1    2    0    0 -0.86695665651E+02 -0.27654513479E+02  0.75350318489E+02  0.20800966577E+03  0.17120000000E+03 0.  0.
        998    1    1    2    0    0  0.17512200108E+01  0.21656826127E+01  0.13417551496E+04  0.13417953042E+04  0.10000000000E+02 0.  0.
</event>
<event>
 5    1  0.1556794E-008  0.3830630E+03  0.7957747E-01  0.3437929E+00
         13   -1    0    0    0    0  0.00000000000E+00  0.00000000000E+00  0.14999999963E+04  0.15000000000E+04  0.10566000000E+00 0. -1.
        994   -1    0    0    0    0 -0.00000000000E+00 -0.00000000000E+00  0.11368683772E-12  0.17120000000E+03  0.17120000000E+03 0.  0.
         13    1    1    2    0    0  0.18030278819E+02 -0.10506071736E+02  0.75700668002E+02  0.78524332520E+02  0.10566000000E+00 0. -1.
        994    1    1    2    0    0 -0.21587658412E+02  0.23747341350E+02  0.60109684229E+01  0.17428578530E+03  0.17120000000E+03 0.  0.
        998    1    1    2    0    0  0.35573795932E+01 -0.13241269614E+02  0.14182883599E+04  0.14183898822E+04  0.10000000000E+02 0. -1.
</event>
<event>
 5    1  0.1556794E-008  0.3849571E+03  0.7957747E-01  0.3429854E+00
         13   -1    0    0    0    0  0.00000000000E+00  0.00000000000E+00  0.14999999963E+04  0.15000000000E+04  0.10566000000E+00 0. -1.
        994   -1    0    0    0    0 -0.00000000000E+00 -0.00000000000E+00  0.11368683772E-12  0.17120000000E+03  0.17120000000E+03 0.  0.
         13    1    1    2    0    0 -0.14800479414E+02 -0.38169141968E+01  0.69796893889E+02  0.71450966302E+02  0.10566000000E+00 0. -1.
        994    1    1    2    0    0  0.10766214684E+02  0.67066970690E+01  0.21808046671E+01  0.17168310072E+03  0.17120000000E+03 0.  0.
        998    1    1    2    0    0  0.40342647298E+01 -0.28897828723E+01  0.14280222977E+04  0.14280659330E+04  0.10000000000E+02 0. -1.
</event>
<event>
 5    1  0.1556794E-008  0.3773789E+03  0.7957747E-01  0.3462651E+00
         13   -1    0    0    0    0  0.00000000000E+00  0.00000000000E+00  0.14999999963E+04  0.15000000000E+04  0.10566000000E+00 0. -1.
        994   -1    0    0    0    0 -0.00000000000E+00 -0.00000000000E+00  0.11368683772E-12  0.17120000000E+03  0.17120000000E+03 0.  0.
         13    1    1    2    0    0 -0.40626279772E+01 -0.30079336850E+02  0.82008123209E+02  0.87444924883E+02  0.10566000000E+00 0. -1.
        994    1    1    2    0    0  0.64674288616E+01  0.19165465759E+02  0.68430289913E+01  0.17252654798E+03  0.17120000000E+03 0.  0.
        998    1    1    2    0    0 -0.24048008844E+01  0.10913871091E+02  0.14111488441E+04  0.14112285271E+04  0.10000000000E+02 0. -1.
</event>
<event>
 5    1  0.1556794E-008  0.3758252E+03  0.7957747E-01  0.3469540E+00
         13   -1    0    0    0    0  0.00000000000E+00  0.00000000000E+00  0.14999999963E+04  0.15000000000E+04  0.10566000000E+00 0.  1.
        994   -1    0    0    0    0 -0.00000000000E+00 -0.00000000000E+00  0.11368683772E-12  0.17120000000E+03  0.17120000000E+03 0.  0.
         13    1    1    2    0    0  0.42157506280E+01  0.17708484989E+02  0.24677414671E+02  0.30665109699E+02  0.10566000000E+00 0.  1.
        994    1    1    2    0    0  0.12772670542E+02 -0.23820315366E+01  0.68280152586E+01  0.17182804480E+03  0.17120000000E+03 0.  0.
        998    1    1    2    0    0 -0.16988421170E+02 -0.15326453452E+02  0.14684945663E+04  0.14687068455E+04  0.10000000000E+02 0.  1.
</event>
<event>
 5    1  0.1556794E-008  0.3727484E+03  0.7957747E-01  0.3483354E+00
         13   -1    0    0    0    0  0.00000000000E+00  0.00000000000E+00  0.14999999963E+04  0.15000000000E+04  0.10566000000E+00 0. -1.
        994   -1    0    0    0    0 -0.00000000000E+00 -0.00000000000E+00  0.11368683772E-12  0.17120000000E+03  0.17120000000E+03 0.  0.
         13    1    1    2    0    0 -0.53480646146E+02  0.67528874059E+02  0.35852560960E+03  0.36872883295E+03  0.10566000000E+00 0. -1.
        994    1    1    2    0    0  0.51411660665E+02 -0.67932191747E+02  0.33123979924E+02  0.19407364472E+03  0.17120000000E+03 0.  0.
        998    1    1    2    0    0  0.20689854810E+01  0.40331768860E+00  0.11083504068E+04  0.11083975223E+04  0.10000000000E+02 0.  0.
</event>
<event>
 5    1  0.1556794E-008  0.3848432E+03  0.7957747E-01  0.3430337E+00
         13   -1    0    0    0    0  0.00000000000E+00  0.00000000000E+00  0.14999999963E+04  0.15000000000E+04  0.10566000000E+00 0. -1.
        994   -1    0    0    0    0 -0.00000000000E+00 -0.00000000000E+00  0.11368683772E-12  0.17120000000E+03  0.17120000000E+03 0.  0.
         13    1    1    2    0    0 -0.12086005116E+02 -0.11982793475E+02  0.83354752114E+02  0.85074583297E+02  0.10566000000E+00 0. -1.
        994    1    1    2    0    0  0.63631422667E+01  0.12628869232E+02  0.23662579634E+01  0.17179935126E+03  0.17120000000E+03 0.  0.
        998    1    1    2    0    0  0.57228628496E+01 -0.64607575723E+00  0.14142789862E+04  0.14143260654E+04  0.10000000000E+02 0. -1.
</event>
<event>
 5    1  0.1556794E-008  0.3713959E+03  0.7957747E-01  0.3489500E+00
         13   -1    0    0    0    0  0.00000000000E+00  0.00000000000E+00  0.14999999963E+04  0.15000000000E+04  0.10566000000E+00 0.  1.
        994   -1    0    0    0    0 -0.00000000000E+00 -0.00000000000E+00  0.11368683772E-12  0.17120000000E+03  0.17120000000E+03 0.  0.
         13    1    1    2    0    0  0.15828684326E+02 -0.28896552076E+02  0.59144086592E+02  0.67702231221E+02  0.10566000000E+00 0.  1.
        994    1    1    2    0    0 -0.50482492732E+01  0.28969514542E+02  0.11522629190E+02  0.17408885254E+03  0.17120000000E+03 0.  0.
        998    1    1    2    0    0 -0.10780435053E+02 -0.72962465497E-01  0.14293332805E+04  0.14294089162E+04  0.10000000000E+02 0.  1.
</event>
<event>
 5    1  0.1556794E-008  0.3832634E+03  0.7957747E-01  0.3437071E+00
         13   -1    0    0    0    0  0.00000000000E+00  0.00000000000E+00  0.14999999963E+04  0.15000000000E+04  0.10566000000E+00 0.  1.
        994   -1    0    0    0    0 -0.00000000000E+00 -0.00000000000E+00  0.11368683772E-12  0.17120000000E+03  0.17120000000E+03 0.  0.
         13    1    1    2    0    0  0.16238848107E+02  0.11938148495E+02  0.87911743921E+02  0.90192602028E+02  0.10566000000E+00 0.  1.
        994    1    1    2    0    0  0.66529535540E+01 -0.73249839811E+01  0.28186880768E+01  0.17150889826E+03  0.17120000000E+03 0.  0.
        998    1    1    2    0    0 -0.22891801661E+02 -0.46131645141E+01  0.14092695643E+04  0.14094984997E+04  0.10000000000E+02 0.  1.
</event>
<event>
 5    1  0.1556794E-008  0.3800350E+03  0.7957747E-01  0.3451006E+00
         13   -1    0    0    0    0  0.00000000000E+00  0.00000000000E+00  0.14999999963E+04  0.15000000000E+04  0.10566000000E+00 0. -1.
        994   -1    0    0    0    0 -0.00000000000E+00 -0.00000000000E+00  0.11368683772E-12  0.17120000000E+03  0.17120000000E+03 0.  0.
         13    1    1    2    0    0 -0.23965393869E+02 -0.18243498810E+02  0.10264212637E+03  0.10697000805E+03  0.10566000000E+00 0. -1.
        994    1    1    2    0    0  0.25301930554E+02  0.15430731976E+02  0.70567560259E+01  0.17388942747E+03  0.17120000000E+03 0.  0.
        998    1    1    2    0    0 -0.13365366849E+01  0.28127668344E+01  0.13903011139E+04  0.13903405645E+04  0.10000000000E+02 0. -1.
</event>
<event>
 5    1  0.1556794E-008  0.3858030E+03  0.7957747E-01  0.3426274E+00
         13   -1    0    0    0    0  0.00000000000E+00  0.00000000000E+00  0.14999999963E+04  0.15000000000E+04  0.10566000000E+00 0.  1.
        994   -1    0    0    0    0 -0.00000000000E+00 -0.00000000000E+00  0.11368683772E-12  0.17120000000E+03  0.17120000000E+03 0.  0.
         13    1    1    2    0    0  0.93788235078E+01 -0.42774707448E+01  0.41766656711E+02  0.43020040251E+02  0.10566000000E+00 0.  1.
        994    1    1    2    0    0 -0.13826418882E+02  0.30679678373E+01  0.18902184088E+01  0.17179521300E+03  0.17120000000E+03 0.  0.
        998    1    1    2    0    0  0.44475953742E+01  0.12095029075E+01  0.14563431212E+04  0.14563847467E+04  0.10000000000E+02 0.  1.
</event>
<event>
 5    1  0.1556794E-008  0.3771959E+03  0.7957747E-01  0.3463460E+00
         13   -1    0    0    0    0  0.00000000000E+00  0.00000000000E+00  0.14999999963E+04  0.15000000000E+04  0.10566000000E+00 0.  1.
        994   -1    0    0    0    0 -0.00000000000E+00 -0.00000000000E+00  0.11368683772E-12  0.17120000000E+03  0.17120000000E+03 0.  0.
         13    1    1    2    0    0  0.31596165721E+02  0.84435520950E+02  0.42547444634E+03  0.43492090147E+03  0.10566000000E+00 0.  1.
        994    1    1    2    0    0  0.10244704861E+02 -0.12622394892E+03  0.61737620886E+02  0.22171696618E+03  0.17120000000E+03 0.  0.
        998    1    1    2    0    0 -0.41840870582E+02  0.41788427967E+02  0.10127879291E+04  0.10145621324E+04  0.10000000000E+02 0.  1.
</event>
<event>
 5    1  0.1556794E-008  0.3858395E+03  0.7957747E-01  0.3426119E+00
         13   -1    0    0    0    0  0.00000000000E+00  0.00000000000E+00  0.14999999963E+04  0.15000000000E+04  0.10566000000E+00 0.  1.
        994   -1    0    0    0    0 -0.00000000000E+00 -0.00000000000E+00  0.11368683772E-12  0.17120000000E+03  0.17120000000E+03 0.  0.
         13    1    1    2    0    0  0.24071312166E+01 -0.11389941958E+02  0.54638375928E+02  0.55864911587E+02  0.10566000000E+00 0.  1.
        994    1    1    2    0    0 -0.96481276448E+01  0.10716769362E+02  0.18961670134E+01  0.17181667836E+03  0.17120000000E+03 0.  0.
        998    1    1    2    0    0  0.72409964282E+01  0.67317259582E+00  0.14434654533E+04  0.14435184101E+04  0.10000000000E+02 0.  1.
</event>
<event>
 5    1  0.1556794E-008  0.3830450E+03  0.7957747E-01  0.3438006E+00
         13   -1    0    0    0    0  0.00000000000E+00  0.00000000000E+00  0.14999999963E+04  0.15000000000E+04  0.10566000000E+00 0.  1.
        994   -1    0    0    0    0 -0.00000000000E+00 -0.00000000000E+00  0.11368683772E-12  0.17120000000E+03  0.17120000000E+03 0.  0.
         13    1    1    2    0    0  0.30195678143E+02 -0.30352932674E+02  0.23045785986E+03  0.23440118565E+03  0.10566000000E+00 0.  1.
        994    1    1    2    0    0 -0.42310489803E+02  0.57814903426E+02  0.19780967032E+02  0.18663726118E+03  0.17120000000E+03 0.  0.
        998    1    1    2    0    0  0.12114811660E+02 -0.27461970751E+02  0.12497611694E+04  0.12501615532E+04  0.10000000000E+02 0.  1.
</event>
<event>
 5    1  0.1556794E-008  0.3713782E+03  0.7957747E-01  0.3489581E+00
         13   -1    0    0    0    0  0.00000000000E+00  0.00000000000E+00  0.14999999963E+04  0.15000000000E+04  0.10566000000E+00 0. -1.
        994   -1    0    0    0    0 -0.00000000000E+00 -0.00000000000E+00  0.11368683772E-12  0.17120000000E+03  0.17120000000E+03 0.  0.
         13    1    1    2    0    0 -0.44875539368E+02  0.13399366983E+02  0.86911912042E+02  0.98727142610E+02  0.10566000000E+00 0. -1.
        994    1    1    2    0    0  0.28767263420E+02 -0.44744819059E+02  0.21676974764E+02  0.18057958221E+03  0.17120000000E+03 0.  0.
        998    1    1    2    0    0  0.16108275947E+02  0.31345452076E+02  0.13914111095E+04  0.13918932752E+04  0.10000000000E+02 0. -1.
</event>
<event>
 5    1  0.1556794E-008  0.3857576E+03  0.7957747E-01  0.3426466E+00
         13   -1    0    0    0    0  0.00000000000E+00  0.00000000000E+00  0.14999999963E+04  0.15000000000E+04  0.10566000000E+00 0. -1.
        994   -1    0    0    0    0 -0.00000000000E+00 -0.00000000000E+00  0.11368683772E-12  0.17120000000E+03  0.17120000000E+03 0.  0.
         13    1    1    2    0    0  0.11862648539E+02  0.53053479569E+01  0.73877236941E+02  0.75011508780E+02  0.10566000000E+00 0. -1.
        994    1    1    2    0    0  0.45210583235E+00  0.46166002828E+01  0.13250791508E+01  0.17126795740E+03  0.17120000000E+03 0.  0.
        998    1    1    2    0    0 -0.12314754371E+02 -0.99219482397E+01  0.14247976802E+04  0.14249205338E+04  0.10000000000E+02 0. -1.
</event>
<event>
 5    1  0.1556794E-008  0.3850549E+03  0.7957747E-01  0.3429439E+00
         13   -1    0    0    0    0  0.00000000000E+00  0.00000000000E+00  0.14999999963E+04  0.15000000000E+04  0.10566000000E+00 0.  1.
        994   -1    0    0    0    0 -0.00000000000E+00 -0.00000000000E+00  0.11368683772E-12  0.17120000000E+03  0.17120000000E+03 0.  0.
         13    1    1    2    0    0 -0.16222651116E+02  0.77488551540E+01  0.10203445522E+03  0.10360627578E+03  0.10566000000E+00 0.  1.
        994    1    1    2    0    0  0.25572635450E+01 -0.19138766188E+02  0.28297425645E+01  0.17230867480E+03  0.17120000000E+03 0.  0.
        998    1    1    2    0    0  0.13665387571E+02  0.11389911034E+02  0.13951357985E+04  0.13952850494E+04  0.10000000000E+02 0.  1.
</event>
<event>
 5    1  0.1556794E-008  0.3824973E+03  0.7957747E-01  0.3440356E+00
         13   -1    0    0    0    0  0.00000000000E+00  0.00000000000E+00  0.14999999963E+04  0.15000000000E+04  0.10566000000E+00 0. -1.
        994   -1    0    0    0    0 -0.00000000000E+00 -0.00000000000E+00  0.11368683772E-12  0.17120000000E+03  0.17120000000E+03 0.  0.
         13    1    1    2    0    0  0.29563725289E+01  0.10333856427E+02  0.18989512678E+02  0.21820666419E+02  0.10566000000E+00 0. -1.
        994    1    1    2    0    0 -0.22667967724E+01 -0.65552971718E+01  0.30373412597E+01  0.17136737067E+03  0.17120000000E+03 0.  0.
        998    1    1    2    0    0 -0.68957575649E+00 -0.37785592554E+01  0.14779731423E+04  0.14780119629E+04  0.10000000000E+02 0. -1.
</event>
<event>
 5    1  0.1556794E-008  0.3743081E+03  0.7957747E-01  0.3476323E+00
         13   -1    0    0    0    0  0.00000000000E+00  0.00000000000E+00  0.14999999963E+04  0.15000000000E+04  0.10566000000E+00 0. -1.
        994   -1    0    0    0    0 -0.00000000000E+00 -0.00000000000E+00  0.11368683772E-12  0.17120000000E+03  0.17120000000E+03 0.  0.
         13    1    1    2    0    0  0.11439368774E+03  0.31036221155E+02  0.58831987330E+03  0.60014118948E+03  0.10566000000E+00 0. -1.
        994    1    1    2    0    0 -0.11367039707E+03 -0.30266364383E+02  0.55748657509E+02  0.21506827938E+03  0.17120000000E+03 0.  0.
        998    1    1    2    0    0 -0.72329067566E+00 -0.76985677250E+00  0.85593146547E+03  0.85599053114E+03  0.10000000000E+02 0.  0.
</event>
<event>
 5    1  0.1556794E-008  0.3715864E+03  0.7957747E-01  0.3488632E+00
         13   -1    0    0    0    0  0.00000000000E+00  0.00000000000E+00  0.14999999963E+04  0.15000000000E+04  0.10566000000E+00 0.  1.
        994   -1    0    0    0    0 -0.00000000000E+00 -0.00000000000E+00  0.11368683772E-12  0.17120000000E+03  0.17120000000E+03 0.  0.
         13    1    1    2    0    0 -0.18959227523E+01 -0.57749658433E+02  0.26752645326E+03  0.27369514415E+03  0.10566000000E+00 0.  1.
        994    1    1    2    0    0  0.12794641191E+02 -0.13996211366E+02  0.96797763346E+01  0.17251879563E+03  0.17120000000E+03 0.  0.
        998    1    1    2    0    0 -0.10898718438E+02  0.71745869799E+02  0.12227937667E+04  0.12249860602E+04  0.10000000000E+02 0.  1.
</event>
<event>
 5    1  0.1556794E-008  0.3826910E+03  0.7957747E-01  0.3439525E+00
         13   -1    0    0    0    0  0.00000000000E+00  0.00000000000E+00  0.14999999963E+04  0.15000000000E+04  0.10566000000E+00 0. -1.
        994   -1    0    0    0    0 -0.00000000000E+00 -0.00000000000E+00  0.11368683772E-12  0.17120000000E+03  0.17120000000E+03 0.  0.
         13    1    1    2    0    0  0.10799332255E+02  0.11358487491E+02  0.42853812448E+02  0.45630047343E+02  0.10566000000E+00 0. -1.
        994    1    1    2    0    0 -0.10445124590E+02 -0.76717515170E+01  0.33376050012E+01  0.17172226415E+03  0.17120000000E+03 0.  0.
        998    1    1    2    0    0 -0.35420766500E+00 -0.36867359740E+01  0.14538085788E+04  0.14538476885E+04  0.10000000000E+02 0. -1.
</event>
<event>
 5    1  0.1556794E-008  0.3848474E+03  0.7957747E-01  0.3430319E+00
         13   -1    0    0    0    0  0.00000000000E+00  0.00000000000E+00  0.14999999963E+04  0.15000000000E+04  0.10566000000E+00 0. -1.
        994   -1    0    0    0    0 -0.00000000000E+00 -0.00000000000E+00  0.11368683772E-12  0.17120000000E+03  0.17120000000E+03 0.  0.
         13    1    1    2    0    0  0.14315039508E+02 -0.15202876055E+01  0.62495975021E+02  0.64132594586E+02  0.10566000000E+00 0. -1.
        994    1    1    2    0    0 -0.48993456420E+01 -0.21899906459E+01  0.18006648482E+01  0.17129355516E+03  0.17120000000E+03 0.  0.
        998    1    1    2    0    0 -0.94156938663E+01  0.37102782513E+01  0.14357033564E+04  0.14357738503E+04  0.10000000000E+02 0. -1.
</event>
<event>
 5    1  0.1556794E-008  0.3830274E+03  0.7957747E-01  0.3438082E+00
         13   -1    0    0    0    0  0.00000000000E+00  0.00000000000E+00  0.14999999963E+04  0.15000000000E+04  0.10566000000E+00 0. -1.
        994   -1    0    0    0    0 -0.00000000000E+00 -0.00000000000E+00  0.11368683772E-12  0.17120000000E+03  0.17120000000E+03 0.  0.
         13    1    1    2    0    0 -0.60153643324E+02 -0.71201692420E+02  0.18239663823E+03  0.20483331421E+03  0.10566000000E+00 0. -1.
        994    1    1    2    0    0  0.62430641488E+02  0.10578459642E+03  0.75628989456E+02  0.22386859959E+03  0.17120000000E+03 0.  0.
        998    1    1    2    0    0 -0.22769981635E+01 -0.34582903999E+02  0.12419743686E+04  0.12424980862E+04  0.10000000000E+02 0. -1.
</event>
<event>
 5    1  0.1556794E-008  0.3837554E+03  0.7957747E-01  0.3434968E+00
         13   -1    0    0    0    0  0.00000000000E+00  0.00000000000E+00  0.14999999963E+04  0.15000000000E+04  0.10566000000E+00 0.  1.
        994   -1    0    0    0    0 -0.00000000000E+00 -0.00000000000E+00  0.11368683772E-12  0.17120000000E+03  0.17120000000E+03 0.  0.
         13    1    1    2    0    0 -0.10930168912E+02 -0.14034463836E+02  0.67126761867E+02  0.69443848470E+02  0.10566000000E+00 0.  1.
        994    1    1    2    0    0  0.96830460815E+01  0.16107174684E+02  0.34164497979E+01  0.17226234234E+03  0.17120000000E+03 0.  0.
        998    1    1    2    0    0  0.12471228300E+01 -0.20727108478E+01  0.14294567846E+04  0.14294938092E+04  0.10000000000E+02 0.  1.
</event>
<event>
 5    1  0.2793981E-008  0.3863589E+03  0.7957747E-01  0.3423929E+00
         13   -1    0    0    0    0  0.00000000000E+00  0.00000000000E+00  0.14999999963E+04  0.15000000000E+04  0.10566000000E+00 0.  1.
        994   -1    0    0    0    0 -0.00000000000E+00 -0.00000000000E+00  0.11368683772E-12  0.17120000000E+03  0.17120000000E+03 0.  0.
         13    1    1    2    0    0  0.33438364726E+01  0.10382552770E+02  0.62272157287E+02  0.63220339936E+02  0.10566000000E+00 0.  1.
        994    1    1    2    0    0  0.21349865735E-01 -0.98805161442E+01  0.12766509051E+01  0.17148963494E+03  0.17120000000E+03 0.  0.
        998    1    1    2    0    0 -0.33651863383E+01 -0.50203662543E+00  0.14364511881E+04  0.14364900251E+04  0.10000000000E+02 0.  1.
</event>
<event>
 5    1  0.2012821E-008  0.3857433E+03  0.7957747E-01  0.3426526E+00
         13   -1    0    0    0    0  0.00000000000E+00  0.00000000000E+00  0.14999999963E+04  0.15000000000E+04  0.10566000000E+00 0. -1.
        994   -1    0    0    0    0 -0.00000000000E+00 -0.00000000000E+00  0.11368683772E-12  0.17120000000E+03  0.17120000000E+03 0.  0.
         13    1    1    2    0    0  0.45506797702E+01  0.11999428624E+02  0.67323135382E+02  0.68535470344E+02  0.10566000000E+00 0. -1.
        994    1    1    2    0    0 -0.33829581405E+01 -0.44766539808E+01  0.13648751800E+01  0.17129736636E+03  0.17120000000E+03 0.  0.
        998    1    1    2    0    0 -0.11677216297E+01 -0.75227746428E+01  0.14313119857E+04  0.14313671633E+04  0.10000000000E+02 0. -1.
</event>
<event>
 5    1  0.1556794E-008  0.3854924E+03  0.7957747E-01  0.3427586E+00
         13   -1    0    0    0    0  0.00000000000E+00  0.00000000000E+00  0.14999999963E+04  0.15000000000E+04  0.10566000000E+00 0.  1.
        994   -1    0    0    0    0 -0.00000000000E+00 -0.00000000000E+00  0.11368683772E-12  0.17120000000E+03  0.17120000000E+03 0.  0.
         13    1    1    2    0    0 -0.93742526201E+01  0.11340707730E+02  0.77685558702E+02  0.79066715240E+02  0.10566000000E+00 0.  1.
        994    1    1    2    0    0  0.89871791884E+01 -0.68884200688E+01  0.18069607180E+01  0.17158357972E+03  0.17120000000E+03 0.  0.
        998    1    1    2    0    0  0.38707343168E+00 -0.44522876609E+01  0.14205074769E+04  0.14205497050E+04  0.10000000000E+02 0.  1.
</event>
<event>
 5    1  0.1556794E-008  0.3852619E+03  0.7957747E-01  0.3428562E+00
         13   -1    0    0    0    0  0.00000000000E+00  0.00000000000E+00  0.14999999963E+04  0.15000000000E+04  0.10566000000E+00 0.  1.
        994   -1    0    0    0    0 -0.00000000000E+00 -0.00000000000E+00  0.11368683772E-12  0.17120000000E+03  0.17120000000E+03 0.  0.
         13    1    1    2    0    0  0.12060068321E+02  0.77235692600E+01  0.64629924897E+02  0.66197712394E+02  0.10566000000E+00 0.  1.
        994    1    1    2    0    0 -0.26443807213E+01 -0.31635935144E+02  0.48187551886E+01  0.17418520472E+03  0.17120000000E+03 0.  0.
        998    1    1    2    0    0 -0.94156875994E+01  0.23912365884E+02  0.14305513162E+04  0.14308170829E+04  0.10000000000E+02 0.  1.
</event>
<event>
 5    1  0.1556794E-008  0.3747513E+03  0.7957747E-01  0.3474336E+00
         13   -1    0    0    0    0  0.00000000000E+00  0.00000000000E+00  0.14999999963E+04  0.15000000000E+04  0.10566000000E+00 0. -1.
        994   -1    0    0    0    0 -0.00000000000E+00 -0.00000000000E+00  0.11368683772E-12  0.17120000000E+03  0.17120000000E+03 0.  0.
         13    1    1    2    0    0 -0.65685295133E+02 -0.10281278794E+03  0.46023462514E+03  0.47613123054E+03  0.10566000000E+00 0. -1.
        994    1    1    2    0    0  0.46838169551E+02  0.82932566303E+02  0.46471792144E+02  0.20134719304E+03  0.17120000000E+03 0.  0.
        998    1    1    2    0    0  0.18847125582E+02  0.19880221634E+02  0.99329357900E+03  0.99372157641E+03  0.10000000000E+02 0. -1.
</event>
<event>
 5    1  0.1556794E-008  0.3807788E+03  0.7957747E-01  0.3447775E+00
         13   -1    0    0    0    0  0.00000000000E+00  0.00000000000E+00  0.14999999963E+04  0.15000000000E+04  0.10566000000E+00 0. -1.
        994   -1    0    0    0    0 -0.00000000000E+00 -0.00000000000E+00  0.11368683772E-12  0.17120000000E+03  0.17120000000E+03 0.  0.
         13    1    1    2    0    0 -0.36756916063E+02 -0.51496782767E+00  0.20732623285E+03  0.21056000110E+03  0.10566000000E+00 0. -1.
        994    1    1    2    0    0  0.34770158698E+01 -0.29529625287E+01  0.38099376681E+01  0.17130313848E+03  0.17120000000E+03 0.  0.
        998    1    1    2    0    0  0.33279900193E+02  0.34679303564E+01  0.12888638258E+04  0.12893368604E+04  0.10000000000E+02 0. -1.
</event>
<event>
 5    1  0.1556794E-008  0.3842333E+03  0.7957747E-01  0.3432930E+00
         13   -1    0    0    0    0  0.00000000000E+00  0.00000000000E+00  0.14999999963E+04  0.15000000000E+04  0.10566000000E+00 0. -1.
        994   -1    0    0    0    0 -0.00000000000E+00 -0.00000000000E+00  0.11368683772E-12  0.17120000000E+03  0.17120000000E+03 0.  0.
         13    1    1    2    0    0  0.32155711119E+01  0.10932543564E+02  0.32402747572E+02  0.34348356883E+02  0.10566000000E+00 0. -1.
        994    1    1    2    0    0 -0.34794407399E+01 -0.22765709698E+01  0.20682846374E+01  0.17126297640E+03  0.17120000000E+03 0.  0.
        998    1    1    2    0    0  0.26386962794E+00 -0.86559725938E+01  0.14655289641E+04  0.14655886667E+04  0.10000000000E+02 0. -1.
</event>
<event>
 5    1  0.1556794E-008  0.3840849E+03  0.7957747E-01  0.3433562E+00
         13   -1    0    0    0    0  0.00000000000E+00  0.00000000000E+00  0.14999999963E+04  0.15000000000E+04  0.10566000000E+00 0. -1.
        994   -1    0    0    0    0 -0.00000000000E+00 -0.00000000000E+00  0.11368683772E-12  0.17120000000E+03  0.17120000000E+03 0.  0.
         13    1    1    2    0    0 -0.15051565952E+02  0.46106528502E+01  0.63980689389E+02  0.65888902981E+02  0.10566000000E+00 0. -1.
        994    1    1    2    0    0 -0.10146941439E+01  0.97202644998E+01  0.24002497728E+01  0.17149552281E+03  0.17120000000E+03 0.  0.
        998    1    1    2    0    0  0.16066260096E+02 -0.14330917350E+02  0.14336190571E+04  0.14338155742E+04  0.10000000000E+02 0. -1.
</event>
<event>
 5    1  0.1556794E-008  0.3834294E+03  0.7957747E-01  0.3436361E+00
         13   -1    0    0    0    0  0.00000000000E+00  0.00000000000E+00  0.14999999963E+04  0.15000000000E+04  0.10566000000E+00 0. -1.
        994   -1    0    0    0    0 -0.00000000000E+00 -0.00000000000E+00  0.11368683772E-12  0.17120000000E+03  0.17120000000E+03 0.  0.
         13    1    1    2    0    0  0.17020161673E+02  0.15715630079E+00  0.75032962920E+02  0.76939374121E+02  0.10566000000E+00 0. -1.
        994    1    1    2    0    0  0.27449050674E+02  0.26537359368E+02  0.72452405718E+01  0.17555516323E+03  0.17120000000E+03 0.  0.
        998    1    1    2    0    0 -0.44469212347E+02 -0.26694515669E+02  0.14177217928E+04  0.14187054627E+04  0.10000000000E+02 0. -1.
</event>
<event>
 5    1  0.1556794E-008  0.3822494E+03  0.7957747E-01  0.3441422E+00
         13   -1    0    0    0    0  0.00000000000E+00  0.00000000000E+00  0.14999999963E+04  0.15000000000E+04  0.10566000000E+00 0. -1.
        994   -1    0    0    0    0 -0.00000000000E+00 -0.00000000000E+00  0.11368683772E-12  0.17120000000E+03  0.17120000000E+03 0.  0.
         13    1    1    2    0    0 -0.82288108675E+01 -0.86438962787E+01  0.22331205892E+02  0.25320430324E+02  0.10566000000E+00 0. -1.
        994    1    1    2    0    0  0.27077774357E+02 -0.95645416457E+01  0.57432967889E+01  0.17368682097E+03  0.17120000000E+03 0.  0.
        998    1    1    2    0    0 -0.18848963490E+02  0.18208437924E+02  0.14719254936E+04  0.14721927487E+04  0.10000000000E+02 0. -1.
</event>
<event>
 5    1  0.1556794E-008  0.3830376E+03  0.7957747E-01  0.3438038E+00
         13   -1    0    0    0    0  0.00000000000E+00  0.00000000000E+00  0.14999999963E+04  0.15000000000E+04  0.10566000000E+00 0. -1.
        994   -1    0    0    0    0 -0.00000000000E+00 -0.00000000000E+00  0.11368683772E-12  0.17120000000E+03  0.17120000000E+03 0.  0.
         13    1    1    2    0    0  0.19955039673E+02 -0.51410666692E+01  0.86643837225E+02  0.89060652748E+02  0.10566000000E+00 0. -1.
        994    1    1    2    0    0 -0.34307090600E+00  0.28212276925E+01  0.26343265258E+01  0.17124385157E+03  0.17120000000E+03 0.  0.
        998    1    1    2    0    0 -0.19611968767E+02  0.23198389767E+01  0.14107218325E+04  0.14108954957E+04  0.10000000000E+02 0. -1.
</event>
<event>
 5    1  0.1556794E-008  0.3723327E+03  0.7957747E-01  0.3485238E+00
         13   -1    0    0    0    0  0.00000000000E+00  0.00000000000E+00  0.14999999963E+04  0.15000000000E+04  0.10566000000E+00 0.  1.
        994   -1    0    0    0    0 -0.00000000000E+00 -0.00000000000E+00  0.11368683772E-12  0.17120000000E+03  0.17120000000E+03 0.  0.
         13    1    1    2    0    0  0.26057867338E+02 -0.37703582369E+02  0.11633233471E+03  0.12503517840E+03  0.10566000000E+00 0.  1.
        994    1    1    2    0    0 -0.16981105945E+02  0.48998546220E+02  0.17336027844E+02  0.17971976339E+03  0.17120000000E+03 0.  0.
        998    1    1    2    0    0 -0.90767613931E+01 -0.11294963852E+02  0.13663316337E+04  0.13664450582E+04  0.10000000000E+02 0.  1.
</event>
<event>
 5    1  0.1556794E-008  0.3816565E+03  0.7957747E-01  0.3443977E+00
         13   -1    0    0    0    0  0.00000000000E+00  0.00000000000E+00  0.14999999963E+04  0.15000000000E+04  0.10566000000E+00 0.  1.
        994   -1    0    0    0    0 -0.00000000000E+00 -0.00000000000E+00  0.11368683772E-12  0.17120000000E+03  0.17120000000E+03 0.  0.
         13    1    1    2    0    0  0.74622964554E+01 -0.11942334158E+02  0.28365172980E+02  0.31668587208E+02  0.10566000000E+00 0.  1.
        994    1    1    2    0    0 -0.11476723488E+02  0.97280058799E+01  0.40522018788E+01  0.17190756127E+03  0.17120000000E+03 0.  0.
        998    1    1    2    0    0  0.40144270328E+01  0.22143282778E+01  0.14675826214E+04  0.14676238515E+04  0.10000000000E+02 0.  1.
</event>
<event>
 5    1  0.1556794E-008  0.3835809E+03  0.7957747E-01  0.3435713E+00
         13   -1    0    0    0    0  0.00000000000E+00  0.00000000000E+00  0.14999999963E+04  0.15000000000E+04  0.10566000000E+00 0. -1.
        994   -1    0    0    0    0 -0.00000000000E+00 -0.00000000000E+00  0.11368683772E-12  0.17120000000E+03  0.17120000000E+03 0.  0.
         13    1    1    2    0    0 -0.17358971025E+02  0.12928263182E+02  0.98619207915E+02  0.10096649542E+03  0.10566000000E+00 0. -1.
        994    1    1    2    0    0  0.91151301761E+01 -0.13181784849E+02  0.31853663957E+01  0.17197799746E+03  0.17120000000E+03 0.  0.
        998    1    1    2    0    0  0.82438408488E+01  0.25352166615E+00  0.13981954220E+04  0.13982555071E+04  0.10000000000E+02 0. -1.
</event>
<event>
 5    1  0.1556794E-008  0.3831599E+03  0.7957747E-01  0.3437514E+00
         13   -1    0    0    0    0  0.00000000000E+00  0.00000000000E+00  0.14999999963E+04  0.15000000000E+04  0.10566000000E+00 0.  1.
        994   -1    0    0    0    0 -0.00000000000E+00 -0.00000000000E+00  0.11368683772E-12  0.17120000000E+03  0.17120000000E+03 0.  0.
         13    1    1    2    0    0  0.24368597938E+02 -0.63449595373E+01  0.12849514475E+03  0.13093930069E+03  0.10566000000E+00 0.  1.
        994    1    1    2    0    0 -0.14037928746E+02 -0.12092369562E+02  0.36830246950E+01  0.17223905921E+03  0.17120000000E+03 0.  0.
        998    1    1    2    0    0 -0.10330669192E+02  0.18437329099E+02  0.13678218268E+04  0.13680216401E+04  0.10000000000E+02 0.  1.
</event>
<event>
 5    1  0.1556794E-008  0.3848899E+03  0.7957747E-01  0.3430139E+00
         13   -1    0    0    0    0  0.00000000000E+00  0.00000000000E+00  0.14999999963E+04  0.15000000000E+04  0.10566000000E+00 0.  1.
        994   -1    0    0    0    0 -0.00000000000E+00 -0.00000000000E+00  0.11368683772E-12  0.17120000000E+03  0.17120000000E+03 0.  0.
         13    1    1    2    0    0  0.10538874506E+02 -0.13315502322E+02  0.86732401960E+02  0.88379246386E+02  0.10566000000E+00 0.  1.
        994    1    1    2    0    0 -0.55343947042E+00  0.11228814386E+02  0.21007425125E+01  0.17158160067E+03  0.17120000000E+03 0.  0.
        998    1    1    2    0    0 -0.99854350356E+01  0.20866879363E+01  0.14111668518E+04  0.14112391529E+04  0.10000000000E+02 0.  1.
</event>
<event>
 5    1  0.1556794E-008  0.3851261E+03  0.7957747E-01  0.3429138E+00
         13   -1    0    0    0    0  0.00000000000E+00  0.00000000000E+00  0.14999999963E+04  0.15000000000E+04  0.10566000000E+00 0.  1.
        994   -1    0    0    0    0 -0.00000000000E+00 -0.00000000000E+00  0.11368683772E-12  0.17120000000E+03  0.17120000000E+03 0.  0.
         13    1    1    2    0    0  0.89168262748E+01 -0.10595642828E+02  0.59434107135E+02  0.61026237740E+02  0.10566000000E+00 0.  1.
        994    1    1    2    0    0 -0.91878866066E+01  0.10632085098E+02  0.22169413887E+01  0.17179002684E+03  0.17120000000E+03 0.  0.
        998    1    1    2    0    0  0.27106033180E+00 -0.36442269826E-01  0.14383489478E+04  0.14383837354E+04  0.10000000000E+02 0.  1.
</event>
<event>
 5    1  0.1556794E-008  0.3824630E+03  0.7957747E-01  0.3440504E+00
         13   -1    0    0    0    0  0.00000000000E+00  0.00000000000E+00  0.14999999963E+04  0.15000000000E+04  0.10566000000E+00 0.  1.
        994   -1    0    0    0    0 -0.00000000000E+00 -0.00000000000E+00  0.11368683772E-12  0.17120000000E+03  0.17120000000E+03 0.  0.
         13    1    1    2    0    0 -0.13525375790E+02  0.25841495470E+02  0.15739660645E+03  0.16007629919E+03  0.10566000000E+00 0.  1.
        994    1    1    2    0    0 -0.21158946186E+01 -0.97858564138E+01  0.32274373965E+01  0.17152287412E+03  0.17120000000E+03 0.  0.
        998    1    1    2    0    0  0.15641270409E+02 -0.16055639057E+02  0.13393759524E+04  0.13396008267E+04  0.10000000000E+02 0.  1.
</event>
<event>
 5    1  0.1556794E-008  0.3821843E+03  0.7957747E-01  0.3441703E+00
         13   -1    0    0    0    0  0.00000000000E+00  0.00000000000E+00  0.14999999963E+04  0.15000000000E+04  0.10566000000E+00 0. -1.
        994   -1    0    0    0    0 -0.00000000000E+00 -0.00000000000E+00  0.11368683772E-12  0.17120000000E+03  0.17120000000E+03 0.  0.
         13    1    1    2    0    0  0.16056972876E+02  0.13837358789E+02  0.76670560141E+02  0.79546746210E+02  0.10566000000E+00 0. -1.
        994    1    1    2    0    0  0.25879585240E+01 -0.94733090167E+01  0.33547417201E+01  0.17151424257E+03  0.17120000000E+03 0.  0.
        998    1    1    2    0    0 -0.18644931400E+02 -0.43640497722E+01  0.14199746944E+04  0.14201390112E+04  0.10000000000E+02 0. -1.
</event>
<event>
 5    1  0.1556794E-008  0.3857898E+03  0.7957747E-01  0.3426330E+00
         13   -1    0    0    0    0  0.00000000000E+00  0.00000000000E+00  0.14999999963E+04  0.15000000000E+04  0.10566000000E+00 0.  1.
        994   -1    0    0    0    0 -0.00000000000E+00 -0.00000000000E+00  0.11368683772E-12  0.17120000000E+03  0.17120000000E+03 0.  0.
         13    1    1    2    0    0  0.17262289448E+01  0.10907923142E+02  0.48552865427E+02  0.49793117585E+02  0.10566000000E+00 0.  1.
        994    1    1    2    0    0  0.21589604768E+01 -0.11498395300E+02  0.16876449859E+01  0.17160758244E+03  0.17120000000E+03 0.  0.
        998    1    1    2    0    0 -0.38851894216E+01  0.59047215819E+00  0.14497594859E+04  0.14497993000E+04  0.10000000000E+02 0.  1.
</event>
<event>
 5    1  0.1556794E-008  0.3808908E+03  0.7957747E-01  0.3447289E+00
         13   -1    0    0    0    0  0.00000000000E+00  0.00000000000E+00  0.14999999963E+04  0.15000000000E+04  0.10566000000E+00 0.  1.
        994   -1    0    0    0    0 -0.00000000000E+00 -0.00000000000E+00  0.11368683772E-12  0.17120000000E+03  0.17120000000E+03 0.  0.
         13    1    1    2    0    0  0.10732979958E+02 -0.10381268948E+02  0.29088410426E+02  0.32697314705E+02  0.10566000000E+00 0.  1.
        994    1    1    2    0    0 -0.45997026794E-01  0.10463576098E+02  0.40491770290E+01  0.17156725904E+03  0.17120000000E+03 0.  0.
        998    1    1    2    0    0 -0.10686982931E+02 -0.82307150542E-01  0.14668624088E+04  0.14669354263E+04  0.10000000000E+02 0.  1.
</event>
<event>
 5    1  0.1556794E-008  0.3790074E+03  0.7957747E-01  0.3455492E+00
         13   -1    0    0    0    0  0.00000000000E+00  0.00000000000E+00  0.14999999963E+04  0.15000000000E+04  0.10566000000E+00 0. -1.
        994   -1    0    0    0    0 -0.00000000000E+00 -0.00000000000E+00  0.11368683772E-12  0.17120000000E+03  0.17120000000E+03 0.  0.
         13    1    1    2    0    0  0.16905673949E+01  0.17048793607E+02  0.31453870320E+02  0.35817265442E+02  0.10566000000E+00 0. -1.
        994    1    1    2    0    0  0.28969529497E+01  0.61185130654E+01  0.47887618155E+01  0.17140070239E+03  0.17120000000E+03 0.  0.
        998    1    1    2    0    0 -0.45875203446E+01 -0.23167306673E+02  0.14637573641E+04  0.14639820322E+04  0.10000000000E+02 0. -1.
</event>
<event>
 5    1  0.1556794E-008  0.3845815E+03  0.7957747E-01  0.3431449E+00
         13   -1    0    0    0    0  0.00000000000E+00  0.00000000000E+00  0.14999999963E+04  0.15000000000E+04  0.10566000000E+00 0.  1.
        994   -1    0    0    0    0 -0.00000000000E+00 -0.00000000000E+00  0.11368683772E-12  0.17120000000E+03  0.17120000000E+03 0.  0.
         13    1    1    2    0    0  0.85870903691E+01  0.76562949193E+01  0.35827869017E+02  0.37629833049E+02  0.10566000000E+00 0.  1.
        994    1    1    2    0    0  0.22215753627E-01 -0.10285493865E+02  0.21865025440E+01  0.17152263020E+03  0.17120000000E+03 0.  0.
        998    1    1    2    0    0 -0.86093061227E+01  0.26291989456E+01  0.14619856247E+04  0.14620475368E+04  0.10000000000E+02 0.  1.
</event>
<event>
 5    1  0.1556794E-008  0.2788741E+03  0.7957747E-01  0.4059427E+00
         13   -1    0    0    0    0  0.00000000000E+00  0.00000000000E+00  0.14999999963E+04  0.15000000000E+04  0.10566000000E+00 0. -1.
        994   -1    0    0    0    0 -0.00000000000E+00 -0.00000000000E+00  0.11368683772E-12  0.17120000000E+03  0.17120000000E+03 0.  0.
         13    1    1    2    0    0  0.12737006381E+03  0.13459538338E+03  0.43461296430E+03  0.47246956546E+03  0.10566000000E+00 0. -1.
        994    1    1    2    0    0 -0.23058951165E+03 -0.78577536638E+02  0.29417004618E+03  0.41855872732E+03  0.17120000000E+03 0.  0.
        998    1    1    2    0    0  0.10321944784E+03 -0.56017846746E+02  0.77121698580E+03  0.78017170723E+03  0.10000000000E+02 0. -1.
</event>
<event>
 5    1  0.1556794E-008  0.3827792E+03  0.7957747E-01  0.3439146E+00
         13   -1    0    0    0    0  0.00000000000E+00  0.00000000000E+00  0.14999999963E+04  0.15000000000E+04  0.10566000000E+00 0.  1.
        994   -1    0    0    0    0 -0.00000000000E+00 -0.00000000000E+00  0.11368683772E-12  0.17120000000E+03  0.17120000000E+03 0.  0.
         13    1    1    2    0    0  0.59124963660E+01  0.15187447346E+02  0.47829535468E+02  0.50530107830E+02  0.10566000000E+00 0.  1.
        994    1    1    2    0    0 -0.77738942617E+01 -0.77080151625E+01  0.31338572861E+01  0.17157828531E+03  0.17120000000E+03 0.  0.
        998    1    1    2    0    0  0.18613978957E+01 -0.74794321836E+01  0.14490366035E+04  0.14490916069E+04  0.10000000000E+02 0.  1.
</event>
<event>
 5    1  0.1556794E-008  0.3807313E+03  0.7957747E-01  0.3447981E+00
         13   -1    0    0    0    0  0.00000000000E+00  0.00000000000E+00  0.14999999963E+04  0.15000000000E+04  0.10566000000E+00 0. -1.
        994   -1    0    0    0    0 -0.00000000000E+00 -0.00000000000E+00  0.11368683772E-12  0.17120000000E+03  0.17120000000E+03 0.  0.
         13    1    1    2    0    0 -0.97263393466E+01 -0.19829382369E+02  0.66040087392E+02  0.69635554058E+02  0.10566000000E+00 0. -1.
        994    1    1    2    0    0  0.71106175042E+01  0.21617101678E+01  0.39486804924E+01  0.17140672668E+03  0.17120000000E+03 0.  0.
        998    1    1    2    0    0  0.26157218424E+01  0.17667672201E+02  0.14300112284E+04  0.14301577193E+04  0.10000000000E+02 0. -1.
</event>
<event>
 5    1  0.1556794E-008  0.3823526E+03  0.7957747E-01  0.3440978E+00
         13   -1    0    0    0    0  0.00000000000E+00  0.00000000000E+00  0.14999999963E+04  0.15000000000E+04  0.10566000000E+00 0.  1.
        994   -1    0    0    0    0 -0.00000000000E+00 -0.00000000000E+00  0.11368683772E-12  0.17120000000E+03  0.17120000000E+03 0.  0.
         13    1    1    2    0    0 -0.40284603077E+02  0.29864085450E+02  0.29331033593E+03  0.29756625678E+03  0.10566000000E+00 0.  1.
        994    1    1    2    0    0  0.68082427332E+02 -0.20443612765E+02  0.19897226917E+02  0.18643631045E+03  0.17120000000E+03 0.  0.
        998    1    1    2    0    0 -0.27797824255E+02 -0.94204726848E+01  0.11867924334E+04  0.11871974328E+04  0.10000000000E+02 0.  1.
</event>
<event>
 5    1  0.1556794E-008  0.3794108E+03  0.7957747E-01  0.3453728E+00
         13   -1    0    0    0    0  0.00000000000E+00  0.00000000000E+00  0.14999999963E+04  0.15000000000E+04  0.10566000000E+00 0. -1.
        994   -1    0    0    0    0 -0.00000000000E+00 -0.00000000000E+00  0.11368683772E-12  0.17120000000E+03  0.17120000000E+03 0.  0.
         13    1    1    2    0    0  0.16106256756E+02 -0.27316686115E+01  0.28706914651E+02  0.33029859717E+02  0.10566000000E+00 0. -1.
        994    1    1    2    0    0 -0.66076454449E+01  0.96793974102E+00  0.45802608865E+01  0.17139141366E+03  0.17120000000E+03 0.  0.
        998    1    1    2    0    0 -0.94986113108E+01  0.17637288705E+01  0.14667128207E+04  0.14667787266E+04  0.10000000000E+02 0. -1.
</event>
<event>
 5    1  0.1556794E-008  0.3816736E+03  0.7957747E-01  0.3443904E+00
         13   -1    0    0    0    0  0.00000000000E+00  0.00000000000E+00  0.14999999963E+04  0.15000000000E+04  0.10566000000E+00 0.  1.
        994   -1    0    0    0    0 -0.00000000000E+00 -0.00000000000E+00  0.11368683772E-12  0.17120000000E+03  0.17120000000E+03 0.  0.
         13    1    1    2    0    0  0.18093627580E+02 -0.99981622996E+01  0.67488773722E+02  0.70583910000E+02  0.10566000000E+00 0.  1.
        994    1    1    2    0    0 -0.32493796634E+01 -0.29204509902E+01  0.33541682040E+01  0.17128858090E+03  0.17120000000E+03 0.  0.
        998    1    1    2    0    0 -0.14844247916E+02  0.12918613290E+02  0.14291570544E+04  0.14293275091E+04  0.10000000000E+02 0.  1.
</event>
<event>
 5    1  0.1556794E-008  0.3752998E+03  0.7957747E-01  0.3471883E+00
         13   -1    0    0    0    0  0.00000000000E+00  0.00000000000E+00  0.14999999963E+04  0.15000000000E+04  0.10566000000E+00 0.  1.
        994   -1    0    0    0    0 -0.00000000000E+00 -0.00000000000E+00  0.11368683772E-12  0.17120000000E+03  0.17120000000E+03 0.  0.
         13    1    1    2    0    0  0.80372891071E+00 -0.40815667785E+02  0.13828519888E+03  0.14418520073E+03  0.10566000000E+00 0.  1.
        994    1    1    2    0    0  0.15939707891E+02  0.55421213636E+01  0.74924994621E+01  0.17219281909E+03  0.17120000000E+03 0.  0.
        998    1    1    2    0    0 -0.16743436801E+02  0.35273546421E+02  0.13542222979E+04  0.13548219802E+04  0.10000000000E+02 0.  1.
</event>
<event>
 5    1  0.1556794E-008  0.3732125E+03  0.7957747E-01  0.3481256E+00
         13   -1    0    0    0    0  0.00000000000E+00  0.00000000000E+00  0.14999999963E+04  0.15000000000E+04  0.10566000000E+00 0.  1.
        994   -1    0    0    0    0 -0.00000000000E+00 -0.00000000000E+00  0.11368683772E-12  0.17120000000E+03  0.17120000000E+03 0.  0.
         13    1    1    2    0    0  0.28594400154E+02 -0.87623884043E+02  0.36416629304E+03  0.37564968378E+03  0.10566000000E+00 0.  1.
        994    1    1    2    0    0 -0.77951366343E+01  0.39314061216E+02  0.18348912277E+02  0.17678371573E+03  0.17120000000E+03 0.  0.
        998    1    1    2    0    0 -0.20799263520E+02  0.48309822827E+02  0.11174847910E+04  0.11187666005E+04  0.10000000000E+02 0.  1.
</event>
<event>
 5    1  0.1556794E-008  0.3710459E+03  0.7957747E-01  0.3491098E+00
         13   -1    0    0    0    0  0.00000000000E+00  0.00000000000E+00  0.14999999963E+04  0.15000000000E+04  0.10566000000E+00 0. -1.
        994   -1    0    0    0    0 -0.00000000000E+00 -0.00000000000E+00  0.11368683772E-12  0.17120000000E+03  0.17120000000E+03 0.  0.
         13    1    1    2    0    0 -0.18868592174E+02 -0.58734551484E+02  0.13885088693E+03  0.15193864313E+03  0.10566000000E+00 0. -1.
        994    1    1    2    0    0  0.59692145921E+02  0.60630878395E+02  0.37347087859E+02  0.19479091527E+03  0.17120000000E+03 0.  0.
        998    1    1    2    0    0 -0.40823553746E+02 -0.18963269113E+01  0.13238020215E+04  0.13244704416E+04  0.10000000000E+02 0. -1.
</event>
<event>
 5    1  0.1556794E-008  0.3738673E+03  0.7957747E-01  0.3478304E+00
         13   -1    0    0    0    0  0.00000000000E+00  0.00000000000E+00  0.14999999963E+04  0.15000000000E+04  0.10566000000E+00 0.  1.
        994   -1    0    0    0    0 -0.00000000000E+00 -0.00000000000E+00  0.11368683772E-12  0.17120000000E+03  0.17120000000E+03 0.  0.
         13    1    1    2    0    0 -0.38123071028E+02 -0.21729430120E+02  0.66590401110E+02  0.79748538306E+02  0.10566000000E+00 0.  1.
        994    1    1    2    0    0  0.38855470288E+02  0.19525042155E+02  0.19730326859E+02  0.17773491677E+03  0.17120000000E+03 0.  0.
        998    1    1    2    0    0 -0.73239925973E+00  0.22043879645E+01  0.14136792683E+04  0.14137165449E+04  0.10000000000E+02 0.  1.
</event>
<event>
 5    1  0.1556794E-008  0.3807805E+03  0.7957747E-01  0.3447767E+00
         13   -1    0    0    0    0  0.00000000000E+00  0.00000000000E+00  0.14999999963E+04  0.15000000000E+04  0.10566000000E+00 0.  1.
        994   -1    0    0    0    0 -0.00000000000E+00 -0.00000000000E+00  0.11368683772E-12  0.17120000000E+03  0.17120000000E+03 0.  0.
         13    1    1    2    0    0  0.29315999762E+02  0.17067211984E+02  0.14076292753E+03  0.14479271562E+03  0.10566000000E+00 0.  1.
        994    1    1    2    0    0 -0.27323178203E+02 -0.18274933603E+02  0.73508817721E+01  0.17448210432E+03  0.17120000000E+03 0.  0.
        998    1    1    2    0    0 -0.19928215592E+01  0.12077216196E+01  0.13518861870E+04  0.13519251801E+04  0.10000000000E+02 0.  0.
</event>
<event>
 5    1  0.1556794E-008  0.3767988E+03  0.7957747E-01  0.3465217E+00
         13   -1    0    0    0    0  0.00000000000E+00  0.00000000000E+00  0.14999999963E+04  0.15000000000E+04  0.10566000000E+00 0.  1.
        994   -1    0    0    0    0 -0.00000000000E+00 -0.00000000000E+00  0.11368683772E-12  0.17120000000E+03  0.17120000000E+03 0.  0.
         13    1    1    2    0    0  0.31964102617E+02 -0.23677142769E+02  0.12804765871E+03  0.13408402220E+03  0.10566000000E+00 0.  1.
        994    1    1    2    0    0 -0.18791337964E+02  0.33429399604E+02  0.10742883579E+02  0.17577112587E+03  0.17120000000E+03 0.  0.
        998    1    1    2    0    0 -0.13172764653E+02 -0.97522568351E+01  0.13612094540E+04  0.13613448519E+04  0.10000000000E+02 0.  1.
</event>
<event>
 5    1  0.1556794E-008  0.3808597E+03  0.7957747E-01  0.3447424E+00
         13   -1    0    0    0    0  0.00000000000E+00  0.00000000000E+00  0.14999999963E+04  0.15000000000E+04  0.10566000000E+00 0.  1.
        994   -1    0    0    0    0 -0.00000000000E+00 -0.00000000000E+00  0.11368683772E-12  0.17120000000E+03  0.17120000000E+03 0.  0.
         13    1    1    2    0    0 -0.17728598455E+02 -0.68226727265E+01  0.47148077887E+02  0.50831136903E+02  0.10566000000E+00 0.  1.
        994    1    1    2    0    0  0.13849935941E+02  0.28603422984E+01  0.43668057719E+01  0.17183861986E+03  0.17120000000E+03 0.  0.
        998    1    1    2    0    0  0.38786625146E+01  0.39623304281E+01  0.14484851126E+04  0.14485302432E+04  0.10000000000E+02 0.  1.
</event>
<event>
 5    1  0.1556794E-008  0.3833592E+03  0.7957747E-01  0.3436661E+00
         13   -1    0    0    0    0  0.00000000000E+00  0.00000000000E+00  0.14999999963E+04  0.15000000000E+04  0.10566000000E+00 0. -1.
        994   -1    0    0    0    0 -0.00000000000E+00 -0.00000000000E+00  0.11368683772E-12  0.17120000000E+03  0.17120000000E+03 0.  0.
         13    1    1    2    0    0 -0.37611505445E+01  0.11750153691E+02  0.29697011862E+02  0.32157985677E+02  0.10566000000E+00 0. -1.
        994    1    1    2    0    0  0.49952876746E+01 -0.13112155326E+02  0.30981789938E+01  0.17180197970E+03  0.17120000000E+03 0.  0.
        998    1    1    2    0    0 -0.12341371301E+01  0.13620016354E+01  0.14672048054E+04  0.14672400346E+04  0.10000000000E+02 0. -1.
</event>
<event>
 5    1  0.1556794E-008  0.3701467E+03  0.7957747E-01  0.3495217E+00
         13   -1    0    0    0    0  0.00000000000E+00  0.00000000000E+00  0.14999999963E+04  0.15000000000E+04  0.10566000000E+00 0.  1.
        994   -1    0    0    0    0 -0.00000000000E+00 -0.00000000000E+00  0.11368683772E-12  0.17120000000E+03  0.17120000000E+03 0.  0.
         13    1    1    2    0    0  0.73133660737E+02 -0.91182396429E+02  0.46405746554E+03  0.47855209146E+03  0.10566000000E+00 0.  1.
        994    1    1    2    0    0 -0.93129846184E+02  0.84631482408E+02  0.66089332577E+02  0.22251493421E+03  0.17120000000E+03 0.  0.
        998    1    1    2    0    0  0.19996185447E+02  0.65509140213E+01  0.96985319816E+03  0.97013297433E+03  0.10000000000E+02 0.  1.
</event>
<event>
 5    1  0.1556794E-008  0.3818150E+03  0.7957747E-01  0.3443293E+00
         13   -1    0    0    0    0  0.00000000000E+00  0.00000000000E+00  0.14999999963E+04  0.15000000000E+04  0.10566000000E+00 0. -1.
        994   -1    0    0    0    0 -0.00000000000E+00 -0.00000000000E+00  0.11368683772E-12  0.17120000000E+03  0.17120000000E+03 0.  0.
         13    1    1    2    0    0 -0.83835905858E+01 -0.90928529283E+01  0.22184599313E+02  0.25399452281E+02  0.10566000000E+00 0. -1.
        994    1    1    2    0    0  0.54359468017E+01  0.12971109511E+02  0.38772871163E+01  0.17182046605E+03  0.17120000000E+03 0.  0.
        998    1    1    2    0    0  0.29476437840E+01 -0.38782565823E+01  0.14739381098E+04  0.14739800817E+04  0.10000000000E+02 0. -1.
</event>
<event>
 5    1  0.1556794E-008  0.3762768E+03  0.7957747E-01  0.3467532E+00
         13   -1    0    0    0    0  0.00000000000E+00  0.00000000000E+00  0.14999999963E+04  0.15000000000E+04  0.10566000000E+00 0. -1.
        994   -1    0    0    0    0 -0.00000000000E+00 -0.00000000000E+00  0.11368683772E-12  0.17120000000E+03  0.17120000000E+03 0.  0.
         13    1    1    2    0    0  0.92534508380E+02  0.81323451682E+02  0.57364302940E+03  0.58672180407E+03  0.10566000000E+00 0. -1.
        994    1    1    2    0    0 -0.12861800929E+03 -0.73603984417E+02  0.84388636205E+02  0.24164234057E+03  0.17120000000E+03 0.  0.
        998    1    1    2    0    0  0.36083500910E+02 -0.77194672653E+01  0.84196833068E+03  0.84283585536E+03  0.10000000000E+02 0. -1.
</event>
<event>
 5    1  0.1556794E-008  0.3692636E+03  0.7957747E-01  0.3499282E+00
         13   -1    0    0    0    0  0.00000000000E+00  0.00000000000E+00  0.14999999963E+04  0.15000000000E+04  0.10566000000E+00 0. -1.
        994   -1    0    0    0    0 -0.00000000000E+00 -0.00000000000E+00  0.11368683772E-12  0.17120000000E+03  0.17120000000E+03 0.  0.
         13    1    1    2    0    0  0.44733797568E+02 -0.69828352188E+01  0.85705470230E+02  0.96929414648E+02  0.10566000000E+00 0. -1.
        994    1    1    2    0    0 -0.53841522626E+02  0.77858657351E+01  0.20942082126E+02  0.18085226033E+03  0.17120000000E+03 0.  0.
        998    1    1    2    0    0  0.91077250575E+01 -0.80303051633E+00  0.13933524439E+04  0.13934183250E+04  0.10000000000E+02 0. -1.
</event>
<event>
 5    1  0.1556794E-008  0.3822544E+03  0.7957747E-01  0.3441401E+00
         13   -1    0    0    0    0  0.00000000000E+00  0.00000000000E+00  0.14999999963E+04  0.15000000000E+04  0.10566000000E+00 0. -1.
        994   -1    0    0    0    0 -0.00000000000E+00 -0.00000000000E+00  0.11368683772E-12  0.17120000000E+03  0.17120000000E+03 0.  0.
         13    1    1    2    0    0  0.76772861436E+01 -0.10731577758E+02  0.27597180699E+02  0.30589590227E+02  0.10566000000E+00 0. -1.
        994    1    1    2    0    0 -0.63552235597E+01  0.10867539236E+02  0.35255071569E+01  0.17169846090E+03  0.17120000000E+03 0.  0.
        998    1    1    2    0    0 -0.13220625839E+01 -0.13596147850E+00  0.14688773084E+04  0.14689119489E+04  0.10000000000E+02 0. -1.
</event>
<event>
 5    1  0.1556794E-008  0.3771878E+03  0.7957747E-01  0.3463496E+00
         13   -1    0    0    0    0  0.00000000000E+00  0.00000000000E+00  0.14999999963E+04  0.15000000000E+04  0.10566000000E+00 0. -1.
        994   -1    0    0    0    0 -0.00000000000E+00 -0.00000000000E+00  0.11368683772E-12  0.17120000000E+03  0.17120000000E+03 0.  0.
         13    1    1    2    0    0 -0.52999536244E+02 -0.50422640054E+01  0.26571764228E+03  0.27099861965E+03  0.10566000000E+00 0. -1.
        994    1    1    2    0    0  0.24416397551E+02 -0.24807627665E+01  0.75945632892E+01  0.17311681618E+03  0.17120000000E+03 0.  0.
        998    1    1    2    0    0  0.28583138694E+02  0.75230267719E+01  0.12266877907E+04  0.12270845642E+04  0.10000000000E+02 0. -1.
</event>
<event>
 5    1  0.1556794E-008  0.3798581E+03  0.7957747E-01  0.3451776E+00
         13   -1    0    0    0    0  0.00000000000E+00  0.00000000000E+00  0.14999999963E+04  0.15000000000E+04  0.10566000000E+00 0.  1.
        994   -1    0    0    0    0 -0.00000000000E+00 -0.00000000000E+00  0.11368683772E-12  0.17120000000E+03  0.17120000000E+03 0.  0.
         13    1    1    2    0    0 -0.23688150379E+01 -0.29797226331E+02  0.10693880549E+03  0.11103785510E+03  0.10566000000E+00 0.  1.
        994    1    1    2    0    0 -0.37201760787E+00  0.14346600486E+02  0.48939146907E+01  0.17187016537E+03  0.17120000000E+03 0.  0.
        998    1    1    2    0    0  0.27408326457E+01  0.15450625845E+02  0.13881672761E+04  0.13882919795E+04  0.10000000000E+02 0.  1.
</event>
<event>
 5    1  0.1556794E-008  0.3738541E+03  0.7957747E-01  0.3478364E+00
         13   -1    0    0    0    0  0.00000000000E+00  0.00000000000E+00  0.14999999963E+04  0.15000000000E+04  0.10566000000E+00 0. -1.
        994   -1    0    0    0    0 -0.00000000000E+00 -0.00000000000E+00  0.11368683772E-12  0.17120000000E+03  0.17120000000E+03 0.  0.
         13    1    1    2    0    0  0.42378615673E+01 -0.91688520506E+02  0.43567933075E+03  0.44524289401E+03  0.10566000000E+00 0. -1.
        994    1    1    2    0    0 -0.22326838762E+01  0.84286044196E+02  0.31929660593E+02  0.19348918665E+03  0.17120000000E+03 0.  0.
        998    1    1    2    0    0 -0.20051776911E+01  0.74024763098E+01  0.10323910049E+04  0.10324679193E+04  0.10000000000E+02 0.  1.
</event>
<event>
 5    1  0.1556794E-008  0.2075193E+03  0.7957747E-01  0.4905978E+00
         13   -1    0    0    0    0  0.00000000000E+00  0.00000000000E+00  0.14999999963E+04  0.15000000000E+04  0.10566000000E+00 0.  1.
        994   -1    0    0    0    0 -0.00000000000E+00 -0.00000000000E+00  0.11368683772E-12  0.17120000000E+03  0.17120000000E+03 0.  0.
         13    1    1    2    0    0  0.11396426376E+03 -0.70389152437E+01  0.64147372292E+02  0.13096677547E+03  0.10566000000E+00 0.  1.
        994    1    1    2    0    0 -0.11363628598E+03  0.28525171978E+01  0.15021356834E+03  0.25454842066E+03  0.17120000000E+03 0.  0.
        998    1    1    2    0    0 -0.32797777752E+00  0.41863980459E+01  0.12856390556E+04  0.12856848039E+04  0.10000000000E+02 0.  1.
</event>
<event>
 5    1  0.1556794E-008  0.3815937E+03  0.7957747E-01  0.3444248E+00
         13   -1    0    0    0    0  0.00000000000E+00  0.00000000000E+00  0.14999999963E+04  0.15000000000E+04  0.10566000000E+00 0.  1.
        994   -1    0    0    0    0 -0.00000000000E+00 -0.00000000000E+00  0.11368683772E-12  0.17120000000E+03  0.17120000000E+03 0.  0.
         13    1    1    2    0    0  0.11164623110E+02 -0.18832107171E+02  0.68985468237E+02  0.72376122179E+02  0.10566000000E+00 0.  1.
        994    1    1    2    0    0 -0.11690845070E+02  0.15715779595E+02  0.46076601334E+01  0.17237845607E+03  0.17120000000E+03 0.  0.
        998    1    1    2    0    0  0.52622196000E+00  0.31163275758E+01  0.14264068679E+04  0.14264454217E+04  0.10000000000E+02 0.  1.
</event>
<event>
 5    1  0.1556794E-008  0.3839245E+03  0.7957747E-01  0.3434246E+00
         13   -1    0    0    0    0  0.00000000000E+00  0.00000000000E+00  0.14999999963E+04  0.15000000000E+04  0.10566000000E+00 0.  1.
        994   -1    0    0    0    0 -0.00000000000E+00 -0.00000000000E+00  0.11368683772E-12  0.17120000000E+03  0.17120000000E+03 0.  0.
         13    1    1    2    0    0 -0.20451555480E+02 -0.12438739259E+02  0.14406488888E+03  0.14604003468E+03  0.10566000000E+00 0.  1.
        994    1    1    2    0    0  0.19267945322E+01  0.47968009267E+01  0.22532347708E+01  0.17129284545E+03  0.17120000000E+03 0.  0.
        998    1    1    2    0    0  0.18524760948E+02  0.76419383320E+01  0.13536818726E+04  0.13538671199E+04  0.10000000000E+02 0.  1.
</event>
<event>
 5    1  0.1556794E-008  0.3856337E+03  0.7957747E-01  0.3426989E+00
         13   -1    0    0    0    0  0.00000000000E+00  0.00000000000E+00  0.14999999963E+04  0.15000000000E+04  0.10566000000E+00 0. -1.
        994   -1    0    0    0    0 -0.00000000000E+00 -0.00000000000E+00  0.11368683772E-12  0.17120000000E+03  0.17120000000E+03 0.  0.
         13    1    1    2    0    0 -0.64149260953E+01 -0.10355959809E+02  0.57191301584E+02  0.58474381752E+02  0.10566000000E+00 0. -1.
        994    1    1    2    0    0  0.16325585592E+01  0.72028120220E+01  0.14949000195E+01  0.17136575059E+03  0.17120000000E+03 0.  0.
        998    1    1    2    0    0  0.47823675361E+01  0.31531477869E+01  0.14413137947E+04  0.14413598677E+04  0.10000000000E+02 0. -1.
</event>
<event>
 5    1  0.1556794E-008  0.3822265E+03  0.7957747E-01  0.3441521E+00
         13   -1    0    0    0    0  0.00000000000E+00  0.00000000000E+00  0.14999999963E+04  0.15000000000E+04  0.10566000000E+00 0.  1.
        994   -1    0    0    0    0 -0.00000000000E+00 -0.00000000000E+00  0.11368683772E-12  0.17120000000E+03  0.17120000000E+03 0.  0.
         13    1    1    2    0    0  0.23892520112E+02  0.16213118055E+02  0.11991789636E+03  0.12334516912E+03  0.10566000000E+00 0.  1.
        994    1    1    2    0    0 -0.27809963750E+02 -0.28171048743E+02  0.82310359250E+01  0.17590961322E+03  0.17120000000E+03 0.  0.
        998    1    1    2    0    0  0.39174436389E+01  0.11957930688E+02  0.13718510640E+04  0.13719452177E+04  0.10000000000E+02 0.  1.
</event>
<event>
 5    1  0.1556794E-008  0.2371889E+03  0.7957747E-01  0.4480179E+00
         13   -1    0    0    0    0  0.00000000000E+00  0.00000000000E+00  0.14999999963E+04  0.15000000000E+04  0.10566000000E+00 0.  1.
        994   -1    0    0    0    0 -0.00000000000E+00 -0.00000000000E+00  0.11368683772E-12  0.17120000000E+03  0.17120000000E+03 0.  0.
         13    1    1    2    0    0 -0.18400946020E+03 -0.78598754348E+02  0.33430679954E+03  0.38961300416E+03  0.10566000000E+00 0.  1.
        994    1    1    2    0    0  0.79285758528E+02  0.30719235739E+02  0.11194724351E+03  0.22152094321E+03  0.17120000000E+03 0.  0.
        998    1    1    2    0    0  0.10472370167E+03  0.47879518609E+02  0.10537459532E+04  0.10600660526E+04  0.10000000000E+02 0.  1.
</event>
<event>
 5    1  0.1556794E-008  0.3843561E+03  0.7957747E-01  0.3432408E+00
         13   -1    0    0    0    0  0.00000000000E+00  0.00000000000E+00  0.14999999963E+04  0.15000000000E+04  0.10566000000E+00 0.  1.
        994   -1    0    0    0    0 -0.00000000000E+00 -0.00000000000E+00  0.11368683772E-12  0.17120000000E+03  0.17120000000E+03 0.  0.
         13    1    1    2    0    0 -0.83305160356E+01 -0.92259008659E+01  0.38697992872E+02  0.40645547857E+02  0.10566000000E+00 0.  1.
        994    1    1    2    0    0  0.53891827978E+01  0.10382142913E+02  0.24012071283E+01  0.17161596073E+03  0.17120000000E+03 0.  0.
        998    1    1    2    0    0  0.29413332378E+01 -0.11562420468E+01  0.14589007963E+04  0.14589384914E+04  0.10000000000E+02 0.  1.
</event>
<event>
 5    1  0.1556794E-008  0.3715107E+03  0.7957747E-01  0.3488977E+00
         13   -1    0    0    0    0  0.00000000000E+00  0.00000000000E+00  0.14999999963E+04  0.15000000000E+04  0.10566000000E+00 0. -1.
        994   -1    0    0    0    0 -0.00000000000E+00 -0.00000000000E+00  0.11368683772E-12  0.17120000000E+03  0.17120000000E+03 0.  0.
         13    1    1    2    0    0  0.42640359256E+02 -0.57393807620E+01  0.99632481401E+02  0.10852549582E+03  0.10566000000E+00 0. -1.
        994    1    1    2    0    0 -0.41995718595E+02  0.11160025191E+02  0.15004523763E+02  0.17726466731E+03  0.17120000000E+03 0.  0.
        998    1    1    2    0    0 -0.64464066090E+00 -0.54206444286E+01  0.13853629911E+04  0.13854098369E+04  0.10000000000E+02 0. -1.
</event>
<event>
 5    1  0.1556794E-008  0.3751167E+03  0.7957747E-01  0.3472701E+00
         13   -1    0    0    0    0  0.00000000000E+00  0.00000000000E+00  0.14999999963E+04  0.15000000000E+04  0.10566000000E+00 0. -1.
        994   -1    0    0    0    0 -0.00000000000E+00 -0.00000000000E+00  0.11368683772E-12  0.17120000000E+03  0.17120000000E+03 0.  0.
         13    1    1    2    0    0 -0.20683092038E+02 -0.92827465699E+01  0.36848157646E+02  0.43263813586E+02  0.10566000000E+00 0. -1.
        994    1    1    2    0    0  0.24914815677E+01  0.15529789293E+02  0.74598082540E+01  0.17208274340E+03  0.17120000000E+03 0.  0.
        998    1    1    2    0    0  0.18191610470E+02 -0.62470427228E+01  0.14556920304E+04  0.14558534430E+04  0.10000000000E+02 0. -1.
</event>
<event>
 5    1  0.1556794E-008  0.3765360E+03  0.7957747E-01  0.3466382E+00
         13   -1    0    0    0    0  0.00000000000E+00  0.00000000000E+00  0.14999999963E+04  0.15000000000E+04  0.10566000000E+00 0. -1.
        994   -1    0    0    0    0 -0.00000000000E+00 -0.00000000000E+00  0.11368683772E-12  0.17120000000E+03  0.17120000000E+03 0.  0.
         13    1    1    2    0    0 -0.28650447867E+02  0.11498002432E+02  0.81389572172E+02  0.87047836534E+02  0.10566000000E+00 0. -1.
        994    1    1    2    0    0  0.15016863505E+02  0.76311341194E+01  0.68521877569E+01  0.17216309963E+03  0.17120000000E+03 0.  0.
        998    1    1    2    0    0  0.13633584362E+02 -0.19129136552E+02  0.14117582363E+04  0.14119890638E+04  0.10000000000E+02 0. -1.
</event>
<event>
 5    1  0.1556794E-008  0.3828916E+03  0.7957747E-01  0.3438664E+00
         13   -1    0    0    0    0  0.00000000000E+00  0.00000000000E+00  0.14999999963E+04  0.15000000000E+04  0.10566000000E+00 0.  1.
        994   -1    0    0    0    0 -0.00000000000E+00 -0.00000000000E+00  0.11368683772E-12  0.17120000000E+03  0.17120000000E+03 0.  0.
         13    1    1    2    0    0  0.24120070738E+02 -0.83688995722E+01  0.13254971299E+03  0.13498612473E+03  0.10566000000E+00 0.  1.
        994    1    1    2    0    0 -0.52053024725E+01 -0.61849079777E+01  0.28969630777E+01  0.17141522877E+03  0.17120000000E+03 0.  0.
        998    1    1    2    0    0 -0.18914768266E+02  0.14553807550E+02  0.13645533202E+04  0.13647986465E+04  0.10000000000E+02 0.  1.
</event>
<event>
 5    1  0.1556794E-008  0.3849157E+03  0.7957747E-01  0.3430030E+00
         13   -1    0    0    0    0  0.00000000000E+00  0.00000000000E+00  0.14999999963E+04  0.15000000000E+04  0.10566000000E+00 0. -1.
        994   -1    0    0    0    0 -0.00000000000E+00 -0.00000000000E+00  0.11368683772E-12  0.17120000000E+03  0.17120000000E+03 0.  0.
         13    1    1    2    0    0  0.12283111314E+02  0.56972521907E+01  0.56048200890E+02  0.57660606077E+02  0.10566000000E+00 0. -1.
        994    1    1    2    0    0 -0.54608950562E+01 -0.14235477097E+00  0.17701829963E+01  0.17129627897E+03  0.17120000000E+03 0.  0.
        998    1    1    2    0    0 -0.68222162580E+01 -0.55548974198E+01  0.14421816124E+04  0.14422431150E+04  0.10000000000E+02 0. -1.
</event>
<event>
 5    1  0.1556794E-008  0.3838073E+03  0.7957747E-01  0.3434746E+00
         13   -1    0    0    0    0  0.00000000000E+00  0.00000000000E+00  0.14999999963E+04  0.15000000000E+04  0.10566000000E+00 0. -1.
        994   -1    0    0    0    0 -0.00000000000E+00 -0.00000000000E+00  0.11368683772E-12  0.17120000000E+03  0.17120000000E+03 0.  0.
         13    1    1    2    0    0  0.38976264814E+01 -0.16311199467E+02  0.63699428037E+02  0.65870137517E+02  0.10566000000E+00 0. -1.
        994    1    1    2    0    0  0.48628013315E+00  0.85008419017E+01  0.24628542956E+01  0.17142930447E+03  0.17120000000E+03 0.  0.
        998    1    1    2    0    0 -0.43839066146E+01  0.78103575648E+01  0.14338377139E+04  0.14339005580E+04  0.10000000000E+02 0. -1.
</event>
<event>
 5    1  0.1556794E-008  0.3823486E+03  0.7957747E-01  0.3440996E+00
         13   -1    0    0    0    0  0.00000000000E+00  0.00000000000E+00  0.14999999963E+04  0.15000000000E+04  0.10566000000E+00 0. -1.
        994   -1    0    0    0    0 -0.00000000000E+00 -0.00000000000E+00  0.11368683772E-12  0.17120000000E+03  0.17120000000E+03 0.  0.
         13    1    1    2    0    0  0.12980163889E+02  0.11703576898E+02  0.50620465471E+02  0.53552787559E+02  0.10566000000E+00 0. -1.
        994    1    1    2    0    0 -0.13424327016E+02 -0.32515953146E+01  0.35853879742E+01  0.17179371477E+03  0.17120000000E+03 0.  0.
        998    1    1    2    0    0  0.44416312751E+00 -0.84519815829E+01  0.14457941428E+04  0.14458534977E+04  0.10000000000E+02 0. -1.
</event>
<event>
 5    1  0.1556794E-008  0.3757869E+03  0.7957747E-01  0.3469711E+00
         13   -1    0    0    0    0  0.00000000000E+00  0.00000000000E+00  0.14999999963E+04  0.15000000000E+04  0.10566000000E+00 0.  1.
        994   -1    0    0    0    0 -0.00000000000E+00 -0.00000000000E+00  0.11368683772E-12  0.17120000000E+03  0.17120000000E+03 0.  0.
         13    1    1    2    0    0 -0.98637868643E+01  0.69719265761E+02  0.31972277766E+03  0.32738469120E+03  0.10566000000E+00 0.  1.
        994    1    1    2    0    0  0.12568948970E+02 -0.65403898774E+02  0.21464370252E+02  0.18494812149E+03  0.17120000000E+03 0.  0.
        998    1    1    2    0    0 -0.27051621057E+01 -0.43153669862E+01  0.11588128484E+04  0.11588671873E+04  0.10000000000E+02 0.  0.
</event>
<event>
 5    1  0.1556794E-008  0.3809104E+03  0.7957747E-01  0.3447204E+00
         13   -1    0    0    0    0  0.00000000000E+00  0.00000000000E+00  0.14999999963E+04  0.15000000000E+04  0.10566000000E+00 0.  1.
        994   -1    0    0    0    0 -0.00000000000E+00 -0.00000000000E+00  0.11368683772E-12  0.17120000000E+03  0.17120000000E+03 0.  0.
         13    1    1    2    0    0  0.22158950084E+02  0.63839027286E+02  0.11576195139E+03  0.13404208678E+03  0.10566000000E+00 0.  1.
        994    1    1    2    0    0 -0.54755956081E+02 -0.64383126995E+02  0.43285046115E+02  0.19577138960E+03  0.17120000000E+03 0.  0.
        998    1    1    2    0    0  0.32597005996E+02  0.54409970918E+00  0.13409529988E+04  0.13413865236E+04  0.10000000000E+02 0.  1.
</event>
<event>
 5    1  0.1556794E-008  0.3795980E+03  0.7957747E-01  0.3452911E+00
         13   -1    0    0    0    0  0.00000000000E+00  0.00000000000E+00  0.14999999963E+04  0.15000000000E+04  0.10566000000E+00 0.  1.
        994   -1    0    0    0    0 -0.00000000000E+00 -0.00000000000E+00  0.11368683772E-12  0.17120000000E+03  0.17120000000E+03 0.  0.
         13    1    1    2    0    0  0.86561251943E+01 -0.30204707875E+02  0.12065332924E+03  0.12467754369E+03  0.10566000000E+00 0.  1.
        994    1    1    2    0    0 -0.49892599271E+01  0.49098063642E+01  0.45002666392E+01  0.17140213334E+03  0.17120000000E+03 0.  0.
        998    1    1    2    0    0 -0.36668652672E+01  0.25294901510E+02  0.13748464004E+04  0.13751203230E+04  0.10000000000E+02 0.  1.
</event>
<event>
 5    1  0.1556794E-008  0.3854557E+03  0.7957747E-01  0.3427742E+00
         13   -1    0    0    0    0  0.00000000000E+00  0.00000000000E+00  0.14999999963E+04  0.15000000000E+04  0.10566000000E+00 0.  1.
        994   -1    0    0    0    0 -0.00000000000E+00 -0.00000000000E+00  0.11368683772E-12  0.17120000000E+03  0.17120000000E+03 0.  0.
         13    1    1    2    0    0 -0.22902869412E+01 -0.11756432003E+02  0.49966228738E+02  0.51381847826E+02  0.10566000000E+00 0.  1.
        994    1    1    2    0    0  0.34879528251E+01  0.11976895422E+02  0.19152107956E+01  0.17166455625E+03  0.17120000000E+03 0.  0.
        998    1    1    2    0    0 -0.11976658839E+01 -0.22046341875E+00  0.14481185567E+04  0.14481535959E+04  0.10000000000E+02 0.  1.
</event>
<event>
 5    1  0.1910934E-008  0.3859951E+03  0.7957747E-01  0.3425463E+00
         13   -1    0    0    0    0  0.00000000000E+00  0.00000000000E+00  0.14999999963E+04  0.15000000000E+04  0.10566000000E+00 0. -1.
        994   -1    0    0    0    0 -0.00000000000E+00 -0.00000000000E+00  0.11368683772E-12  0.17120000000E+03  0.17120000000E+03 0.  0.
         13    1    1    2    0    0  0.10098467815E+02 -0.68497894611E+01  0.64177350446E+02  0.65327192977E+02  0.10566000000E+00 0. -1.
        994    1    1    2    0    0 -0.12627787738E+02  0.35117301504E+01  0.17002355662E+01  0.17170941754E+03  0.17120000000E+03 0.  0.
        998    1    1    2    0    0  0.25293199226E+01  0.33380593106E+01  0.14341224103E+04  0.14341633895E+04  0.10000000000E+02 0. -1.
</event>
<event>
 5    1  0.1556794E-008  0.3858064E+03  0.7957747E-01  0.3426260E+00
         13   -1    0    0    0    0  0.00000000000E+00  0.00000000000E+00  0.14999999963E+04  0.15000000000E+04  0.10566000000E+00 0. -1.
        994   -1    0    0    0    0 -0.00000000000E+00 -0.00000000000E+00  0.11368683772E-12  0.17120000000E+03  0.17120000000E+03 0.  0.
         13    1    1    2    0    0  0.75561521497E+01 -0.12184588447E+02  0.82928759247E+02  0.84159075002E+02  0.10566000000E+00 0. -1.
        994    1    1    2    0    0 -0.11014595664E+02  0.65476918386E+01  0.17690723011E+01  0.17168798212E+03  0.17120000000E+03 0.  0.
        998    1    1    2    0    0  0.34584435144E+01  0.56368966083E+01  0.14153021647E+04  0.14153529429E+04  0.10000000000E+02 0. -1.
</event>
<event>
 5    1  0.1556794E-008  0.3772250E+03  0.7957747E-01  0.3463331E+00
         13   -1    0    0    0    0  0.00000000000E+00  0.00000000000E+00  0.14999999963E+04  0.15000000000E+04  0.10566000000E+00 0. -1.
        994   -1    0    0    0    0 -0.00000000000E+00 -0.00000000000E+00  0.11368683772E-12  0.17120000000E+03  0.17120000000E+03 0.  0.
         13    1    1    2    0    0  0.16123625983E+02  0.16411901125E+02  0.44716724224E+02  0.50288352555E+02  0.10566000000E+00 0. -1.
        994    1    1    2    0    0 -0.10247309107E+02 -0.19724128300E+02  0.72091924799E+01  0.17278732893E+03  0.17120000000E+03 0.  0.
        998    1    1    2    0    0 -0.58763168762E+01  0.33122271747E+01  0.14480740796E+04  0.14481243185E+04  0.10000000000E+02 0. -1.
</event>
<event>
 5    1  0.1556794E-008  0.3801057E+03  0.7957747E-01  0.3450698E+00
         13   -1    0    0    0    0  0.00000000000E+00  0.00000000000E+00  0.14999999963E+04  0.15000000000E+04  0.10566000000E+00 0. -1.
        994   -1    0    0    0    0 -0.00000000000E+00 -0.00000000000E+00  0.11368683772E-12  0.17120000000E+03  0.17120000000E+03 0.  0.
         13    1    1    2    0    0 -0.25504913743E+02  0.17856167197E+02  0.23566438158E+02  0.39047810483E+02  0.10566000000E+00 0. -1.
        994    1    1    2    0    0 -0.13778249977E+02 -0.36155532092E+02  0.21831468152E+02  0.17687033577E+03  0.17120000000E+03 0.  0.
        998    1    1    2    0    0  0.39283163721E+02  0.18299364896E+02  0.14546020900E+04  0.14552818537E+04  0.10000000000E+02 0. -1.
</event>
<event>
 5    1  0.1556794E-008  0.3852037E+03  0.7957747E-01  0.3428809E+00
         13   -1    0    0    0    0  0.00000000000E+00  0.00000000000E+00  0.14999999963E+04  0.15000000000E+04  0.10566000000E+00 0.  1.
        994   -1    0    0    0    0 -0.00000000000E+00 -0.00000000000E+00  0.11368683772E-12  0.17120000000E+03  0.17120000000E+03 0.  0.
         13    1    1    2    0    0 -0.83511006001E+01 -0.80516711649E+01  0.44341078459E+02  0.45833532405E+02  0.10566000000E+00 0.  1.
        994    1    1    2    0    0  0.42408921304E+01  0.48467620129E+01  0.16653644324E+01  0.17132918522E+03  0.17120000000E+03 0.  0.
        998    1    1    2    0    0  0.41102084698E+01  0.32049091519E+01  0.14539935534E+04  0.14540372824E+04  0.10000000000E+02 0.  1.
</event>
<event>
 5    1  0.1556794E-008  0.3840144E+03  0.7957747E-01  0.3433863E+00
         13   -1    0    0    0    0  0.00000000000E+00  0.00000000000E+00  0.14999999963E+04  0.15000000000E+04  0.10566000000E+00 0.  1.
        994   -1    0    0    0    0 -0.00000000000E+00 -0.00000000000E+00  0.11368683772E-12  0.17120000000E+03  0.17120000000E+03 0.  0.
         13    1    1    2    0    0  0.38574221796E+01 -0.22929931262E+02  0.12591118774E+03  0.12804022733E+03  0.10566000000E+00 0.  1.
        994    1    1    2    0    0  0.19768136078E+01  0.16026023086E+02  0.29809555507E+01  0.17198566017E+03  0.17120000000E+03 0.  0.
        998    1    1    2    0    0 -0.58342357874E+01  0.69039081757E+01  0.13711078530E+04  0.13711741125E+04  0.10000000000E+02 0.  1.
</event>
<event>
 5    1  0.1556794E-008  0.4010503E+03  0.7957747E-01  0.3364328E+00
         13   -1    0    0    0    0  0.00000000000E+00  0.00000000000E+00  0.14999999963E+04  0.15000000000E+04  0.10566000000E+00 0.  1.
        994   -1    0    0    0    0 -0.00000000000E+00 -0.00000000000E+00  0.11368683772E-12  0.17120000000E+03  0.17120000000E+03 0.  0.
         13    1    1    2    0    0 -0.93930667282E+02 -0.92443412113E+01  0.13573231738E+03  0.16532302092E+03  0.10566000000E+00 0.  1.
        994    1    1    2    0    0  0.91268394009E+02  0.19846895891E+02  0.63607014287E+02  0.20513193629E+03  0.17120000000E+03 0.  0.
        998    1    1    2    0    0  0.26622732735E+01 -0.10602554680E+02  0.13006606646E+04  0.13007450428E+04  0.10000000000E+02 0.  1.
</event>
<event>
 5    1  0.1556794E-008  0.3838978E+03  0.7957747E-01  0.3434360E+00
         13   -1    0    0    0    0  0.00000000000E+00  0.00000000000E+00  0.14999999963E+04  0.15000000000E+04  0.10566000000E+00 0. -1.
        994   -1    0    0    0    0 -0.00000000000E+00 -0.00000000000E+00  0.11368683772E-12  0.17120000000E+03  0.17120000000E+03 0.  0.
         13    1    1    2    0    0 -0.67548539112E+01 -0.19377180620E+02  0.93596104061E+02  0.95819335416E+02  0.10566000000E+00 0. -1.
        994    1    1    2    0    0  0.34913793449E+01  0.16868838525E+02  0.31583663179E+01  0.17209347088E+03  0.17120000000E+03 0.  0.
        998    1    1    2    0    0  0.32634745663E+01  0.25083420944E+01  0.14032455259E+04  0.14032871937E+04  0.10000000000E+02 0. -1.
</event>
<event>
 5    1  0.1556794E-008  0.3820970E+03  0.7957747E-01  0.3442078E+00
         13   -1    0    0    0    0  0.00000000000E+00  0.00000000000E+00  0.14999999963E+04  0.15000000000E+04  0.10566000000E+00 0.  1.
        994   -1    0    0    0    0 -0.00000000000E+00 -0.00000000000E+00  0.11368683772E-12  0.17120000000E+03  0.17120000000E+03 0.  0.
         13    1    1    2    0    0 -0.40528697898E+02 -0.33354960580E+02  0.31384002969E+03  0.31819915799E+03  0.10566000000E+00 0.  1.
        994    1    1    2    0    0  0.56736493135E+02  0.32343321559E+02  0.17369780954E+02  0.18405507163E+03  0.17120000000E+03 0.  0.
        998    1    1    2    0    0 -0.16207795237E+02  0.10116390212E+01  0.11687901856E+04  0.11689457704E+04  0.10000000000E+02 0.  1.
</event>
<event>
 5    1  0.1556794E-008  0.3822738E+03  0.7957747E-01  0.3441317E+00
         13   -1    0    0    0    0  0.00000000000E+00  0.00000000000E+00  0.14999999963E+04  0.15000000000E+04  0.10566000000E+00 0.  1.
        994   -1    0    0    0    0 -0.00000000000E+00 -0.00000000000E+00  0.11368683772E-12  0.17120000000E+03  0.17120000000E+03 0.  0.
         13    1    1    2    0    0 -0.12385904670E+02  0.11762196711E+02  0.45741653830E+02  0.48826938928E+02  0.10566000000E+00 0.  1.
        994    1    1    2    0    0  0.83193052246E+01 -0.23234557805E+02  0.50131635143E+01  0.17304227034E+03  0.17120000000E+03 0.  0.
        998    1    1    2    0    0  0.40665994457E+01  0.11472361094E+02  0.14492451789E+04  0.14493307907E+04  0.10000000000E+02 0.  1.
</event>
<event>
 5    1  0.1556794E-008  0.3835091E+03  0.7957747E-01  0.3436020E+00
         13   -1    0    0    0    0  0.00000000000E+00  0.00000000000E+00  0.14999999963E+04  0.15000000000E+04  0.10566000000E+00 0.  1.
        994   -1    0    0    0    0 -0.00000000000E+00 -0.00000000000E+00  0.11368683772E-12  0.17120000000E+03  0.17120000000E+03 0.  0.
         13    1    1    2    0    0  0.24722055671E+03 -0.42331738769E+02  0.11653959261E+04  0.11920812286E+04  0.10566000000E+00 0.  1.
        994    1    1    2    0    0 -0.24525287908E+03  0.46979124674E+02  0.24681746660E+03  0.39062042275E+03  0.17120000000E+03 0.  0.
        998    1    1    2    0    0 -0.19676776236E+01 -0.46473859050E+01  0.87786603585E+02  0.88498348685E+02  0.10000000000E+02 0.  1.
</event>
<event>
 5    1  0.1556794E-008  0.3771084E+03  0.7957747E-01  0.3463847E+00
         13   -1    0    0    0    0  0.00000000000E+00  0.00000000000E+00  0.14999999963E+04  0.15000000000E+04  0.10566000000E+00 0.  1.
        994   -1    0    0    0    0 -0.00000000000E+00 -0.00000000000E+00  0.11368683772E-12  0.17120000000E+03  0.17120000000E+03 0.  0.
         13    1    1    2    0    0  0.59286263764E+02 -0.52879274002E+01  0.25599619304E+03  0.26282481859E+03  0.10566000000E+00 0.  1.
        994    1    1    2    0    0 -0.62515725711E+02  0.32710241508E+01  0.18943493200E+02  0.18326814097E+03  0.17120000000E+03 0.  0.
        998    1    1    2    0    0  0.32294619472E+01  0.20169032494E+01  0.12250603100E+04  0.12251070404E+04  0.10000000000E+02 0.  1.
</event>
<event>
 5    1  0.1556794E-008  0.3721478E+03  0.7957747E-01  0.3486078E+00
         13   -1    0    0    0    0  0.00000000000E+00  0.00000000000E+00  0.14999999963E+04  0.15000000000E+04  0.10566000000E+00 0. -1.
        994   -1    0    0    0    0 -0.00000000000E+00 -0.00000000000E+00  0.11368683772E-12  0.17120000000E+03  0.17120000000E+03 0.  0.
         13    1    1    2    0    0  0.37929978067E+01  0.17642997571E+02  0.80007122806E+01  0.19740434562E+02  0.10566000000E+00 0. -1.
        994    1    1    2    0    0  0.13852412101E+01 -0.18897573181E+02  0.13344695986E+02  0.17276156423E+03  0.17120000000E+03 0.  0.
        998    1    1    2    0    0 -0.51782390168E+01  0.12545756102E+01  0.14786545880E+04  0.14786980012E+04  0.10000000000E+02 0. -1.
</event>
<event>
 5    1  0.1556794E-008  0.3808623E+03  0.7957747E-01  0.3447412E+00
         13   -1    0    0    0    0  0.00000000000E+00  0.00000000000E+00  0.14999999963E+04  0.15000000000E+04  0.10566000000E+00 0. -1.
        994   -1    0    0    0    0 -0.00000000000E+00 -0.00000000000E+00  0.11368683772E-12  0.17120000000E+03  0.17120000000E+03 0.  0.
         13    1    1    2    0    0 -0.96582669719E+01  0.59844946339E+02  0.35295660833E+03  0.35812438936E+03  0.10566000000E+00 0. -1.
        994    1    1    2    0    0  0.57399952939E+01 -0.67584781322E+02  0.19189545957E+02  0.18514407602E+03  0.17120000000E+03 0.  0.
        998    1    1    2    0    0  0.39182716780E+01  0.77398349831E+01  0.11278538420E+04  0.11279315346E+04  0.10000000000E+02 0. -1.
</event>
<event>
 5    1  0.1556794E-008  0.3763636E+03  0.7957747E-01  0.3467147E+00
         13   -1    0    0    0    0  0.00000000000E+00  0.00000000000E+00  0.14999999963E+04  0.15000000000E+04  0.10566000000E+00 0. -1.
        994   -1    0    0    0    0 -0.00000000000E+00 -0.00000000000E+00  0.11368683772E-12  0.17120000000E+03  0.17120000000E+03 0.  0.
         13    1    1    2    0    0  0.10070077094E+02 -0.62005711601E+01 -0.18002397707E+01  0.11962673726E+02  0.10566000000E+00 0.  1.
        994    1    1    2    0    0 -0.10531554723E+02  0.56772285191E+01  0.14856058960E+02  0.17225935985E+03  0.17120000000E+03 0.  0.
        998    1    1    2    0    0  0.46147762838E+00  0.52334264104E+00  0.14869441771E+04  0.14869779664E+04  0.10000000000E+02 0. -1.
</event>
<event>
 5    1  0.1556794E-008  0.3690312E+03  0.7957747E-01  0.3500355E+00
         13   -1    0    0    0    0  0.00000000000E+00  0.00000000000E+00  0.14999999963E+04  0.15000000000E+04  0.10566000000E+00 0. -1.
        994   -1    0    0    0    0 -0.00000000000E+00 -0.00000000000E+00  0.11368683772E-12  0.17120000000E+03  0.17120000000E+03 0.  0.
         13    1    1    2    0    0  0.11448423555E+03 -0.66649142436E+02  0.51354100667E+03  0.53035188797E+03  0.10566000000E+00 0. -1.
        994    1    1    2    0    0 -0.11335895345E+03  0.72710518632E+02  0.76577724894E+02  0.23089101281E+03  0.17120000000E+03 0.  0.
        998    1    1    2    0    0 -0.11252820968E+01 -0.60613761954E+01  0.90988126471E+03  0.90995709921E+03  0.10000000000E+02 0.  0.
</event>
<event>
 5    1  0.1556794E-008  0.3835028E+03  0.7957747E-01  0.3436047E+00
         13   -1    0    0    0    0  0.00000000000E+00  0.00000000000E+00  0.14999999963E+04  0.15000000000E+04  0.10566000000E+00 0.  1.
        994   -1    0    0    0    0 -0.00000000000E+00 -0.00000000000E+00  0.11368683772E-12  0.17120000000E+03  0.17120000000E+03 0.  0.
         13    1    1    2    0    0 -0.28643616300E+02  0.18523805568E+02  0.20192328035E+03  0.20478430223E+03  0.10566000000E+00 0.  1.
        994    1    1    2    0    0  0.42395996098E+02 -0.98163985416E+01  0.86589650537E+01  0.17685643851E+03  0.17120000000E+03 0.  0.
        998    1    1    2    0    0 -0.13752379798E+02 -0.87074070261E+01  0.12894177509E+04  0.12895592593E+04  0.10000000000E+02 0.  1.
</event>
<event>
 5    1  0.1556794E-008  0.3686791E+03  0.7957747E-01  0.3501983E+00
         13   -1    0    0    0    0  0.00000000000E+00  0.00000000000E+00  0.14999999963E+04  0.15000000000E+04  0.10566000000E+00 0. -1.
        994   -1    0    0    0    0 -0.00000000000E+00 -0.00000000000E+00  0.11368683772E-12  0.17120000000E+03  0.17120000000E+03 0.  0.
         13    1    1    2    0    0 -0.31442888486E+02 -0.39195468057E+02  0.13376796617E+03  0.14289443618E+03  0.10566000000E+00 0. -1.
        994    1    1    2    0    0  0.23644851494E+02 -0.40685740755E+01  0.11963131101E+02  0.17328643572E+03  0.17120000000E+03 0.  0.
        998    1    1    2    0    0  0.77980369913E+01  0.43264042132E+02  0.13542688990E+04  0.13550191281E+04  0.10000000000E+02 0. -1.
</event>
<event>
 5    1  0.1556794E-008  0.3821505E+03  0.7957747E-01  0.3441848E+00
         13   -1    0    0    0    0  0.00000000000E+00  0.00000000000E+00  0.14999999963E+04  0.15000000000E+04  0.10566000000E+00 0. -1.
        994   -1    0    0    0    0 -0.00000000000E+00 -0.00000000000E+00  0.11368683772E-12  0.17120000000E+03  0.17120000000E+03 0.  0.
         13    1    1    2    0    0  0.47720657450E+01 -0.18974426580E+02  0.62821843233E+02  0.65798150633E+02  0.10566000000E+00 0. -1.
        994    1    1    2    0    0 -0.81806433397E+01  0.71121622918E+01  0.34416598980E+01  0.17157736098E+03  0.17120000000E+03 0.  0.
        998    1    1    2    0    0  0.34085775947E+01  0.11862264288E+02  0.14337364931E+04  0.14338244884E+04  0.10000000000E+02 0. -1.
</event>
<event>
 5    1  0.1556794E-008  0.3737753E+03  0.7957747E-01  0.3478718E+00
         13   -1    0    0    0    0  0.00000000000E+00  0.00000000000E+00  0.14999999963E+04  0.15000000000E+04  0.10566000000E+00 0.  1.
        994   -1    0    0    0    0 -0.00000000000E+00 -0.00000000000E+00  0.11368683772E-12  0.17120000000E+03  0.17120000000E+03 0.  0.
         13    1    1    2    0    0 -0.16473800156E+02 -0.47960306072E+01  0.16890713301E+02  0.24076863604E+02  0.10566000000E+00 0.  1.
        994    1    1    2    0    0  0.12879588311E+02  0.63638394469E+01  0.80137492021E+01  0.17198849503E+03  0.17120000000E+03 0.  0.
        998    1    1    2    0    0  0.35942118451E+01 -0.15678088397E+01  0.14750955338E+04  0.14751346414E+04  0.10000000000E+02 0.  1.
</event>
<event>
 5    1  0.1556794E-008  0.3788422E+03  0.7957747E-01  0.3456215E+00
         13   -1    0    0    0    0  0.00000000000E+00  0.00000000000E+00  0.14999999963E+04  0.15000000000E+04  0.10566000000E+00 0.  1.
        994   -1    0    0    0    0 -0.00000000000E+00 -0.00000000000E+00  0.11368683772E-12  0.17120000000E+03  0.17120000000E+03 0.  0.
         13    1    1    2    0    0 -0.88842626128E+01 -0.31681269276E+02  0.88349405358E+02  0.94277577060E+02  0.10566000000E+00 0.  1.
        994    1    1    2    0    0  0.25141025467E+02  0.70421767820E+02  0.23716711220E+02  0.18831680471E+03  0.17120000000E+03 0.  0.
        998    1    1    2    0    0 -0.16256762854E+02 -0.38740498544E+02  0.13879338797E+04  0.13886056182E+04  0.10000000000E+02 0.  1.
</event>
<event>
 5    1  0.1556794E-008  0.3857371E+03  0.7957747E-01  0.3426552E+00
         13   -1    0    0    0    0  0.00000000000E+00  0.00000000000E+00  0.14999999963E+04  0.15000000000E+04  0.10566000000E+00 0.  1.
        994   -1    0    0    0    0 -0.00000000000E+00 -0.00000000000E+00  0.11368683772E-12  0.17120000000E+03  0.17120000000E+03 0.  0.
         13    1    1    2    0    0  0.13184152635E+02  0.49087720366E+01  0.75063257496E+02  0.76370293397E+02  0.10566000000E+00 0.  1.
        994    1    1    2    0    0 -0.15129959197E+02 -0.44512658724E+01  0.20810657623E+01  0.17193748942E+03  0.17120000000E+03 0.  0.
        998    1    1    2    0    0  0.19458065627E+01 -0.45750616418E+00  0.14228556730E+04  0.14228922172E+04  0.10000000000E+02 0.  1.
</event>
<event>
 5    1  0.1556794E-008  0.3793464E+03  0.7957747E-01  0.3454009E+00
         13   -1    0    0    0    0  0.00000000000E+00  0.00000000000E+00  0.14999999963E+04  0.15000000000E+04  0.10566000000E+00 0.  1.
        994   -1    0    0    0    0 -0.00000000000E+00 -0.00000000000E+00  0.11368683772E-12  0.17120000000E+03  0.17120000000E+03 0.  0.
         13    1    1    2    0    0  0.46543943222E+02  0.34158437658E+02  0.28955977221E+03  0.29525922570E+03  0.10566000000E+00 0.  1.
        994    1    1    2    0    0 -0.49157460371E+02 -0.38383715406E+02  0.17606920131E+02  0.18305520794E+03  0.17120000000E+03 0.  0.
        998    1    1    2    0    0  0.26135171489E+01  0.42252777479E+01  0.11928333039E+04  0.11928855664E+04  0.10000000000E+02 0.  1.
</event>
<event>
 5    1  0.1556794E-008  0.3838610E+03  0.7957747E-01  0.3434517E+00
         13   -1    0    0    0    0  0.00000000000E+00  0.00000000000E+00  0.14999999963E+04  0.15000000000E+04  0.10566000000E+00 0.  1.
        994   -1    0    0    0    0 -0.00000000000E+00 -0.00000000000E+00  0.11368683772E-12  0.17120000000E+03  0.17120000000E+03 0.  0.
         13    1    1    2    0    0 -0.12929650510E+02  0.14620357899E+02  0.82589679091E+02  0.84864580267E+02  0.10566000000E+00 0.  1.
        994    1    1    2    0    0  0.13775620967E+02 -0.13747199472E+02  0.34478963131E+01  0.17233711503E+03  0.17120000000E+03 0.  0.
        998    1    1    2    0    0 -0.84597045727E+00 -0.87315842636E+00  0.14139624209E+04  0.14139983047E+04  0.10000000000E+02 0.  0.
</event>
<event>
 5    1  0.1556794E-008  0.3743160E+03  0.7957747E-01  0.3476288E+00
         13   -1    0    0    0    0  0.00000000000E+00  0.00000000000E+00  0.14999999963E+04  0.15000000000E+04  0.10566000000E+00 0.  1.
        994   -1    0    0    0    0 -0.00000000000E+00 -0.00000000000E+00  0.11368683772E-12  0.17120000000E+03  0.17120000000E+03 0.  0.
         13    1    1    2    0    0  0.46253350733E+02 -0.73545300033E+02  0.41606175733E+03  0.42503609339E+03  0.10566000000E+00 0.  1.
        994    1    1    2    0    0 -0.33603126363E+02  0.71566039754E+02  0.28635602454E+02  0.19073622067E+03  0.17120000000E+03 0.  0.
        998    1    1    2    0    0 -0.12650224370E+02  0.19792602797E+01  0.10553026365E+04  0.10554276859E+04  0.10000000000E+02 0.  1.
</event>
<event>
 5    1  0.1556794E-008  0.3838272E+03  0.7957747E-01  0.3434662E+00
         13   -1    0    0    0    0  0.00000000000E+00  0.00000000000E+00  0.14999999963E+04  0.15000000000E+04  0.10566000000E+00 0. -1.
        994   -1    0    0    0    0 -0.00000000000E+00 -0.00000000000E+00  0.11368683772E-12  0.17120000000E+03  0.17120000000E+03 0.  0.
         13    1    1    2    0    0 -0.13641398760E+02 -0.19825846064E+02  0.13672120451E+03  0.13882309196E+03  0.10566000000E+00 0. -1.
        994    1    1    2    0    0 -0.50190827400E+01  0.14364939854E+02  0.29782882179E+01  0.17190070648E+03  0.17120000000E+03 0.  0.
        998    1    1    2    0    0  0.18660481501E+02  0.54609062095E+01  0.13603005035E+04  0.13604762016E+04  0.10000000000E+02 0. -1.
</event>
<event>
 5    1  0.1556794E-008  0.3799278E+03  0.7957747E-01  0.3451473E+00
         13   -1    0    0    0    0  0.00000000000E+00  0.00000000000E+00  0.14999999963E+04  0.15000000000E+04  0.10566000000E+00 0. -1.
        994   -1    0    0    0    0 -0.00000000000E+00 -0.00000000000E+00  0.11368683772E-12  0.17120000000E+03  0.17120000000E+03 0.  0.
         13    1    1    2    0    0 -0.63848552486E+02  0.14203393036E+01  0.37897881706E+03  0.38432227357E+03  0.10566000000E+00 0. -1.
        994    1    1    2    0    0  0.61682702077E+02  0.14629078326E+02  0.17726344932E+02  0.18341872580E+03  0.17120000000E+03 0.  0.
        998    1    1    2    0    0  0.21658504092E+01 -0.16049417630E+02  0.11032948343E+04  0.11034590006E+04  0.10000000000E+02 0. -1.
</event>
<event>
 5    1  0.1556794E-008  0.3795990E+03  0.7957747E-01  0.3452906E+00
         13   -1    0    0    0    0  0.00000000000E+00  0.00000000000E+00  0.14999999963E+04  0.15000000000E+04  0.10566000000E+00 0.  1.
        994   -1    0    0    0    0 -0.00000000000E+00 -0.00000000000E+00  0.11368683772E-12  0.17120000000E+03  0.17120000000E+03 0.  0.
         13    1    1    2    0    0 -0.26676755551E+02 -0.86101400509E+01  0.96694665169E+02  0.10067598142E+03  0.10566000000E+00 0.  1.
        994    1    1    2    0    0 -0.67680833382E+00  0.49284393607E+01  0.44185471725E+01  0.17132924778E+03  0.17120000000E+03 0.  0.
        998    1    1    2    0    0  0.27353563885E+02  0.36817006902E+01  0.13988867839E+04  0.13991947708E+04  0.10000000000E+02 0.  1.
</event>
<event>
 5    1  0.1556794E-008  0.3711985E+03  0.7957747E-01  0.3490401E+00
         13   -1    0    0    0    0  0.00000000000E+00  0.00000000000E+00  0.14999999963E+04  0.15000000000E+04  0.10566000000E+00 0.  1.
        994   -1    0    0    0    0 -0.00000000000E+00 -0.00000000000E+00  0.11368683772E-12  0.17120000000E+03  0.17120000000E+03 0.  0.
         13    1    1    2    0    0  0.36506074688E+02 -0.15733274646E+02  0.61824697180E+02  0.73501930353E+02  0.10566000000E+00 0.  1.
        994    1    1    2    0    0 -0.36406031929E+02  0.12338008734E+02  0.16779372905E+02  0.17626290868E+03  0.17120000000E+03 0.  0.
        998    1    1    2    0    0 -0.10004275943E+00  0.33952659125E+01  0.14213959262E+04  0.14214351610E+04  0.10000000000E+02 0.  1.
</event>
<event>
 5    1  0.1556794E-008  0.3813890E+03  0.7957747E-01  0.3445133E+00
         13   -1    0    0    0    0  0.00000000000E+00  0.00000000000E+00  0.14999999963E+04  0.15000000000E+04  0.10566000000E+00 0.  1.
        994   -1    0    0    0    0 -0.00000000000E+00 -0.00000000000E+00  0.11368683772E-12  0.17120000000E+03  0.17120000000E+03 0.  0.
         13    1    1    2    0    0 -0.23645129735E+02 -0.21098476528E+02  0.15295330984E+03  0.15620167742E+03  0.10566000000E+00 0.  1.
        994    1    1    2    0    0 -0.26462672214E+02  0.53424973949E+02  0.15353410148E+02  0.18193314175E+03  0.17120000000E+03 0.  0.
        998    1    1    2    0    0  0.50107801949E+02 -0.32326497421E+02  0.13316932763E+04  0.13330651808E+04  0.10000000000E+02 0.  1.
</event>
<event>
 5    1  0.1556794E-008  0.4087748E+03  0.7957747E-01  0.3334702E+00
         13   -1    0    0    0    0  0.00000000000E+00  0.00000000000E+00  0.14999999963E+04  0.15000000000E+04  0.10566000000E+00 0. -1.
        994   -1    0    0    0    0 -0.00000000000E+00 -0.00000000000E+00  0.11368683772E-12  0.17120000000E+03  0.17120000000E+03 0.  0.
         13    1    1    2    0    0 -0.65451893156E+02  0.17599931012E+02  0.62611273249E+02  0.92270746129E+02  0.10566000000E+00 0. -1.
        994    1    1    2    0    0  0.92349410488E+01 -0.58541268746E+02  0.47534325967E+02  0.18730007055E+03  0.17120000000E+03 0.  0.
        998    1    1    2    0    0  0.56216952107E+02  0.40941337734E+02  0.13898543971E+04  0.13916291833E+04  0.10000000000E+02 0. -1.
</event>
<event>
 5    1  0.1556794E-008  0.3836803E+03  0.7957747E-01  0.3435289E+00
         13   -1    0    0    0    0  0.00000000000E+00  0.00000000000E+00  0.14999999963E+04  0.15000000000E+04  0.10566000000E+00 0. -1.
        994   -1    0    0    0    0 -0.00000000000E+00 -0.00000000000E+00  0.11368683772E-12  0.17120000000E+03  0.17120000000E+03 0.  0.
         13    1    1    2    0    0  0.95739422243E+01  0.50523190114E+01  0.24643584223E+02  0.26916606481E+02  0.10566000000E+00 0. -1.
        994    1    1    2    0    0 -0.93701022397E+01 -0.42161489676E+01  0.26355292552E+01  0.17152830887E+03  0.17120000000E+03 0.  0.
        998    1    1    2    0    0 -0.20383998461E+00 -0.83617004387E+00  0.14727208828E+04  0.14727550847E+04  0.10000000000E+02 0. -1.
</event>
<event>
 5    1  0.1556794E-008  0.3828357E+03  0.7957747E-01  0.3438903E+00
         13   -1    0    0    0    0  0.00000000000E+00  0.00000000000E+00  0.14999999963E+04  0.15000000000E+04  0.10566000000E+00 0. -1.
        994   -1    0    0    0    0 -0.00000000000E+00 -0.00000000000E+00  0.11368683772E-12  0.17120000000E+03  0.17120000000E+03 0.  0.
         13    1    1    2    0    0  0.31458118663E+01  0.27503222582E+02  0.13505759728E+03  0.13786547476E+03  0.10566000000E+00 0. -1.
        994    1    1    2    0    0 -0.45248088944E+01 -0.21897519784E+02  0.43660987415E+01  0.17270922988E+03  0.17120000000E+03 0.  0.
        998    1    1    2    0    0  0.13789970281E+01 -0.56057027975E+01  0.13605763003E+04  0.13606252954E+04  0.10000000000E+02 0. -1.
</event>
<event>
 5    1  0.1556794E-008  0.3823830E+03  0.7957747E-01  0.3440848E+00
         13   -1    0    0    0    0  0.00000000000E+00  0.00000000000E+00  0.14999999963E+04  0.15000000000E+04  0.10566000000E+00 0.  1.
        994   -1    0    0    0    0 -0.00000000000E+00 -0.00000000000E+00  0.11368683772E-12  0.17120000000E+03  0.17120000000E+03 0.  0.
         13    1    1    2    0    0 -0.17550508922E+02 -0.33422901647E+01  0.54652528737E+02  0.57498707188E+02  0.10566000000E+00 0.  1.
        994    1    1    2    0    0  0.63254516229E+01  0.21390463349E+01  0.30829282855E+01  0.17135790412E+03  0.17120000000E+03 0.  0.
        998    1    1    2    0    0  0.11225057299E+02  0.12032438298E+01  0.14422645393E+04  0.14423433887E+04  0.10000000000E+02 0.  1.
</event>
<event>
 5    1  0.1556794E-008  0.3836615E+03  0.7957747E-01  0.3435369E+00
         13   -1    0    0    0    0  0.00000000000E+00  0.00000000000E+00  0.14999999963E+04  0.15000000000E+04  0.10566000000E+00 0. -1.
        994   -1    0    0    0    0 -0.00000000000E+00 -0.00000000000E+00  0.11368683772E-12  0.17120000000E+03  0.17120000000E+03 0.  0.
         13    1    1    2    0    0  0.21925020679E+02 -0.81753165145E+01  0.11637383840E+03  0.11870309078E+03  0.10566000000E+00 0. -1.
        994    1    1    2    0    0 -0.16664885120E+02  0.42804076036E+01  0.32745761898E+01  0.17209358830E+03  0.17120000000E+03 0.  0.
        998    1    1    2    0    0 -0.52601355594E+01  0.38949089110E+01  0.13803515817E+04  0.13804033209E+04  0.10000000000E+02 0. -1.
</event>
<event>
 5    1  0.1556794E-008  0.3835482E+03  0.7957747E-01  0.3435853E+00
         13   -1    0    0    0    0  0.00000000000E+00  0.00000000000E+00  0.14999999963E+04  0.15000000000E+04  0.10566000000E+00 0. -1.
        994   -1    0    0    0    0 -0.00000000000E+00 -0.00000000000E+00  0.11368683772E-12  0.17120000000E+03  0.17120000000E+03 0.  0.
         13    1    1    2    0    0 -0.11767552051E+02 -0.31210350089E+01  0.30726542767E+02  0.33050684338E+02  0.10566000000E+00 0. -1.
        994    1    1    2    0    0  0.92606952893E+01 -0.85500491390E+00  0.26384790355E+01  0.17147271819E+03  0.17120000000E+03 0.  0.
        998    1    1    2    0    0  0.25068567614E+01  0.39760399228E+01  0.14666349745E+04  0.14666765975E+04  0.10000000000E+02 0. -1.
</event>
<event>
 5    1  0.1672787E-008  0.3862075E+03  0.7957747E-01  0.3424567E+00
         13   -1    0    0    0    0  0.00000000000E+00  0.00000000000E+00  0.14999999963E+04  0.15000000000E+04  0.10566000000E+00 0. -1.
        994   -1    0    0    0    0 -0.00000000000E+00 -0.00000000000E+00  0.11368683772E-12  0.17120000000E+03  0.17120000000E+03 0.  0.
         13    1    1    2    0    0  0.77103279325E+01 -0.91969013918E+01  0.68302625498E+02  0.69349058868E+02  0.10566000000E+00 0. -1.
        994    1    1    2    0    0 -0.38191838248E+01  0.13235238806E+02  0.16536541300E+01  0.17176126538E+03  0.17120000000E+03 0.  0.
        998    1    1    2    0    0 -0.38911441076E+01 -0.40383374146E+01  0.14300437167E+04  0.14300896758E+04  0.10000000000E+02 0. -1.
</event>
<event>
 5    1  0.1556794E-008  0.3845169E+03  0.7957747E-01  0.3431724E+00
         13   -1    0    0    0    0  0.00000000000E+00  0.00000000000E+00  0.14999999963E+04  0.15000000000E+04  0.10566000000E+00 0. -1.
        994   -1    0    0    0    0 -0.00000000000E+00 -0.00000000000E+00  0.11368683772E-12  0.17120000000E+03  0.17120000000E+03 0.  0.
         13    1    1    2    0    0  0.11989817026E+02  0.14213190532E+02  0.92152549697E+02  0.94009967967E+02  0.10566000000E+00 0. -1.
        994    1    1    2    0    0 -0.56671105458E+01 -0.10919187498E+02  0.23688586764E+01  0.17165778831E+03  0.17120000000E+03 0.  0.
        998    1    1    2    0    0 -0.63227064804E+01 -0.32940030341E+01  0.14054785879E+04  0.14055322437E+04  0.10000000000E+02 0. -1.
</event>
<event>
 5    1  0.1556794E-008  0.3818975E+03  0.7957747E-01  0.3442938E+00
         13   -1    0    0    0    0  0.00000000000E+00  0.00000000000E+00  0.14999999963E+04  0.15000000000E+04  0.10566000000E+00 0. -1.
        994   -1    0    0    0    0 -0.00000000000E+00 -0.00000000000E+00  0.11368683772E-12  0.17120000000E+03  0.17120000000E+03 0.  0.
         13    1    1    2    0    0 -0.14755454293E+02  0.95202292003E+01  0.48899186363E+02  0.51956710696E+02  0.10566000000E+00 0. -1.
        994    1    1    2    0    0  0.61566918761E+01  0.19567773737E+01  0.33170292203E+01  0.17135395098E+03  0.17120000000E+03 0.  0.
        998    1    1    2    0    0  0.85987624167E+01 -0.11477006574E+02  0.14477837807E+04  0.14478893383E+04  0.10000000000E+02 0. -1.
</event>
<event>
 5    1  0.1556794E-008  0.3748983E+03  0.7957747E-01  0.3473678E+00
         13   -1    0    0    0    0  0.00000000000E+00  0.00000000000E+00  0.14999999963E+04  0.15000000000E+04  0.10566000000E+00 0.  1.
        994   -1    0    0    0    0 -0.00000000000E+00 -0.00000000000E+00  0.11368683772E-12  0.17120000000E+03  0.17120000000E+03 0.  0.
         13    1    1    2    0    0 -0.43063204858E+02  0.38664609090E+02  0.21283544307E+03  0.22056366110E+03  0.10566000000E+00 0.  1.
        994    1    1    2    0    0  0.45484937563E+02 -0.35744454741E+02  0.18196825789E+02  0.18162353938E+03  0.17120000000E+03 0.  0.
        998    1    1    2    0    0 -0.24217327056E+01 -0.29201543483E+01  0.12689677274E+04  0.12690127995E+04  0.10000000000E+02 0.  1.
</event>
<event>
 5    1  0.1556794E-008  0.3780163E+03  0.7957747E-01  0.3459842E+00
         13   -1    0    0    0    0  0.00000000000E+00  0.00000000000E+00  0.14999999963E+04  0.15000000000E+04  0.10566000000E+00 0.  1.
        994   -1    0    0    0    0 -0.00000000000E+00 -0.00000000000E+00  0.11368683772E-12  0.17120000000E+03  0.17120000000E+03 0.  0.
         13    1    1    2    0    0  0.23857871915E+02 -0.87863524506E+01  0.63725278787E+02  0.68609914460E+02  0.10566000000E+00 0.  1.
        994    1    1    2    0    0 -0.47675455310E+01  0.85634752370E+00  0.52168073116E+01  0.17134794396E+03  0.17120000000E+03 0.  0.
        998    1    1    2    0    0 -0.19090326384E+02  0.79300049269E+01  0.14310579102E+04  0.14312421416E+04  0.10000000000E+02 0.  1.
</event>
<event>
 5    1  0.1556794E-008  0.3849795E+03  0.7957747E-01  0.3429759E+00
         13   -1    0    0    0    0  0.00000000000E+00  0.00000000000E+00  0.14999999963E+04  0.15000000000E+04  0.10566000000E+00 0.  1.
        994   -1    0    0    0    0 -0.00000000000E+00 -0.00000000000E+00  0.11368683772E-12  0.17120000000E+03  0.17120000000E+03 0.  0.
         13    1    1    2    0    0 -0.45870323979E+01 -0.17662372427E+02  0.10014563231E+03  0.10179469092E+03  0.10566000000E+00 0.  1.
        994    1    1    2    0    0 -0.14321616563E+00  0.13926925675E+02  0.22785349231E+01  0.17178070756E+03  0.17120000000E+03 0.  0.
        998    1    1    2    0    0  0.47302485635E+01  0.37354467516E+01  0.13975758290E+04  0.13976246015E+04  0.10000000000E+02 0.  1.
</event>
<event>
 5    1  0.1556794E-008  0.3829838E+03  0.7957747E-01  0.3438268E+00
         13   -1    0    0    0    0  0.00000000000E+00  0.00000000000E+00  0.14999999963E+04  0.15000000000E+04  0.10566000000E+00 0. -1.
        994   -1    0    0    0    0 -0.00000000000E+00 -0.00000000000E+00  0.11368683772E-12  0.17120000000E+03  0.17120000000E+03 0.  0.
         13    1    1    2    0    0  0.21238964440E+02 -0.16444962186E+02  0.13900409537E+03  0.14157570443E+03  0.10566000000E+00 0. -1.
        994    1    1    2    0    0 -0.93005894279E+01  0.98901338526E+01  0.32448482062E+01  0.17176811331E+03  0.17120000000E+03 0.  0.
        998    1    1    2    0    0 -0.11938375013E+02  0.65548283329E+01  0.13577510527E+04  0.13578561823E+04  0.10000000000E+02 0. -1.
</event>
<event>
 5    1  0.1556794E-008  0.3798378E+03  0.7957747E-01  0.3451865E+00
         13   -1    0    0    0    0  0.00000000000E+00  0.00000000000E+00  0.14999999963E+04  0.15000000000E+04  0.10566000000E+00 0.  1.
        994   -1    0    0    0    0 -0.00000000000E+00 -0.00000000000E+00  0.11368683772E-12  0.17120000000E+03  0.17120000000E+03 0.  0.
         13    1    1    2    0    0  0.61203692341E+01 -0.11608411684E+02  0.18332584028E+02  0.22545707852E+02  0.10566000000E+00 0.  1.
        994    1    1    2    0    0 -0.41235818234E+01  0.15761932644E+02  0.51033728900E+01  0.17204919896E+03  0.17120000000E+03 0.  0.
        998    1    1    2    0    0 -0.19967874108E+01 -0.41535209598E+01  0.14765640394E+04  0.14766050932E+04  0.10000000000E+02 0.  1.
</event>
<event>
 5    1  0.1556794E-008  0.3840481E+03  0.7957747E-01  0.3433720E+00
         13   -1    0    0    0    0  0.00000000000E+00  0.00000000000E+00  0.14999999963E+04  0.15000000000E+04  0.10566000000E+00 0.  1.
        994   -1    0    0    0    0 -0.00000000000E+00 -0.00000000000E+00  0.11368683772E-12  0.17120000000E+03  0.17120000000E+03 0.  0.
         13    1    1    2    0    0 -0.78126063418E+01 -0.21706865159E+02  0.12211171990E+03  0.12427191201E+03  0.10566000000E+00 0.  1.
        994    1    1    2    0    0  0.80767402877E+01  0.16616289132E+02  0.32303118743E+01  0.17222430059E+03  0.17120000000E+03 0.  0.
        998    1    1    2    0    0 -0.26413394593E+00  0.50905760269E+01  0.13746579645E+04  0.13747037874E+04  0.10000000000E+02 0.  1.
</event>
<event>
 5    1  0.1556794E-008  0.3836940E+03  0.7957747E-01  0.3435230E+00
         13   -1    0    0    0    0  0.00000000000E+00  0.00000000000E+00  0.14999999963E+04  0.15000000000E+04  0.10566000000E+00 0.  1.
        994   -1    0    0    0    0 -0.00000000000E+00 -0.00000000000E+00  0.11368683772E-12  0.17120000000E+03  0.17120000000E+03 0.  0.
         13    1    1    2    0    0  0.74457980471E+01 -0.29956868429E+02  0.18219876276E+03  0.18479516820E+03  0.10566000000E+00 0.  1.
        994    1    1    2    0    0 -0.10576068884E+02  0.31498806705E+02  0.59346811576E+01  0.17449552572E+03  0.17120000000E+03 0.  0.
        998    1    1    2    0    0  0.31302708373E+01 -0.15419382759E+01  0.13118665524E+04  0.13119093061E+04  0.10000000000E+02 0.  1.
</event>
<event>
 5    1  0.1556794E-008  0.3724640E+03  0.7957747E-01  0.3484643E+00
         13   -1    0    0    0    0  0.00000000000E+00  0.00000000000E+00  0.14999999963E+04  0.15000000000E+04  0.10566000000E+00 0.  1.
        994   -1    0    0    0    0 -0.00000000000E+00 -0.00000000000E+00  0.11368683772E-12  0.17120000000E+03  0.17120000000E+03 0.  0.
         13    1    1    2    0    0 -0.10963285286E+01  0.53292186685E+02  0.17005769366E+03  0.17821585068E+03  0.10566000000E+00 0.  1.
        994    1    1    2    0    0 -0.12641182157E+02 -0.37756382571E+02  0.13441807335E+02  0.17628234766E+03  0.17120000000E+03 0.  0.
        998    1    1    2    0    0  0.13737510686E+02 -0.15535804115E+02  0.13165004953E+04  0.13167018017E+04  0.10000000000E+02 0.  1.
</event>
<event>
 5    1  0.1556794E-008  0.3834008E+03  0.7957747E-01  0.3436483E+00
         13   -1    0    0    0    0  0.00000000000E+00  0.00000000000E+00  0.14999999963E+04  0.15000000000E+04  0.10566000000E+00 0.  1.
        994   -1    0    0    0    0 -0.00000000000E+00 -0.00000000000E+00  0.11368683772E-12  0.17120000000E+03  0.17120000000E+03 0.  0.
         13    1    1    2    0    0  0.77862969837E+01 -0.13144883912E+02  0.54260072053E+02  0.56370036163E+02  0.10566000000E+00 0.  1.
        994    1    1    2    0    0 -0.19198339175E+01 -0.20888719096E+02  0.38821819038E+01  0.17252401480E+03  0.17120000000E+03 0.  0.
        998    1    1    2    0    0 -0.58664630662E+01  0.34033603008E+02  0.14418577423E+04  0.14423059490E+04  0.10000000000E+02 0.  1.
</event>
<event>
 5    1  0.1556794E-008  0.3838178E+03  0.7957747E-01  0.3434702E+00
         13   -1    0    0    0    0  0.00000000000E+00  0.00000000000E+00  0.14999999963E+04  0.15000000000E+04  0.10566000000E+00 0.  1.
        994   -1    0    0    0    0 -0.00000000000E+00 -0.00000000000E+00  0.11368683772E-12  0.17120000000E+03  0.17120000000E+03 0.  0.
         13    1    1    2    0    0 -0.82893353450E+01 -0.23179960092E+02  0.13921116925E+03  0.14137108771E+03  0.10566000000E+00 0.  1.
        994    1    1    2    0    0  0.62148022815E+01  0.10699505550E+02  0.27238353379E+01  0.17166817546E+03  0.17120000000E+03 0.  0.
        998    1    1    2    0    0  0.20745330636E+01  0.12480454542E+02  0.13580649917E+04  0.13581607368E+04  0.10000000000E+02 0.  1.
</event>
<event>
 5    1  0.1556794E-008  0.3851952E+03  0.7957747E-01  0.3428845E+00
         13   -1    0    0    0    0  0.00000000000E+00  0.00000000000E+00  0.14999999963E+04  0.15000000000E+04  0.10566000000E+00 0. -1.
        994   -1    0    0    0    0 -0.00000000000E+00 -0.00000000000E+00  0.11368683772E-12  0.17120000000E+03  0.17120000000E+03 0.  0.
         13    1    1    2    0    0  0.99593480351E+01  0.10762742270E+02  0.69746716940E+02  0.71271599690E+02  0.10566000000E+00 0. -1.
        994    1    1    2    0    0 -0.31929883860E+01 -0.11743634648E+02  0.20201534537E+01  0.17164390216E+03  0.17120000000E+03 0.  0.
        998    1    1    2    0    0 -0.67663596491E+01  0.98089237729E+00  0.14282331259E+04  0.14282844981E+04  0.10000000000E+02 0. -1.
</event>
<event>
 5    1  0.1556794E-008  0.3784848E+03  0.7957747E-01  0.3457783E+00
         13   -1    0    0    0    0  0.00000000000E+00  0.00000000000E+00  0.14999999963E+04  0.15000000000E+04  0.10566000000E+00 0. -1.
        994   -1    0    0    0    0 -0.00000000000E+00 -0.00000000000E+00  0.11368683772E-12  0.17120000000E+03  0.17120000000E+03 0.  0.
         13    1    1    2    0    0 -0.25263182509E+02 -0.53805741244E+01  0.67469282853E+02  0.72244683272E+02  0.10566000000E+00 0. -1.
        994    1    1    2    0    0  0.11046252383E+02  0.52123636141E+01  0.54013828415E+01  0.17172013092E+03  0.17120000000E+03 0.  0.
        998    1    1    2    0    0  0.14216930127E+02  0.16821051029E+00  0.14271293306E+04  0.14272351858E+04  0.10000000000E+02 0. -1.
</event>
<event>
 5    1  0.1556794E-008  0.3752787E+03  0.7957747E-01  0.3471977E+00
         13   -1    0    0    0    0  0.00000000000E+00  0.00000000000E+00  0.14999999963E+04  0.15000000000E+04  0.10566000000E+00 0. -1.
        994   -1    0    0    0    0 -0.00000000000E+00 -0.00000000000E+00  0.11368683772E-12  0.17120000000E+03  0.17120000000E+03 0.  0.
         13    1    1    2    0    0 -0.69413014284E+00  0.16536890193E+02  0.17919841231E+02  0.24394311379E+02  0.10566000000E+00 0. -1.
        994    1    1    2    0    0 -0.68785562100E-01 -0.16743128147E+02  0.74882927826E+01  0.17217970728E+03  0.17120000000E+03 0.  0.
        998    1    1    2    0    0  0.76291570494E+00  0.20623795454E+00  0.14745918623E+04  0.14746259813E+04  0.10000000000E+02 0. -1.
</event>
<event>
 5    1  0.1556794E-008  0.3860275E+03  0.7957747E-01  0.3425326E+00
         13   -1    0    0    0    0  0.00000000000E+00  0.00000000000E+00  0.14999999963E+04  0.15000000000E+04  0.10566000000E+00 0. -1.
        994   -1    0    0    0    0 -0.00000000000E+00 -0.00000000000E+00  0.11368683772E-12  0.17120000000E+03  0.17120000000E+03 0.  0.
         13    1    1    2    0    0  0.42415243603E+01 -0.94680956653E+01  0.44142253388E+02  0.45345176840E+02  0.10566000000E+00 0. -1.
        994    1    1    2    0    0 -0.13844381776E+02  0.18577016360E+02  0.28822192200E+01  0.17278460473E+03  0.17120000000E+03 0.  0.
        998    1    1    2    0    0  0.96028574159E+01 -0.91089206950E+01  0.14529755237E+04  0.14530702184E+04  0.10000000000E+02 0. -1.
</event>
<event>
 5    1  0.1556794E-008  0.3705846E+03  0.7957747E-01  0.3493209E+00
         13   -1    0    0    0    0  0.00000000000E+00  0.00000000000E+00  0.14999999963E+04  0.15000000000E+04  0.10566000000E+00 0.  1.
        994   -1    0    0    0    0 -0.00000000000E+00 -0.00000000000E+00  0.11368683772E-12  0.17120000000E+03  0.17120000000E+03 0.  0.
         13    1    1    2    0    0 -0.34162968520E+02  0.55483745218E+02  0.20635491626E+03  0.21639759016E+03  0.10566000000E+00 0.  1.
        994    1    1    2    0    0  0.24656756816E+02 -0.57336722495E+02  0.22528325434E+02  0.18360942473E+03  0.17120000000E+03 0.  0.
        998    1    1    2    0    0  0.95062117040E+01  0.18529772767E+01  0.12711167546E+04  0.12711929851E+04  0.10000000000E+02 0.  1.
</event>
<event>
 5    1  0.1556794E-008  0.3857283E+03  0.7957747E-01  0.3426589E+00
         13   -1    0    0    0    0  0.00000000000E+00  0.00000000000E+00  0.14999999963E+04  0.15000000000E+04  0.10566000000E+00 0.  1.
        994   -1    0    0    0    0 -0.00000000000E+00 -0.00000000000E+00  0.11368683772E-12  0.17120000000E+03  0.17120000000E+03 0.  0.
         13    1    1    2    0    0  0.44831258962E+00  0.12756831805E+02  0.74313303084E+02  0.75401697071E+02  0.10566000000E+00 0.  1.
        994    1    1    2    0    0 -0.49654709703E+01  0.93192614204E+01  0.16349029397E+01  0.17153313803E+03  0.17120000000E+03 0.  0.
        998    1    1    2    0    0  0.45171583807E+01 -0.22076093226E+02  0.14240517903E+04  0.14242651649E+04  0.10000000000E+02 0.  1.
</event>
<event>
 5    1  0.1556794E-008  0.3809062E+03  0.7957747E-01  0.3447222E+00
         13   -1    0    0    0    0  0.00000000000E+00  0.00000000000E+00  0.14999999963E+04  0.15000000000E+04  0.10566000000E+00 0.  1.
        994   -1    0    0    0    0 -0.00000000000E+00 -0.00000000000E+00  0.11368683772E-12  0.17120000000E+03  0.17120000000E+03 0.  0.
         13    1    1    2    0    0 -0.41002625670E+01  0.10301103125E+02  0.15228065043E+02  0.18836932014E+02  0.10566000000E+00 0.  1.
        994    1    1    2    0    0  0.21083951965E+02  0.18542469986E+01  0.51708980792E+01  0.17258084902E+03  0.17120000000E+03 0.  0.
        998    1    1    2    0    0 -0.16983689398E+02 -0.12155350124E+02  0.14796010332E+04  0.14797822190E+04  0.10000000000E+02 0.  1.
</event>
<event>
 5    1  0.1556794E-008  0.3852590E+03  0.7957747E-01  0.3428575E+00
         13   -1    0    0    0    0  0.00000000000E+00  0.00000000000E+00  0.14999999963E+04  0.15000000000E+04  0.10566000000E+00 0.  1.
        994   -1    0    0    0    0 -0.00000000000E+00 -0.00000000000E+00  0.11368683772E-12  0.17120000000E+03  0.17120000000E+03 0.  0.
         13    1    1    2    0    0 -0.14556727686E+02  0.55851673889E+01 -0.23924937315E+01  0.15774270379E+02  0.10566000000E+00 0.  1.
        994    1    1    2    0    0  0.79572630422E+01 -0.81148912713E+01  0.19724167029E+02  0.17270683907E+03  0.17120000000E+03 0.  0.
        998    1    1    2    0    0  0.65994646439E+01  0.25297238823E+01  0.14826683230E+04  0.14827188906E+04  0.10000000000E+02 0.  1.
</event>
<event>
 5    1  0.1556794E-008  0.3722302E+03  0.7957747E-01  0.3485704E+00
         13   -1    0    0    0    0  0.00000000000E+00  0.00000000000E+00  0.14999999963E+04  0.15000000000E+04  0.10566000000E+00 0.  1.
        994   -1    0    0    0    0 -0.00000000000E+00 -0.00000000000E+00  0.11368683772E-12  0.17120000000E+03  0.17120000000E+03 0.  0.
         13    1    1    2    0    0 -0.39835606650E+01  0.34126029344E+02  0.64169213993E+02  0.72788418192E+02  0.10566000000E+00 0.  1.
        994    1    1    2    0    0 -0.64625826216E+01 -0.48640024225E+02  0.16414767564E+02  0.17884770484E+03  0.17120000000E+03 0.  0.
        998    1    1    2    0    0  0.10446143287E+02  0.14513994880E+02  0.14194160147E+04  0.14195638770E+04  0.10000000000E+02 0.  1.
</event>
<event>
 5    1  0.1556794E-008  0.3849636E+03  0.7957747E-01  0.3429827E+00
         13   -1    0    0    0    0  0.00000000000E+00  0.00000000000E+00  0.14999999963E+04  0.15000000000E+04  0.10566000000E+00 0.  1.
        994   -1    0    0    0    0 -0.00000000000E+00 -0.00000000000E+00  0.11368683772E-12  0.17120000000E+03  0.17120000000E+03 0.  0.
         13    1    1    2    0    0 -0.34605228675E+02 -0.26983840967E+03  0.99627479020E+03  0.10327505788E+04  0.10566000000E+00 0.  1.
        994    1    1    2    0    0  0.30885037786E+02  0.28659061793E+03  0.35455141114E+03  0.48795923086E+03  0.17120000000E+03 0.  0.
        998    1    1    2    0    0  0.37201908892E+01 -0.16752208263E+02  0.14917379494E+03  0.15049019038E+03  0.10000000000E+02 0. -1.
</event>
<event>
 5    1  0.1556794E-008  0.3749436E+03  0.7957747E-01  0.3473475E+00
         13   -1    0    0    0    0  0.00000000000E+00  0.00000000000E+00  0.14999999963E+04  0.15000000000E+04  0.10566000000E+00 0.  1.
        994   -1    0    0    0    0 -0.00000000000E+00 -0.00000000000E+00  0.11368683772E-12  0.17120000000E+03  0.17120000000E+03 0.  0.
         13    1    1    2    0    0  0.73056610011E+01  0.19731698029E+02  0.29928933136E+02  0.36585035089E+02  0.10566000000E+00 0.  1.
        994    1    1    2    0    0 -0.11094845631E+02 -0.15378206344E+02  0.79311731050E+01  0.17242948801E+03  0.17120000000E+03 0.  0.
        998    1    1    2    0    0  0.37891846301E+01 -0.43534916845E+01  0.14621398900E+04  0.14621854769E+04  0.10000000000E+02 0.  1.
</event>
<event>
 5    1  0.1556794E-008  0.3739320E+03  0.7957747E-01  0.3478013E+00
         13   -1    0    0    0    0  0.00000000000E+00  0.00000000000E+00  0.14999999963E+04  0.15000000000E+04  0.10566000000E+00 0. -1.
        994   -1    0    0    0    0 -0.00000000000E+00 -0.00000000000E+00  0.11368683772E-12  0.17120000000E+03  0.17120000000E+03 0.  0.
         13    1    1    2    0    0  0.11388520446E+02 -0.21538049535E+02  0.36836745137E+02  0.44164951398E+02  0.10566000000E+00 0. -1.
        994    1    1    2    0    0 -0.15393512486E+02  0.24654395703E+02  0.10115617378E+02  0.17394414382E+03  0.17120000000E+03 0.  0.
        998    1    1    2    0    0  0.40049920399E+01 -0.31163461684E+01  0.14530476338E+04  0.14530909048E+04  0.10000000000E+02 0. -1.
</event>
<event>
 5    1  0.1556794E-008  0.3855656E+03  0.7957747E-01  0.3427277E+00
         13   -1    0    0    0    0  0.00000000000E+00  0.00000000000E+00  0.14999999963E+04  0.15000000000E+04  0.10566000000E+00 0.  1.
        994   -1    0    0    0    0 -0.00000000000E+00 -0.00000000000E+00  0.11368683772E-12  0.17120000000E+03  0.17120000000E+03 0.  0.
         13    1    1    2    0    0 -0.13140176455E+01 -0.10763337147E+02  0.42538078397E+02  0.43898466336E+02  0.10566000000E+00 0.  1.
        994    1    1    2    0    0  0.18174860111E+00  0.12414755507E+02  0.18557832650E+01  0.17165967237E+03  0.17120000000E+03 0.  0.
        998    1    1    2    0    0  0.11322690444E+01 -0.16514183591E+01  0.14556061346E+04  0.14556418613E+04  0.10000000000E+02 0.  1.
</event>
<event>
 5    1  0.1556794E-008  0.3830185E+03  0.7957747E-01  0.3438120E+00
         13   -1    0    0    0    0  0.00000000000E+00  0.00000000000E+00  0.14999999963E+04  0.15000000000E+04  0.10566000000E+00 0. -1.
        994   -1    0    0    0    0 -0.00000000000E+00 -0.00000000000E+00  0.11368683772E-12  0.17120000000E+03  0.17120000000E+03 0.  0.
         13    1    1    2    0    0  0.54799683008E+01  0.21433121475E+02  0.98868961191E+02  0.10131382630E+03  0.10566000000E+00 0. -1.
        994    1    1    2    0    0 -0.22182404438E+02  0.12519091422E+01  0.42526929080E+01  0.17268801852E+03  0.17120000000E+03 0.  0.
        998    1    1    2    0    0  0.16702436137E+02 -0.22685030617E+02  0.13968783422E+04  0.13971981552E+04  0.10000000000E+02 0. -1.
</event>
<event>
 5    1  0.1556794E-008  0.3847093E+03  0.7957747E-01  0.3430906E+00
         13   -1    0    0    0    0  0.00000000000E+00  0.00000000000E+00  0.14999999963E+04  0.15000000000E+04  0.10566000000E+00 0. -1.
        994   -1    0    0    0    0 -0.00000000000E+00 -0.00000000000E+00  0.11368683772E-12  0.17120000000E+03  0.17120000000E+03 0.  0.
         13    1    1    2    0    0 -0.14984001008E+02  0.66764692279E+00  0.63277245405E+02  0.65030661912E+02  0.10566000000E+00 0. -1.
        994    1    1    2    0    0  0.99327534559E+01  0.26043153218E+01  0.21216853067E+01  0.17152079640E+03  0.17120000000E+03 0.  0.
        998    1    1    2    0    0  0.50512475522E+01 -0.32719622446E+01  0.14346010656E+04  0.14346485417E+04  0.10000000000E+02 0. -1.
</event>
<event>
 5    1  0.1556794E-008  0.2796549E+03  0.7957747E-01  0.4052901E+00
         13   -1    0    0    0    0  0.00000000000E+00  0.00000000000E+00  0.14999999963E+04  0.15000000000E+04  0.10566000000E+00 0.  1.
        994   -1    0    0    0    0 -0.00000000000E+00 -0.00000000000E+00  0.11368683772E-12  0.17120000000E+03  0.17120000000E+03 0.  0.
         13    1    1    2    0    0 -0.18899932482E+03  0.86019024755E+02  0.41258913476E+03  0.46189806525E+03  0.10566000000E+00 0.  1.
        994    1    1    2    0    0  0.19264715263E+03 -0.75415722518E+02  0.23523888443E+03  0.35699752012E+03  0.17120000000E+03 0.  0.
        998    1    1    2    0    0 -0.36478278122E+01 -0.10603302237E+02  0.85217197709E+03  0.85230441463E+03  0.10000000000E+02 0.  1.
</event>
<event>
 5    1  0.1556794E-008  0.3726256E+03  0.7957747E-01  0.3483911E+00
         13   -1    0    0    0    0  0.00000000000E+00  0.00000000000E+00  0.14999999963E+04  0.15000000000E+04  0.10566000000E+00 0.  1.
        994   -1    0    0    0    0 -0.00000000000E+00 -0.00000000000E+00  0.11368683772E-12  0.17120000000E+03  0.17120000000E+03 0.  0.
         13    1    1    2    0    0 -0.11898955818E+03  0.52275279772E+02  0.51173794274E+03  0.52798385680E+03  0.10566000000E+00 0.  1.
        994    1    1    2    0    0  0.85801850984E+02 -0.88879873193E+02  0.68325727390E+02  0.22189960458E+03  0.17120000000E+03 0.  0.
        998    1    1    2    0    0  0.33187707201E+02  0.36604593421E+02  0.91993632614E+03  0.92131653862E+03  0.10000000000E+02 0.  1.
</event>
<event>
 5    1  0.1556794E-008  0.3824816E+03  0.7957747E-01  0.3440424E+00
         13   -1    0    0    0    0  0.00000000000E+00  0.00000000000E+00  0.14999999963E+04  0.15000000000E+04  0.10566000000E+00 0. -1.
        994   -1    0    0    0    0 -0.00000000000E+00 -0.00000000000E+00  0.11368683772E-12  0.17120000000E+03  0.17120000000E+03 0.  0.
         13    1    1    2    0    0 -0.28681188963E+02  0.27049163205E+02  0.23041667836E+03  0.23376510574E+03  0.10566000000E+00 0. -1.
        994    1    1    2    0    0  0.32889721784E+02 -0.22536980602E+02  0.81744889022E+01  0.17597133733E+03  0.17120000000E+03 0.  0.
        998    1    1    2    0    0 -0.42085328210E+01 -0.45121826022E+01  0.12614088290E+04  0.12614635569E+04  0.10000000000E+02 0.  0.
</event>
<event>
 5    1  0.1556794E-008  0.3759992E+03  0.7957747E-01  0.3468766E+00
         13   -1    0    0    0    0  0.00000000000E+00  0.00000000000E+00  0.14999999963E+04  0.15000000000E+04  0.10566000000E+00 0. -1.
        994   -1    0    0    0    0 -0.00000000000E+00 -0.00000000000E+00  0.11368683772E-12  0.17120000000E+03  0.17120000000E+03 0.  0.
         13    1    1    2    0    0 -0.26604786111E+02  0.20326389100E+02  0.98733880637E+02  0.10425625683E+03  0.10566000000E+00 0. -1.
        994    1    1    2    0    0 -0.10174015686E+02 -0.68812366553E+01  0.66777780817E+01  0.17176988890E+03  0.17120000000E+03 0.  0.
        998    1    1    2    0    0  0.36778801796E+02 -0.13445152444E+02  0.13945883376E+04  0.13951738543E+04  0.10000000000E+02 0. -1.
</event>
<event>
 5    1  0.1556794E-008  0.3854989E+03  0.7957747E-01  0.3427559E+00
         13   -1    0    0    0    0  0.00000000000E+00  0.00000000000E+00  0.14999999963E+04  0.15000000000E+04  0.10566000000E+00 0. -1.
        994   -1    0    0    0    0 -0.00000000000E+00 -0.00000000000E+00  0.11368683772E-12  0.17120000000E+03  0.17120000000E+03 0.  0.
         13    1    1    2    0    0  0.14663460932E+02 -0.39806194358E+01  0.84614838630E+02  0.85968276114E+02  0.10566000000E+00 0. -1.
        994    1    1    2    0    0 -0.99610746915E+01 -0.28637422991E+01  0.17354228846E+01  0.17152223098E+03  0.17120000000E+03 0.  0.
        998    1    1    2    0    0 -0.47023862408E+01  0.68443617349E+01  0.14136497348E+04  0.14137094929E+04  0.10000000000E+02 0. -1.
</event>
<event>
 5    1  0.1556794E-008  0.3779847E+03  0.7957747E-01  0.3459981E+00
         13   -1    0    0    0    0  0.00000000000E+00  0.00000000000E+00  0.14999999963E+04  0.15000000000E+04  0.10566000000E+00 0.  1.
        994   -1    0    0    0    0 -0.00000000000E+00 -0.00000000000E+00  0.11368683772E-12  0.17120000000E+03  0.17120000000E+03 0.  0.
         13    1    1    2    0    0 -0.48964550737E+02  0.75440420230E+02  0.53805390848E+03  0.54551883912E+03  0.10566000000E+00 0.  1.
        994    1    1    2    0    0  0.46533728800E+02 -0.69755168410E+02  0.29193568267E+02  0.19285454587E+03  0.17120000000E+03 0.  0.
        998    1    1    2    0    0  0.24308219376E+01 -0.56852518192E+01  0.93275251953E+03  0.93282661501E+03  0.10000000000E+02 0.  1.
</event>
<event>
 5    1  0.1556794E-008  0.3839872E+03  0.7957747E-01  0.3433979E+00
         13   -1    0    0    0    0  0.00000000000E+00  0.00000000000E+00  0.14999999963E+04  0.15000000000E+04  0.10566000000E+00 0. -1.
        994   -1    0    0    0    0 -0.00000000000E+00 -0.00000000000E+00  0.11368683772E-12  0.17120000000E+03  0.17120000000E+03 0.  0.
         13    1    1    2    0    0 -0.12289977411E+03  0.43704815246E+02  0.50539834528E+03  0.52195973401E+03  0.10566000000E+00 0. -1.
        994    1    1    2    0    0  0.62430465359E+02 -0.11104834047E+02  0.33474702403E+02  0.18560947186E+03  0.17120000000E+03 0.  0.
        998    1    1    2    0    0  0.60469308748E+02 -0.32599981200E+02  0.96112694860E+03  0.96363079413E+03  0.10000000000E+02 0. -1.
</event>
<event>
 5    1  0.1556794E-008  0.3846580E+03  0.7957747E-01  0.3431124E+00
         13   -1    0    0    0    0  0.00000000000E+00  0.00000000000E+00  0.14999999963E+04  0.15000000000E+04  0.10566000000E+00 0. -1.
        994   -1    0    0    0    0 -0.00000000000E+00 -0.00000000000E+00  0.11368683772E-12  0.17120000000E+03  0.17120000000E+03 0.  0.
         13    1    1    2    0    0  0.12621631856E+02  0.11941373470E+02  0.96332573070E+02  0.97887066507E+02  0.10566000000E+00 0. -1.
        994    1    1    2    0    0 -0.11742087049E+02  0.21860591264E+02  0.38299378642E+01  0.17303141473E+03  0.17120000000E+03 0.  0.
        998    1    1    2    0    0 -0.87954480707E+00 -0.33801964734E+02  0.13998374853E+04  0.14002815188E+04  0.10000000000E+02 0. -1.
</event>
<event>
 5    1  0.1556794E-008  0.3796640E+03  0.7957747E-01  0.3452623E+00
         13   -1    0    0    0    0  0.00000000000E+00  0.00000000000E+00  0.14999999963E+04  0.15000000000E+04  0.10566000000E+00 0. -1.
        994   -1    0    0    0    0 -0.00000000000E+00 -0.00000000000E+00  0.11368683772E-12  0.17120000000E+03  0.17120000000E+03 0.  0.
         13    1    1    2    0    0  0.15057899243E+02 -0.34752589344E+02  0.15685856916E+03  0.16136636787E+03  0.10566000000E+00 0. -1.
        994    1    1    2    0    0 -0.25001469590E+02  0.22536185501E+02  0.81037420916E+01  0.17466557696E+03  0.17120000000E+03 0.  0.
        998    1    1    2    0    0  0.99435703467E+01  0.12216403842E+02  0.13350376850E+04  0.13351680552E+04  0.10000000000E+02 0. -1.
</event>
<event>
 5    1  0.1556794E-008  0.3830433E+03  0.7957747E-01  0.3438014E+00
         13   -1    0    0    0    0  0.00000000000E+00  0.00000000000E+00  0.14999999963E+04  0.15000000000E+04  0.10566000000E+00 0.  1.
        994   -1    0    0    0    0 -0.00000000000E+00 -0.00000000000E+00  0.11368683772E-12  0.17120000000E+03  0.17120000000E+03 0.  0.
         13    1    1    2    0    0 -0.10976110366E+02  0.69552007508E+01  0.31682142994E+02  0.34243527344E+02  0.10566000000E+00 0.  1.
        994    1    1    2    0    0  0.57434811330E+01 -0.53285234456E+01  0.28079157975E+01  0.17140217364E+03  0.17120000000E+03 0.  0.
        998    1    1    2    0    0  0.52326292331E+01 -0.16266773052E+01  0.14655099375E+04  0.14655542990E+04  0.10000000000E+02 0.  1.
</event>
<event>
 5    1  0.1556794E-008  0.3745932E+03  0.7957747E-01  0.3475044E+00
         13   -1    0    0    0    0  0.00000000000E+00  0.00000000000E+00  0.14999999963E+04  0.15000000000E+04  0.10566000000E+00 0.  1.
        994   -1    0    0    0    0 -0.00000000000E+00 -0.00000000000E+00  0.11368683772E-12  0.17120000000E+03  0.17120000000E+03 0.  0.
         13    1    1    2    0    0 -0.26470728298E+02  0.86330102634E+01  0.53353214491E+02  0.60181433877E+02  0.10566000000E+00 0.  1.
        994    1    1    2    0    0  0.21918446616E+02  0.34848350509E+01  0.85662073660E+01  0.17284496604E+03  0.17120000000E+03 0.  0.
        998    1    1    2    0    0  0.45522816825E+01 -0.12117845314E+02  0.14380805744E+04  0.14381736001E+04  0.10000000000E+02 0.  1.
</event>
<event>
 5    1  0.1556794E-008  0.3721982E+03  0.7957747E-01  0.3485849E+00
         13   -1    0    0    0    0  0.00000000000E+00  0.00000000000E+00  0.14999999963E+04  0.15000000000E+04  0.10566000000E+00 0.  1.
        994   -1    0    0    0    0 -0.00000000000E+00 -0.00000000000E+00  0.11368683772E-12  0.17120000000E+03  0.17120000000E+03 0.  0.
         13    1    1    2    0    0  0.56938484427E+02  0.10973121315E+03  0.44389507146E+03  0.46078821141E+03  0.10566000000E+00 0.  1.
        994    1    1    2    0    0 -0.51132364026E+02 -0.10730161718E+03  0.63696617713E+02  0.21793314298E+03  0.17120000000E+03 0.  0.
        998    1    1    2    0    0 -0.58061204012E+01 -0.24295959626E+01  0.99240830711E+03  0.99247864561E+03  0.10000000000E+02 0.  1.
</event>
<event>
 5    1  0.1556794E-008  0.3791479E+03  0.7957747E-01  0.3454877E+00
         13   -1    0    0    0    0  0.00000000000E+00  0.00000000000E+00  0.14999999963E+04  0.15000000000E+04  0.10566000000E+00 0.  1.
        994   -1    0    0    0    0 -0.00000000000E+00 -0.00000000000E+00  0.11368683772E-12  0.17120000000E+03  0.17120000000E+03 0.  0.
         13    1    1    2    0    0  0.10422739575E+02  0.34125476023E+02  0.16190880069E+03  0.16579400628E+03  0.10566000000E+00 0.  1.
        994    1    1    2    0    0  0.15217741870E+02 -0.91603001704E+00  0.53434315024E+01  0.17196049267E+03  0.17120000000E+03 0.  0.
        998    1    1    2    0    0 -0.25640481445E+02 -0.33209446006E+02  0.13327477641E+04  0.13334455010E+04  0.10000000000E+02 0.  1.
</event>
<event>
 5    1  0.1556794E-008  0.3790473E+03  0.7957747E-01  0.3455317E+00
         13   -1    0    0    0    0  0.00000000000E+00  0.00000000000E+00  0.14999999963E+04  0.15000000000E+04  0.10566000000E+00 0.  1.
        994   -1    0    0    0    0 -0.00000000000E+00 -0.00000000000E+00  0.11368683772E-12  0.17120000000E+03  0.17120000000E+03 0.  0.
         13    1    1    2    0    0 -0.17269784292E+02  0.28983969320E+02  0.13478503165E+03  0.13894362831E+03  0.10566000000E+00 0.  1.
        994    1    1    2    0    0  0.90635635487E+01  0.24357511119E+01  0.49102445784E+01  0.17152734933E+03  0.17120000000E+03 0.  0.
        998    1    1    2    0    0  0.82062207432E+01 -0.31419720432E+02  0.13603047201E+04  0.13607290224E+04  0.10000000000E+02 0.  1.
</event>
<event>
 5    1  0.1556794E-008  0.4050665E+03  0.7957747E-01  0.3348785E+00
         13   -1    0    0    0    0  0.00000000000E+00  0.00000000000E+00  0.14999999963E+04  0.15000000000E+04  0.10566000000E+00 0.  1.
        994   -1    0    0    0    0 -0.00000000000E+00 -0.00000000000E+00  0.11368683772E-12  0.17120000000E+03  0.17120000000E+03 0.  0.
         13    1    1    2    0    0 -0.84432981168E+02  0.39146416130E+02  0.11760417858E+03  0.14997374499E+03  0.10566000000E+00 0.  1.
        994    1    1    2    0    0  0.93924614390E+02 -0.38393788818E+02  0.73335361164E+02  0.21209297821E+03  0.17120000000E+03 0.  0.
        998    1    1    2    0    0 -0.94916332223E+01 -0.75262731197E+00  0.13090604565E+04  0.13091332768E+04  0.10000000000E+02 0.  1.
</event>
<event>
 5    1  0.1556794E-008  0.3848615E+03  0.7957747E-01  0.3430260E+00
         13   -1    0    0    0    0  0.00000000000E+00  0.00000000000E+00  0.14999999963E+04  0.15000000000E+04  0.10566000000E+00 0.  1.
        994   -1    0    0    0    0 -0.00000000000E+00 -0.00000000000E+00  0.11368683772E-12  0.17120000000E+03  0.17120000000E+03 0.  0.
         13    1    1    2    0    0 -0.27755384780E+01  0.13919125689E+02  0.59236530636E+02  0.60913244862E+02  0.10566000000E+00 0.  1.
        994    1    1    2    0    0  0.44119631182E+01 -0.86255272082E+01  0.20078051003E+01  0.17148567409E+03  0.17120000000E+03 0.  0.
        998    1    1    2    0    0 -0.16364246402E+01 -0.52935984811E+01  0.14387556605E+04  0.14388010810E+04  0.10000000000E+02 0.  1.
</event>
<event>
 5    1  0.1556794E-008  0.3827698E+03  0.7957747E-01  0.3439186E+00
         13   -1    0    0    0    0  0.00000000000E+00  0.00000000000E+00  0.14999999963E+04  0.15000000000E+04  0.10566000000E+00 0. -1.
        994   -1    0    0    0    0 -0.00000000000E+00 -0.00000000000E+00  0.11368683772E-12  0.17120000000E+03  0.17120000000E+03 0.  0.
         13    1    1    2    0    0  0.88250145091E+01 -0.23945293620E+02  0.13242512588E+03  0.13486171843E+03  0.10566000000E+00 0. -1.
        994    1    1    2    0    0  0.14414158769E+02  0.52424112690E+01  0.35211302349E+01  0.17192175315E+03  0.17120000000E+03 0.  0.
        998    1    1    2    0    0 -0.23239173278E+02  0.18702882352E+02  0.13640537402E+04  0.13644165284E+04  0.10000000000E+02 0. -1.
</event>
<event>
 5    1  0.1556794E-008  0.3911533E+03  0.7957747E-01  0.3403987E+00
         13   -1    0    0    0    0  0.00000000000E+00  0.00000000000E+00  0.14999999963E+04  0.15000000000E+04  0.10566000000E+00 0.  1.
        994   -1    0    0    0    0 -0.00000000000E+00 -0.00000000000E+00  0.11368683772E-12  0.17120000000E+03  0.17120000000E+03 0.  0.
         13    1    1    2    0    0  0.26774812955E+02 -0.97081224375E+02  0.33173766268E+03  0.34668651941E+03  0.10566000000E+00 0.  1.
        994    1    1    2    0    0 -0.10574548526E+02 -0.22576537375E+02  0.24945948149E+02  0.17479491253E+03  0.17120000000E+03 0.  0.
        998    1    1    2    0    0 -0.16200264429E+02  0.11965776175E+03  0.11433163854E+04  0.11497185681E+04  0.10000000000E+02 0.  1.
</event>
<event>
 5    1  0.1556794E-008  0.3775904E+03  0.7957747E-01  0.3461718E+00
         13   -1    0    0    0    0  0.00000000000E+00  0.00000000000E+00  0.14999999963E+04  0.15000000000E+04  0.10566000000E+00 0. -1.
        994   -1    0    0    0    0 -0.00000000000E+00 -0.00000000000E+00  0.11368683772E-12  0.17120000000E+03  0.17120000000E+03 0.  0.
         13    1    1    2    0    0 -0.84032618161E+02  0.10485071485E+03  0.68552114295E+03  0.69856596103E+03  0.10566000000E+00 0. -1.
        994    1    1    2    0    0  0.57261704341E+02 -0.15582394114E+03  0.10468532270E+03  0.26043897597E+03  0.17120000000E+03 0.  0.
        998    1    1    2    0    0  0.26770913820E+02  0.50973226295E+02  0.70979353063E+03  0.71219506299E+03  0.10000000000E+02 0. -1.
</event>
<event>
 5    1  0.1556794E-008  0.2752864E+03  0.7957747E-01  0.4089949E+00
         13   -1    0    0    0    0  0.00000000000E+00  0.00000000000E+00  0.14999999963E+04  0.15000000000E+04  0.10566000000E+00 0.  1.
        994   -1    0    0    0    0 -0.00000000000E+00 -0.00000000000E+00  0.11368683772E-12  0.17120000000E+03  0.17120000000E+03 0.  0.
         13    1    1    2    0    0 -0.37522173740E+02 -0.15037375918E+03  0.63110834680E+03  0.64985993687E+03  0.10566000000E+00 0.  1.
        994    1    1    2    0    0  0.27802694297E+02  0.56426752974E+02  0.39616334123E+02  0.18664367707E+03  0.17120000000E+03 0.  0.
        998    1    1    2    0    0  0.97194794426E+01  0.93947006207E+02  0.82927531535E+03  0.83469638606E+03  0.10000000000E+02 0. -1.
</event>
<event>
 5    1  0.1556794E-008  0.3804672E+03  0.7957747E-01  0.3449127E+00
         13   -1    0    0    0    0  0.00000000000E+00  0.00000000000E+00  0.14999999963E+04  0.15000000000E+04  0.10566000000E+00 0. -1.
        994   -1    0    0    0    0 -0.00000000000E+00 -0.00000000000E+00  0.11368683772E-12  0.17120000000E+03  0.17120000000E+03 0.  0.
         13    1    1    2    0    0 -0.26076724291E+02  0.17435577083E+02  0.12487698497E+03  0.12875662095E+03  0.10566000000E+00 0. -1.
        994    1    1    2    0    0  0.22195420260E+02 -0.85465073135E+00  0.55459568566E+01  0.17272395533E+03  0.17120000000E+03 0.  0.
        998    1    1    2    0    0  0.38813040315E+01 -0.16580926352E+02  0.13695770544E+04  0.13697194237E+04  0.10000000000E+02 0. -1.
</event>
<event>
 5    1  0.1556794E-008  0.3845035E+03  0.7957747E-01  0.3431781E+00
         13   -1    0    0    0    0  0.00000000000E+00  0.00000000000E+00  0.14999999963E+04  0.15000000000E+04  0.10566000000E+00 0. -1.
        994   -1    0    0    0    0 -0.00000000000E+00 -0.00000000000E+00  0.11368683772E-12  0.17120000000E+03  0.17120000000E+03 0.  0.
         13    1    1    2    0    0  0.65910739124E+01  0.13918906813E+02  0.68002488920E+02  0.69724657658E+02  0.10566000000E+00 0. -1.
        994    1    1    2    0    0  0.84611298741E+01 -0.13756569999E+01  0.21189396544E+01  0.17142757379E+03  0.17120000000E+03 0.  0.
        998    1    1    2    0    0 -0.15052203786E+02 -0.12543249813E+02  0.14298785677E+04  0.14300477686E+04  0.10000000000E+02 0. -1.
</event>
<event>
 5    1  0.1556794E-008  0.3833454E+03  0.7957747E-01  0.3436720E+00
         13   -1    0    0    0    0  0.00000000000E+00  0.00000000000E+00  0.14999999963E+04  0.15000000000E+04  0.10566000000E+00 0. -1.
        994   -1    0    0    0    0 -0.00000000000E+00 -0.00000000000E+00  0.11368683772E-12  0.17120000000E+03  0.17120000000E+03 0.  0.
         13    1    1    2    0    0  0.11493003833E+02 -0.32038919048E+01  0.28929772910E+02  0.31293721177E+02  0.10566000000E+00 0. -1.
        994    1    1    2    0    0  0.64008670600E+01  0.28358286826E+02  0.52533166581E+01  0.17373025317E+03  0.17120000000E+03 0.  0.
        998    1    1    2    0    0 -0.17893870893E+02 -0.25154394921E+02  0.14658169067E+04  0.14661760257E+04  0.10000000000E+02 0. -1.
</event>
<event>
 5    1  0.1556794E-008  0.3836619E+03  0.7957747E-01  0.3435367E+00
         13   -1    0    0    0    0  0.00000000000E+00  0.00000000000E+00  0.14999999963E+04  0.15000000000E+04  0.10566000000E+00 0.  1.
        994   -1    0    0    0    0 -0.00000000000E+00 -0.00000000000E+00  0.11368683772E-12  0.17120000000E+03  0.17120000000E+03 0.  0.
         13    1    1    2    0    0  0.10457469221E+02 -0.93738374619E+01  0.43626737510E+02  0.45831548971E+02  0.10566000000E+00 0.  1.
        994    1    1    2    0    0 -0.86851429224E+01 -0.54919991527E+01  0.26447941839E+01  0.17152850696E+03  0.17120000000E+03 0.  0.
        998    1    1    2    0    0 -0.17723262982E+01  0.14865836615E+02  0.14537284646E+04  0.14538399441E+04  0.10000000000E+02 0.  1.
</event>
<event>
 5    1  0.1556794E-008  0.3826370E+03  0.7957747E-01  0.3439756E+00
         13   -1    0    0    0    0  0.00000000000E+00  0.00000000000E+00  0.14999999963E+04  0.15000000000E+04  0.10566000000E+00 0. -1.
        994   -1    0    0    0    0 -0.00000000000E+00 -0.00000000000E+00  0.11368683772E-12  0.17120000000E+03  0.17120000000E+03 0.  0.
         13    1    1    2    0    0 -0.17624886447E+02  0.13436326978E+02  0.92282533787E+02  0.94906526178E+02  0.10566000000E+00 0. -1.
        994    1    1    2    0    0  0.58208255306E+01  0.23873369853E+01  0.29390543150E+01  0.17134076989E+03  0.17120000000E+03 0.  0.
        998    1    1    2    0    0  0.11804060916E+02 -0.15823663963E+02  0.14047784082E+04  0.14049527039E+04  0.10000000000E+02 0. -1.
</event>
<event>
 5    1  0.1556794E-008  0.3812244E+03  0.7957747E-01  0.3445844E+00
         13   -1    0    0    0    0  0.00000000000E+00  0.00000000000E+00  0.14999999963E+04  0.15000000000E+04  0.10566000000E+00 0.  1.
        994   -1    0    0    0    0 -0.00000000000E+00 -0.00000000000E+00  0.11368683772E-12  0.17120000000E+03  0.17120000000E+03 0.  0.
         13    1    1    2    0    0  0.12041087773E+02 -0.27585895469E+02  0.13900429214E+03  0.14222578466E+03  0.10566000000E+00 0.  1.
        994    1    1    2    0    0  0.27770730822E+01  0.67849210483E+01  0.36953166868E+01  0.17139674050E+03  0.17120000000E+03 0.  0.
        998    1    1    2    0    0 -0.14818160855E+02  0.20800974421E+02  0.13573003874E+04  0.13575774748E+04  0.10000000000E+02 0.  1.
</event>
<event>
 5    1  0.1556794E-008  0.3706097E+03  0.7957747E-01  0.3493093E+00
         13   -1    0    0    0    0  0.00000000000E+00  0.00000000000E+00  0.14999999963E+04  0.15000000000E+04  0.10566000000E+00 0. -1.
        994   -1    0    0    0    0 -0.00000000000E+00 -0.00000000000E+00  0.11368683772E-12  0.17120000000E+03  0.17120000000E+03 0.  0.
         13    1    1    2    0    0 -0.62087205106E+00  0.10562133635E+02  0.20829224582E+01  0.10783963975E+02  0.10566000000E+00 0. -1.
        994    1    1    2    0    0  0.39126176376E+01 -0.73914416223E+01  0.91920871713E+01  0.17165044845E+03  0.17120000000E+03 0.  0.
        998    1    1    2    0    0 -0.32917455865E+01 -0.31706920125E+01  0.14887249866E+04  0.14887655876E+04  0.10000000000E+02 0. -1.
</event>
<event>
 5    1  0.1556794E-008  0.3764011E+03  0.7957747E-01  0.3466980E+00
         13   -1    0    0    0    0  0.00000000000E+00  0.00000000000E+00  0.14999999963E+04  0.15000000000E+04  0.10566000000E+00 0. -1.
        994   -1    0    0    0    0 -0.00000000000E+00 -0.00000000000E+00  0.11368683772E-12  0.17120000000E+03  0.17120000000E+03 0.  0.
         13    1    1    2    0    0  0.16194563121E+02  0.86436901200E+02  0.23470131787E+03  0.25063583451E+03  0.10566000000E+00 0. -1.
        994    1    1    2    0    0 -0.12748928530E+02 -0.76807091580E+02  0.36375861563E+02  0.19155810555E+03  0.17120000000E+03 0.  0.
        998    1    1    2    0    0 -0.34456345913E+01 -0.96298096199E+01  0.12289228168E+04  0.12290060599E+04  0.10000000000E+02 0. -1.
</event>
<event>
 5    1  0.1556794E-008  0.3771967E+03  0.7957747E-01  0.3463456E+00
         13   -1    0    0    0    0  0.00000000000E+00  0.00000000000E+00  0.14999999963E+04  0.15000000000E+04  0.10566000000E+00 0. -1.
        994   -1    0    0    0    0 -0.00000000000E+00 -0.00000000000E+00  0.11368683772E-12  0.17120000000E+03  0.17120000000E+03 0.  0.
         13    1    1    2    0    0  0.61639513990E+01  0.24579138930E+02  0.53406762788E+02  0.59113635000E+02  0.10566000000E+00 0. -1.
        994    1    1    2    0    0 -0.29685864678E+01 -0.28579320612E+02  0.83456828205E+01  0.17379493806E+03  0.17120000000E+03 0.  0.
        998    1    1    2    0    0 -0.31953649312E+01  0.40001816821E+01  0.14382475507E+04  0.14382914269E+04  0.10000000000E+02 0. -1.
</event>
<event>
 5    1  0.1556794E-008  0.3834182E+03  0.7957747E-01  0.3436409E+00
         13   -1    0    0    0    0  0.00000000000E+00  0.00000000000E+00  0.14999999963E+04  0.15000000000E+04  0.10566000000E+00 0. -1.
        994   -1    0    0    0    0 -0.00000000000E+00 -0.00000000000E+00  0.11368683772E-12  0.17120000000E+03  0.17120000000E+03 0.  0.
         13    1    1    2    0    0  0.20038810473E+01  0.12132264744E+02  0.32403528496E+02  0.34658436348E+02  0.10566000000E+00 0. -1.
        994    1    1    2    0    0 -0.17984344348E+01  0.75007591976E+01  0.26142065097E+01  0.17139361082E+03  0.17120000000E+03 0.  0.
        998    1    1    2    0    0 -0.20544661258E+00 -0.19633023941E+02  0.14649822613E+04  0.14651479528E+04  0.10000000000E+02 0. -1.
</event>
<event>
 5    1  0.1556794E-008  0.3776286E+03  0.7957747E-01  0.3461549E+00
         13   -1    0    0    0    0  0.00000000000E+00  0.00000000000E+00  0.14999999963E+04  0.15000000000E+04  0.10566000000E+00 0.  1.
        994   -1    0    0    0    0 -0.00000000000E+00 -0.00000000000E+00  0.11368683772E-12  0.17120000000E+03  0.17120000000E+03 0.  0.
         13    1    1    2    0    0 -0.11368444089E+03 -0.18730025963E+03  0.12603020243E+04  0.12792055124E+04  0.10566000000E+00 0.  1.
        994    1    1    2    0    0  0.10419951190E+03  0.17681143484E+03  0.16230119039E+03  0.31268344723E+03  0.17120000000E+03 0.  0.
        998    1    1    2    0    0  0.94849289908E+01  0.10488824790E+02  0.77396781597E+02  0.79311040373E+02  0.10000000000E+02 0.  1.
</event>
<event>
 5    1  0.1556794E-008  0.3778580E+03  0.7957747E-01  0.3460539E+00
         13   -1    0    0    0    0  0.00000000000E+00  0.00000000000E+00  0.14999999963E+04  0.15000000000E+04  0.10566000000E+00 0.  1.
        994   -1    0    0    0    0 -0.00000000000E+00 -0.00000000000E+00  0.11368683772E-12  0.17120000000E+03  0.17120000000E+03 0.  0.
         13    1    1    2    0    0  0.24988708600E+02  0.55043712221E+02  0.28812629087E+03  0.29439941655E+03  0.10566000000E+00 0.  1.
        994    1    1    2    0    0 -0.20488112068E+02 -0.54673062408E+02  0.16782509391E+02  0.18165901880E+03  0.17120000000E+03 0.  0.
        998    1    1    2    0    0 -0.45005965318E+01 -0.37064981261E+00  0.11950911960E+04  0.11951415646E+04  0.10000000000E+02 0.  1.
</event>
<event>
 5    1  0.1556794E-008  0.3851383E+03  0.7957747E-01  0.3429086E+00
         13   -1    0    0    0    0  0.00000000000E+00  0.00000000000E+00  0.14999999963E+04  0.15000000000E+04  0.10566000000E+00 0. -1.
        994   -1    0    0    0    0 -0.00000000000E+00 -0.00000000000E+00  0.11368683772E-12  0.17120000000E+03  0.17120000000E+03 0.  0.
         13    1    1    2    0    0 -0.83708527744E+01  0.88378196600E+01  0.47002486995E+02  0.48553302465E+02  0.10566000000E+00 0. -1.
        994    1    1    2    0    0  0.44776092451E+01 -0.93552393455E+01  0.19151508640E+01  0.17152456760E+03  0.17120000000E+03 0.  0.
        998    1    1    2    0    0  0.38932435293E+01  0.51741968549E+00  0.14510823584E+04  0.14511221299E+04  0.10000000000E+02 0. -1.
</event>
<event>
 5    1  0.1556794E-008  0.3812683E+03  0.7957747E-01  0.3445655E+00
         13   -1    0    0    0    0  0.00000000000E+00  0.00000000000E+00  0.14999999963E+04  0.15000000000E+04  0.10566000000E+00 0. -1.
        994   -1    0    0    0    0 -0.00000000000E+00 -0.00000000000E+00  0.11368683772E-12  0.17120000000E+03  0.17120000000E+03 0.  0.
         13    1    1    2    0    0  0.19883865284E+03  0.71777901426E+01  0.10077845320E+04  0.10272380467E+04  0.10566000000E+00 0. -1.
        994    1    1    2    0    0 -0.20663515556E+03 -0.61841623818E+01  0.16202148382E+03  0.31352309739E+03  0.17120000000E+03 0.  0.
        998    1    1    2    0    0  0.77965027176E+01 -0.99362776074E+00  0.33019398044E+03  0.33043885587E+03  0.10000000000E+02 0.  1.
</event>
<event>
 5    1  0.1556794E-008  0.3816493E+03  0.7957747E-01  0.3444009E+00
         13   -1    0    0    0    0  0.00000000000E+00  0.00000000000E+00  0.14999999963E+04  0.15000000000E+04  0.10566000000E+00 0. -1.
        994   -1    0    0    0    0 -0.00000000000E+00 -0.00000000000E+00  0.11368683772E-12  0.17120000000E+03  0.17120000000E+03 0.  0.
         13    1    1    2    0    0 -0.12599020839E+01  0.21501194363E+02  0.67995992075E+02  0.71325695332E+02  0.10566000000E+00 0. -1.
        994    1    1    2    0    0  0.13045478069E+01 -0.17113827951E+02  0.42829624618E+01  0.17211150083E+03  0.17120000000E+03 0.  0.
        998    1    1    2    0    0 -0.44645722937E-01 -0.43873664121E+01  0.14277210417E+04  0.14277628038E+04  0.10000000000E+02 0. -1.
</event>
<event>
 5    1  0.1556794E-008  0.3817368E+03  0.7957747E-01  0.3443631E+00
         13   -1    0    0    0    0  0.00000000000E+00  0.00000000000E+00  0.14999999963E+04  0.15000000000E+04  0.10566000000E+00 0.  1.
        994   -1    0    0    0    0 -0.00000000000E+00 -0.00000000000E+00  0.11368683772E-12  0.17120000000E+03  0.17120000000E+03 0.  0.
         13    1    1    2    0    0 -0.14198239502E+03 -0.10591920040E+03  0.10280308710E+04  0.10431804065E+04  0.10566000000E+00 0.  1.
        994    1    1    2    0    0  0.15113546055E+03  0.10132878701E+03  0.12249325691E+03  0.27825076550E+03  0.17120000000E+03 0.  0.
        998    1    1    2    0    0 -0.91530655258E+01  0.45904133935E+01  0.34947586835E+03  0.34976882803E+03  0.10000000000E+02 0.  1.
</event>
<event>
 5    1  0.1556794E-008  0.3861920E+03  0.7957747E-01  0.3424633E+00
         13   -1    0    0    0    0  0.00000000000E+00  0.00000000000E+00  0.14999999963E+04  0.15000000000E+04  0.10566000000E+00 0.  1.
        994   -1    0    0    0    0 -0.00000000000E+00 -0.00000000000E+00  0.11368683772E-12  0.17120000000E+03  0.17120000000E+03 0.  0.
         13    1    1    2    0    0 -0.11299648733E+02  0.64668700249E+00  0.64698433397E+02  0.65681037703E+02  0.10566000000E+00 0.  1.
        994    1    1    2    0    0  0.31895940369E+01 -0.18255325844E+01  0.10837461687E+01  0.17124287017E+03  0.17120000000E+03 0.  0.
        998    1    1    2    0    0  0.81100546961E+01  0.11788455820E+01  0.14342178167E+04  0.14342760921E+04  0.10000000000E+02 0.  1.
</event>
<event>
 5    1  0.1556794E-008  0.3751176E+03  0.7957747E-01  0.3472697E+00
         13   -1    0    0    0    0  0.00000000000E+00  0.00000000000E+00  0.14999999963E+04  0.15000000000E+04  0.10566000000E+00 0. -1.
        994   -1    0    0    0    0 -0.00000000000E+00 -0.00000000000E+00  0.11368683772E-12  0.17120000000E+03  0.17120000000E+03 0.  0.
         13    1    1    2    0    0  0.39243530545E+02 -0.36605212134E+02  0.29338590163E+03  0.29825374211E+03  0.10566000000E+00 0. -1.
        994    1    1    2    0    0  0.10157312863E+02 -0.13858965191E+01  0.69755411402E+01  0.17164844855E+03  0.17120000000E+03 0.  0.
        998    1    1    2    0    0 -0.49400843408E+02  0.37991108653E+02  0.11996385535E+04  0.12012978093E+04  0.10000000000E+02 0. -1.
</event>
<event>
 5    1  0.1556794E-008  0.3697762E+03  0.7957747E-01  0.3496920E+00
         13   -1    0    0    0    0  0.00000000000E+00  0.00000000000E+00  0.14999999963E+04  0.15000000000E+04  0.10566000000E+00 0.  1.
        994   -1    0    0    0    0 -0.00000000000E+00 -0.00000000000E+00  0.11368683772E-12  0.17120000000E+03  0.17120000000E+03 0.  0.
         13    1    1    2    0    0  0.16128229472E+02  0.83530470109E+02  0.36208011269E+03  0.37194015431E+03  0.10566000000E+00 0.  1.
        994    1    1    2    0    0 -0.32128352554E+02 -0.31788602283E+02  0.17990514695E+02  0.17797709092E+03  0.17120000000E+03 0.  0.
        998    1    1    2    0    0  0.16000123081E+02 -0.51741867826E+02  0.11199293689E+04  0.11212827548E+04  0.10000000000E+02 0.  1.
</event>
<event>
 5    1  0.1556794E-008  0.3839403E+03  0.7957747E-01  0.3434179E+00
         13   -1    0    0    0    0  0.00000000000E+00  0.00000000000E+00  0.14999999963E+04  0.15000000000E+04  0.10566000000E+00 0. -1.
        994   -1    0    0    0    0 -0.00000000000E+00 -0.00000000000E+00  0.11368683772E-12  0.17120000000E+03  0.17120000000E+03 0.  0.
         13    1    1    2    0    0 -0.26125081688E+00 -0.20277538573E+02  0.96306604308E+02  0.98418595905E+02  0.10566000000E+00 0. -1.
        994    1    1    2    0    0 -0.60140652562E+01  0.10696409004E+02  0.26542298218E+01  0.17165974217E+03  0.17120000000E+03 0.  0.
        998    1    1    2    0    0  0.62753160731E+01  0.95811295692E+01  0.14010391621E+04  0.14011216619E+04  0.10000000000E+02 0. -1.
</event>
<event>
 5    1  0.1556794E-008  0.3860954E+03  0.7957747E-01  0.3425040E+00
         13   -1    0    0    0    0  0.00000000000E+00  0.00000000000E+00  0.14999999963E+04  0.15000000000E+04  0.10566000000E+00 0. -1.
        994   -1    0    0    0    0 -0.00000000000E+00 -0.00000000000E+00  0.11368683772E-12  0.17120000000E+03  0.17120000000E+03 0.  0.
         13    1    1    2    0    0 -0.10607619818E+02 -0.11840105572E+01  0.54149480952E+02  0.55191493281E+02  0.10566000000E+00 0. -1.
        994    1    1    2    0    0  0.32508840466E+01  0.12229067303E+02  0.16121656300E+01  0.17167456833E+03  0.17120000000E+03 0.  0.
        998    1    1    2    0    0  0.73567357709E+01 -0.11045056746E+02  0.14442383497E+04  0.14443339384E+04  0.10000000000E+02 0. -1.
</event>
<event>
 5    1  0.1556794E-008  0.3799659E+03  0.7957747E-01  0.3451307E+00
         13   -1    0    0    0    0  0.00000000000E+00  0.00000000000E+00  0.14999999963E+04  0.15000000000E+04  0.10566000000E+00 0.  1.
        994   -1    0    0    0    0 -0.00000000000E+00 -0.00000000000E+00  0.11368683772E-12  0.17120000000E+03  0.17120000000E+03 0.  0.
         13    1    1    2    0    0 -0.11707617786E+02 -0.16347835921E+02  0.46146406292E+02  0.50337084055E+02  0.10566000000E+00 0.  1.
        994    1    1    2    0    0  0.11270855228E+02  0.15460433299E+02  0.53751440009E+01  0.17234961372E+03  0.17120000000E+03 0.  0.
        998    1    1    2    0    0  0.43676255791E+00  0.88740262174E+00  0.14484784460E+04  0.14485133022E+04  0.10000000000E+02 0.  1.
</event>
<event>
 5    1  0.1556794E-008  0.3700693E+03  0.7957747E-01  0.3495572E+00
         13   -1    0    0    0    0  0.00000000000E+00  0.00000000000E+00  0.14999999963E+04  0.15000000000E+04  0.10566000000E+00 0.  1.
        994   -1    0    0    0    0 -0.00000000000E+00 -0.00000000000E+00  0.11368683772E-12  0.17120000000E+03  0.17120000000E+03 0.  0.
         13    1    1    2    0    0  0.74808764651E+02  0.13951386912E+01  0.21382751208E+03  0.22654031378E+03  0.10566000000E+00 0.  1.
        994    1    1    2    0    0 -0.76670735386E+02  0.40872756773E+01  0.31884646557E+02  0.19031862277E+03  0.17120000000E+03 0.  0.
        998    1    1    2    0    0  0.18619707349E+01 -0.54824143685E+01  0.12542878376E+04  0.12543410634E+04  0.10000000000E+02 0.  1.
</event>
<event>
 5    1  0.1556794E-008  0.3840862E+03  0.7957747E-01  0.3433557E+00
         13   -1    0    0    0    0  0.00000000000E+00  0.00000000000E+00  0.14999999963E+04  0.15000000000E+04  0.10566000000E+00 0.  1.
        994   -1    0    0    0    0 -0.00000000000E+00 -0.00000000000E+00  0.11368683772E-12  0.17120000000E+03  0.17120000000E+03 0.  0.
         13    1    1    2    0    0  0.24766008450E+01 -0.17061945802E+02  0.65888199845E+02  0.68106604592E+02  0.10566000000E+00 0.  1.
        994    1    1    2    0    0 -0.12168947564E+02  0.22792684196E+02  0.42895922036E+01  0.17319188878E+03  0.17120000000E+03 0.  0.
        998    1    1    2    0    0  0.96923467186E+01 -0.57307383938E+01  0.14298222042E+04  0.14299015066E+04  0.10000000000E+02 0.  1.
</event>
<event>
 5    1  0.1556794E-008  0.3854541E+03  0.7957747E-01  0.3427748E+00
         13   -1    0    0    0    0  0.00000000000E+00  0.00000000000E+00  0.14999999963E+04  0.15000000000E+04  0.10566000000E+00 0.  1.
        994   -1    0    0    0    0 -0.00000000000E+00 -0.00000000000E+00  0.11368683772E-12  0.17120000000E+03  0.17120000000E+03 0.  0.
         13    1    1    2    0    0 -0.29916470004E+01  0.11353885290E+02  0.49943955098E+02  0.51305657366E+02  0.10566000000E+00 0.  1.
        994    1    1    2    0    0  0.20692885922E+01 -0.51965609250E+01  0.15075781853E+01  0.17129798304E+03  0.17120000000E+03 0.  0.
        998    1    1    2    0    0  0.92235840818E+00 -0.61573243647E+01  0.14485484630E+04  0.14485963596E+04  0.10000000000E+02 0.  1.
</event>
<event>
 5    1  0.1556794E-008  0.3843477E+03  0.7957747E-01  0.3432443E+00
         13   -1    0    0    0    0  0.00000000000E+00  0.00000000000E+00  0.14999999963E+04  0.15000000000E+04  0.10566000000E+00 0.  1.
        994   -1    0    0    0    0 -0.00000000000E+00 -0.00000000000E+00  0.11368683772E-12  0.17120000000E+03  0.17120000000E+03 0.  0.
         13    1    1    2    0    0  0.57611547739E+01  0.17523851244E+02  0.80117646447E+02  0.82213896046E+02  0.10566000000E+00 0.  1.
        994    1    1    2    0    0 -0.44118905269E+01 -0.24217885389E+02  0.39539322630E+01  0.17300590837E+03  0.17120000000E+03 0.  0.
        998    1    1    2    0    0 -0.13492642470E+01  0.66940341452E+01  0.14159284176E+04  0.14159801956E+04  0.10000000000E+02 0.  1.
</event>
<event>
 5    1  0.1556794E-008  0.3855349E+03  0.7957747E-01  0.3427407E+00
         13   -1    0    0    0    0  0.00000000000E+00  0.00000000000E+00  0.14999999963E+04  0.15000000000E+04  0.10566000000E+00 0.  1.
        994   -1    0    0    0    0 -0.00000000000E+00 -0.00000000000E+00  0.11368683772E-12  0.17120000000E+03  0.17120000000E+03 0.  0.
         13    1    1    2    0    0 -0.12288570121E+02  0.83139303127E+01  0.81647736524E+02  0.82984904870E+02  0.10566000000E+00 0.  1.
        994    1    1    2    0    0  0.62213708137E+01 -0.65066089849E+01  0.16308810337E+01  0.17144428013E+03  0.17120000000E+03 0.  0.
        998    1    1    2    0    0  0.60671993071E+01 -0.18073213278E+01  0.14167213787E+04  0.14167708150E+04  0.10000000000E+02 0.  1.
</event>
<event>
 5    1  0.1556794E-008  0.3850088E+03  0.7957747E-01  0.3429635E+00
         13   -1    0    0    0    0  0.00000000000E+00  0.00000000000E+00  0.14999999963E+04  0.15000000000E+04  0.10566000000E+00 0. -1.
        994   -1    0    0    0    0 -0.00000000000E+00 -0.00000000000E+00  0.11368683772E-12  0.17120000000E+03  0.17120000000E+03 0.  0.
         13    1    1    2    0    0  0.64584728186E+01 -0.85339788772E+01  0.35390659813E+02  0.36973647814E+02  0.10566000000E+00 0. -1.
        994    1    1    2    0    0 -0.39511805925E+01  0.35949062791E+01  0.17195991351E+01  0.17129195019E+03  0.17120000000E+03 0.  0.
        998    1    1    2    0    0 -0.25072922261E+01  0.49390725981E+01  0.14628897373E+04  0.14629344020E+04  0.10000000000E+02 0. -1.
</event>
<event>
 5    1  0.1556794E-008  0.3725161E+03  0.7957747E-01  0.3484407E+00
         13   -1    0    0    0    0  0.00000000000E+00  0.00000000000E+00  0.14999999963E+04  0.15000000000E+04  0.10566000000E+00 0. -1.
        994   -1    0    0    0    0 -0.00000000000E+00 -0.00000000000E+00  0.11368683772E-12  0.17120000000E+03  0.17120000000E+03 0.  0.
         13    1    1    2    0    0 -0.80960794816E+02 -0.64853219946E+02  0.32049525899E+03  0.33686468000E+03  0.10566000000E+00 0. -1.
        994    1    1    2    0    0  0.64537599459E+02  0.98841004019E+02  0.63194373750E+02  0.21734216041E+03  0.17120000000E+03 0.  0.
        998    1    1    2    0    0  0.16423195357E+02 -0.33987784073E+02  0.11163103635E+04  0.11169931596E+04  0.10000000000E+02 0. -1.
</event>
<event>
 5    1  0.1556794E-008  0.3813868E+03  0.7957747E-01  0.3445142E+00
         13   -1    0    0    0    0  0.00000000000E+00  0.00000000000E+00  0.14999999963E+04  0.15000000000E+04  0.10566000000E+00 0. -1.
        994   -1    0    0    0    0 -0.00000000000E+00 -0.00000000000E+00  0.11368683772E-12  0.17120000000E+03  0.17120000000E+03 0.  0.
         13    1    1    2    0    0  0.15265018789E+01 -0.17496804171E+02  0.40723046848E+02  0.44349138355E+02  0.10566000000E+00 0. -1.
        994    1    1    2    0    0 -0.81875073698E+01  0.29913629678E+02  0.66420769245E+01  0.17411323242E+03  0.17120000000E+03 0.  0.
        998    1    1    2    0    0  0.66610054909E+01 -0.12416825506E+02  0.14526348725E+04  0.14527376292E+04  0.10000000000E+02 0. -1.
</event>
<event>
 5    1  0.1556794E-008  0.3724883E+03  0.7957747E-01  0.3484533E+00
         13   -1    0    0    0    0  0.00000000000E+00  0.00000000000E+00  0.14999999963E+04  0.15000000000E+04  0.10566000000E+00 0. -1.
        994   -1    0    0    0    0 -0.00000000000E+00 -0.00000000000E+00  0.11368683772E-12  0.17120000000E+03  0.17120000000E+03 0.  0.
         13    1    1    2    0    0  0.30819583953E+02  0.17014501550E+01  0.58801101333E+02  0.66410258015E+02  0.10566000000E+00 0. -1.
        994    1    1    2    0    0 -0.87542441432E+01  0.52498116279E+00  0.82379532580E+01  0.17162230703E+03  0.17120000000E+03 0.  0.
        998    1    1    2    0    0 -0.22065339810E+02 -0.22264313178E+01  0.14329609417E+04  0.14331674350E+04  0.10000000000E+02 0. -1.
</event>
<event>
 5    1  0.1556794E-008  0.3706589E+03  0.7957747E-01  0.3492868E+00
         13   -1    0    0    0    0  0.00000000000E+00  0.00000000000E+00  0.14999999963E+04  0.15000000000E+04  0.10566000000E+00 0.  1.
        994   -1    0    0    0    0 -0.00000000000E+00 -0.00000000000E+00  0.11368683772E-12  0.17120000000E+03  0.17120000000E+03 0.  0.
         13    1    1    2    0    0  0.49799801864E+00 -0.15857720490E+02  0.99552122038E+01  0.18730528963E+02  0.10566000000E+00 0.  1.
        994    1    1    2    0    0  0.95651530039E+01  0.18470829670E+02  0.10419069123E+02  0.17277343749E+03  0.17120000000E+03 0.  0.
        998    1    1    2    0    0 -0.10063151023E+02 -0.26131091792E+01  0.14796257150E+04  0.14796960335E+04  0.10000000000E+02 0.  1.
</event>
<event>
 5    1  0.1556794E-008  0.3812636E+03  0.7957747E-01  0.3445675E+00
         13   -1    0    0    0    0  0.00000000000E+00  0.00000000000E+00  0.14999999963E+04  0.15000000000E+04  0.10566000000E+00 0. -1.
        994   -1    0    0    0    0 -0.00000000000E+00 -0.00000000000E+00  0.11368683772E-12  0.17120000000E+03  0.17120000000E+03 0.  0.
         13    1    1    2    0    0  0.56003552915E+01  0.45017077307E+02  0.22692417659E+03  0.23141411866E+03  0.10566000000E+00 0. -1.
        994    1    1    2    0    0  0.26012535386E+01 -0.58150304777E+02  0.14859412011E+02  0.18143446914E+03  0.17120000000E+03 0.  0.
        998    1    1    2    0    0 -0.82016088301E+01  0.13133227471E+02  0.12582164077E+04  0.12583514122E+04  0.10000000000E+02 0. -1.
</event>
<event>
 5    1  0.1556794E-008  0.3769825E+03  0.7957747E-01  0.3464403E+00
         13   -1    0    0    0    0  0.00000000000E+00  0.00000000000E+00  0.14999999963E+04  0.15000000000E+04  0.10566000000E+00 0.  1.
        994   -1    0    0    0    0 -0.00000000000E+00 -0.00000000000E+00  0.11368683772E-12  0.17120000000E+03  0.17120000000E+03 0.  0.
         13    1    1    2    0    0  0.19154536324E+02  0.87029389952E+01  0.35902222979E+02  0.41612716660E+02  0.10566000000E+00 0.  1.
        994    1    1    2    0    0 -0.18466393962E+02 -0.13695295643E+02  0.74509756196E+01  0.17289744320E+03  0.17120000000E+03 0.  0.
        998    1    1    2    0    0 -0.68814236216E+00  0.49923566477E+01  0.14566467977E+04  0.14566898401E+04  0.10000000000E+02 0.  1.
</event>
<event>
 5    1  0.1556794E-008  0.3793879E+03  0.7957747E-01  0.3453828E+00
         13   -1    0    0    0    0  0.00000000000E+00  0.00000000000E+00  0.14999999963E+04  0.15000000000E+04  0.10566000000E+00 0. -1.
        994   -1    0    0    0    0 -0.00000000000E+00 -0.00000000000E+00  0.11368683772E-12  0.17120000000E+03  0.17120000000E+03 0.  0.
         13    1    1    2    0    0  0.87031088451E+01  0.49984162900E+02  0.27858668555E+03  0.28316905405E+03  0.10566000000E+00 0. -1.
        994    1    1    2    0    0  0.14833752544E+02 -0.36718015636E+02  0.97135674461E+01  0.17598876748E+03  0.17120000000E+03 0.  0.
        998    1    1    2    0    0 -0.23536861389E+02 -0.13266147264E+02  0.12116997433E+04  0.12120421785E+04  0.10000000000E+02 0. -1.
</event>
<event>
 5    1  0.1556794E-008  0.3834760E+03  0.7957747E-01  0.3436162E+00
         13   -1    0    0    0    0  0.00000000000E+00  0.00000000000E+00  0.14999999963E+04  0.15000000000E+04  0.10566000000E+00 0. -1.
        994   -1    0    0    0    0 -0.00000000000E+00 -0.00000000000E+00  0.11368683772E-12  0.17120000000E+03  0.17120000000E+03 0.  0.
         13    1    1    2    0    0 -0.58626040135E+01  0.11201786222E+02  0.32074135115E+02  0.34476244688E+02  0.10566000000E+00 0. -1.
        994    1    1    2    0    0  0.56428681226E+01 -0.12645124824E+02  0.30226380123E+01  0.17178567310E+03  0.17120000000E+03 0.  0.
        998    1    1    2    0    0  0.21973589081E+00  0.14433386023E+01  0.14649032232E+04  0.14649380822E+04  0.10000000000E+02 0. -1.
</event>
<event>
 5    1  0.1556794E-008  0.3685092E+03  0.7957747E-01  0.3502770E+00
         13   -1    0    0    0    0  0.00000000000E+00  0.00000000000E+00  0.14999999963E+04  0.15000000000E+04  0.10566000000E+00 0.  1.
        994   -1    0    0    0    0 -0.00000000000E+00 -0.00000000000E+00  0.11368683772E-12  0.17120000000E+03  0.17120000000E+03 0.  0.
         13    1    1    2    0    0 -0.84073098728E+02  0.28832978414E+02  0.49258343569E+03  0.50053778963E+03  0.10566000000E+00 0.  1.
        994    1    1    2    0    0  0.19332568089E+02 -0.25290269358E+02  0.13580431117E+02  0.17466314443E+03  0.17120000000E+03 0.  0.
        998    1    1    2    0    0  0.64740530639E+02 -0.35427090564E+01  0.99383612948E+03  0.99599906594E+03  0.10000000000E+02 0.  1.
</event>
<event>
 5    1  0.1556794E-008  0.3701167E+03  0.7957747E-01  0.3495355E+00
         13   -1    0    0    0    0  0.00000000000E+00  0.00000000000E+00  0.14999999963E+04  0.15000000000E+04  0.10566000000E+00 0.  1.
        994   -1    0    0    0    0 -0.00000000000E+00 -0.00000000000E+00  0.11368683772E-12  0.17120000000E+03  0.17120000000E+03 0.  0.
         13    1    1    2    0    0 -0.56555328978E+02 -0.12453535098E+03  0.76360289714E+03  0.77575573125E+03  0.10566000000E+00 0.  1.
        994    1    1    2    0    0  0.58566729856E+02  0.89476157312E+02  0.49840192951E+02  0.20791712149E+03  0.17120000000E+03 0.  0.
        998    1    1    2    0    0 -0.20114008782E+01  0.35059193672E+02  0.68655690618E+03  0.68752714726E+03  0.10000000000E+02 0. -1.
</event>
<event>
 5    1  0.1556794E-008  0.3826741E+03  0.7957747E-01  0.3439597E+00
         13   -1    0    0    0    0  0.00000000000E+00  0.00000000000E+00  0.14999999963E+04  0.15000000000E+04  0.10566000000E+00 0.  1.
        994   -1    0    0    0    0 -0.00000000000E+00 -0.00000000000E+00  0.11368683772E-12  0.17120000000E+03  0.17120000000E+03 0.  0.
         13    1    1    2    0    0  0.14774356747E+02 -0.23578938618E+02  0.15405622235E+03  0.15654896605E+03  0.10566000000E+00 0.  1.
        994    1    1    2    0    0 -0.53850342322E+01 -0.38307367932E+00  0.28859264927E+01  0.17130940987E+03  0.17120000000E+03 0.  0.
        998    1    1    2    0    0 -0.93893225144E+01  0.23962012297E+02  0.13430578474E+04  0.13433416241E+04  0.10000000000E+02 0.  1.
</event>
<event>
 5    1  0.1556794E-008  0.3710800E+03  0.7957747E-01  0.3490942E+00
         13   -1    0    0    0    0  0.00000000000E+00  0.00000000000E+00  0.14999999963E+04  0.15000000000E+04  0.10566000000E+00 0.  1.
        994   -1    0    0    0    0 -0.00000000000E+00 -0.00000000000E+00  0.11368683772E-12  0.17120000000E+03  0.17120000000E+03 0.  0.
         13    1    1    2    0    0 -0.60275993776E+02 -0.63511797598E+00  0.18641682124E+03  0.19592049715E+03  0.10566000000E+00 0.  1.
        994    1    1    2    0    0 -0.38809556997E+01 -0.10306411807E+02  0.11936757260E+02  0.17196863120E+03  0.17120000000E+03 0.  0.
        998    1    1    2    0    0  0.64156949476E+02  0.10941529783E+02  0.13016464178E+04  0.13033108717E+04  0.10000000000E+02 0.  1.
</event>
<event>
 5    1  0.1556794E-008  0.4003377E+03  0.7957747E-01  0.3367119E+00
         13   -1    0    0    0    0  0.00000000000E+00  0.00000000000E+00  0.14999999963E+04  0.15000000000E+04  0.10566000000E+00 0.  1.
        994   -1    0    0    0    0 -0.00000000000E+00 -0.00000000000E+00  0.11368683772E-12  0.17120000000E+03  0.17120000000E+03 0.  0.
         13    1    1    2    0    0 -0.75629979574E+02 -0.66289408103E+02  0.12682897839E+03  0.16186346209E+03  0.10566000000E+00 0.  1.
        994    1    1    2    0    0  0.16803035601E+03  0.38007991073E+02  0.15680060402E+03  0.28909285247E+03  0.17120000000E+03 0.  0.
        998    1    1    2    0    0 -0.92400376438E+02  0.28281417030E+02  0.12163704139E+04  0.12202436854E+04  0.10000000000E+02 0.  1.
</event>
<event>
 5    1  0.1556794E-008  0.3742485E+03  0.7957747E-01  0.3476590E+00
         13   -1    0    0    0    0  0.00000000000E+00  0.00000000000E+00  0.14999999963E+04  0.15000000000E+04  0.10566000000E+00 0.  1.
        994   -1    0    0    0    0 -0.00000000000E+00 -0.00000000000E+00  0.11368683772E-12  0.17120000000E+03  0.17120000000E+03 0.  0.
         13    1    1    2    0    0  0.48853638566E+02 -0.44846452718E+02  0.17305777703E+03  0.18532913337E+03  0.10566000000E+00 0.  1.
        994    1    1    2    0    0 -0.11334614622E+02  0.25815174727E+02  0.16029214758E+02  0.17424486351E+03  0.17120000000E+03 0.  0.
        998    1    1    2    0    0 -0.37519023944E+02  0.19031277991E+02  0.13109130045E+04  0.13116260031E+04  0.10000000000E+02 0.  1.
</event>
<event>
 5    1  0.1556794E-008  0.3693129E+03  0.7957747E-01  0.3499055E+00
         13   -1    0    0    0    0  0.00000000000E+00  0.00000000000E+00  0.14999999963E+04  0.15000000000E+04  0.10566000000E+00 0. -1.
        994   -1    0    0    0    0 -0.00000000000E+00 -0.00000000000E+00  0.11368683772E-12  0.17120000000E+03  0.17120000000E+03 0.  0.
         13    1    1    2    0    0  0.82212031358E+01  0.16253398402E+02  0.12893897700E+02  0.22316471553E+02  0.10566000000E+00 0. -1.
        994    1    1    2    0    0 -0.26444274060E+02 -0.46649823540E+01  0.12131799373E+02  0.17371724798E+03  0.17120000000E+03 0.  0.
        998    1    1    2    0    0  0.18223070924E+02 -0.11588416048E+02  0.14749742992E+04  0.14751662805E+04  0.10000000000E+02 0. -1.
</event>
<event>
 5    1  0.1556794E-008  0.3792486E+03  0.7957747E-01  0.3454437E+00
         13   -1    0    0    0    0  0.00000000000E+00  0.00000000000E+00  0.14999999963E+04  0.15000000000E+04  0.10566000000E+00 0.  1.
        994   -1    0    0    0    0 -0.00000000000E+00 -0.00000000000E+00  0.11368683772E-12  0.17120000000E+03  0.17120000000E+03 0.  0.
         13    1    1    2    0    0 -0.19736784342E+02  0.19441753873E+02  0.94943561825E+02  0.98903051247E+02  0.10566000000E+00 0.  1.
        994    1    1    2    0    0 -0.50146089591E+01  0.80920089203E+01  0.48166788631E+01  0.17153211742E+03  0.17120000000E+03 0.  0.
        998    1    1    2    0    0  0.24751393301E+02 -0.27533762793E+02  0.14002397556E+04  0.14007648313E+04  0.10000000000E+02 0.  1.
</event>
<event>
 5    1  0.1556794E-008  0.3828403E+03  0.7957747E-01  0.3438884E+00
         13   -1    0    0    0    0  0.00000000000E+00  0.00000000000E+00  0.14999999963E+04  0.15000000000E+04  0.10566000000E+00 0.  1.
        994   -1    0    0    0    0 -0.00000000000E+00 -0.00000000000E+00  0.11368683772E-12  0.17120000000E+03  0.17120000000E+03 0.  0.
         13    1    1    2    0    0  0.25655921805E+02  0.22826642392E+02  0.18470377790E+03  0.18786904657E+03  0.10566000000E+00 0.  1.
        994    1    1    2    0    0 -0.36899616426E+02 -0.18128617352E+02  0.83242218194E+01  0.17626389627E+03  0.17120000000E+03 0.  0.
        998    1    1    2    0    0  0.11243694621E+02 -0.46980250400E+01  0.13069719966E+04  0.13070670572E+04  0.10000000000E+02 0.  1.
</event>
<event>
 5    1  0.1556794E-008  0.3857765E+03  0.7957747E-01  0.3426386E+00
         13   -1    0    0    0    0  0.00000000000E+00  0.00000000000E+00  0.14999999963E+04  0.15000000000E+04  0.10566000000E+00 0.  1.
        994   -1    0    0    0    0 -0.00000000000E+00 -0.00000000000E+00  0.11368683772E-12  0.17120000000E+03  0.17120000000E+03 0.  0.
         13    1    1    2    0    0  0.88836278124E+01 -0.93592220562E+01  0.63563079750E+02  0.64859772987E+02  0.10566000000E+00 0.  1.
        994    1    1    2    0    0 -0.94476490120E+01  0.14431667655E+02  0.22217385100E+01  0.17208110653E+03  0.17120000000E+03 0.  0.
        998    1    1    2    0    0  0.56402119960E+00 -0.50724455991E+01  0.14342151780E+04  0.14342591205E+04  0.10000000000E+02 0.  1.
</event>
<event>
 5    1  0.1556794E-008  0.3853817E+03  0.7957747E-01  0.3428055E+00
         13   -1    0    0    0    0  0.00000000000E+00  0.00000000000E+00  0.14999999963E+04  0.15000000000E+04  0.10566000000E+00 0. -1.
        994   -1    0    0    0    0 -0.00000000000E+00 -0.00000000000E+00  0.11368683772E-12  0.17120000000E+03  0.17120000000E+03 0.  0.
         13    1    1    2    0    0 -0.14773710621E+01 -0.12515980142E+02  0.54186800554E+02  0.55633199643E+02  0.10566000000E+00 0. -1.
        994    1    1    2    0    0  0.18514068200E+01  0.11628809472E+02  0.18962992256E+01  0.17161495526E+03  0.17120000000E+03 0.  0.
        998    1    1    2    0    0 -0.37403575791E+00  0.88717066912E+00  0.14439168965E+04  0.14439518451E+04  0.10000000000E+02 0. -1.
</event>
<event>
 5    1  0.1556794E-008  0.3851720E+03  0.7957747E-01  0.3428943E+00
         13   -1    0    0    0    0  0.00000000000E+00  0.00000000000E+00  0.14999999963E+04  0.15000000000E+04  0.10566000000E+00 0.  1.
        994   -1    0    0    0    0 -0.00000000000E+00 -0.00000000000E+00  0.11368683772E-12  0.17120000000E+03  0.17120000000E+03 0.  0.
         13    1    1    2    0    0 -0.11783447201E+02  0.32183018907E+01  0.46845815273E+02  0.48412278067E+02  0.10566000000E+00 0.  1.
        994    1    1    2    0    0  0.13509991197E+02 -0.28309480029E+01  0.21712858656E+01  0.17176928891E+03  0.17120000000E+03 0.  0.
        998    1    1    2    0    0 -0.17265439955E+01 -0.38735388780E+00  0.14509828951E+04  0.14510184330E+04  0.10000000000E+02 0.  1.
</event>
<event>
 5    1  0.1556794E-008  0.3703703E+03  0.7957747E-01  0.3494191E+00
         13   -1    0    0    0    0  0.00000000000E+00  0.00000000000E+00  0.14999999963E+04  0.15000000000E+04  0.10566000000E+00 0. -1.
        994   -1    0    0    0    0 -0.00000000000E+00 -0.00000000000E+00  0.11368683772E-12  0.17120000000E+03  0.17120000000E+03 0.  0.
         13    1    1    2    0    0  0.85109231895E+02 -0.42989069724E+02  0.40507391599E+03  0.41614484263E+03  0.10566000000E+00 0. -1.
        994    1    1    2    0    0 -0.78004448722E+02  0.26349751710E+02  0.32863266582E+02  0.19279117647E+03  0.17120000000E+03 0.  0.
        998    1    1    2    0    0 -0.71047831729E+01  0.16639318015E+02  0.10620628137E+04  0.10622639809E+04  0.10000000000E+02 0. -1.
</event>
<event>
 5    1  0.1556794E-008  0.3782316E+03  0.7957747E-01  0.3458895E+00
         13   -1    0    0    0    0  0.00000000000E+00  0.00000000000E+00  0.14999999963E+04  0.15000000000E+04  0.10566000000E+00 0.  1.
        994   -1    0    0    0    0 -0.00000000000E+00 -0.00000000000E+00  0.11368683772E-12  0.17120000000E+03  0.17120000000E+03 0.  0.
         13    1    1    2    0    0  0.62970501566E+02 -0.84529887101E+00  0.10718504535E+03  0.12431670727E+03  0.10566000000E+00 0.  1.
        994    1    1    2    0    0 -0.83826237002E+02  0.21909334799E+02  0.42909196011E+02  0.19661509623E+03  0.17120000000E+03 0.  0.
        998    1    1    2    0    0  0.20855735436E+02 -0.21064035928E+02  0.13499057549E+04  0.13502681965E+04  0.10000000000E+02 0.  1.
</event>
<event>
 5    1  0.1556794E-008  0.3795290E+03  0.7957747E-01  0.3453212E+00
         13   -1    0    0    0    0  0.00000000000E+00  0.00000000000E+00  0.14999999963E+04  0.15000000000E+04  0.10566000000E+00 0. -1.
        994   -1    0    0    0    0 -0.00000000000E+00 -0.00000000000E+00  0.11368683772E-12  0.17120000000E+03  0.17120000000E+03 0.  0.
         13    1    1    2    0    0  0.91395231785E+01  0.13202221984E+02  0.27486207326E+02  0.31832880900E+02  0.10566000000E+00 0. -1.
        994    1    1    2    0    0 -0.11751713471E+01 -0.16151403937E+02  0.52496437979E+01  0.17204431882E+03  0.17120000000E+03 0.  0.
        998    1    1    2    0    0 -0.79643518314E+01  0.29491819531E+01  0.14672641452E+04  0.14673228003E+04  0.10000000000E+02 0. -1.
</event>
<event>
 5    1  0.1556794E-008  0.3749710E+03  0.7957747E-01  0.3473352E+00
         13   -1    0    0    0    0  0.00000000000E+00  0.00000000000E+00  0.14999999963E+04  0.15000000000E+04  0.10566000000E+00 0.  1.
        994   -1    0    0    0    0 -0.00000000000E+00 -0.00000000000E+00  0.11368683772E-12  0.17120000000E+03  0.17120000000E+03 0.  0.
         13    1    1    2    0    0 -0.45656042451E+02 -0.18551553544E+01  0.14373308858E+03  0.15082150951E+03  0.10566000000E+00 0.  1.
        994    1    1    2    0    0  0.41145003925E+02 -0.12258578757E+02  0.12985449282E+02  0.17697809467E+03  0.17120000000E+03 0.  0.
        998    1    1    2    0    0  0.45110385254E+01  0.14113734112E+02  0.13432814584E+04  0.13434003958E+04  0.10000000000E+02 0.  1.
</event>
<event>
 5    1  0.1556794E-008  0.3779219E+03  0.7957747E-01  0.3460257E+00
         13   -1    0    0    0    0  0.00000000000E+00  0.00000000000E+00  0.14999999963E+04  0.15000000000E+04  0.10566000000E+00 0.  1.
        994   -1    0    0    0    0 -0.00000000000E+00 -0.00000000000E+00  0.11368683772E-12  0.17120000000E+03  0.17120000000E+03 0.  0.
         13    1    1    2    0    0  0.17961445866E+02 -0.13743285732E+03  0.43773122254E+03  0.45915034374E+03  0.10566000000E+00 0.  1.
        994    1    1    2    0    0 -0.35131552133E+02  0.13102990153E+03  0.84732705431E+02  0.23429070067E+03  0.17120000000E+03 0.  0.
        998    1    1    2    0    0  0.17170106267E+02  0.64029557913E+01  0.97753606831E+03  0.97775895559E+03  0.10000000000E+02 0.  1.
</event>
<event>
 5    1  0.1556794E-008  0.3799472E+03  0.7957747E-01  0.3451388E+00
         13   -1    0    0    0    0  0.00000000000E+00  0.00000000000E+00  0.14999999963E+04  0.15000000000E+04  0.10566000000E+00 0. -1.
        994   -1    0    0    0    0 -0.00000000000E+00 -0.00000000000E+00  0.11368683772E-12  0.17120000000E+03  0.17120000000E+03 0.  0.
         13    1    1    2    0    0 -0.15854247661E+02 -0.11616983616E+02  0.40597581074E+02  0.45105279407E+02  0.10566000000E+00 0. -1.
        994    1    1    2    0    0  0.25457820640E+02  0.36153790226E+02  0.10724858446E+02  0.17714304888E+03  0.17120000000E+03 0.  0.
        998    1    1    2    0    0 -0.96035729797E+01 -0.24536806610E+02  0.14486775568E+04  0.14489516717E+04  0.10000000000E+02 0. -1.
</event>
<event>
 5    1  0.1556794E-008  0.3762954E+03  0.7957747E-01  0.3467450E+00
         13   -1    0    0    0    0  0.00000000000E+00  0.00000000000E+00  0.14999999963E+04  0.15000000000E+04  0.10566000000E+00 0.  1.
        994   -1    0    0    0    0 -0.00000000000E+00 -0.00000000000E+00  0.11368683772E-12  0.17120000000E+03  0.17120000000E+03 0.  0.
         13    1    1    2    0    0 -0.17471542795E+02 -0.31268841138E+02  0.11196316351E+03  0.11755320659E+03  0.10566000000E+00 0.  1.
        994    1    1    2    0    0 -0.46161899092E+01  0.10671570833E+02  0.64727000287E+01  0.17171641587E+03  0.17120000000E+03 0.  0.
        998    1    1    2    0    0  0.22087732704E+02  0.20597270305E+02  0.13815641327E+04  0.13819303775E+04  0.10000000000E+02 0.  1.
</event>
<event>
 5    1  0.1556794E-008  0.3859360E+03  0.7957747E-01  0.3425712E+00
         13   -1    0    0    0    0  0.00000000000E+00  0.00000000000E+00  0.14999999963E+04  0.15000000000E+04  0.10566000000E+00 0.  1.
        994   -1    0    0    0    0 -0.00000000000E+00 -0.00000000000E+00  0.11368683772E-12  0.17120000000E+03  0.17120000000E+03 0.  0.
         13    1    1    2    0    0  0.21472289292E+01 -0.12461860219E+02  0.69706485294E+02  0.70844292701E+02  0.10566000000E+00 0.  1.
        994    1    1    2    0    0 -0.70518202134E+00  0.76090412048E+01  0.13576001181E+01  0.17137583805E+03  0.17120000000E+03 0.  0.
        998    1    1    2    0    0 -0.14420469079E+01  0.48528190138E+01  0.14289359109E+04  0.14289798692E+04  0.10000000000E+02 0.  1.
</event>
<event>
 5    1  0.1568460E-008  0.3861435E+03  0.7957747E-01  0.3424837E+00
         13   -1    0    0    0    0  0.00000000000E+00  0.00000000000E+00  0.14999999963E+04  0.15000000000E+04  0.10566000000E+00 0.  1.
        994   -1    0    0    0    0 -0.00000000000E+00 -0.00000000000E+00  0.11368683772E-12  0.17120000000E+03  0.17120000000E+03 0.  0.
         13    1    1    2    0    0 -0.93047850601E+01  0.42678066401E+01  0.51077313638E+02  0.52093150519E+02  0.10566000000E+00 0.  1.
        994    1    1    2    0    0  0.37040955035E+01 -0.92330897632E+00  0.11112239238E+01  0.17124616095E+03  0.17120000000E+03 0.  0.
        998    1    1    2    0    0  0.56006895566E+01 -0.33444976638E+01  0.14478114587E+04  0.14478606885E+04  0.10000000000E+02 0.  1.
</event>
<event>
 5    1  0.1556794E-008  0.3822823E+03  0.7957747E-01  0.3441281E+00
         13   -1    0    0    0    0  0.00000000000E+00  0.00000000000E+00  0.14999999963E+04  0.15000000000E+04  0.10566000000E+00 0.  1.
        994   -1    0    0    0    0 -0.00000000000E+00 -0.00000000000E+00  0.11368683772E-12  0.17120000000E+03  0.17120000000E+03 0.  0.
         13    1    1    2    0    0  0.96145935902E+01  0.20747493518E+02  0.95802603004E+02  0.98493902367E+02  0.10566000000E+00 0.  1.
        994    1    1    2    0    0 -0.18306599090E+01  0.39264894682E+01  0.30477510401E+01  0.17128192380E+03  0.17120000000E+03 0.  0.
        998    1    1    2    0    0 -0.77839336812E+01 -0.24673982986E+02  0.14011496422E+04  0.14014241738E+04  0.10000000000E+02 0.  1.
</event>
<event>
 5    1  0.1556794E-008  0.3715540E+03  0.7957747E-01  0.3488780E+00
         13   -1    0    0    0    0  0.00000000000E+00  0.00000000000E+00  0.14999999963E+04  0.15000000000E+04  0.10566000000E+00 0.  1.
        994   -1    0    0    0    0 -0.00000000000E+00 -0.00000000000E+00  0.11368683772E-12  0.17120000000E+03  0.17120000000E+03 0.  0.
         13    1    1    2    0    0 -0.93160109984E+01  0.28619387177E+02  0.32954908101E+02  0.44630645473E+02  0.10566000000E+00 0.  1.
        994    1    1    2    0    0  0.13467900807E+02 -0.28414124052E+02  0.15246306964E+02  0.17473018249E+03  0.17120000000E+03 0.  0.
        998    1    1    2    0    0 -0.41518898084E+01 -0.20526312498E+00  0.14517987812E+04  0.14518391720E+04  0.10000000000E+02 0.  1.
</event>
<event>
 5    1  0.1556794E-008  0.3860252E+03  0.7957747E-01  0.3425336E+00
         13   -1    0    0    0    0  0.00000000000E+00  0.00000000000E+00  0.14999999963E+04  0.15000000000E+04  0.10566000000E+00 0.  1.
        994   -1    0    0    0    0 -0.00000000000E+00 -0.00000000000E+00  0.11368683772E-12  0.17120000000E+03  0.17120000000E+03 0.  0.
         13    1    1    2    0    0 -0.48211507070E+01 -0.21530062858E+02  0.12965599607E+03  0.13151986763E+03  0.10566000000E+00 0.  1.
        994    1    1    2    0    0  0.20508065198E+02  0.64645962350E+02  0.16346293099E+02  0.18486839233E+03  0.17120000000E+03 0.  0.
        998    1    1    2    0    0 -0.15686914491E+02 -0.43115899493E+02  0.13539977071E+04  0.13548117400E+04  0.10000000000E+02 0.  1.
</event>
<event>
 5    1  0.1556794E-008  0.3858677E+03  0.7957747E-01  0.3426001E+00
         13   -1    0    0    0    0  0.00000000000E+00  0.00000000000E+00  0.14999999963E+04  0.15000000000E+04  0.10566000000E+00 0.  1.
        994   -1    0    0    0    0 -0.00000000000E+00 -0.00000000000E+00  0.11368683772E-12  0.17120000000E+03  0.17120000000E+03 0.  0.
         13    1    1    2    0    0 -0.12203679302E+02 -0.13347591900E+01  0.66414164576E+02  0.67539349945E+02  0.10566000000E+00 0.  1.
        994    1    1    2    0    0  0.25881287317E+01 -0.50308115993E+01  0.13049356893E+01  0.17129842478E+03  0.17120000000E+03 0.  0.
        998    1    1    2    0    0  0.96155505707E+01  0.63655707893E+01  0.14322808960E+04  0.14323622253E+04  0.10000000000E+02 0.  1.
</event>
<event>
 5    1  0.1556794E-008  0.3807084E+03  0.7957747E-01  0.3448080E+00
         13   -1    0    0    0    0  0.00000000000E+00  0.00000000000E+00  0.14999999963E+04  0.15000000000E+04  0.10566000000E+00 0. -1.
        994   -1    0    0    0    0 -0.00000000000E+00 -0.00000000000E+00  0.11368683772E-12  0.17120000000E+03  0.17120000000E+03 0.  0.
         13    1    1    2    0    0 -0.40174963027E+02  0.44687463729E+02  0.36262576827E+03  0.36757102178E+03  0.10566000000E+00 0. -1.
        994    1    1    2    0    0  0.42042153199E+02 -0.43412443671E+02  0.16053880897E+02  0.18226176232E+03  0.17120000000E+03 0.  0.
        998    1    1    2    0    0 -0.18671901716E+01 -0.12750200586E+01  0.11213203471E+04  0.11213672159E+04  0.10000000000E+02 0.  0.
</event>
<event>
 5    1  0.1556794E-008  0.3709982E+03  0.7957747E-01  0.3491316E+00
         13   -1    0    0    0    0  0.00000000000E+00  0.00000000000E+00  0.14999999963E+04  0.15000000000E+04  0.10566000000E+00 0. -1.
        994   -1    0    0    0    0 -0.00000000000E+00 -0.00000000000E+00  0.11368683772E-12  0.17120000000E+03  0.17120000000E+03 0.  0.
         13    1    1    2    0    0 -0.27676969603E+02  0.51265913046E+02  0.22115066993E+03  0.22869595200E+03  0.10566000000E+00 0. -1.
        994    1    1    2    0    0  0.33156327670E+02  0.68728649041E+01  0.12709382403E+02  0.17497870367E+03  0.17120000000E+03 0.  0.
        998    1    1    2    0    0 -0.54793580676E+01 -0.58138777950E+02  0.12661399439E+04  0.12675253443E+04  0.10000000000E+02 0. -1.
</event>
<event>
 5    1  0.1556794E-008  0.3849590E+03  0.7957747E-01  0.3429846E+00
         13   -1    0    0    0    0  0.00000000000E+00  0.00000000000E+00  0.14999999963E+04  0.15000000000E+04  0.10566000000E+00 0.  1.
        994   -1    0    0    0    0 -0.00000000000E+00 -0.00000000000E+00  0.11368683772E-12  0.17120000000E+03  0.17120000000E+03 0.  0.
         13    1    1    2    0    0  0.98629663758E+01 -0.65493573188E+01  0.41274901384E+02  0.42939502039E+02  0.10566000000E+00 0.  1.
        994    1    1    2    0    0 -0.12298721892E+02  0.49620730860E+01  0.22291983414E+01  0.17172737130E+03  0.17120000000E+03 0.  0.
        998    1    1    2    0    0  0.24357555164E+01  0.15872842328E+01  0.14564958966E+04  0.14565331267E+04  0.10000000000E+02 0.  1.
</event>
<event>
 5    1  0.1556794E-008  0.3840149E+03  0.7957747E-01  0.3433861E+00
         13   -1    0    0    0    0  0.00000000000E+00  0.00000000000E+00  0.14999999963E+04  0.15000000000E+04  0.10566000000E+00 0. -1.
        994   -1    0    0    0    0 -0.00000000000E+00 -0.00000000000E+00  0.11368683772E-12  0.17120000000E+03  0.17120000000E+03 0.  0.
         13    1    1    2    0    0 -0.23390963360E+02 -0.51267045350E+01  0.12844866132E+03  0.13066173895E+03  0.10566000000E+00 0. -1.
        994    1    1    2    0    0  0.20112487067E+02  0.53906174270E+01  0.35517681444E+01  0.17249819115E+03  0.17120000000E+03 0.  0.
        998    1    1    2    0    0  0.32784762921E+01 -0.26391289193E+00  0.13679995668E+04  0.13680400699E+04  0.10000000000E+02 0. -1.
</event>
<event>
 5    1  0.1556794E-008  0.3784358E+03  0.7957747E-01  0.3457998E+00
         13   -1    0    0    0    0  0.00000000000E+00  0.00000000000E+00  0.14999999963E+04  0.15000000000E+04  0.10566000000E+00 0.  1.
        994   -1    0    0    0    0 -0.00000000000E+00 -0.00000000000E+00  0.11368683772E-12  0.17120000000E+03  0.17120000000E+03 0.  0.
         13    1    1    2    0    0  0.26959628178E+01  0.51267724128E+02  0.25265222532E+03  0.25781544925E+03  0.10566000000E+00 0.  1.
        994    1    1    2    0    0 -0.10971149066E+02 -0.35526804891E+02  0.95845519037E+01  0.17545319493E+03  0.17120000000E+03 0.  0.
        998    1    1    2    0    0  0.82751862483E+01 -0.15740919237E+02  0.12377632191E+04  0.12379313558E+04  0.10000000000E+02 0.  1.
</event>
<event>
 5    1  0.1556794E-008  0.3811544E+03  0.7957747E-01  0.3446147E+00
         13   -1    0    0    0    0  0.00000000000E+00  0.00000000000E+00  0.14999999963E+04  0.15000000000E+04  0.10566000000E+00 0. -1.
        994   -1    0    0    0    0 -0.00000000000E+00 -0.00000000000E+00  0.11368683772E-12  0.17120000000E+03  0.17120000000E+03 0.  0.
         13    1    1    2    0    0  0.12751278901E+00 -0.21555237195E+02  0.65628994784E+02  0.69078365864E+02  0.10566000000E+00 0. -1.
        994    1    1    2    0    0  0.14274467228E+01  0.88133200478E+01  0.38170422604E+01  0.17147513530E+03  0.17120000000E+03 0.  0.
        998    1    1    2    0    0 -0.15549595118E+01  0.12741917148E+02  0.14305539592E+04  0.14306464988E+04  0.10000000000E+02 0. -1.
</event>
<event>
 5    1  0.1556794E-008  0.3856998E+03  0.7957747E-01  0.3426710E+00
         13   -1    0    0    0    0  0.00000000000E+00  0.00000000000E+00  0.14999999963E+04  0.15000000000E+04  0.10566000000E+00 0.  1.
        994   -1    0    0    0    0 -0.00000000000E+00 -0.00000000000E+00  0.11368683772E-12  0.17120000000E+03  0.17120000000E+03 0.  0.
         13    1    1    2    0    0 -0.10537086174E+02 -0.34643597642E+01  0.47820712536E+02  0.49090362447E+02  0.10566000000E+00 0.  1.
        994    1    1    2    0    0  0.10175068368E+02 -0.19989396289E+01  0.16360052905E+01  0.17152155634E+03  0.17120000000E+03 0.  0.
        998    1    1    2    0    0  0.36201780636E+00  0.54632993932E+01  0.14505432785E+04  0.14505880812E+04  0.10000000000E+02 0.  1.
</event>
<event>
 5    1  0.1556794E-008  0.3718039E+03  0.7957747E-01  0.3487642E+00
         13   -1    0    0    0    0  0.00000000000E+00  0.00000000000E+00  0.14999999963E+04  0.15000000000E+04  0.10566000000E+00 0.  1.
        994   -1    0    0    0    0 -0.00000000000E+00 -0.00000000000E+00  0.11368683772E-12  0.17120000000E+03  0.17120000000E+03 0.  0.
         13    1    1    2    0    0  0.10632980405E+02 -0.71007028923E+02  0.25788222870E+03  0.26769070486E+03  0.10566000000E+00 0.  1.
        994    1    1    2    0    0  0.84685504414E+00  0.81563485585E+01  0.12132460401E+02  0.17182514304E+03  0.17120000000E+03 0.  0.
        998    1    1    2    0    0 -0.11479835449E+02  0.62850680365E+02  0.12299853072E+04  0.12316841521E+04  0.10000000000E+02 0.  1.
</event>
<event>
 5    1  0.1556794E-008  0.3852277E+03  0.7957747E-01  0.3428707E+00
         13   -1    0    0    0    0  0.00000000000E+00  0.00000000000E+00  0.14999999963E+04  0.15000000000E+04  0.10566000000E+00 0. -1.
        994   -1    0    0    0    0 -0.00000000000E+00 -0.00000000000E+00  0.11368683772E-12  0.17120000000E+03  0.17120000000E+03 0.  0.
         13    1    1    2    0    0 -0.94804237203E+01  0.53361148566E+01  0.35310182888E+02  0.36948244008E+02  0.10566000000E+00 0. -1.
        994    1    1    2    0    0  0.22932837556E+02 -0.15741247769E+02  0.40638195021E+01  0.17349252592E+03  0.17120000000E+03 0.  0.
        998    1    1    2    0    0 -0.13452413836E+02  0.10405132912E+02  0.14606259939E+04  0.14607592301E+04  0.10000000000E+02 0. -1.
</event>
<event>
 5    1  0.1556794E-008  0.3850140E+03  0.7957747E-01  0.3429613E+00
         13   -1    0    0    0    0  0.00000000000E+00  0.00000000000E+00  0.14999999963E+04  0.15000000000E+04  0.10566000000E+00 0.  1.
        994   -1    0    0    0    0 -0.00000000000E+00 -0.00000000000E+00  0.11368683772E-12  0.17120000000E+03  0.17120000000E+03 0.  0.
         13    1    1    2    0    0 -0.57186270924E+01 -0.11055164521E+02  0.48040043694E+02  0.49626367190E+02  0.10566000000E+00 0.  1.
        994    1    1    2    0    0  0.83834138141E+00  0.73231552083E+01  0.18018903287E+01  0.17136807820E+03  0.17120000000E+03 0.  0.
        998    1    1    2    0    0  0.48802857110E+01  0.37320093130E+01  0.14501580623E+04  0.14502055546E+04  0.10000000000E+02 0.  1.
</event>
<event>
 5    1  0.1556794E-008  0.3788703E+03  0.7957747E-01  0.3456092E+00
         13   -1    0    0    0    0  0.00000000000E+00  0.00000000000E+00  0.14999999963E+04  0.15000000000E+04  0.10566000000E+00 0. -1.
        994   -1    0    0    0    0 -0.00000000000E+00 -0.00000000000E+00  0.11368683772E-12  0.17120000000E+03  0.17120000000E+03 0.  0.
         13    1    1    2    0    0  0.37414997739E+02 -0.79979005039E+01  0.13828516327E+03  0.14348047259E+03  0.10566000000E+00 0. -1.
        994    1    1    2    0    0 -0.41302031855E+02  0.57264476743E+01  0.10560682127E+02  0.17652087142E+03  0.17120000000E+03 0.  0.
        998    1    1    2    0    0  0.38870341155E+01  0.22714528296E+01  0.13511541509E+04  0.13511986560E+04  0.10000000000E+02 0. -1.
</event>
<event>
 5    1  0.1556794E-008  0.3825435E+03  0.7957747E-01  0.3440158E+00
         13   -1    0    0    0    0  0.00000000000E+00  0.00000000000E+00  0.14999999963E+04  0.15000000000E+04  0.10566000000E+00 0.  1.
        994   -1    0    0    0    0 -0.00000000000E+00 -0.00000000000E+00  0.11368683772E-12  0.17120000000E+03  0.17120000000E+03 0.  0.
         13    1    1    2    0    0  0.15707517328E+02  0.34020934332E+01  0.45709695709E+02  0.48452944040E+02  0.10566000000E+00 0.  1.
        994    1    1    2    0    0  0.45161694521E+01 -0.39557298162E+02  0.81274931757E+01  0.17595644850E+03  0.17120000000E+03 0.  0.
        998    1    1    2    0    0 -0.20223686780E+02  0.36155204729E+02  0.14461628074E+04  0.14467906075E+04  0.10000000000E+02 0.  1.
</event>
<event>
 5    1  0.1556794E-008  0.3837640E+03  0.7957747E-01  0.3434931E+00
         13   -1    0    0    0    0  0.00000000000E+00  0.00000000000E+00  0.14999999963E+04  0.15000000000E+04  0.10566000000E+00 0.  1.
        994   -1    0    0    0    0 -0.00000000000E+00 -0.00000000000E+00  0.11368683772E-12  0.17120000000E+03  0.17120000000E+03 0.  0.
         13    1    1    2    0    0  0.17024703371E+02  0.42057868979E+01  0.76835438608E+02  0.78811325064E+02  0.10566000000E+00 0.  1.
        994    1    1    2    0    0  0.98471114003E+01 -0.28405364152E+01  0.25919313998E+01  0.17152606903E+03  0.17120000000E+03 0.  0.
        998    1    1    2    0    0 -0.26871814771E+02 -0.13652504827E+01  0.14205726263E+04  0.14208626059E+04  0.10000000000E+02 0.  1.
</event>
<event>
 5    1  0.1556794E-008  0.3786066E+03  0.7957747E-01  0.3457248E+00
         13   -1    0    0    0    0  0.00000000000E+00  0.00000000000E+00  0.14999999963E+04  0.15000000000E+04  0.10566000000E+00 0.  1.
        994   -1    0    0    0    0 -0.00000000000E+00 -0.00000000000E+00  0.11368683772E-12  0.17120000000E+03  0.17120000000E+03 0.  0.
         13    1    1    2    0    0  0.21630988777E+01 -0.16131280231E+02  0.28078397396E+02  0.32454657031E+02  0.10566000000E+00 0.  1.
        994    1    1    2    0    0 -0.16623350410E+02 -0.26939523912E+02  0.82108839831E+01  0.17429553162E+03  0.17120000000E+03 0.  0.
        998    1    1    2    0    0  0.14460251533E+02  0.43070804142E+02  0.14637107149E+04  0.14644498113E+04  0.10000000000E+02 0.  1.
</event>
<event>
 5    1  0.1556794E-008  0.4092269E+03  0.7957747E-01  0.3333002E+00
         13   -1    0    0    0    0  0.00000000000E+00  0.00000000000E+00  0.14999999963E+04  0.15000000000E+04  0.10566000000E+00 0.  1.
        994   -1    0    0    0    0 -0.00000000000E+00 -0.00000000000E+00  0.11368683772E-12  0.17120000000E+03  0.17120000000E+03 0.  0.
         13    1    1    2    0    0 -0.65548014454E+02 -0.14836651457E+03  0.31716586834E+03  0.35623498432E+03  0.10566000000E+00 0.  1.
        994    1    1    2    0    0  0.77766264359E+02  0.12160089987E+03  0.12457051366E+03  0.25624524112E+03  0.17120000000E+03 0.  0.
        998    1    1    2    0    0 -0.12218249905E+02  0.26765614702E+02  0.10582636143E+04  0.10587197746E+04  0.10000000000E+02 0. -1.
</event>
<event>
 5    1  0.1556794E-008  0.3709040E+03  0.7957747E-01  0.3491747E+00
         13   -1    0    0    0    0  0.00000000000E+00  0.00000000000E+00  0.14999999963E+04  0.15000000000E+04  0.10566000000E+00 0. -1.
        994   -1    0    0    0    0 -0.00000000000E+00 -0.00000000000E+00  0.11368683772E-12  0.17120000000E+03  0.17120000000E+03 0.  0.
         13    1    1    2    0    0 -0.22175899475E+02 -0.12045493704E+02  0.23383722436E+02  0.34404564743E+02  0.10566000000E+00 0. -1.
        994    1    1    2    0    0  0.13267647796E+02  0.37375785200E+01  0.12084228958E+02  0.17217859496E+03  0.17120000000E+03 0.  0.
        998    1    1    2    0    0  0.89082516797E+01  0.83079151838E+01  0.14645320449E+04  0.14646168403E+04  0.10000000000E+02 0. -1.
</event>
<event>
 5    1  0.1556794E-008  0.3848131E+03  0.7957747E-01  0.3430465E+00
         13   -1    0    0    0    0  0.00000000000E+00  0.00000000000E+00  0.14999999963E+04  0.15000000000E+04  0.10566000000E+00 0.  1.
        994   -1    0    0    0    0 -0.00000000000E+00 -0.00000000000E+00  0.11368683772E-12  0.17120000000E+03  0.17120000000E+03 0.  0.
         13    1    1    2    0    0  0.41836153203E+01  0.13320430092E+02  0.59336011128E+02  0.60956622901E+02  0.10566000000E+00 0.  1.
        994    1    1    2    0    0 -0.44359981304E+01  0.41774911225E+00  0.17882682698E+01  0.17126730715E+03  0.17120000000E+03 0.  0.
        998    1    1    2    0    0  0.25238281007E+00 -0.13738179204E+02  0.14388757169E+04  0.14389760700E+04  0.10000000000E+02 0.  1.
</event>
<event>
 5    1  0.1556794E-008  0.3858715E+03  0.7957747E-01  0.3425984E+00
         13   -1    0    0    0    0  0.00000000000E+00  0.00000000000E+00  0.14999999963E+04  0.15000000000E+04  0.10566000000E+00 0. -1.
        994   -1    0    0    0    0 -0.00000000000E+00 -0.00000000000E+00  0.11368683772E-12  0.17120000000E+03  0.17120000000E+03 0.  0.
         13    1    1    2    0    0 -0.33818383958E+01 -0.11478968978E+02  0.65576266409E+02  0.66659293725E+02  0.10566000000E+00 0. -1.
        994    1    1    2    0    0 -0.30506796621E+01 -0.23236063951E+01  0.12462853985E+01  0.17124747887E+03  0.17120000000E+03 0.  0.
        998    1    1    2    0    0  0.64325180578E+01  0.13802575373E+02  0.14331774445E+04  0.14332932274E+04  0.10000000000E+02 0. -1.
</event>
<event>
 5    1  0.1556794E-008  0.3812096E+03  0.7957747E-01  0.3445909E+00
         13   -1    0    0    0    0  0.00000000000E+00  0.00000000000E+00  0.14999999963E+04  0.15000000000E+04  0.10566000000E+00 0. -1.
        994   -1    0    0    0    0 -0.00000000000E+00 -0.00000000000E+00  0.11368683772E-12  0.17120000000E+03  0.17120000000E+03 0.  0.
         13    1    1    2    0    0 -0.58997116282E+01 -0.11342783455E+02  0.21469202100E+02  0.24988059882E+02  0.10566000000E+00 0. -1.
        994    1    1    2    0    0  0.12769673978E+02  0.89733796618E+01  0.43352730090E+01  0.17196459144E+03  0.17120000000E+03 0.  0.
        998    1    1    2    0    0 -0.68699623499E+01  0.23694037932E+01  0.14741955212E+04  0.14742473487E+04  0.10000000000E+02 0. -1.
</event>
<event>
 5    1  0.1556794E-008  0.3803040E+03  0.7957747E-01  0.3449836E+00
         13   -1    0    0    0    0  0.00000000000E+00  0.00000000000E+00  0.14999999963E+04  0.15000000000E+04  0.10566000000E+00 0. -1.
        994   -1    0    0    0    0 -0.00000000000E+00 -0.00000000000E+00  0.11368683772E-12  0.17120000000E+03  0.17120000000E+03 0.  0.
         13    1    1    2    0    0  0.81413973903E+01 -0.19585927666E+02  0.53081921259E+02  0.57162858944E+02  0.10566000000E+00 0. -1.
        994    1    1    2    0    0 -0.11776622922E+02  0.20167971445E+02  0.58033997585E+01  0.17288306848E+03  0.17120000000E+03 0.  0.
        998    1    1    2    0    0  0.36352255321E+01 -0.58204377857E+00  0.14411146753E+04  0.14411540726E+04  0.10000000000E+02 0. -1.
</event>
<event>
 5    1  0.1556794E-008  0.3706376E+03  0.7957747E-01  0.3492966E+00
         13   -1    0    0    0    0  0.00000000000E+00  0.00000000000E+00  0.14999999963E+04  0.15000000000E+04  0.10566000000E+00 0. -1.
        994   -1    0    0    0    0 -0.00000000000E+00 -0.00000000000E+00  0.11368683772E-12  0.17120000000E+03  0.17120000000E+03 0.  0.
         13    1    1    2    0    0  0.46603821946E+02  0.41260566238E+01  0.92215564960E+02  0.10340532940E+03  0.10566000000E+00 0. -1.
        994    1    1    2    0    0 -0.32287643089E+02 -0.83504596835E+01  0.15183338793E+02  0.17507768519E+03  0.17120000000E+03 0.  0.
        998    1    1    2    0    0 -0.14316178857E+02  0.42244030597E+01  0.13926010925E+04  0.13927169854E+04  0.10000000000E+02 0. -1.
</event>
<event>
 5    1  0.1556794E-008  0.3786009E+03  0.7957747E-01  0.3457273E+00
         13   -1    0    0    0    0  0.00000000000E+00  0.00000000000E+00  0.14999999963E+04  0.15000000000E+04  0.10566000000E+00 0.  1.
        994   -1    0    0    0    0 -0.00000000000E+00 -0.00000000000E+00  0.11368683772E-12  0.17120000000E+03  0.17120000000E+03 0.  0.
         13    1    1    2    0    0 -0.19781113925E+02 -0.16748812399E+02  0.72489516849E+02  0.76984130845E+02  0.10566000000E+00 0.  1.
        994    1    1    2    0    0 -0.14233721667E+02  0.16556218827E+02  0.64437177777E+01  0.17270688670E+03  0.17120000000E+03 0.  0.
        998    1    1    2    0    0  0.34014835592E+02  0.19259357233E+00  0.14210667617E+04  0.14215089825E+04  0.10000000000E+02 0.  1.
</event>
<event>
 5    1  0.1556794E-008  0.3821678E+03  0.7957747E-01  0.3441773E+00
         13   -1    0    0    0    0  0.00000000000E+00  0.00000000000E+00  0.14999999963E+04  0.15000000000E+04  0.10566000000E+00 0. -1.
        994   -1    0    0    0    0 -0.00000000000E+00 -0.00000000000E+00  0.11368683772E-12  0.17120000000E+03  0.17120000000E+03 0.  0.
         13    1    1    2    0    0 -0.42373912880E+02 -0.37578841553E+02  0.32523156613E+03  0.33012618890E+03  0.10566000000E+00 0. -1.
        994    1    1    2    0    0  0.57251829518E+02  0.54039056943E+02  0.23895079143E+02  0.18994316641E+03  0.17120000000E+03 0.  0.
        998    1    1    2    0    0 -0.14877916638E+02 -0.16460215390E+02  0.11508733510E+04  0.11511306447E+04  0.10000000000E+02 0. -1.
</event>
<event>
 5    1  0.1556794E-008  0.3783466E+03  0.7957747E-01  0.3458389E+00
         13   -1    0    0    0    0  0.00000000000E+00  0.00000000000E+00  0.14999999963E+04  0.15000000000E+04  0.10566000000E+00 0. -1.
        994   -1    0    0    0    0 -0.00000000000E+00 -0.00000000000E+00  0.11368683772E-12  0.17120000000E+03  0.17120000000E+03 0.  0.
         13    1    1    2    0    0 -0.23702294280E+02  0.77210796600E+01  0.63028286853E+02  0.67778978547E+02  0.10566000000E+00 0. -1.
        994    1    1    2    0    0  0.37881818427E+01 -0.78419750488E+01  0.52250838673E+01  0.17150098657E+03  0.17120000000E+03 0.  0.
        998    1    1    2    0    0  0.19914112437E+02  0.12089538880E+00  0.14317466256E+04  0.14319200349E+04  0.10000000000E+02 0. -1.
</event>
<event>
 5    1  0.1556794E-008  0.3737514E+03  0.7957747E-01  0.3478826E+00
         13   -1    0    0    0    0  0.00000000000E+00  0.00000000000E+00  0.14999999963E+04  0.15000000000E+04  0.10566000000E+00 0.  1.
        994   -1    0    0    0    0 -0.00000000000E+00 -0.00000000000E+00  0.11368683772E-12  0.17120000000E+03  0.17120000000E+03 0.  0.
         13    1    1    2    0    0  0.20542189665E+02  0.29289586104E+02  0.44994529436E+02  0.57483739036E+02  0.10566000000E+00 0.  1.
        994    1    1    2    0    0 -0.25062646745E+02 -0.74436025357E+01  0.15361547374E+02  0.17386477682E+03  0.17120000000E+03 0.  0.
        998    1    1    2    0    0  0.45204570808E+01 -0.21845983568E+02  0.14396439195E+04  0.14398514841E+04  0.10000000000E+02 0.  1.
</event>
<event>
 5    1  0.1556794E-008  0.3694519E+03  0.7957747E-01  0.3498414E+00
         13   -1    0    0    0    0  0.00000000000E+00  0.00000000000E+00  0.14999999963E+04  0.15000000000E+04  0.10566000000E+00 0.  1.
        994   -1    0    0    0    0 -0.00000000000E+00 -0.00000000000E+00  0.11368683772E-12  0.17120000000E+03  0.17120000000E+03 0.  0.
         13    1    1    2    0    0 -0.44528518216E+02 -0.62773002630E+02  0.24635854897E+03  0.25810033825E+03  0.10566000000E+00 0.  1.
        994    1    1    2    0    0  0.69003092188E+02  0.53919511950E+02  0.36612670556E+02  0.19575154698E+03  0.17120000000E+03 0.  0.
        998    1    1    2    0    0 -0.24474573972E+02  0.88534906799E+01  0.12170287768E+04  0.12173481148E+04  0.10000000000E+02 0.  1.
</event>
<event>
 5    1  0.1556794E-008  0.3844998E+03  0.7957747E-01  0.3431796E+00
         13   -1    0    0    0    0  0.00000000000E+00  0.00000000000E+00  0.14999999963E+04  0.15000000000E+04  0.10566000000E+00 0. -1.
        994   -1    0    0    0    0 -0.00000000000E+00 -0.00000000000E+00  0.11368683772E-12  0.17120000000E+03  0.17120000000E+03 0.  0.
         13    1    1    2    0    0  0.15412428695E+02  0.11537973624E+02  0.11198497990E+03  0.11362796610E+03  0.10566000000E+00 0. -1.
        994    1    1    2    0    0  0.35806303582E+01  0.18545656854E+01  0.19322479449E+01  0.17125838347E+03  0.17120000000E+03 0.  0.
        998    1    1    2    0    0 -0.18993059053E+02 -0.13392539309E+02  0.13860827684E+04  0.13863136504E+04  0.10000000000E+02 0. -1.
</event>
<event>
 5    1  0.1556794E-008  0.3762481E+03  0.7957747E-01  0.3467660E+00
         13   -1    0    0    0    0  0.00000000000E+00  0.00000000000E+00  0.14999999963E+04  0.15000000000E+04  0.10566000000E+00 0.  1.
        994   -1    0    0    0    0 -0.00000000000E+00 -0.00000000000E+00  0.11368683772E-12  0.17120000000E+03  0.17120000000E+03 0.  0.
         13    1    1    2    0    0  0.21761452188E+02  0.14076401632E+02  0.19129964536E+02  0.32212925844E+02  0.10566000000E+00 0.  1.
        994    1    1    2    0    0  0.16865757380E+02  0.10430281776E+02  0.15688246956E+02  0.17305723227E+03  0.17120000000E+03 0.  0.
        998    1    1    2    0    0 -0.38627209567E+02 -0.24506683409E+02  0.14651817848E+04  0.14659298419E+04  0.10000000000E+02 0.  1.
</event>
<event>
 5    1  0.1556794E-008  0.3828849E+03  0.7957747E-01  0.3438692E+00
         13   -1    0    0    0    0  0.00000000000E+00  0.00000000000E+00  0.14999999963E+04  0.15000000000E+04  0.10566000000E+00 0.  1.
        994   -1    0    0    0    0 -0.00000000000E+00 -0.00000000000E+00  0.11368683772E-12  0.17120000000E+03  0.17120000000E+03 0.  0.
         13    1    1    2    0    0  0.14796330827E+02 -0.29195835459E+02  0.13607458827E+03  0.13995582499E+03  0.10566000000E+00 0.  1.
        994    1    1    2    0    0 -0.84085583880E+02  0.45259125618E+02  0.33489966888E+02  0.19887129444E+03  0.17120000000E+03 0.  0.
        998    1    1    2    0    0  0.69289253053E+02 -0.16063290159E+02  0.13304354411E+04  0.13323728806E+04  0.10000000000E+02 0.  1.
</event>
<event>
 5    1  0.1556794E-008  0.3855171E+03  0.7957747E-01  0.3427482E+00
         13   -1    0    0    0    0  0.00000000000E+00  0.00000000000E+00  0.14999999963E+04  0.15000000000E+04  0.10566000000E+00 0.  1.
        994   -1    0    0    0    0 -0.00000000000E+00 -0.00000000000E+00  0.11368683772E-12  0.17120000000E+03  0.17120000000E+03 0.  0.
         13    1    1    2    0    0 -0.11867393044E+02  0.83568237647E+01  0.77594782088E+02  0.78940692247E+02  0.10566000000E+00 0.  1.
        994    1    1    2    0    0  0.76367706058E+01 -0.41694590640E+01  0.16221996708E+01  0.17142863292E+03  0.17120000000E+03 0.  0.
        998    1    1    2    0    0  0.42306224379E+01 -0.41873647007E+01  0.14207830145E+04  0.14208306748E+04  0.10000000000E+02 0.  1.
</event>
<event>
 5    1  0.1556794E-008  0.3784251E+03  0.7957747E-01  0.3458045E+00
         13   -1    0    0    0    0  0.00000000000E+00  0.00000000000E+00  0.14999999963E+04  0.15000000000E+04  0.10566000000E+00 0.  1.
        994   -1    0    0    0    0 -0.00000000000E+00 -0.00000000000E+00  0.11368683772E-12  0.17120000000E+03  0.17120000000E+03 0.  0.
         13    1    1    2    0    0 -0.33417645530E+01 -0.33106876159E+02  0.29359755952E+02  0.44376109259E+02  0.10566000000E+00 0.  1.
        994    1    1    2    0    0 -0.80303350722E+01  0.28929756272E+02  0.18719127546E+02  0.17481779891E+03  0.17120000000E+03 0.  0.
        998    1    1    2    0    0  0.11372099625E+02  0.41771198874E+01  0.14519211128E+04  0.14520060918E+04  0.10000000000E+02 0.  1.
</event>
<event>
 5    1  0.1556794E-008  0.3772737E+03  0.7957747E-01  0.3463116E+00
         13   -1    0    0    0    0  0.00000000000E+00  0.00000000000E+00  0.14999999963E+04  0.15000000000E+04  0.10566000000E+00 0.  1.
        994   -1    0    0    0    0 -0.00000000000E+00 -0.00000000000E+00  0.11368683772E-12  0.17120000000E+03  0.17120000000E+03 0.  0.
         13    1    1    2    0    0  0.91251169040E+01 -0.16094232721E+02  0.29679409324E+02  0.34973855768E+02  0.10566000000E+00 0.  1.
        994    1    1    2    0    0 -0.35250229589E+01 -0.31915814048E+00  0.55579976753E+01  0.17132676086E+03  0.17120000000E+03 0.  0.
        998    1    1    2    0    0 -0.56000939450E+01  0.16413390861E+02  0.14647625893E+04  0.14648993834E+04  0.10000000000E+02 0.  1.
</event>
<event>
 5    1  0.1556794E-008  0.3813854E+03  0.7957747E-01  0.3445148E+00
         13   -1    0    0    0    0  0.00000000000E+00  0.00000000000E+00  0.14999999963E+04  0.15000000000E+04  0.10566000000E+00 0. -1.
        994   -1    0    0    0    0 -0.00000000000E+00 -0.00000000000E+00  0.11368683772E-12  0.17120000000E+03  0.17120000000E+03 0.  0.
         13    1    1    2    0    0 -0.14151511498E+02 -0.30797591250E+02  0.14154353241E+03  0.14554497462E+03  0.10566000000E+00 0. -1.
        994    1    1    2    0    0  0.20455942764E+02  0.39643563340E+02  0.10086192529E+02  0.17720391922E+03  0.17120000000E+03 0.  0.
        998    1    1    2    0    0 -0.63044312657E+01 -0.88459720899E+01  0.13483702713E+04  0.13484511062E+04  0.10000000000E+02 0. -1.
</event>
<event>
 5    1  0.1556794E-008  0.3831414E+03  0.7957747E-01  0.3437593E+00
         13   -1    0    0    0    0  0.00000000000E+00  0.00000000000E+00  0.14999999963E+04  0.15000000000E+04  0.10566000000E+00 0. -1.
        994   -1    0    0    0    0 -0.00000000000E+00 -0.00000000000E+00  0.11368683772E-12  0.17120000000E+03  0.17120000000E+03 0.  0.
         13    1    1    2    0    0 -0.18188256013E+02 -0.70461882694E+01  0.77646981959E+02  0.80059517843E+02  0.10566000000E+00 0. -1.
        994    1    1    2    0    0 -0.16660881993E+01  0.13924154604E+02  0.32066223579E+01  0.17180331882E+03  0.17120000000E+03 0.  0.
        998    1    1    2    0    0  0.19854344212E+02 -0.68779663349E+01  0.14191463920E+04  0.14193371633E+04  0.10000000000E+02 0. -1.
</event>
<event>
 5    1  0.1556794E-008  0.3841145E+03  0.7957747E-01  0.3433436E+00
         13   -1    0    0    0    0  0.00000000000E+00  0.00000000000E+00  0.14999999963E+04  0.15000000000E+04  0.10566000000E+00 0. -1.
        994   -1    0    0    0    0 -0.00000000000E+00 -0.00000000000E+00  0.11368683772E-12  0.17120000000E+03  0.17120000000E+03 0.  0.
         13    1    1    2    0    0 -0.11115220291E+02  0.43821136124E+01  0.35588622008E+02  0.37540807427E+02  0.10566000000E+00 0. -1.
        994    1    1    2    0    0 -0.14177668433E+01  0.39529246089E+01  0.21285607925E+01  0.17126472622E+03  0.17120000000E+03 0.  0.
        998    1    1    2    0    0  0.12532987134E+02 -0.83350382212E+01  0.14622828135E+04  0.14623944664E+04  0.10000000000E+02 0. -1.
</event>
<event>
 5    1  0.1556794E-008  0.3853629E+03  0.7957747E-01  0.3428135E+00
         13   -1    0    0    0    0  0.00000000000E+00  0.00000000000E+00  0.14999999963E+04  0.15000000000E+04  0.10566000000E+00 0. -1.
        994   -1    0    0    0    0 -0.00000000000E+00 -0.00000000000E+00  0.11368683772E-12  0.17120000000E+03  0.17120000000E+03 0.  0.
         13    1    1    2    0    0  0.12483215350E+02  0.58137003870E+01  0.68900734880E+02  0.70263448597E+02  0.10566000000E+00 0. -1.
        994    1    1    2    0    0 -0.33278846765E+01  0.21617653916E+01  0.15018173182E+01  0.17125257225E+03  0.17120000000E+03 0.  0.
        998    1    1    2    0    0 -0.91553306738E+01 -0.79754657786E+01  0.14295974441E+04  0.14296839792E+04  0.10000000000E+02 0. -1.
</event>
<event>
 5    1  0.1556794E-008  0.3859559E+03  0.7957747E-01  0.3425628E+00
         13   -1    0    0    0    0  0.00000000000E+00  0.00000000000E+00  0.14999999963E+04  0.15000000000E+04  0.10566000000E+00 0.  1.
        994   -1    0    0    0    0 -0.00000000000E+00 -0.00000000000E+00  0.11368683772E-12  0.17120000000E+03  0.17120000000E+03 0.  0.
         13    1    1    2    0    0  0.25690597537E+01  0.13117613225E+02  0.78023136380E+02  0.79159919273E+02  0.10566000000E+00 0.  1.
        994    1    1    2    0    0  0.72765666271E+00 -0.92255496317E+01  0.14370914753E+01  0.17145595785E+03  0.17120000000E+03 0.  0.
        998    1    1    2    0    0 -0.32967164164E+01 -0.38920635935E+01  0.14205397684E+04  0.14205841229E+04  0.10000000000E+02 0.  0.
</event>
<event>
 5    1  0.1556794E-008  0.4163070E+03  0.7957747E-01  0.3306859E+00
         13   -1    0    0    0    0  0.00000000000E+00  0.00000000000E+00  0.14999999963E+04  0.15000000000E+04  0.10566000000E+00 0.  1.
        994   -1    0    0    0    0 -0.00000000000E+00 -0.00000000000E+00  0.11368683772E-12  0.17120000000E+03  0.17120000000E+03 0.  0.
         13    1    1    2    0    0 -0.56421427653E+02 -0.28868758763E+01  0.26119401928E+02  0.62241030453E+02  0.10566000000E+00 0.  1.
        994    1    1    2    0    0  0.75471372534E+02  0.92959812088E+01  0.62616159970E+02  0.19751599132E+03  0.17120000000E+03 0.  0.
        998    1    1    2    0    0 -0.19049944881E+02 -0.64091053325E+01  0.14112644344E+04  0.14114429782E+04  0.10000000000E+02 0.  1.
</event>
<event>
 5    1  0.1556794E-008  0.3748959E+03  0.7957747E-01  0.3473688E+00
         13   -1    0    0    0    0  0.00000000000E+00  0.00000000000E+00  0.14999999963E+04  0.15000000000E+04  0.10566000000E+00 0.  1.
        994   -1    0    0    0    0 -0.00000000000E+00 -0.00000000000E+00  0.11368683772E-12  0.17120000000E+03  0.17120000000E+03 0.  0.
         13    1    1    2    0    0  0.25035055826E+02 -0.55318806620E+02  0.30693491816E+03  0.31288333214E+03  0.10566000000E+00 0.  1.
        994    1    1    2    0    0 -0.36901308179E+02  0.57992874685E+01  0.11491642535E+02  0.17560420305E+03  0.17120000000E+03 0.  0.
        998    1    1    2    0    0  0.11866252353E+02  0.49519519151E+02  0.11815734356E+04  0.11827124648E+04  0.10000000000E+02 0.  1.
</event>
<event>
 5    1  0.1556794E-008  0.3816259E+03  0.7957747E-01  0.3444109E+00
         13   -1    0    0    0    0  0.00000000000E+00  0.00000000000E+00  0.14999999963E+04  0.15000000000E+04  0.10566000000E+00 0. -1.
        994   -1    0    0    0    0 -0.00000000000E+00 -0.00000000000E+00  0.11368683772E-12  0.17120000000E+03  0.17120000000E+03 0.  0.
         13    1    1    2    0    0  0.73369089139E+01 -0.36002323403E+02  0.21738856060E+03  0.22047175549E+03  0.10566000000E+00 0. -1.
        994    1    1    2    0    0 -0.13050556235E+01  0.13098492708E+02  0.38910061956E+01  0.17174939188E+03  0.17120000000E+03 0.  0.
        998    1    1    2    0    0 -0.60318532904E+01  0.22903830695E+02  0.12787204295E+04  0.12789788526E+04  0.10000000000E+02 0. -1.
</event>
<event>
 5    1  0.1556794E-008  0.3735946E+03  0.7957747E-01  0.3479532E+00
         13   -1    0    0    0    0  0.00000000000E+00  0.00000000000E+00  0.14999999963E+04  0.15000000000E+04  0.10566000000E+00 0. -1.
        994   -1    0    0    0    0 -0.00000000000E+00 -0.00000000000E+00  0.11368683772E-12  0.17120000000E+03  0.17120000000E+03 0.  0.
         13    1    1    2    0    0  0.54203078964E+01 -0.45074641555E+02  0.12745417284E+03  0.13529848627E+03  0.10566000000E+00 0. -1.
        994    1    1    2    0    0 -0.19448028587E+02  0.40799077726E+02  0.14411410634E+02  0.17765111684E+03  0.17120000000E+03 0.  0.
        998    1    1    2    0    0  0.14027720691E+02  0.42755638290E+01  0.13581344128E+04  0.13582503969E+04  0.10000000000E+02 0. -1.
</event>
<event>
 5    1  0.1556794E-008  0.3807612E+03  0.7957747E-01  0.3447851E+00
         13   -1    0    0    0    0  0.00000000000E+00  0.00000000000E+00  0.14999999963E+04  0.15000000000E+04  0.10566000000E+00 0. -1.
        994   -1    0    0    0    0 -0.00000000000E+00 -0.00000000000E+00  0.11368683772E-12  0.17120000000E+03  0.17120000000E+03 0.  0.
         13    1    1    2    0    0  0.24547871056E+02 -0.24818873641E+02  0.15661198749E+03  0.16045529051E+03  0.10566000000E+00 0. -1.
        994    1    1    2    0    0 -0.15252025766E+02  0.19821438798E+02  0.58379890766E+01  0.17311567186E+03  0.17120000000E+03 0.  0.
        998    1    1    2    0    0 -0.92958452908E+01  0.49974348434E+01  0.13375500197E+04  0.13376290376E+04  0.10000000000E+02 0. -1.
</event>
<event>
 5    1  0.1556794E-008  0.3712878E+03  0.7957747E-01  0.3489993E+00
         13   -1    0    0    0    0  0.00000000000E+00  0.00000000000E+00  0.14999999963E+04  0.15000000000E+04  0.10566000000E+00 0.  1.
        994   -1    0    0    0    0 -0.00000000000E+00 -0.00000000000E+00  0.11368683772E-12  0.17120000000E+03  0.17120000000E+03 0.  0.
         13    1    1    2    0    0  0.17873963250E+01  0.24340386772E+02  0.21730885724E+02  0.32678613377E+02  0.10566000000E+00 0.  1.
        994    1    1    2    0    0 -0.68826166102E+01  0.31329807921E+01  0.11822238056E+02  0.17177424514E+03  0.17120000000E+03 0.  0.
        998    1    1    2    0    0  0.50952202852E+01 -0.27473367564E+02  0.14664468725E+04  0.14667471415E+04  0.10000000000E+02 0.  1.
</event>
<event>
 5    1  0.1556794E-008  0.3725851E+03  0.7957747E-01  0.3484094E+00
         13   -1    0    0    0    0  0.00000000000E+00  0.00000000000E+00  0.14999999963E+04  0.15000000000E+04  0.10566000000E+00 0.  1.
        994   -1    0    0    0    0 -0.00000000000E+00 -0.00000000000E+00  0.11368683772E-12  0.17120000000E+03  0.17120000000E+03 0.  0.
         13    1    1    2    0    0  0.32317941232E+02  0.31407329358E+02  0.11951764882E+03  0.12773155133E+03  0.10566000000E+00 0.  1.
        994    1    1    2    0    0 -0.14409622755E+02 -0.40765642659E+02  0.14358249018E+02  0.17715833078E+03  0.17120000000E+03 0.  0.
        998    1    1    2    0    0 -0.17908318477E+02  0.93583133012E+01  0.13661240984E+04  0.13663101179E+04  0.10000000000E+02 0.  1.
</event>
<event>
 5    1  0.1556794E-008  0.3816417E+03  0.7957747E-01  0.3444041E+00
         13   -1    0    0    0    0  0.00000000000E+00  0.00000000000E+00  0.14999999963E+04  0.15000000000E+04  0.10566000000E+00 0. -1.
        994   -1    0    0    0    0 -0.00000000000E+00 -0.00000000000E+00  0.11368683772E-12  0.17120000000E+03  0.17120000000E+03 0.  0.
         13    1    1    2    0    0  0.13197314987E+02 -0.32808835830E+02  0.16178077339E+03  0.16560078090E+03  0.10566000000E+00 0. -1.
        994    1    1    2    0    0 -0.18260896769E+02  0.37768639248E+02  0.91804959919E+01  0.17650397154E+03  0.17120000000E+03 0.  0.
        998    1    1    2    0    0  0.50635817817E+01 -0.49598034176E+01  0.13290387269E+04  0.13290952476E+04  0.10000000000E+02 0. -1.
</event>
<event>
 5    1  0.1556794E-008  0.3818825E+03  0.7957747E-01  0.3443002E+00
         13   -1    0    0    0    0  0.00000000000E+00  0.00000000000E+00  0.14999999963E+04  0.15000000000E+04  0.10566000000E+00 0. -1.
        994   -1    0    0    0    0 -0.00000000000E+00 -0.00000000000E+00  0.11368683772E-12  0.17120000000E+03  0.17120000000E+03 0.  0.
         13    1    1    2    0    0 -0.19458028308E+02 -0.37593965907E+02  0.23728425857E+03  0.24103060317E+03  0.10566000000E+00 0. -1.
        994    1    1    2    0    0  0.36047208356E+02  0.30407780786E+02  0.10610144648E+02  0.17789336562E+03  0.17120000000E+03 0.  0.
        998    1    1    2    0    0 -0.16589180047E+02  0.71861851203E+01  0.12521055931E+04  0.12522760312E+04  0.10000000000E+02 0. -1.
</event>
<event>
 5    1  0.1556794E-008  0.3708988E+03  0.7957747E-01  0.3491770E+00
         13   -1    0    0    0    0  0.00000000000E+00  0.00000000000E+00  0.14999999963E+04  0.15000000000E+04  0.10566000000E+00 0.  1.
        994   -1    0    0    0    0 -0.00000000000E+00 -0.00000000000E+00  0.11368683772E-12  0.17120000000E+03  0.17120000000E+03 0.  0.
         13    1    1    2    0    0 -0.77958094050E+01 -0.39654159015E+02  0.86315711100E+02  0.95308132487E+02  0.10566000000E+00 0.  1.
        994    1    1    2    0    0  0.90763946523E+01  0.34978643058E+02  0.13314741294E+02  0.17547822869E+03  0.17120000000E+03 0.  0.
        998    1    1    2    0    0 -0.12805852473E+01  0.46755159568E+01  0.14003695439E+04  0.14004136388E+04  0.10000000000E+02 0.  1.
</event>
<event>
 5    1  0.1556794E-008  0.3858001E+03  0.7957747E-01  0.3426286E+00
         13   -1    0    0    0    0  0.00000000000E+00  0.00000000000E+00  0.14999999963E+04  0.15000000000E+04  0.10566000000E+00 0. -1.
        994   -1    0    0    0    0 -0.00000000000E+00 -0.00000000000E+00  0.11368683772E-12  0.17120000000E+03  0.17120000000E+03 0.  0.
         13    1    1    2    0    0 -0.14073604008E+02  0.61996742886E+00  0.79205490681E+02  0.80448564981E+02  0.10566000000E+00 0. -1.
        994    1    1    2    0    0  0.12562658462E+02  0.53527946257E+01  0.18453372524E+01  0.17175365518E+03  0.17120000000E+03 0.  0.
        998    1    1    2    0    0  0.15109455462E+01 -0.59727620546E+01  0.14189491683E+04  0.14189977798E+04  0.10000000000E+02 0. -1.
</event>
<event>
 5    1  0.1556794E-008  0.3824399E+03  0.7957747E-01  0.3440603E+00
         13   -1    0    0    0    0  0.00000000000E+00  0.00000000000E+00  0.14999999963E+04  0.15000000000E+04  0.10566000000E+00 0. -1.
        994   -1    0    0    0    0 -0.00000000000E+00 -0.00000000000E+00  0.11368683772E-12  0.17120000000E+03  0.17120000000E+03 0.  0.
         13    1    1    2    0    0  0.12684400034E+02 -0.10342819162E+02  0.45043790032E+02  0.47925171851E+02  0.10566000000E+00 0. -1.
        994    1    1    2    0    0 -0.90386177354E+01  0.67128930039E+01  0.33270025358E+01  0.17160206435E+03  0.17120000000E+03 0.  0.
        998    1    1    2    0    0 -0.36457822989E+01  0.36299261581E+01  0.14516292037E+04  0.14516727638E+04  0.10000000000E+02 0. -1.
</event>
<event>
 5    1  0.1556794E-008  0.3702408E+03  0.7957747E-01  0.3494785E+00
         13   -1    0    0    0    0  0.00000000000E+00  0.00000000000E+00  0.14999999963E+04  0.15000000000E+04  0.10566000000E+00 0. -1.
        994   -1    0    0    0    0 -0.00000000000E+00 -0.00000000000E+00  0.11368683772E-12  0.17120000000E+03  0.17120000000E+03 0.  0.
         13    1    1    2    0    0  0.16350358318E+02 -0.81044270087E+02  0.26870300196E+03  0.28113488286E+03  0.10566000000E+00 0. -1.
        994    1    1    2    0    0 -0.77197445205E+01  0.70779577198E+02  0.29020818567E+02  0.18767256303E+03  0.17120000000E+03 0.  0.
        998    1    1    2    0    0 -0.86306137974E+01  0.10264692889E+02  0.12022761757E+04  0.12023925541E+04  0.10000000000E+02 0. -1.
</event>
<event>
 5    1  0.1556794E-008  0.4077022E+03  0.7957747E-01  0.3338749E+00
         13   -1    0    0    0    0  0.00000000000E+00  0.00000000000E+00  0.14999999963E+04  0.15000000000E+04  0.10566000000E+00 0.  1.
        994   -1    0    0    0    0 -0.00000000000E+00 -0.00000000000E+00  0.11368683772E-12  0.17120000000E+03  0.17120000000E+03 0.  0.
         13    1    1    2    0    0  0.86415371551E+02  0.10851509385E+02  0.10292241242E+03  0.13482731859E+03  0.10566000000E+00 0.  1.
        994    1    1    2    0    0 -0.78324781050E+02 -0.70906793640E+00  0.57722954151E+02  0.19691788527E+03  0.17120000000E+03 0.  0.
        998    1    1    2    0    0 -0.80905905009E+01 -0.10142441448E+02  0.13393546297E+04  0.13394547961E+04  0.10000000000E+02 0.  1.
</event>
<event>
 5    1  0.1556794E-008  0.3998659E+03  0.7957747E-01  0.3368971E+00
         13   -1    0    0    0    0  0.00000000000E+00  0.00000000000E+00  0.14999999963E+04  0.15000000000E+04  0.10566000000E+00 0.  1.
        994   -1    0    0    0    0 -0.00000000000E+00 -0.00000000000E+00  0.11368683772E-12  0.17120000000E+03  0.17120000000E+03 0.  0.
         13    1    1    2    0    0  0.60410296397E+02 -0.25700504509E+02  0.66260911957E+02  0.93276146255E+02  0.10566000000E+00 0.  1.
        994    1    1    2    0    0 -0.55740100190E+02  0.28487356658E+02  0.43195058064E+02  0.18733323597E+03  0.17120000000E+03 0.  0.
        998    1    1    2    0    0 -0.46701962073E+01 -0.27868521488E+01  0.13905440263E+04  0.13905906178E+04  0.10000000000E+02 0.  1.
</event>
<event>
 5    1  0.1556794E-008  0.3788658E+03  0.7957747E-01  0.3456112E+00
         13   -1    0    0    0    0  0.00000000000E+00  0.00000000000E+00  0.14999999963E+04  0.15000000000E+04  0.10566000000E+00 0.  1.
        994   -1    0    0    0    0 -0.00000000000E+00 -0.00000000000E+00  0.11368683772E-12  0.17120000000E+03  0.17120000000E+03 0.  0.
         13    1    1    2    0    0 -0.96260606065E+02 -0.25042776809E+02  0.59489867800E+03  0.60315644173E+03  0.10566000000E+00 0.  1.
        994    1    1    2    0    0  0.95382727800E+02  0.43332095756E+02  0.42464025601E+02  0.20515401228E+03  0.17120000000E+03 0.  0.
        998    1    1    2    0    0  0.87787826482E+00 -0.18289318946E+02  0.86263729268E+03  0.86288954599E+03  0.10000000000E+02 0.  1.
</event>
<event>
 5    1  0.1556794E-008  0.3856075E+03  0.7957747E-01  0.3427100E+00
         13   -1    0    0    0    0  0.00000000000E+00  0.00000000000E+00  0.14999999963E+04  0.15000000000E+04  0.10566000000E+00 0.  1.
        994   -1    0    0    0    0 -0.00000000000E+00 -0.00000000000E+00  0.11368683772E-12  0.17120000000E+03  0.17120000000E+03 0.  0.
         13    1    1    2    0    0  0.12364379737E+02 -0.11328360321E+01  0.55606091755E+02  0.56975519375E+02  0.10566000000E+00 0.  1.
        994    1    1    2    0    0 -0.15928954230E+02 -0.11762801466E+00  0.21621144418E+01  0.17195307545E+03  0.17120000000E+03 0.  0.
        998    1    1    2    0    0  0.35645744930E+01  0.12504640467E+01  0.14422317901E+04  0.14422714052E+04  0.10000000000E+02 0.  1.
</event>
<event>
 5    1  0.1556794E-008  0.3769736E+03  0.7957747E-01  0.3464443E+00
         13   -1    0    0    0    0  0.00000000000E+00  0.00000000000E+00  0.14999999963E+04  0.15000000000E+04  0.10566000000E+00 0.  1.
        994   -1    0    0    0    0 -0.00000000000E+00 -0.00000000000E+00  0.11368683772E-12  0.17120000000E+03  0.17120000000E+03 0.  0.
         13    1    1    2    0    0  0.29440840425E+02  0.15824665131E+02  0.94749210560E+02  0.10047192233E+03  0.10566000000E+00 0.  1.
        994    1    1    2    0    0  0.28668943837E+02 -0.12033264550E+03  0.59219355185E+02  0.21935866963E+03  0.17120000000E+03 0.  0.
        998    1    1    2    0    0 -0.58109784263E+02  0.10450798037E+03  0.13460314305E+04  0.13513694080E+04  0.10000000000E+02 0.  1.
</event>
<event>
 5    1  0.1556794E-008  0.3829681E+03  0.7957747E-01  0.3438336E+00
         13   -1    0    0    0    0  0.00000000000E+00  0.00000000000E+00  0.14999999963E+04  0.15000000000E+04  0.10566000000E+00 0. -1.
        994   -1    0    0    0    0 -0.00000000000E+00 -0.00000000000E+00  0.11368683772E-12  0.17120000000E+03  0.17120000000E+03 0.  0.
         13    1    1    2    0    0 -0.21301968766E+02 -0.51163654537E+01  0.10108960467E+03  0.10343631086E+03  0.10566000000E+00 0. -1.
        994    1    1    2    0    0 -0.42091297645E+01 -0.82271018788E+00  0.27032278185E+01  0.17127504508E+03  0.17120000000E+03 0.  0.
        998    1    1    2    0    0  0.25511098530E+02  0.59390756416E+01  0.13962071638E+04  0.13964886441E+04  0.10000000000E+02 0. -1.
</event>
<event>
 5    1  0.1556794E-008  0.3880706E+03  0.7957747E-01  0.3416753E+00
         13   -1    0    0    0    0  0.00000000000E+00  0.00000000000E+00  0.14999999963E+04  0.15000000000E+04  0.10566000000E+00 0. -1.
        994   -1    0    0    0    0 -0.00000000000E+00 -0.00000000000E+00  0.11368683772E-12  0.17120000000E+03  0.17120000000E+03 0.  0.
         13    1    1    2    0    0  0.11037460934E+03  0.10741782968E+02  0.48577188757E+03  0.49826928283E+03  0.10566000000E+00 0. -1.
        994    1    1    2    0    0  0.77657537210E+01 -0.12562388406E+01  0.21064618000E+02  0.17267033097E+03  0.17120000000E+03 0.  0.
        998    1    1    2    0    0 -0.11814036306E+03 -0.94855441270E+01  0.99316349071E+03  0.10002603862E+04  0.10000000000E+02 0. -1.
</event>
<event>
 5    1  0.1556794E-008  0.3843566E+03  0.7957747E-01  0.3432405E+00
         13   -1    0    0    0    0  0.00000000000E+00  0.00000000000E+00  0.14999999963E+04  0.15000000000E+04  0.10566000000E+00 0.  1.
        994   -1    0    0    0    0 -0.00000000000E+00 -0.00000000000E+00  0.11368683772E-12  0.17120000000E+03  0.17120000000E+03 0.  0.
         13    1    1    2    0    0  0.29767442973E+02 -0.23612372303E+02  0.37282665229E+02  0.53232068131E+02  0.10566000000E+00 0.  1.
        994    1    1    2    0    0  0.40217305399E+02 -0.28926517860E+02  0.27834200854E+02  0.18038391787E+03  0.17120000000E+03 0.  0.
        998    1    1    2    0    0 -0.69984748372E+02  0.52538890163E+02  0.14348831302E+04  0.14375840140E+04  0.10000000000E+02 0.  1.
</event>
<event>
 5    1  0.1556794E-008  0.3850949E+03  0.7957747E-01  0.3429270E+00
         13   -1    0    0    0    0  0.00000000000E+00  0.00000000000E+00  0.14999999963E+04  0.15000000000E+04  0.10566000000E+00 0. -1.
        994   -1    0    0    0    0 -0.00000000000E+00 -0.00000000000E+00  0.11368683772E-12  0.17120000000E+03  0.17120000000E+03 0.  0.
         13    1    1    2    0    0  0.14838494414E+02 -0.69266693099E+01  0.80581101586E+02  0.82228247950E+02  0.10566000000E+00 0. -1.
        994    1    1    2    0    0 -0.12002714541E+02  0.16867130668E+02  0.29932448099E+01  0.17247308418E+03  0.17120000000E+03 0.  0.
        998    1    1    2    0    0 -0.28357798722E+01 -0.99404613579E+01  0.14164256499E+04  0.14164986679E+04  0.10000000000E+02 0. -1.
</event>
<event>
 5    1  0.1556794E-008  0.3840882E+03  0.7957747E-01  0.3433549E+00
         13   -1    0    0    0    0  0.00000000000E+00  0.00000000000E+00  0.14999999963E+04  0.15000000000E+04  0.10566000000E+00 0.  1.
        994   -1    0    0    0    0 -0.00000000000E+00 -0.00000000000E+00  0.11368683772E-12  0.17120000000E+03  0.17120000000E+03 0.  0.
         13    1    1    2    0    0  0.35686439661E+01  0.15276059505E+02  0.53686617473E+02  0.55931719744E+02  0.10566000000E+00 0.  1.
        994    1    1    2    0    0 -0.28218748111E+02 -0.22180219614E+02  0.63443329048E+01  0.17503699737E+03  0.17120000000E+03 0.  0.
        998    1    1    2    0    0  0.24650104145E+02  0.69041601084E+01  0.14399690459E+04  0.14402312829E+04  0.10000000000E+02 0.  1.
</event>
<event>
 5    1  0.1556794E-008  0.3788133E+03  0.7957747E-01  0.3456342E+00
         13   -1    0    0    0    0  0.00000000000E+00  0.00000000000E+00  0.14999999963E+04  0.15000000000E+04  0.10566000000E+00 0. -1.
        994   -1    0    0    0    0 -0.00000000000E+00 -0.00000000000E+00  0.11368683772E-12  0.17120000000E+03  0.17120000000E+03 0.  0.
         13    1    1    2    0    0 -0.80917179026E+01  0.16301687418E+02  0.34611774201E+02  0.39105076252E+02  0.10566000000E+00 0. -1.
        994    1    1    2    0    0  0.77776416774E+00  0.28136074012E+01  0.47620042417E+01  0.17129109139E+03  0.17120000000E+03 0.  0.
        998    1    1    2    0    0  0.73139537348E+01 -0.19115294819E+02  0.14606262178E+04  0.14608038324E+04  0.10000000000E+02 0. -1.
</event>
<event>
 5    1  0.1556794E-008  0.3860448E+03  0.7957747E-01  0.3425253E+00
         13   -1    0    0    0    0  0.00000000000E+00  0.00000000000E+00  0.14999999963E+04  0.15000000000E+04  0.10566000000E+00 0.  1.
        994   -1    0    0    0    0 -0.00000000000E+00 -0.00000000000E+00  0.11368683772E-12  0.17120000000E+03  0.17120000000E+03 0.  0.
         13    1    1    2    0    0  0.72339808179E+01  0.78212416707E+01  0.63958486078E+02  0.64839813426E+02  0.10566000000E+00 0.  1.
        994    1    1    2    0    0  0.27260131263E+02  0.10553774482E+01  0.35553512456E+01  0.17339639299E+03  0.17120000000E+03 0.  0.
        998    1    1    2    0    0 -0.34494112081E+02 -0.88766191189E+01  0.14324861590E+04  0.14329637936E+04  0.10000000000E+02 0.  1.
</event>
<event>
 5    1  0.1556794E-008  0.3831845E+03  0.7957747E-01  0.3437409E+00
         13   -1    0    0    0    0  0.00000000000E+00  0.00000000000E+00  0.14999999963E+04  0.15000000000E+04  0.10566000000E+00 0.  1.
        994   -1    0    0    0    0 -0.00000000000E+00 -0.00000000000E+00  0.11368683772E-12  0.17120000000E+03  0.17120000000E+03 0.  0.
         13    1    1    2    0    0 -0.12797687650E+02 -0.50742854855E+01  0.35562739976E+02  0.38134614473E+02  0.10566000000E+00 0.  1.
        994    1    1    2    0    0  0.15169282983E+02  0.67655729637E+01  0.34473785164E+01  0.17203838102E+03  0.17120000000E+03 0.  0.
        998    1    1    2    0    0 -0.23715953331E+01 -0.16912874783E+01  0.14609898778E+04  0.14610270045E+04  0.10000000000E+02 0.  1.
</event>
<event>
 5    1  0.1556794E-008  0.3791507E+03  0.7957747E-01  0.3454865E+00
         13   -1    0    0    0    0  0.00000000000E+00  0.00000000000E+00  0.14999999963E+04  0.15000000000E+04  0.10566000000E+00 0. -1.
        994   -1    0    0    0    0 -0.00000000000E+00 -0.00000000000E+00  0.11368683772E-12  0.17120000000E+03  0.17120000000E+03 0.  0.
         13    1    1    2    0    0  0.63133473842E+02 -0.51692584527E+00  0.33085101490E+03  0.33682118098E+03  0.10566000000E+00 0. -1.
        994    1    1    2    0    0 -0.66214908399E+02  0.10122821423E+02  0.19753968649E+02  0.18489603805E+03  0.17120000000E+03 0.  0.
        998    1    1    2    0    0  0.30814345571E+01 -0.96058955779E+01  0.11493950127E+04  0.11494827810E+04  0.10000000000E+02 0. -1.
</event>
<event>
 5    1  0.1556794E-008  0.3811319E+03  0.7957747E-01  0.3446245E+00
         13   -1    0    0    0    0  0.00000000000E+00  0.00000000000E+00  0.14999999963E+04  0.15000000000E+04  0.10566000000E+00 0. -1.
        994   -1    0    0    0    0 -0.00000000000E+00 -0.00000000000E+00  0.11368683772E-12  0.17120000000E+03  0.17120000000E+03 0.  0.
         13    1    1    2    0    0 -0.29226607072E+02  0.52691854971E+01  0.11182590834E+03  0.11570222045E+03  0.10566000000E+00 0. -1.
        994    1    1    2    0    0  0.33029535526E+02 -0.78946838987E+01  0.74133374972E+01  0.17469308465E+03  0.17120000000E+03 0.  0.
        998    1    1    2    0    0 -0.38029284541E+01  0.26254984016E+01  0.13807607504E+04  0.13808046949E+04  0.10000000000E+02 0. -1.
</event>
<event>
 5    1  0.1556794E-008  0.3854846E+03  0.7957747E-01  0.3427620E+00
         13   -1    0    0    0    0  0.00000000000E+00  0.00000000000E+00  0.14999999963E+04  0.15000000000E+04  0.10566000000E+00 0.  1.
        994   -1    0    0    0    0 -0.00000000000E+00 -0.00000000000E+00  0.11368683772E-12  0.17120000000E+03  0.17120000000E+03 0.  0.
         13    1    1    2    0    0 -0.12896002889E+01 -0.12202194107E+02  0.54873629164E+02  0.56228844481E+02  0.10566000000E+00 0.  1.
        994    1    1    2    0    0  0.63642062082E+00  0.68386233862E+01  0.15446339416E+01  0.17134467513E+03  0.17120000000E+03 0.  0.
        998    1    1    2    0    0  0.65317966811E+00  0.53635707204E+01  0.14435817332E+04  0.14436264804E+04  0.10000000000E+02 0.  1.
</event>
<event>
 5    1  0.1556794E-008  0.3833417E+03  0.7957747E-01  0.3436736E+00
         13   -1    0    0    0    0  0.00000000000E+00  0.00000000000E+00  0.14999999963E+04  0.15000000000E+04  0.10566000000E+00 0. -1.
        994   -1    0    0    0    0 -0.00000000000E+00 -0.00000000000E+00  0.11368683772E-12  0.17120000000E+03  0.17120000000E+03 0.  0.
         13    1    1    2    0    0  0.75814276947E+01  0.11095598431E+02  0.36580284982E+02  0.38970742408E+02  0.10566000000E+00 0. -1.
        994    1    1    2    0    0 -0.63126418886E+01 -0.20830649378E+01  0.26017933450E+01  0.17134876112E+03  0.17120000000E+03 0.  0.
        998    1    1    2    0    0 -0.12687858060E+01 -0.90125334931E+01  0.14608179180E+04  0.14608804965E+04  0.10000000000E+02 0. -1.
</event>
<event>
 5    1  0.1556794E-008  0.3765845E+03  0.7957747E-01  0.3466167E+00
         13   -1    0    0    0    0  0.00000000000E+00  0.00000000000E+00  0.14999999963E+04  0.15000000000E+04  0.10566000000E+00 0. -1.
        994   -1    0    0    0    0 -0.00000000000E+00 -0.00000000000E+00  0.11368683772E-12  0.17120000000E+03  0.17120000000E+03 0.  0.
         13    1    1    2    0    0 -0.65119339704E+02  0.13395135640E+03  0.49556757865E+03  0.51746568047E+03  0.10566000000E+00 0. -1.
        994    1    1    2    0    0 -0.41864175771E+01 -0.17073387202E+03  0.12774915978E+03  0.27349016247E+03  0.17120000000E+03 0.  0.
        998    1    1    2    0    0  0.69305757281E+02  0.36782515621E+02  0.87668325785E+03  0.88024415706E+03  0.10000000000E+02 0. -1.
</event>
<event>
 5    1  0.1556794E-008  0.3852004E+03  0.7957747E-01  0.3428823E+00
         13   -1    0    0    0    0  0.00000000000E+00  0.00000000000E+00  0.14999999963E+04  0.15000000000E+04  0.10566000000E+00 0. -1.
        994   -1    0    0    0    0 -0.00000000000E+00 -0.00000000000E+00  0.11368683772E-12  0.17120000000E+03  0.17120000000E+03 0.  0.
         13    1    1    2    0    0  0.10335412883E+02  0.23107172313E+01  0.37524811867E+02  0.38990804599E+02  0.10566000000E+00 0. -1.
        994    1    1    2    0    0  0.34824398128E+00 -0.11355461051E+02  0.19549749207E+01  0.17158767350E+03  0.17120000000E+03 0.  0.
        998    1    1    2    0    0 -0.10683656864E+02  0.90447438199E+01  0.14605202095E+04  0.14606215219E+04  0.10000000000E+02 0. -1.
</event>
<event>
 5    1  0.1556794E-008  0.3845443E+03  0.7957747E-01  0.3431607E+00
         13   -1    0    0    0    0  0.00000000000E+00  0.00000000000E+00  0.14999999963E+04  0.15000000000E+04  0.10566000000E+00 0. -1.
        994   -1    0    0    0    0 -0.00000000000E+00 -0.00000000000E+00  0.11368683772E-12  0.17120000000E+03  0.17120000000E+03 0.  0.
         13    1    1    2    0    0  0.28222252155E+01 -0.59361102807E+02  0.83922558537E+02  0.10283342101E+03  0.10566000000E+00 0. -1.
        994    1    1    2    0    0 -0.14257326369E+01  0.54795062463E+02  0.30002588604E+02  0.18224743320E+03  0.17120000000E+03 0.  0.
        998    1    1    2    0    0 -0.13964925786E+01  0.45660403437E+01  0.13860748491E+04  0.13861191458E+04  0.10000000000E+02 0. -1.
</event>
<event>
 5    1  0.1556794E-008  0.3744931E+03  0.7957747E-01  0.3475493E+00
         13   -1    0    0    0    0  0.00000000000E+00  0.00000000000E+00  0.14999999963E+04  0.15000000000E+04  0.10566000000E+00 0.  1.
        994   -1    0    0    0    0 -0.00000000000E+00 -0.00000000000E+00  0.11368683772E-12  0.17120000000E+03  0.17120000000E+03 0.  0.
         13    1    1    2    0    0 -0.10281684316E+02 -0.26525674761E+02  0.27089566515E+02  0.39283332750E+02  0.10566000000E+00 0.  1.
        994    1    1    2    0    0  0.18692037059E+00 -0.17521631484E+02  0.14425895803E+02  0.17269797040E+03  0.17120000000E+03 0.  0.
        998    1    1    2    0    0  0.10094763945E+02  0.44047306245E+02  0.14584845340E+04  0.14592186969E+04  0.10000000000E+02 0.  1.
</event>
<event>
 5    1  0.1556794E-008  0.3837470E+03  0.7957747E-01  0.3435004E+00
         13   -1    0    0    0    0  0.00000000000E+00  0.00000000000E+00  0.14999999963E+04  0.15000000000E+04  0.10566000000E+00 0. -1.
        994   -1    0    0    0    0 -0.00000000000E+00 -0.00000000000E+00  0.11368683772E-12  0.17120000000E+03  0.17120000000E+03 0.  0.
         13    1    1    2    0    0 -0.15185431236E+02  0.13547898817E+02  0.97973673661E+02  0.10006495280E+03  0.10566000000E+00 0. -1.
        994    1    1    2    0    0 -0.11746170174E+01 -0.51178736160E+01  0.23445401835E+01  0.17129655345E+03  0.17120000000E+03 0.  0.
        998    1    1    2    0    0  0.16360048254E+02 -0.84300252011E+01  0.13996817824E+04  0.13998384937E+04  0.10000000000E+02 0. -1.
</event>
<event>
 5    1  0.1556794E-008  0.3838379E+03  0.7957747E-01  0.3434616E+00
         13   -1    0    0    0    0  0.00000000000E+00  0.00000000000E+00  0.14999999963E+04  0.15000000000E+04  0.10566000000E+00 0. -1.
        994   -1    0    0    0    0 -0.00000000000E+00 -0.00000000000E+00  0.11368683772E-12  0.17120000000E+03  0.17120000000E+03 0.  0.
         13    1    1    2    0    0 -0.45821241037E+00 -0.24981306806E+02  0.13076888309E+03  0.13313447186E+03  0.10566000000E+00 0. -1.
        994    1    1    2    0    0  0.21289691333E+01  0.24770878802E+02  0.42513480434E+01  0.17304809420E+03  0.17120000000E+03 0.  0.
        998    1    1    2    0    0 -0.16707567229E+01  0.21042800398E+00  0.13649797651E+04  0.13650174339E+04  0.10000000000E+02 0. -1.
</event>
<event>
 5    1  0.1556794E-008  0.3852498E+03  0.7957747E-01  0.3428613E+00
         13   -1    0    0    0    0  0.00000000000E+00  0.00000000000E+00  0.14999999963E+04  0.15000000000E+04  0.10566000000E+00 0.  1.
        994   -1    0    0    0    0 -0.00000000000E+00 -0.00000000000E+00  0.11368683772E-12  0.17120000000E+03  0.17120000000E+03 0.  0.
         13    1    1    2    0    0  0.13001288793E+02  0.10770060372E+01  0.57625919797E+02  0.59084272431E+02  0.10566000000E+00 0.  1.
        994    1    1    2    0    0 -0.58086523587E+01 -0.69550932050E+00  0.16186279852E+01  0.17130757173E+03  0.17120000000E+03 0.  0.
        998    1    1    2    0    0 -0.71926364340E+01 -0.38149671672E+00  0.14407554485E+04  0.14408081558E+04  0.10000000000E+02 0.  1.
</event>
<event>
 5    1  0.1556794E-008  0.3760867E+03  0.7957747E-01  0.3468377E+00
         13   -1    0    0    0    0  0.00000000000E+00  0.00000000000E+00  0.14999999963E+04  0.15000000000E+04  0.10566000000E+00 0.  1.
        994   -1    0    0    0    0 -0.00000000000E+00 -0.00000000000E+00  0.11368683772E-12  0.17120000000E+03  0.17120000000E+03 0.  0.
         13    1    1    2    0    0  0.55048200339E+01  0.40414266068E+02  0.19153123002E+03  0.19582604317E+03  0.10566000000E+00 0.  1.
        994    1    1    2    0    0  0.82894808415E+01  0.31067044566E+02  0.96312647732E+01  0.17445938786E+03  0.17120000000E+03 0.  0.
        998    1    1    2    0    0 -0.13794300875E+02 -0.71481310634E+02  0.12988375015E+04  0.13009145690E+04  0.10000000000E+02 0.  1.
</event>
<event>
 5    1  0.1556794E-008  0.3753358E+03  0.7957747E-01  0.3471722E+00
         13   -1    0    0    0    0  0.00000000000E+00  0.00000000000E+00  0.14999999963E+04  0.15000000000E+04  0.10566000000E+00 0.  1.
        994   -1    0    0    0    0 -0.00000000000E+00 -0.00000000000E+00  0.11368683772E-12  0.17120000000E+03  0.17120000000E+03 0.  0.
         13    1    1    2    0    0  0.29832313282E+02 -0.39820271729E+01  0.67439993657E+02  0.73851116205E+02  0.10566000000E+00 0.  1.
        994    1    1    2    0    0 -0.20485636353E+02 -0.16362849420E+02  0.88438874620E+01  0.17342162058E+03  0.17120000000E+03 0.  0.
        998    1    1    2    0    0 -0.93466769296E+01  0.20344876593E+02  0.14237161152E+04  0.14239272632E+04  0.10000000000E+02 0.  1.
</event>
<event>
 5    1  0.1556794E-008  0.3796515E+03  0.7957747E-01  0.3452677E+00
         13   -1    0    0    0    0  0.00000000000E+00  0.00000000000E+00  0.14999999963E+04  0.15000000000E+04  0.10566000000E+00 0.  1.
        994   -1    0    0    0    0 -0.00000000000E+00 -0.00000000000E+00  0.11368683772E-12  0.17120000000E+03  0.17120000000E+03 0.  0.
         13    1    1    2    0    0 -0.22430552294E+02 -0.20448532658E+02  0.11122289981E+03  0.11529014169E+03  0.10566000000E+00 0.  1.
        994    1    1    2    0    0  0.65236298976E+01  0.51944106640E+01  0.45419306969E+01  0.17146314118E+03  0.17120000000E+03 0.  0.
        998    1    1    2    0    0  0.15906922396E+02  0.15254121994E+02  0.13842351658E+04  0.13844467171E+04  0.10000000000E+02 0.  1.
</event>
<event>
 5    1  0.1556794E-008  0.3856046E+03  0.7957747E-01  0.3427112E+00
         13   -1    0    0    0    0  0.00000000000E+00  0.00000000000E+00  0.14999999963E+04  0.15000000000E+04  0.10566000000E+00 0.  1.
        994   -1    0    0    0    0 -0.00000000000E+00 -0.00000000000E+00  0.11368683772E-12  0.17120000000E+03  0.17120000000E+03 0.  0.
         13    1    1    2    0    0 -0.11307769392E+02 -0.78247964718E+01  0.81337673497E+02  0.82491947379E+02  0.10566000000E+00 0.  1.
        994    1    1    2    0    0 -0.98844543621E+01  0.21219591692E+01  0.16658163300E+01  0.17150632668E+03  0.17120000000E+03 0.  0.
        998    1    1    2    0    0  0.21192223755E+02  0.57028373027E+01  0.14169965065E+04  0.14172017259E+04  0.10000000000E+02 0.  1.
</event>
<event>
 5    1  0.1556794E-008  0.3377043E+03  0.7957747E-01  0.3658898E+00
         13   -1    0    0    0    0  0.00000000000E+00  0.00000000000E+00  0.14999999963E+04  0.15000000000E+04  0.10566000000E+00 0.  1.
        994   -1    0    0    0    0 -0.00000000000E+00 -0.00000000000E+00  0.11368683772E-12  0.17120000000E+03  0.17120000000E+03 0.  0.
         13    1    1    2    0    0 -0.14284761803E+03  0.10325444052E+03  0.99673228326E+03  0.10121967087E+04  0.10566000000E+00 0.  1.
        994    1    1    2    0    0  0.11559240499E+03 -0.86495413907E+02  0.85220677893E+02  0.23961440829E+03  0.17120000000E+03 0.  0.
        998    1    1    2    0    0  0.27255213039E+02 -0.16759026613E+02  0.41804703513E+03  0.41938888301E+03  0.10000000000E+02 0.  0.
</event>
<event>
 5    1  0.1556794E-008  0.3692170E+03  0.7957747E-01  0.3499497E+00
         13   -1    0    0    0    0  0.00000000000E+00  0.00000000000E+00  0.14999999963E+04  0.15000000000E+04  0.10566000000E+00 0. -1.
        994   -1    0    0    0    0 -0.00000000000E+00 -0.00000000000E+00  0.11368683772E-12  0.17120000000E+03  0.17120000000E+03 0.  0.
         13    1    1    2    0    0  0.57427626879E+02  0.23687641776E+02  0.15822054612E+03  0.16997879009E+03  0.10566000000E+00 0. -1.
        994    1    1    2    0    0 -0.57285069362E+02 -0.35937257466E+02  0.26643599413E+02  0.18599028748E+03  0.17120000000E+03 0.  0.
        998    1    1    2    0    0 -0.14255751712E+00  0.12249615690E+02  0.13151358508E+04  0.13152309224E+04  0.10000000000E+02 0. -1.
</event>
<event>
 5    1  0.1556794E-008  0.3736441E+03  0.7957747E-01  0.3479309E+00
         13   -1    0    0    0    0  0.00000000000E+00  0.00000000000E+00  0.14999999963E+04  0.15000000000E+04  0.10566000000E+00 0. -1.
        994   -1    0    0    0    0 -0.00000000000E+00 -0.00000000000E+00  0.11368683772E-12  0.17120000000E+03  0.17120000000E+03 0.  0.
         13    1    1    2    0    0  0.19917224653E+02 -0.39614946669E+01  0.10231635696E+02  0.22739542892E+02  0.10566000000E+00 0. -1.
        994    1    1    2    0    0 -0.18376091412E+02  0.10277775198E+02  0.14450203149E+02  0.17309408358E+03  0.17120000000E+03 0.  0.
        998    1    1    2    0    0 -0.15411332413E+01 -0.63162805315E+01  0.14753181574E+04  0.14753663735E+04  0.10000000000E+02 0. -1.
</event>
<event>
 5    1  0.1556794E-008  0.3831278E+03  0.7957747E-01  0.3437651E+00
         13   -1    0    0    0    0  0.00000000000E+00  0.00000000000E+00  0.14999999963E+04  0.15000000000E+04  0.10566000000E+00 0.  1.
        994   -1    0    0    0    0 -0.00000000000E+00 -0.00000000000E+00  0.11368683772E-12  0.17120000000E+03  0.17120000000E+03 0.  0.
         13    1    1    2    0    0 -0.15053133588E+02 -0.12505050468E+01  0.42517907409E+02  0.45121438454E+02  0.10566000000E+00 0.  1.
        994    1    1    2    0    0  0.17147831992E+02 -0.35228688194E+01  0.35771389248E+01  0.17212987733E+03  0.17120000000E+03 0.  0.
        998    1    1    2    0    0 -0.20946984040E+01  0.47733738661E+01  0.14539049499E+04  0.14539486842E+04  0.10000000000E+02 0.  1.
</event>
<event>
 5    1  0.1556794E-008  0.3776846E+03  0.7957747E-01  0.3461303E+00
         13   -1    0    0    0    0  0.00000000000E+00  0.00000000000E+00  0.14999999963E+04  0.15000000000E+04  0.10566000000E+00 0.  1.
        994   -1    0    0    0    0 -0.00000000000E+00 -0.00000000000E+00  0.11368683772E-12  0.17120000000E+03  0.17120000000E+03 0.  0.
         13    1    1    2    0    0  0.15054198276E+02 -0.34323656807E+01  0.20594765457E+02  0.25740348641E+02  0.10566000000E+00 0.  1.
        994    1    1    2    0    0 -0.24627288453E+01  0.46096544861E+01  0.53985592734E+01  0.17136481083E+03  0.17120000000E+03 0.  0.
        998    1    1    2    0    0 -0.12591469431E+02 -0.11772888054E+01  0.14740066715E+04  0.14740948405E+04  0.10000000000E+02 0.  1.
</event>
<event>
 5    1  0.1556794E-008  0.3771977E+03  0.7957747E-01  0.3463452E+00
         13   -1    0    0    0    0  0.00000000000E+00  0.00000000000E+00  0.14999999963E+04  0.15000000000E+04  0.10566000000E+00 0.  1.
        994   -1    0    0    0    0 -0.00000000000E+00 -0.00000000000E+00  0.11368683772E-12  0.17120000000E+03  0.17120000000E+03 0.  0.
         13    1    1    2    0    0 -0.32864294243E+02  0.32805736937E+02  0.22969143257E+03  0.23433831009E+03  0.10566000000E+00 0.  1.
        994    1    1    2    0    0 -0.20146480000E+02 -0.25110730433E+02  0.90595505050E+01  0.17443607682E+03  0.17120000000E+03 0.  0.
        998    1    1    2    0    0  0.53010774243E+02 -0.76950065039E+01  0.12612490132E+04  0.12624256131E+04  0.10000000000E+02 0.  1.
</event>
<event>
 5    1  0.1556794E-008  0.3700349E+03  0.7957747E-01  0.3495731E+00
         13   -1    0    0    0    0  0.00000000000E+00  0.00000000000E+00  0.14999999963E+04  0.15000000000E+04  0.10566000000E+00 0. -1.
        994   -1    0    0    0    0 -0.00000000000E+00 -0.00000000000E+00  0.11368683772E-12  0.17120000000E+03  0.17120000000E+03 0.  0.
         13    1    1    2    0    0 -0.71668323143E+01  0.78149886309E+01  0.19157748515E+01  0.10775847532E+02  0.10566000000E+00 0. -1.
        994    1    1    2    0    0  0.16190945775E+02  0.32708810951E+02  0.13869914533E+02  0.17559563653E+03  0.17120000000E+03 0.  0.
        998    1    1    2    0    0 -0.90241134606E+01 -0.40523799582E+02  0.14842143069E+04  0.14848285159E+04  0.10000000000E+02 0. -1.
</event>
<event>
 5    1  0.1556794E-008  0.3751877E+03  0.7957747E-01  0.3472384E+00
         13   -1    0    0    0    0  0.00000000000E+00  0.00000000000E+00  0.14999999963E+04  0.15000000000E+04  0.10566000000E+00 0. -1.
        994   -1    0    0    0    0 -0.00000000000E+00 -0.00000000000E+00  0.11368683772E-12  0.17120000000E+03  0.17120000000E+03 0.  0.
         13    1    1    2    0    0 -0.41722998624E+01 -0.53536298756E+02  0.29083268490E+03  0.29574855053E+03  0.10566000000E+00 0. -1.
        994    1    1    2    0    0  0.66569150157E+01 -0.71164440159E+01  0.69049938874E+01  0.17161607510E+03  0.17120000000E+03 0.  0.
        998    1    1    2    0    0 -0.24846151533E+01  0.60652742772E+02  0.12022623175E+04  0.12038353744E+04  0.10000000000E+02 0. -1.
</event>
<event>
 5    1  0.1556794E-008  0.3781450E+03  0.7957747E-01  0.3459276E+00
         13   -1    0    0    0    0  0.00000000000E+00  0.00000000000E+00  0.14999999963E+04  0.15000000000E+04  0.10566000000E+00 0. -1.
        994   -1    0    0    0    0 -0.00000000000E+00 -0.00000000000E+00  0.11368683772E-12  0.17120000000E+03  0.17120000000E+03 0.  0.
         13    1    1    2    0    0  0.54429361541E+02  0.87452545329E+02  0.57458408509E+03  0.58374428055E+03  0.10566000000E+00 0. -1.
        994    1    1    2    0    0 -0.64734846786E+02 -0.88856254783E+02  0.46865205463E+02  0.20878654623E+03  0.17120000000E+03 0.  0.
        998    1    1    2    0    0  0.10305485244E+02  0.14037094542E+01  0.87855070573E+03  0.87866917322E+03  0.10000000000E+02 0. -1.
</event>
<event>
 5    1  0.1556794E-008  0.3859396E+03  0.7957747E-01  0.3425697E+00
         13   -1    0    0    0    0  0.00000000000E+00  0.00000000000E+00  0.14999999963E+04  0.15000000000E+04  0.10566000000E+00 0. -1.
        994   -1    0    0    0    0 -0.00000000000E+00 -0.00000000000E+00  0.11368683772E-12  0.17120000000E+03  0.17120000000E+03 0.  0.
         13    1    1    2    0    0 -0.24629257264E+01  0.13599667545E+02  0.74082686701E+02  0.75360948730E+02  0.10566000000E+00 0. -1.
        994    1    1    2    0    0  0.16101266024E+02 -0.21234779694E+02  0.34962212122E+01  0.17329694227E+03  0.17120000000E+03 0.  0.
        998    1    1    2    0    0 -0.13638340298E+02  0.76351121491E+01  0.14224210884E+04  0.14225421090E+04  0.10000000000E+02 0. -1.
</event>
<event>
 5    1  0.1556794E-008  0.3779298E+03  0.7957747E-01  0.3460223E+00
         13   -1    0    0    0    0  0.00000000000E+00  0.00000000000E+00  0.14999999963E+04  0.15000000000E+04  0.10566000000E+00 0. -1.
        994   -1    0    0    0    0 -0.00000000000E+00 -0.00000000000E+00  0.11368683772E-12  0.17120000000E+03  0.17120000000E+03 0.  0.
         13    1    1    2    0    0 -0.81740431680E+01 -0.80976684758E+01  0.10261042813E+02  0.15417113222E+02  0.10566000000E+00 0. -1.
        994    1    1    2    0    0  0.51456913854E+01  0.18265528556E+02  0.63948853490E+01  0.17236717272E+03  0.17120000000E+03 0.  0.
        998    1    1    2    0    0  0.30283517826E+01 -0.10167860080E+02  0.14833440681E+04  0.14834157141E+04  0.10000000000E+02 0. -1.
</event>
<event>
 5    1  0.1556794E-008  0.3850420E+03  0.7957747E-01  0.3429494E+00
         13   -1    0    0    0    0  0.00000000000E+00  0.00000000000E+00  0.14999999963E+04  0.15000000000E+04  0.10566000000E+00 0.  1.
        994   -1    0    0    0    0 -0.00000000000E+00 -0.00000000000E+00  0.11368683772E-12  0.17120000000E+03  0.17120000000E+03 0.  0.
         13    1    1    2    0    0 -0.44222178931E+01  0.93602018969E+01  0.33761938907E+02  0.35313581997E+02  0.10566000000E+00 0.  1.
        994    1    1    2    0    0 -0.45987366185E+01 -0.54403709050E+01  0.17761582913E+01  0.17135734811E+03  0.17120000000E+03 0.  0.
        998    1    1    2    0    0  0.90209545116E+01 -0.39198309919E+01  0.14644618991E+04  0.14645290699E+04  0.10000000000E+02 0.  1.
</event>
<event>
 5    1  0.1556794E-008  0.3837597E+03  0.7957747E-01  0.3434950E+00
         13   -1    0    0    0    0  0.00000000000E+00  0.00000000000E+00  0.14999999963E+04  0.15000000000E+04  0.10566000000E+00 0.  1.
        994   -1    0    0    0    0 -0.00000000000E+00 -0.00000000000E+00  0.11368683772E-12  0.17120000000E+03  0.17120000000E+03 0.  0.
         13    1    1    2    0    0 -0.16025432286E+02 -0.60751616251E+01  0.68881553310E+02  0.70981699185E+02  0.10566000000E+00 0.  1.
        994    1    1    2    0    0  0.34002154289E+01 -0.74900450002E+01  0.24706225815E+01  0.17141530333E+03  0.17120000000E+03 0.  0.
        998    1    1    2    0    0  0.12625216858E+02  0.13565206625E+02  0.14286478204E+04  0.14288029975E+04  0.10000000000E+02 0.  1.
</event>
<event>
 5    1  0.1556794E-008  0.3860603E+03  0.7957747E-01  0.3425188E+00
         13   -1    0    0    0    0  0.00000000000E+00  0.00000000000E+00  0.14999999963E+04  0.15000000000E+04  0.10566000000E+00 0.  1.
        994   -1    0    0    0    0 -0.00000000000E+00 -0.00000000000E+00  0.11368683772E-12  0.17120000000E+03  0.17120000000E+03 0.  0.
         13    1    1    2    0    0  0.18399511775E+01  0.14582455038E+02  0.85754184081E+02  0.87004739334E+02  0.10566000000E+00 0.  1.
        994    1    1    2    0    0 -0.46267709269E+01 -0.25932967424E+02  0.33822129073E+01  0.17324781434E+03  0.17120000000E+03 0.  0.
        998    1    1    2    0    0  0.27868197494E+01  0.11350512386E+02  0.14108635993E+04  0.14109474463E+04  0.10000000000E+02 0.  1.
</event>
<event>
 5    1  0.1556794E-008  0.3815155E+03  0.7957747E-01  0.3444586E+00
         13   -1    0    0    0    0  0.00000000000E+00  0.00000000000E+00  0.14999999963E+04  0.15000000000E+04  0.10566000000E+00 0. -1.
        994   -1    0    0    0    0 -0.00000000000E+00 -0.00000000000E+00  0.11368683772E-12  0.17120000000E+03  0.17120000000E+03 0.  0.
         13    1    1    2    0    0 -0.22249959331E+02 -0.12708630635E+02  0.88068551342E+02  0.91720504154E+02  0.10566000000E+00 0. -1.
        994    1    1    2    0    0  0.27115481910E+02  0.18846918260E+02  0.70057205330E+01  0.17449634898E+03  0.17120000000E+03 0.  0.
        998    1    1    2    0    0 -0.48655225790E+01 -0.61382876246E+01  0.14049257244E+04  0.14049831469E+04  0.10000000000E+02 0. -1.
</event>
<event>
 5    1  0.1556794E-008  0.3796078E+03  0.7957747E-01  0.3452868E+00
         13   -1    0    0    0    0  0.00000000000E+00  0.00000000000E+00  0.14999999963E+04  0.15000000000E+04  0.10566000000E+00 0. -1.
        994   -1    0    0    0    0 -0.00000000000E+00 -0.00000000000E+00  0.11368683772E-12  0.17120000000E+03  0.17120000000E+03 0.  0.
         13    1    1    2    0    0 -0.11044375133E+02 -0.24085947715E+02  0.82013121103E+02  0.86187437000E+02  0.10566000000E+00 0. -1.
        994    1    1    2    0    0 -0.18702977793E+02  0.19708797058E+02  0.68062528890E+01  0.17347623220E+03  0.17120000000E+03 0.  0.
        998    1    1    2    0    0  0.29747352927E+02  0.43771506575E+01  0.14111806223E+04  0.14115363308E+04  0.10000000000E+02 0. -1.
</event>
<event>
 5    1  0.1556794E-008  0.3778320E+03  0.7957747E-01  0.3460653E+00
         13   -1    0    0    0    0  0.00000000000E+00  0.00000000000E+00  0.14999999963E+04  0.15000000000E+04  0.10566000000E+00 0.  1.
        994   -1    0    0    0    0 -0.00000000000E+00 -0.00000000000E+00  0.11368683772E-12  0.17120000000E+03  0.17120000000E+03 0.  0.
         13    1    1    2    0    0  0.10364215719E+02 -0.11540150646E+02  0.20009951643E+02  0.25318004921E+02  0.10566000000E+00 0.  1.
        994    1    1    2    0    0 -0.29789532439E+02  0.72456720609E+01  0.84027761806E+01  0.17412628364E+03  0.17120000000E+03 0.  0.
        998    1    1    2    0    0  0.19425316721E+02  0.42944785850E+01  0.14715872685E+04  0.14717557114E+04  0.10000000000E+02 0.  1.
</event>
<event>
 5    1  0.1556794E-008  0.3780853E+03  0.7957747E-01  0.3459538E+00
         13   -1    0    0    0    0  0.00000000000E+00  0.00000000000E+00  0.14999999963E+04  0.15000000000E+04  0.10566000000E+00 0. -1.
        994   -1    0    0    0    0 -0.00000000000E+00 -0.00000000000E+00  0.11368683772E-12  0.17120000000E+03  0.17120000000E+03 0.  0.
         13    1    1    2    0    0  0.27711726533E+02 -0.21103909116E+02  0.11098189049E+03  0.11631984331E+03  0.10566000000E+00 0. -1.
        994    1    1    2    0    0  0.24520085549E+01  0.58339938114E+02  0.16660330474E+02  0.18164957291E+03  0.17120000000E+03 0.  0.
        998    1    1    2    0    0 -0.30163735088E+02 -0.37236028998E+02  0.13723577753E+04  0.13732305838E+04  0.10000000000E+02 0. -1.
</event>
<event>
 5    1  0.1556794E-008  0.3843584E+03  0.7957747E-01  0.3432398E+00
         13   -1    0    0    0    0  0.00000000000E+00  0.00000000000E+00  0.14999999963E+04  0.15000000000E+04  0.10566000000E+00 0.  1.
        994   -1    0    0    0    0 -0.00000000000E+00 -0.00000000000E+00  0.11368683772E-12  0.17120000000E+03  0.17120000000E+03 0.  0.
         13    1    1    2    0    0  0.28238976910E+01  0.16807520937E+02  0.72278074650E+02  0.74260342023E+02  0.10566000000E+00 0.  1.
        994    1    1    2    0    0 -0.60317979084E+01 -0.14640370606E+02  0.27757080488E+01  0.17195309707E+03  0.17120000000E+03 0.  0.
        998    1    1    2    0    0  0.32079002174E+01 -0.21671503311E+01  0.14249462136E+04  0.14249865609E+04  0.10000000000E+02 0.  1.
</event>
<event>
 5    1  0.1556794E-008  0.3771826E+03  0.7957747E-01  0.3463518E+00
         13   -1    0    0    0    0  0.00000000000E+00  0.00000000000E+00  0.14999999963E+04  0.15000000000E+04  0.10566000000E+00 0.  1.
        994   -1    0    0    0    0 -0.00000000000E+00 -0.00000000000E+00  0.11368683772E-12  0.17120000000E+03  0.17120000000E+03 0.  0.
         13    1    1    2    0    0  0.14005287005E+02 -0.57310413670E+00  0.15389736948E+02  0.20816620278E+02  0.10566000000E+00 0.  1.
        994    1    1    2    0    0 -0.60117228564E+01 -0.55215676824E+01  0.57870029212E+01  0.17149215120E+03  0.17120000000E+03 0.  0.
        998    1    1    2    0    0 -0.79935641487E+01  0.60946718191E+01  0.14788232564E+04  0.14788912285E+04  0.10000000000E+02 0.  1.
</event>
<event>
 5    1  0.1556794E-008  0.3705118E+03  0.7957747E-01  0.3493542E+00
         13   -1    0    0    0    0  0.00000000000E+00  0.00000000000E+00  0.14999999963E+04  0.15000000000E+04  0.10566000000E+00 0. -1.
        994   -1    0    0    0    0 -0.00000000000E+00 -0.00000000000E+00  0.11368683772E-12  0.17120000000E+03  0.17120000000E+03 0.  0.
         13    1    1    2    0    0  0.43291657561E+00  0.47703586918E+02  0.64984892422E+02  0.80615550788E+02  0.10566000000E+00 0. -1.
        994    1    1    2    0    0 -0.14329945529E+02 -0.15369928480E+03  0.10002438767E+03  0.25128297916E+03  0.17120000000E+03 0.  0.
        998    1    1    2    0    0  0.13897028953E+02  0.10599569788E+03  0.13349907162E+04  0.13393014701E+04  0.10000000000E+02 0. -1.
</event>
<event>
 5    1  0.1556794E-008  0.2831153E+03  0.7957747E-01  0.4024458E+00
         13   -1    0    0    0    0  0.00000000000E+00  0.00000000000E+00  0.14999999963E+04  0.15000000000E+04  0.10566000000E+00 0.  1.
        994   -1    0    0    0    0 -0.00000000000E+00 -0.00000000000E+00  0.11368683772E-12  0.17120000000E+03  0.17120000000E+03 0.  0.
         13    1    1    2    0    0  0.22874111231E+02  0.13405084672E+03  0.65148694700E+03  0.66552844248E+03  0.10566000000E+00 0.  1.
        994    1    1    2    0    0 -0.11359723527E+02 -0.79284346368E+02  0.37531107407E+02  0.19269944193E+03  0.17120000000E+03 0.  0.
        998    1    1    2    0    0 -0.11514387704E+02 -0.54766500355E+02  0.81098194187E+03  0.81297211559E+03  0.10000000000E+02 0.  1.
</event>
<event>
 5    1  0.1556794E-008  0.3713446E+03  0.7957747E-01  0.3489734E+00
         13   -1    0    0    0    0  0.00000000000E+00  0.00000000000E+00  0.14999999963E+04  0.15000000000E+04  0.10566000000E+00 0. -1.
        994   -1    0    0    0    0 -0.00000000000E+00 -0.00000000000E+00  0.11368683772E-12  0.17120000000E+03  0.17120000000E+03 0.  0.
         13    1    1    2    0    0 -0.43908181225E+01 -0.19947708666E+02  0.12636161962E+02  0.24018203887E+02  0.10566000000E+00 0. -1.
        994    1    1    2    0    0  0.49047274905E+01  0.20537155006E+02  0.13219098601E+02  0.17300293540E+03  0.17120000000E+03 0.  0.
        998    1    1    2    0    0 -0.51390936800E+00 -0.58944634021E+00  0.14741447357E+04  0.14741788607E+04  0.10000000000E+02 0. -1.
</event>
<event>
 5    1  0.1556794E-008  0.3780919E+03  0.7957747E-01  0.3459509E+00
         13   -1    0    0    0    0  0.00000000000E+00  0.00000000000E+00  0.14999999963E+04  0.15000000000E+04  0.10566000000E+00 0.  1.
        994   -1    0    0    0    0 -0.00000000000E+00 -0.00000000000E+00  0.11368683772E-12  0.17120000000E+03  0.17120000000E+03 0.  0.
         13    1    1    2    0    0 -0.22049743165E+02  0.30961700273E+02  0.12617277906E+03  0.13177404675E+03  0.10566000000E+00 0.  1.
        994    1    1    2    0    0  0.23887818912E+02 -0.35018323015E+02  0.11168420111E+02  0.17672318593E+03  0.17120000000E+03 0.  0.
        998    1    1    2    0    0 -0.18380757468E+01  0.40566227421E+01  0.13626587971E+04  0.13627027673E+04  0.10000000000E+02 0.  0.
</event>
<event>
 5    1  0.1556794E-008  0.3765430E+03  0.7957747E-01  0.3466351E+00
         13   -1    0    0    0    0  0.00000000000E+00  0.00000000000E+00  0.14999999963E+04  0.15000000000E+04  0.10566000000E+00 0. -1.
        994   -1    0    0    0    0 -0.00000000000E+00 -0.00000000000E+00  0.11368683772E-12  0.17120000000E+03  0.17120000000E+03 0.  0.
         13    1    1    2    0    0 -0.86929651952E+01  0.51327597647E+02  0.82469160238E+02  0.97525706758E+02  0.10566000000E+00 0. -1.
        994    1    1    2    0    0  0.82562799762E+01 -0.58170498085E+02  0.26898282253E+02  0.18298888107E+03  0.17120000000E+03 0.  0.
        998    1    1    2    0    0  0.43668521904E+00  0.68429004378E+01  0.13906325538E+04  0.13906854122E+04  0.10000000000E+02 0. -1.
</event>
<event>
 5    1  0.1556794E-008  0.3769332E+03  0.7957747E-01  0.3464622E+00
         13   -1    0    0    0    0  0.00000000000E+00  0.00000000000E+00  0.14999999963E+04  0.15000000000E+04  0.10566000000E+00 0. -1.
        994   -1    0    0    0    0 -0.00000000000E+00 -0.00000000000E+00  0.11368683772E-12  0.17120000000E+03  0.17120000000E+03 0.  0.
         13    1    1    2    0    0 -0.10574863225E+03  0.52813557532E+02  0.60663304454E+03  0.61804183270E+03  0.10566000000E+00 0. -1.
        994    1    1    2    0    0  0.12558952688E+03 -0.38916142429E+02  0.66496578151E+02  0.22587259752E+03  0.17120000000E+03 0.  0.
        998    1    1    2    0    0 -0.19840894624E+02 -0.13897415103E+02  0.82687037359E+03  0.82728556978E+03  0.10000000000E+02 0.  1.
</event>
<event>
 5    1  0.1556794E-008  0.3873631E+03  0.7957747E-01  0.3419711E+00
         13   -1    0    0    0    0  0.00000000000E+00  0.00000000000E+00  0.14999999963E+04  0.15000000000E+04  0.10566000000E+00 0. -1.
        994   -1    0    0    0    0 -0.00000000000E+00 -0.00000000000E+00  0.11368683772E-12  0.17120000000E+03  0.17120000000E+03 0.  0.
         13    1    1    2    0    0 -0.40806793175E+02 -0.76856734235E+02  0.21658940012E+03  0.23341621918E+03  0.10566000000E+00 0. -1.
        994    1    1    2    0    0 -0.37602029594E+02  0.31380729342E+02  0.29419937878E+02  0.18048167649E+03  0.17120000000E+03 0.  0.
        998    1    1    2    0    0  0.78408822769E+02  0.45476004893E+02  0.12539906583E+04  0.12573021043E+04  0.10000000000E+02 0. -1.
</event>
<event>
 5    1  0.1556794E-008  0.3741552E+03  0.7957747E-01  0.3477010E+00
         13   -1    0    0    0    0  0.00000000000E+00  0.00000000000E+00  0.14999999963E+04  0.15000000000E+04  0.10566000000E+00 0.  1.
        994   -1    0    0    0    0 -0.00000000000E+00 -0.00000000000E+00  0.11368683772E-12  0.17120000000E+03  0.17120000000E+03 0.  0.
         13    1    1    2    0    0  0.29430478106E+02 -0.76163475914E+01  0.61864952602E+02  0.68930728392E+02  0.10566000000E+00 0.  1.
        994    1    1    2    0    0 -0.20310059381E+02  0.75914379851E+01  0.87174697848E+01  0.17278762317E+03  0.17120000000E+03 0.  0.
        998    1    1    2    0    0 -0.91204187247E+01  0.24909606261E-01  0.14294175739E+04  0.14294816484E+04  0.10000000000E+02 0.  1.
</event>
<event>
 5    1  0.1556794E-008  0.3812790E+03  0.7957747E-01  0.3445608E+00
         13   -1    0    0    0    0  0.00000000000E+00  0.00000000000E+00  0.14999999963E+04  0.15000000000E+04  0.10566000000E+00 0. -1.
        994   -1    0    0    0    0 -0.00000000000E+00 -0.00000000000E+00  0.11368683772E-12  0.17120000000E+03  0.17120000000E+03 0.  0.
         13    1    1    2    0    0 -0.37659329410E+01  0.11624540292E+02  0.20395272940E+02  0.23775838792E+02  0.10566000000E+00 0. -1.
        994    1    1    2    0    0  0.46619832226E+01  0.34751656063E-01  0.35612443997E+01  0.17130048966E+03  0.17120000000E+03 0.  0.
        998    1    1    2    0    0 -0.89605028153E+00 -0.11659291948E+02  0.14760434789E+04  0.14761236716E+04  0.10000000000E+02 0. -1.
</event>
<event>
 5    1  0.1556794E-008  0.3780633E+03  0.7957747E-01  0.3459635E+00
         13   -1    0    0    0    0  0.00000000000E+00  0.00000000000E+00  0.14999999963E+04  0.15000000000E+04  0.10566000000E+00 0.  1.
        994   -1    0    0    0    0 -0.00000000000E+00 -0.00000000000E+00  0.11368683772E-12  0.17120000000E+03  0.17120000000E+03 0.  0.
         13    1    1    2    0    0  0.20210872941E+02  0.20764786643E+02  0.10421707168E+03  0.10817053639E+03  0.10566000000E+00 0.  1.
        994    1    1    2    0    0 -0.66971373148E+01  0.53190032199E+02  0.14845210850E+02  0.18001069818E+03  0.17120000000E+03 0.  0.
        998    1    1    2    0    0 -0.13513735626E+02 -0.73954818842E+02  0.13809377137E+04  0.13830187654E+04  0.10000000000E+02 0.  1.
</event>
<event>
 5    1  0.1556794E-008  0.3837217E+03  0.7957747E-01  0.3435112E+00
         13   -1    0    0    0    0  0.00000000000E+00  0.00000000000E+00  0.14999999963E+04  0.15000000000E+04  0.10566000000E+00 0.  1.
        994   -1    0    0    0    0 -0.00000000000E+00 -0.00000000000E+00  0.11368683772E-12  0.17120000000E+03  0.17120000000E+03 0.  0.
         13    1    1    2    0    0  0.23350435656E+02 -0.99429650554E+01  0.14108640840E+03  0.14335093721E+03  0.10566000000E+00 0.  1.
        994    1    1    2    0    0 -0.13931542206E+02  0.75641977125E+01  0.30964707318E+01  0.17196026601E+03  0.17120000000E+03 0.  0.
        998    1    1    2    0    0 -0.94188934500E+01  0.23787673430E+01  0.13558171171E+04  0.13558887968E+04  0.10000000000E+02 0.  1.
</event>
<event>
 5    1  0.1556794E-008  0.3695192E+03  0.7957747E-01  0.3498103E+00
         13   -1    0    0    0    0  0.00000000000E+00  0.00000000000E+00  0.14999999963E+04  0.15000000000E+04  0.10566000000E+00 0.  1.
        994   -1    0    0    0    0 -0.00000000000E+00 -0.00000000000E+00  0.11368683772E-12  0.17120000000E+03  0.17120000000E+03 0.  0.
         13    1    1    2    0    0  0.57259379536E+01 -0.37482792907E+02  0.61322225894E+02  0.72098354226E+02  0.10566000000E+00 0.  1.
        994    1    1    2    0    0 -0.73423742536E+00  0.36152401347E+02  0.15262035076E+02  0.17564141010E+03  0.17120000000E+03 0.  0.
        998    1    1    2    0    0 -0.49917005282E+01  0.13303915595E+01  0.14234157353E+04  0.14234602357E+04  0.10000000000E+02 0.  1.
</event>
<event>
 5    1  0.1556794E-008  0.3832055E+03  0.7957747E-01  0.3437319E+00
         13   -1    0    0    0    0  0.00000000000E+00  0.00000000000E+00  0.14999999963E+04  0.15000000000E+04  0.10566000000E+00 0. -1.
        994   -1    0    0    0    0 -0.00000000000E+00 -0.00000000000E+00  0.11368683772E-12  0.17120000000E+03  0.17120000000E+03 0.  0.
         13    1    1    2    0    0 -0.13146269801E+02  0.42591759653E+00  0.33002453400E+02  0.35527157358E+02  0.10566000000E+00 0. -1.
        994    1    1    2    0    0  0.12516348844E+02 -0.29033818408E+01  0.30700073890E+01  0.17170892103E+03  0.17120000000E+03 0.  0.
        998    1    1    2    0    0  0.62992095720E+00  0.24774642442E+01  0.14639275355E+04  0.14639639216E+04  0.10000000000E+02 0. -1.
</event>
<event>
 5    1  0.1556794E-008  0.3751933E+03  0.7957747E-01  0.3472359E+00
         13   -1    0    0    0    0  0.00000000000E+00  0.00000000000E+00  0.14999999963E+04  0.15000000000E+04  0.10566000000E+00 0. -1.
        994   -1    0    0    0    0 -0.00000000000E+00 -0.00000000000E+00  0.11368683772E-12  0.17120000000E+03  0.17120000000E+03 0.  0.
         13    1    1    2    0    0 -0.81697865727E+00 -0.25112267176E+03  0.12099339049E+04  0.12357197616E+04  0.10566000000E+00 0. -1.
        994    1    1    2    0    0  0.29807697239E+01  0.22705712142E+03  0.21653097835E+03  0.35743380641E+03  0.17120000000E+03 0.  0.
        998    1    1    2    0    0 -0.21637910667E+01  0.24065550340E+02  0.73535113017E+02  0.78046432022E+02  0.10000000000E+02 0.  0.
</event>
<event>
 5    1  0.1556794E-008  0.3762545E+03  0.7957747E-01  0.3467631E+00
         13   -1    0    0    0    0  0.00000000000E+00  0.00000000000E+00  0.14999999963E+04  0.15000000000E+04  0.10566000000E+00 0. -1.
        994   -1    0    0    0    0 -0.00000000000E+00 -0.00000000000E+00  0.11368683772E-12  0.17120000000E+03  0.17120000000E+03 0.  0.
         13    1    1    2    0    0 -0.14311709595E+02 -0.66390530885E+02  0.27544030490E+03  0.28368979599E+03  0.10566000000E+00 0. -1.
        994    1    1    2    0    0  0.15160554453E+02  0.82314579653E+02  0.30129851449E+02  0.19293206157E+03  0.17120000000E+03 0.  0.
        998    1    1    2    0    0 -0.84884485801E+00 -0.15924048768E+02  0.11944298399E+04  0.11945781424E+04  0.10000000000E+02 0. -1.
</event>
<event>
 5    1  0.1556794E-008  0.3800942E+03  0.7957747E-01  0.3450749E+00
         13   -1    0    0    0    0  0.00000000000E+00  0.00000000000E+00  0.14999999963E+04  0.15000000000E+04  0.10566000000E+00 0. -1.
        994   -1    0    0    0    0 -0.00000000000E+00 -0.00000000000E+00  0.11368683772E-12  0.17120000000E+03  0.17120000000E+03 0.  0.
         13    1    1    2    0    0  0.97850096406E+01 -0.52536816583E+01  0.13207062311E+02  0.17256455127E+02  0.10566000000E+00 0. -1.
        994    1    1    2    0    0 -0.12195362615E+02  0.18500120466E+01  0.45942508361E+01  0.17170526071E+03  0.17120000000E+03 0.  0.
        998    1    1    2    0    0  0.24103529748E+01  0.34036696117E+01  0.14821986831E+04  0.14822382842E+04  0.10000000000E+02 0. -1.
</event>
<event>
 5    1  0.1556794E-008  0.3823096E+03  0.7957747E-01  0.3441163E+00
         13   -1    0    0    0    0  0.00000000000E+00  0.00000000000E+00  0.14999999963E+04  0.15000000000E+04  0.10566000000E+00 0. -1.
        994   -1    0    0    0    0 -0.00000000000E+00 -0.00000000000E+00  0.11368683772E-12  0.17120000000E+03  0.17120000000E+03 0.  0.
         13    1    1    2    0    0 -0.20626225219E+02  0.10068737290E+02  0.83653871922E+02  0.86745617117E+02  0.10566000000E+00 0. -1.
        994    1    1    2    0    0  0.19799721356E+02 -0.12052824204E+02  0.47563494282E+01  0.17282755104E+03  0.17120000000E+03 0.  0.
        998    1    1    2    0    0  0.82650386361E+00  0.19840869138E+01  0.14115897749E+04  0.14116268318E+04  0.10000000000E+02 0. -1.
</event>
<event>
 5    1  0.1556794E-008  0.3748032E+03  0.7957747E-01  0.3474103E+00
         13   -1    0    0    0    0  0.00000000000E+00  0.00000000000E+00  0.14999999963E+04  0.15000000000E+04  0.10566000000E+00 0.  1.
        994   -1    0    0    0    0 -0.00000000000E+00 -0.00000000000E+00  0.11368683772E-12  0.17120000000E+03  0.17120000000E+03 0.  0.
         13    1    1    2    0    0 -0.59425974707E+02 -0.23727611152E+02  0.26154556548E+03  0.26925924309E+03  0.10566000000E+00 0.  1.
        994    1    1    2    0    0  0.48685822328E+02  0.31524961717E+02  0.18310167770E+02  0.18168333647E+03  0.17120000000E+03 0.  0.
        998    1    1    2    0    0  0.10740152379E+02 -0.77973505653E+01  0.12201442630E+04  0.12202574204E+04  0.10000000000E+02 0.  1.
</event>
<event>
 5    1  0.1556794E-008  0.3834888E+03  0.7957747E-01  0.3436107E+00
         13   -1    0    0    0    0  0.00000000000E+00  0.00000000000E+00  0.14999999963E+04  0.15000000000E+04  0.10566000000E+00 0.  1.
        994   -1    0    0    0    0 -0.00000000000E+00 -0.00000000000E+00  0.11368683772E-12  0.17120000000E+03  0.17120000000E+03 0.  0.
         13    1    1    2    0    0  0.34731717063E+01 -0.25094938203E+02  0.13143347020E+03  0.13385285615E+03  0.10566000000E+00 0.  1.
        994    1    1    2    0    0 -0.63980573320E+01  0.17323313342E+02  0.35101646410E+01  0.17222889879E+03  0.17120000000E+03 0.  0.
        998    1    1    2    0    0  0.29248856258E+01  0.77716248608E+01  0.13650563614E+04  0.13651182451E+04  0.10000000000E+02 0.  1.
</event>
<event>
 5    1  0.1556794E-008  0.3835981E+03  0.7957747E-01  0.3435640E+00
         13   -1    0    0    0    0  0.00000000000E+00  0.00000000000E+00  0.14999999963E+04  0.15000000000E+04  0.10566000000E+00 0.  1.
        994   -1    0    0    0    0 -0.00000000000E+00 -0.00000000000E+00  0.11368683772E-12  0.17120000000E+03  0.17120000000E+03 0.  0.
         13    1    1    2    0    0 -0.14360610027E+02 -0.89352869029E+01  0.61928230432E+02  0.64196443522E+02  0.10566000000E+00 0.  1.
        994    1    1    2    0    0 -0.12110688257E+01  0.16988889139E+02  0.32866806007E+01  0.17207652748E+03  0.17120000000E+03 0.  0.
        998    1    1    2    0    0  0.15571678853E+02 -0.80536022360E+01  0.14347850852E+04  0.14349270290E+04  0.10000000000E+02 0.  1.
</event>
<event>
 5    1  0.1556794E-008  0.3873522E+03  0.7957747E-01  0.3419757E+00
         13   -1    0    0    0    0  0.00000000000E+00  0.00000000000E+00  0.14999999963E+04  0.15000000000E+04  0.10566000000E+00 0.  1.
        994   -1    0    0    0    0 -0.00000000000E+00 -0.00000000000E+00  0.11368683772E-12  0.17120000000E+03  0.17120000000E+03 0.  0.
         13    1    1    2    0    0 -0.28302660823E+02  0.25042980100E+02  0.26711712619E+02  0.46278701549E+02  0.10566000000E+00 0.  1.
        994    1    1    2    0    0  0.18807391107E+02 -0.27397425929E+02  0.24549404067E+02  0.17611487770E+03  0.17120000000E+03 0.  0.
        998    1    1    2    0    0  0.94952697164E+01  0.23544458284E+01  0.14487388796E+04  0.14488064207E+04  0.10000000000E+02 0.  1.
</event>
<event>
 5    1  0.1556794E-008  0.3860983E+03  0.7957747E-01  0.3425027E+00
         13   -1    0    0    0    0  0.00000000000E+00  0.00000000000E+00  0.14999999963E+04  0.15000000000E+04  0.10566000000E+00 0.  1.
        994   -1    0    0    0    0 -0.00000000000E+00 -0.00000000000E+00  0.11368683772E-12  0.17120000000E+03  0.17120000000E+03 0.  0.
         13    1    1    2    0    0  0.11556904811E+02  0.74720217762E+01  0.80283160831E+02  0.81454221715E+02  0.10566000000E+00 0.  1.
        994    1    1    2    0    0 -0.18092464504E+02 -0.95355084664E+01  0.24576576029E+01  0.17243475077E+03  0.17120000000E+03 0.  0.
        998    1    1    2    0    0  0.65355596929E+01  0.20634866902E+01  0.14172591778E+04  0.14173110275E+04  0.10000000000E+02 0.  1.
</event>
<event>
 5    1  0.1556794E-008  0.3963062E+03  0.7957747E-01  0.3383092E+00
         13   -1    0    0    0    0  0.00000000000E+00  0.00000000000E+00  0.14999999963E+04  0.15000000000E+04  0.10566000000E+00 0.  1.
        994   -1    0    0    0    0 -0.00000000000E+00 -0.00000000000E+00  0.11368683772E-12  0.17120000000E+03  0.17120000000E+03 0.  0.
         13    1    1    2    0    0  0.86951040814E+02 -0.34543457776E+02  0.19618546792E+03  0.21735335967E+03  0.10566000000E+00 0.  1.
        994    1    1    2    0    0 -0.99145535004E+01  0.98400917657E+01  0.26343295920E+02  0.17377725690E+03  0.17120000000E+03 0.  0.
        998    1    1    2    0    0 -0.77036487314E+02  0.24703366011E+02  0.12774712324E+04  0.12800693834E+04  0.10000000000E+02 0.  1.
</event>
<event>
 5    1  0.1556794E-008  0.3809260E+03  0.7957747E-01  0.3447137E+00
         13   -1    0    0    0    0  0.00000000000E+00  0.00000000000E+00  0.14999999963E+04  0.15000000000E+04  0.10566000000E+00 0.  1.
        994   -1    0    0    0    0 -0.00000000000E+00 -0.00000000000E+00  0.11368683772E-12  0.17120000000E+03  0.17120000000E+03 0.  0.
         13    1    1    2    0    0  0.13707215280E+02  0.45998589471E+01  0.27089656829E+02  0.30706792802E+02  0.10566000000E+00 0.  1.
        994    1    1    2    0    0 -0.11549700832E+02  0.40948410406E+01  0.41670718191E+01  0.17168857795E+03  0.17120000000E+03 0.  0.
        998    1    1    2    0    0 -0.21575144474E+01 -0.86946999877E+01  0.14687432676E+04  0.14688046292E+04  0.10000000000E+02 0.  1.
</event>
<event>
 5    1  0.1556794E-008  0.3801254E+03  0.7957747E-01  0.3450613E+00
         13   -1    0    0    0    0  0.00000000000E+00  0.00000000000E+00  0.14999999963E+04  0.15000000000E+04  0.10566000000E+00 0.  1.
        994   -1    0    0    0    0 -0.00000000000E+00 -0.00000000000E+00  0.11368683772E-12  0.17120000000E+03  0.17120000000E+03 0.  0.
         13    1    1    2    0    0 -0.19000416795E+02 -0.18705917581E+01  0.43849552150E+02  0.47825822938E+02  0.10566000000E+00 0.  1.
        994    1    1    2    0    0  0.87552091736E+01  0.25485599591E+00  0.43262503474E+01  0.17147849743E+03  0.17120000000E+03 0.  0.
        998    1    1    2    0    0  0.10245207622E+02  0.16157357621E+01  0.14518241938E+04  0.14518956796E+04  0.10000000000E+02 0.  1.
</event>
<event>
 5    1  0.1556794E-008  0.3795122E+03  0.7957747E-01  0.3453285E+00
         13   -1    0    0    0    0  0.00000000000E+00  0.00000000000E+00  0.14999999963E+04  0.15000000000E+04  0.10566000000E+00 0.  1.
        994   -1    0    0    0    0 -0.00000000000E+00 -0.00000000000E+00  0.11368683772E-12  0.17120000000E+03  0.17120000000E+03 0.  0.
         13    1    1    2    0    0 -0.12614790353E+03 -0.70179890280E+01  0.63660215286E+03  0.64901838027E+03  0.10566000000E+00 0.  1.
        994    1    1    2    0    0  0.16359083982E+03 -0.35934598407E+02  0.10488250407E+03  0.26146326300E+03  0.17120000000E+03 0.  0.
        998    1    1    2    0    0 -0.37442936294E+02  0.42952587435E+02  0.75851533935E+03  0.76071835674E+03  0.10000000000E+02 0.  1.
</event>
<event>
 5    1  0.1556794E-008  0.3703027E+03  0.7957747E-01  0.3494501E+00
         13   -1    0    0    0    0  0.00000000000E+00  0.00000000000E+00  0.14999999963E+04  0.15000000000E+04  0.10566000000E+00 0.  1.
        994   -1    0    0    0    0 -0.00000000000E+00 -0.00000000000E+00  0.11368683772E-12  0.17120000000E+03  0.17120000000E+03 0.  0.
         13    1    1    2    0    0  0.14975730603E+03  0.11994105504E+03  0.82552586837E+03  0.84752939648E+03  0.10566000000E+00 0.  1.
        994    1    1    2    0    0 -0.14243495984E+03 -0.11824453391E+03  0.13875469543E+03  0.28780513041E+03  0.17120000000E+03 0.  0.
        998    1    1    2    0    0 -0.73223461901E+01 -0.16965211244E+01  0.53571943248E+03  0.53586547311E+03  0.10000000000E+02 0. -1.
</event>
<event>
 5    1  0.1556794E-008  0.3772388E+03  0.7957747E-01  0.3463270E+00
         13   -1    0    0    0    0  0.00000000000E+00  0.00000000000E+00  0.14999999963E+04  0.15000000000E+04  0.10566000000E+00 0. -1.
        994   -1    0    0    0    0 -0.00000000000E+00 -0.00000000000E+00  0.11368683772E-12  0.17120000000E+03  0.17120000000E+03 0.  0.
         13    1    1    2    0    0  0.10057766497E+02  0.26233063578E+02  0.66658389095E+02  0.72337295307E+02  0.10566000000E+00 0. -1.
        994    1    1    2    0    0 -0.10499456671E+02 -0.25876556848E+02  0.81689472802E+01  0.17365484872E+03  0.17120000000E+03 0.  0.
        998    1    1    2    0    0  0.44169017329E+00 -0.35650672986E+00  0.14251726599E+04  0.14252078560E+04  0.10000000000E+02 0. -1.
</event>
<event>
 5    1  0.1556794E-008  0.4311237E+03  0.7957747E-01  0.3254881E+00
         13   -1    0    0    0    0  0.00000000000E+00  0.00000000000E+00  0.14999999963E+04  0.15000000000E+04  0.10566000000E+00 0. -1.
        994   -1    0    0    0    0 -0.00000000000E+00 -0.00000000000E+00  0.11368683772E-12  0.17120000000E+03  0.17120000000E+03 0.  0.
         13    1    1    2    0    0  0.81628872288E+01 -0.17695395163E+02 -0.16236413381E+02  0.25365173396E+02  0.10566000000E+00 0. -1.
        994    1    1    2    0    0 -0.52577823072E+01  0.26719399045E+02  0.51230149199E+02  0.18076376503E+03  0.17120000000E+03 0.  0.
        998    1    1    2    0    0 -0.29051049216E+01 -0.90240038821E+01  0.14650062605E+04  0.14650710616E+04  0.10000000000E+02 0. -1.
</event>
<event>
 5    1  0.1556794E-008  0.3751897E+03  0.7957747E-01  0.3472375E+00
         13   -1    0    0    0    0  0.00000000000E+00  0.00000000000E+00  0.14999999963E+04  0.15000000000E+04  0.10566000000E+00 0.  1.
        994   -1    0    0    0    0 -0.00000000000E+00 -0.00000000000E+00  0.11368683772E-12  0.17120000000E+03  0.17120000000E+03 0.  0.
         13    1    1    2    0    0 -0.32931226379E+02  0.13162925260E+02  0.98496120324E+02  0.10468631790E+03  0.10566000000E+00 0.  1.
        994    1    1    2    0    0  0.17394279017E+01 -0.19622166777E+02  0.79006781286E+01  0.17251062504E+03  0.17120000000E+03 0.  0.
        998    1    1    2    0    0  0.31191798477E+02  0.64592415170E+01  0.13936031978E+04  0.13940030571E+04  0.10000000000E+02 0.  1.
</event>
<event>
 5    1  0.1556794E-008  0.3803920E+03  0.7957747E-01  0.3449453E+00
         13   -1    0    0    0    0  0.00000000000E+00  0.00000000000E+00  0.14999999963E+04  0.15000000000E+04  0.10566000000E+00 0.  1.
        994   -1    0    0    0    0 -0.00000000000E+00 -0.00000000000E+00  0.11368683772E-12  0.17120000000E+03  0.17120000000E+03 0.  0.
         13    1    1    2    0    0  0.32580696264E+01  0.10483927189E+02  0.13560347154E+02  0.17447691136E+02  0.10566000000E+00 0.  1.
        994    1    1    2    0    0 -0.44951918567E+01 -0.86543858009E+01  0.42529878273E+01  0.17153026861E+03  0.17120000000E+03 0.  0.
        998    1    1    2    0    0  0.12371222304E+01 -0.18295413878E+01  0.14821866613E+04  0.14822220403E+04  0.10000000000E+02 0.  1.
</event>
<event>
 5    1  0.1556794E-008  0.3793461E+03  0.7957747E-01  0.3454011E+00
         13   -1    0    0    0    0  0.00000000000E+00  0.00000000000E+00  0.14999999963E+04  0.15000000000E+04  0.10566000000E+00 0.  1.
        994   -1    0    0    0    0 -0.00000000000E+00 -0.00000000000E+00  0.11368683772E-12  0.17120000000E+03  0.17120000000E+03 0.  0.
         13    1    1    2    0    0 -0.55127271929E+02  0.22330053846E+02  0.34263303416E+03  0.34775717775E+03  0.10566000000E+00 0.  1.
        994    1    1    2    0    0  0.42093065956E+02 -0.25857142130E+02  0.12683177357E+02  0.17863572148E+03  0.17120000000E+03 0.  0.
        998    1    1    2    0    0  0.13034205972E+02  0.35270882844E+01  0.11446837848E+04  0.11448071008E+04  0.10000000000E+02 0.  1.
</event>
<event>
 5    1  0.1556794E-008  0.3821416E+03  0.7957747E-01  0.3441886E+00
         13   -1    0    0    0    0  0.00000000000E+00  0.00000000000E+00  0.14999999963E+04  0.15000000000E+04  0.10566000000E+00 0. -1.
        994   -1    0    0    0    0 -0.00000000000E+00 -0.00000000000E+00  0.11368683772E-12  0.17120000000E+03  0.17120000000E+03 0.  0.
         13    1    1    2    0    0  0.28284164483E+01  0.13587130087E+02  0.28399712105E+02  0.31609569046E+02  0.10566000000E+00 0. -1.
        994    1    1    2    0    0  0.36388903969E+02 -0.37939619719E+02  0.12284261858E+02  0.17951019516E+03  0.17120000000E+03 0.  0.
        998    1    1    2    0    0 -0.39217320417E+02  0.24352489632E+02  0.14593160223E+04  0.14600802358E+04  0.10000000000E+02 0. -1.
</event>
<event>
 5    1  0.1556794E-008  0.3775423E+03  0.7957747E-01  0.3461930E+00
         13   -1    0    0    0    0  0.00000000000E+00  0.00000000000E+00  0.14999999963E+04  0.15000000000E+04  0.10566000000E+00 0. -1.
        994   -1    0    0    0    0 -0.00000000000E+00 -0.00000000000E+00  0.11368683772E-12  0.17120000000E+03  0.17120000000E+03 0.  0.
         13    1    1    2    0    0 -0.75647783802E+01  0.18579278040E+02  0.35043098614E+02  0.40378773743E+02  0.10566000000E+00 0. -1.
        994    1    1    2    0    0  0.20024761493E+01 -0.15886652387E+02  0.62435427643E+01  0.17206050523E+03  0.17120000000E+03 0.  0.
        998    1    1    2    0    0  0.55623022310E+01 -0.26926256536E+01  0.14587133549E+04  0.14587607210E+04  0.10000000000E+02 0. -1.
</event>
<event>
 5    1  0.1556794E-008  0.3723760E+03  0.7957747E-01  0.3485042E+00
         13   -1    0    0    0    0  0.00000000000E+00  0.00000000000E+00  0.14999999963E+04  0.15000000000E+04  0.10566000000E+00 0.  1.
        994   -1    0    0    0    0 -0.00000000000E+00 -0.00000000000E+00  0.11368683772E-12  0.17120000000E+03  0.17120000000E+03 0.  0.
         13    1    1    2    0    0  0.53697358875E+02 -0.10274313598E+03  0.65020777096E+03  0.66046174372E+03  0.10566000000E+00 0.  1.
        994    1    1    2    0    0 -0.57183574429E+02  0.72342468515E+02  0.37783903656E+02  0.19809204252E+03  0.17120000000E+03 0.  0.
        998    1    1    2    0    0  0.34862155549E+01  0.30400667461E+02  0.81200832166E+03  0.81264621376E+03  0.10000000000E+02 0.  1.
</event>
<event>
 5    1  0.1556794E-008  0.3792140E+03  0.7957747E-01  0.3454588E+00
         13   -1    0    0    0    0  0.00000000000E+00  0.00000000000E+00  0.14999999963E+04  0.15000000000E+04  0.10566000000E+00 0. -1.
        994   -1    0    0    0    0 -0.00000000000E+00 -0.00000000000E+00  0.11368683772E-12  0.17120000000E+03  0.17120000000E+03 0.  0.
         13    1    1    2    0    0 -0.17677189591E+01  0.22268151018E+02  0.51346322209E+02  0.55995101112E+02  0.10566000000E+00 0. -1.
        994    1    1    2    0    0 -0.22947308326E+01 -0.25297053432E+02  0.66959396918E+01  0.17320358631E+03  0.17120000000E+03 0.  0.
        998    1    1    2    0    0  0.40624497916E+01  0.30289024132E+01  0.14419577344E+04  0.14420013126E+04  0.10000000000E+02 0. -1.
</event>
<event>
 5    1  0.1556794E-008  0.3808633E+03  0.7957747E-01  0.3447408E+00
         13   -1    0    0    0    0  0.00000000000E+00  0.00000000000E+00  0.14999999963E+04  0.15000000000E+04  0.10566000000E+00 0.  1.
        994   -1    0    0    0    0 -0.00000000000E+00 -0.00000000000E+00  0.11368683772E-12  0.17120000000E+03  0.17120000000E+03 0.  0.
         13    1    1    2    0    0 -0.22179605264E+02  0.19458648403E+02  0.10986761684E+03  0.11376061832E+03  0.10566000000E+00 0.  1.
        994    1    1    2    0    0  0.18885087758E+02 -0.21224805975E+02  0.63931903487E+01  0.17365901016E+03  0.17120000000E+03 0.  0.
        998    1    1    2    0    0  0.32945175065E+01  0.17661575727E+01  0.13837391891E+04  0.13837803715E+04  0.10000000000E+02 0.  1.
</event>
<event>
 5    1  0.1556794E-008  0.3802941E+03  0.7957747E-01  0.3449879E+00
         13   -1    0    0    0    0  0.00000000000E+00  0.00000000000E+00  0.14999999963E+04  0.15000000000E+04  0.10566000000E+00 0. -1.
        994   -1    0    0    0    0 -0.00000000000E+00 -0.00000000000E+00  0.11368683772E-12  0.17120000000E+03  0.17120000000E+03 0.  0.
         13    1    1    2    0    0  0.94905736236E+01 -0.31249771412E+02  0.12546908620E+03  0.12964999790E+03  0.10566000000E+00 0. -1.
        994    1    1    2    0    0 -0.78801498545E+01  0.27715969668E+02  0.67625630347E+01  0.17373958672E+03  0.17120000000E+03 0.  0.
        998    1    1    2    0    0 -0.16104237691E+01  0.35338017437E+01  0.13677683470E+04  0.13678104154E+04  0.10000000000E+02 0. -1.
</event>
<event>
 5    1  0.1556794E-008  0.3857853E+03  0.7957747E-01  0.3426348E+00
         13   -1    0    0    0    0  0.00000000000E+00  0.00000000000E+00  0.14999999963E+04  0.15000000000E+04  0.10566000000E+00 0. -1.
        994   -1    0    0    0    0 -0.00000000000E+00 -0.00000000000E+00  0.11368683772E-12  0.17120000000E+03  0.17120000000E+03 0.  0.
         13    1    1    2    0    0  0.58186637880E+01  0.12199105876E+02  0.81747305122E+02  0.82857154738E+02  0.10566000000E+00 0. -1.
        994    1    1    2    0    0  0.30081778114E+01  0.16382140715E+01  0.12792240736E+01  0.17123904138E+03  0.17120000000E+03 0.  0.
        998    1    1    2    0    0 -0.88268415994E+01 -0.13837319948E+02  0.14169734671E+04  0.14171038039E+04  0.10000000000E+02 0. -1.
</event>
<event>
 5    1  0.1556794E-008  0.3690865E+03  0.7957747E-01  0.3500100E+00
         13   -1    0    0    0    0  0.00000000000E+00  0.00000000000E+00  0.14999999963E+04  0.15000000000E+04  0.10566000000E+00 0.  1.
        994   -1    0    0    0    0 -0.00000000000E+00 -0.00000000000E+00  0.11368683772E-12  0.17120000000E+03  0.17120000000E+03 0.  0.
         13    1    1    2    0    0 -0.58437678322E+01  0.86977081725E+01  0.34412145102E+00  0.10484719049E+02  0.10566000000E+00 0.  1.
        994    1    1    2    0    0  0.44301741262E+01 -0.92210835119E+01  0.10821374108E+02  0.17184643424E+03  0.17120000000E+03 0.  0.
        998    1    1    2    0    0  0.14135937060E+01  0.52337533934E+00  0.14888345007E+04  0.14888688467E+04  0.10000000000E+02 0.  1.
</event>
<event>
 5    1  0.1556794E-008  0.3746734E+03  0.7957747E-01  0.3474685E+00
         13   -1    0    0    0    0  0.00000000000E+00  0.00000000000E+00  0.14999999963E+04  0.15000000000E+04  0.10566000000E+00 0.  1.
        994   -1    0    0    0    0 -0.00000000000E+00 -0.00000000000E+00  0.11368683772E-12  0.17120000000E+03  0.17120000000E+03 0.  0.
         13    1    1    2    0    0 -0.56398201918E+02 -0.17208687658E+02  0.33105301602E+03  0.33626329965E+03  0.10566000000E+00 0.  1.
        994    1    1    2    0    0 -0.82089892606E+00  0.54736698301E+01  0.69507965585E+01  0.17143041886E+03  0.17120000000E+03 0.  0.
        998    1    1    2    0    0  0.57219100844E+02  0.11735017828E+02  0.11619961837E+04  0.11635062815E+04  0.10000000000E+02 0.  1.
</event>
<event>
 5    1  0.1556794E-008  0.3759364E+03  0.7957747E-01  0.3469046E+00
         13   -1    0    0    0    0  0.00000000000E+00  0.00000000000E+00  0.14999999963E+04  0.15000000000E+04  0.10566000000E+00 0. -1.
        994   -1    0    0    0    0 -0.00000000000E+00 -0.00000000000E+00  0.11368683772E-12  0.17120000000E+03  0.17120000000E+03 0.  0.
         13    1    1    2    0    0 -0.24756955614E+02 -0.22628269615E+02  0.81766232444E+02  0.88378014060E+02  0.10566000000E+00 0. -1.
        994    1    1    2    0    0  0.25767050360E+02  0.32273491837E+02  0.11999761648E+02  0.17651898889E+03  0.17120000000E+03 0.  0.
        998    1    1    2    0    0 -0.10100947460E+01 -0.96452222213E+01  0.14062340022E+04  0.14063029970E+04  0.10000000000E+02 0. -1.
</event>
<event>
 5    1  0.1556794E-008  0.3378784E+03  0.7957747E-01  0.3657932E+00
         13   -1    0    0    0    0  0.00000000000E+00  0.00000000000E+00  0.14999999963E+04  0.15000000000E+04  0.10566000000E+00 0.  1.
        994   -1    0    0    0    0 -0.00000000000E+00 -0.00000000000E+00  0.11368683772E-12  0.17120000000E+03  0.17120000000E+03 0.  0.
         13    1    1    2    0    0 -0.21745167020E+03  0.13293650289E+03  0.76359160882E+03  0.80500279434E+03  0.10566000000E+00 0.  1.
        994    1    1    2    0    0  0.21887735140E+03 -0.13968637260E+03  0.30832730622E+03  0.43794376968E+03  0.17120000000E+03 0.  0.
        998    1    1    2    0    0 -0.14256811983E+01  0.67498697159E+01  0.42808108124E+03  0.42825343597E+03  0.10000000000E+02 0.  0.
</event>
<event>
 5    1  0.1556794E-008  0.3858043E+03  0.7957747E-01  0.3426268E+00
         13   -1    0    0    0    0  0.00000000000E+00  0.00000000000E+00  0.14999999963E+04  0.15000000000E+04  0.10566000000E+00 0.  1.
        994   -1    0    0    0    0 -0.00000000000E+00 -0.00000000000E+00  0.11368683772E-12  0.17120000000E+03  0.17120000000E+03 0.  0.
         13    1    1    2    0    0 -0.33021633000E+02 -0.40050916537E+02  0.61947719567E+02  0.80821007696E+02  0.10566000000E+00 0.  1.
        994    1    1    2    0    0  0.19014744262E+02  0.33112291935E+02  0.24969955870E+02  0.17717483758E+03  0.17120000000E+03 0.  0.
        998    1    1    2    0    0  0.14006888737E+02  0.69386246015E+01  0.14130823208E+04  0.14132041547E+04  0.10000000000E+02 0.  1.
</event>
<event>
 5    1  0.1556794E-008  0.3701879E+03  0.7957747E-01  0.3495028E+00
         13   -1    0    0    0    0  0.00000000000E+00  0.00000000000E+00  0.14999999963E+04  0.15000000000E+04  0.10566000000E+00 0.  1.
        994   -1    0    0    0    0 -0.00000000000E+00 -0.00000000000E+00  0.11368683772E-12  0.17120000000E+03  0.17120000000E+03 0.  0.
         13    1    1    2    0    0  0.13478196924E+03  0.12123336082E+01  0.49400893227E+03  0.51206687582E+03  0.10566000000E+00 0.  1.
        994    1    1    2    0    0 -0.14058186632E+03 -0.10239952851E+02  0.84171634303E+02  0.23719701050E+03  0.17120000000E+03 0.  0.
        998    1    1    2    0    0  0.57998970714E+01  0.90276192428E+01  0.92181942970E+03  0.92193611367E+03  0.10000000000E+02 0.  1.
</event>
<event>
 5    1  0.1556794E-008  0.3807793E+03  0.7957747E-01  0.3447772E+00
         13   -1    0    0    0    0  0.00000000000E+00  0.00000000000E+00  0.14999999963E+04  0.15000000000E+04  0.10566000000E+00 0. -1.
        994   -1    0    0    0    0 -0.00000000000E+00 -0.00000000000E+00  0.11368683772E-12  0.17120000000E+03  0.17120000000E+03 0.  0.
         13    1    1    2    0    0 -0.24837948233E+01  0.17624657562E+02  0.39738913035E+02  0.43542969170E+02  0.10566000000E+00 0. -1.
        994    1    1    2    0    0  0.66010178879E+01 -0.19592794181E+02  0.51668357531E+01  0.17252126597E+03  0.17120000000E+03 0.  0.
        998    1    1    2    0    0 -0.41172230646E+01  0.19681366190E+01  0.14550942475E+04  0.14551357649E+04  0.10000000000E+02 0. -1.
</event>
<event>
 5    1  0.1556794E-008  0.3798887E+03  0.7957747E-01  0.3451643E+00
         13   -1    0    0    0    0  0.00000000000E+00  0.00000000000E+00  0.14999999963E+04  0.15000000000E+04  0.10566000000E+00 0.  1.
        994   -1    0    0    0    0 -0.00000000000E+00 -0.00000000000E+00  0.11368683772E-12  0.17120000000E+03  0.17120000000E+03 0.  0.
         13    1    1    2    0    0 -0.13593231879E+02  0.29111983531E+01  0.21603324957E+02  0.25689800350E+02  0.10566000000E+00 0.  1.
        994    1    1    2    0    0  0.32174068231E+01 -0.90479252899E+01  0.44977828697E+01  0.17152809306E+03  0.17120000000E+03 0.  0.
        998    1    1    2    0    0  0.10375825056E+02  0.61367269368E+01  0.14738988885E+04  0.14739821066E+04  0.10000000000E+02 0.  1.
</event>
<event>
 5    1  0.1556794E-008  0.3700503E+03  0.7957747E-01  0.3495660E+00
         13   -1    0    0    0    0  0.00000000000E+00  0.00000000000E+00  0.14999999963E+04  0.15000000000E+04  0.10566000000E+00 0. -1.
        994   -1    0    0    0    0 -0.00000000000E+00 -0.00000000000E+00  0.11368683772E-12  0.17120000000E+03  0.17120000000E+03 0.  0.
         13    1    1    2    0    0  0.54031637015E+02 -0.60860692729E+02  0.28950688396E+03  0.30072859648E+03  0.10566000000E+00 0. -1.
        994    1    1    2    0    0 -0.35941776828E+02  0.38424994755E+02  0.20708522317E+02  0.18029579707E+03  0.17120000000E+03 0.  0.
        998    1    1    2    0    0 -0.18089860186E+02  0.22435697974E+02  0.11897845900E+04  0.11901756065E+04  0.10000000000E+02 0. -1.
</event>
<event>
 5    1  0.1556794E-008  0.3739266E+03  0.7957747E-01  0.3478038E+00
         13   -1    0    0    0    0  0.00000000000E+00  0.00000000000E+00  0.14999999963E+04  0.15000000000E+04  0.10566000000E+00 0.  1.
        994   -1    0    0    0    0 -0.00000000000E+00 -0.00000000000E+00  0.11368683772E-12  0.17120000000E+03  0.17120000000E+03 0.  0.
         13    1    1    2    0    0  0.28124750651E+02 -0.55717622551E+02  0.23078141176E+03  0.23907221971E+03  0.10566000000E+00 0.  1.
        994    1    1    2    0    0 -0.62470328430E+02  0.37066912152E+02  0.25451321736E+02  0.18770644019E+03  0.17120000000E+03 0.  0.
        998    1    1    2    0    0  0.34345577779E+02  0.18650710399E+02  0.12437672628E+04  0.12444213401E+04  0.10000000000E+02 0.  1.
</event>
<event>
 5    1  0.1556794E-008  0.3824650E+03  0.7957747E-01  0.3440495E+00
         13   -1    0    0    0    0  0.00000000000E+00  0.00000000000E+00  0.14999999963E+04  0.15000000000E+04  0.10566000000E+00 0.  1.
        994   -1    0    0    0    0 -0.00000000000E+00 -0.00000000000E+00  0.11368683772E-12  0.17120000000E+03  0.17120000000E+03 0.  0.
         13    1    1    2    0    0  0.39043238797E+02  0.13070585558E+03  0.78896931577E+03  0.80067533218E+03  0.10566000000E+00 0.  1.
        994    1    1    2    0    0 -0.51363961189E+02 -0.15349024697E+03  0.95260686743E+02  0.25412900437E+03  0.17120000000E+03 0.  0.
        998    1    1    2    0    0  0.12320722392E+02  0.22784391390E+02  0.61576999377E+03  0.61639566345E+03  0.10000000000E+02 0.  1.
</event>
<event>
 5    1  0.1556794E-008  0.3781122E+03  0.7957747E-01  0.3459420E+00
         13   -1    0    0    0    0  0.00000000000E+00  0.00000000000E+00  0.14999999963E+04  0.15000000000E+04  0.10566000000E+00 0. -1.
        994   -1    0    0    0    0 -0.00000000000E+00 -0.00000000000E+00  0.11368683772E-12  0.17120000000E+03  0.17120000000E+03 0.  0.
         13    1    1    2    0    0 -0.95143060369E+01  0.24676458849E+02  0.72976269275E+02  0.77620852108E+02  0.10566000000E+00 0. -1.
        994    1    1    2    0    0 -0.28161366737E+02 -0.61696423868E+01  0.78900314297E+01  0.17378958444E+03  0.17120000000E+03 0.  0.
        998    1    1    2    0    0  0.37675672774E+02 -0.18506816462E+02  0.14191336956E+04  0.14197895635E+04  0.10000000000E+02 0. -1.
</event>
<event>
 5    1  0.1556794E-008  0.3765875E+03  0.7957747E-01  0.3466153E+00
         13   -1    0    0    0    0  0.00000000000E+00  0.00000000000E+00  0.14999999963E+04  0.15000000000E+04  0.10566000000E+00 0. -1.
        994   -1    0    0    0    0 -0.00000000000E+00 -0.00000000000E+00  0.11368683772E-12  0.17120000000E+03  0.17120000000E+03 0.  0.
         13    1    1    2    0    0  0.19178069142E+02  0.39438259278E+02  0.18106349550E+03  0.18629861835E+03  0.10566000000E+00 0. -1.
        994    1    1    2    0    0 -0.12617366321E+02 -0.20518240894E+01  0.64184679195E+01  0.17179652105E+03  0.17120000000E+03 0.  0.
        998    1    1    2    0    0 -0.65607028210E+01 -0.37386435188E+02  0.13125180329E+04  0.13131048606E+04  0.10000000000E+02 0. -1.
</event>
<event>
 5    1  0.1556794E-008  0.3885806E+03  0.7957747E-01  0.3414627E+00
         13   -1    0    0    0    0  0.00000000000E+00  0.00000000000E+00  0.14999999963E+04  0.15000000000E+04  0.10566000000E+00 0.  1.
        994   -1    0    0    0    0 -0.00000000000E+00 -0.00000000000E+00  0.11368683772E-12  0.17120000000E+03  0.17120000000E+03 0.  0.
         13    1    1    2    0    0  0.72046889695E+02 -0.21418223323E+02  0.11818616237E+03  0.14006239590E+03  0.10566000000E+00 0.  1.
        994    1    1    2    0    0 -0.67750051737E+02  0.29259012026E+02  0.41800680894E+02  0.19105731134E+03  0.17120000000E+03 0.  0.
        998    1    1    2    0    0 -0.42968379584E+01 -0.78407887034E+01  0.13400131530E+04  0.13400802928E+04  0.10000000000E+02 0.  1.
</event>
<event>
 5    1  0.1556794E-008  0.3727146E+03  0.7957747E-01  0.3483507E+00
         13   -1    0    0    0    0  0.00000000000E+00  0.00000000000E+00  0.14999999963E+04  0.15000000000E+04  0.10566000000E+00 0. -1.
        994   -1    0    0    0    0 -0.00000000000E+00 -0.00000000000E+00  0.11368683772E-12  0.17120000000E+03  0.17120000000E+03 0.  0.
         13    1    1    2    0    0  0.90227206741E+01 -0.69464384965E+02  0.19995542879E+03  0.21186999536E+03  0.10566000000E+00 0. -1.
        994    1    1    2    0    0  0.18188915819E+02  0.38956373340E+02  0.18934186853E+02  0.17752853042E+03  0.17120000000E+03 0.  0.
        998    1    1    2    0    0 -0.27211636494E+02  0.30508011626E+02  0.12811103806E+04  0.12818014742E+04  0.10000000000E+02 0. -1.
</event>
<event>
 5    1  0.1556794E-008  0.3784980E+03  0.7957747E-01  0.3457725E+00
         13   -1    0    0    0    0  0.00000000000E+00  0.00000000000E+00  0.14999999963E+04  0.15000000000E+04  0.10566000000E+00 0.  1.
        994   -1    0    0    0    0 -0.00000000000E+00 -0.00000000000E+00  0.11368683772E-12  0.17120000000E+03  0.17120000000E+03 0.  0.
         13    1    1    2    0    0 -0.68953054238E+01 -0.87901124781E+01  0.10878533755E+02  0.15593747945E+02  0.10566000000E+00 0.  1.
        994    1    1    2    0    0 -0.13739962205E+02  0.50479286300E+01  0.56134530252E+01  0.17191631394E+03  0.17120000000E+03 0.  0.
        998    1    1    2    0    0  0.20635267629E+02  0.37421838481E+01  0.14835080095E+04  0.14836899381E+04  0.10000000000E+02 0.  1.
</event>
<event>
 5    1  0.1556794E-008  0.3790696E+03  0.7957747E-01  0.3455220E+00
         13   -1    0    0    0    0  0.00000000000E+00  0.00000000000E+00  0.14999999963E+04  0.15000000000E+04  0.10566000000E+00 0.  1.
        994   -1    0    0    0    0 -0.00000000000E+00 -0.00000000000E+00  0.11368683772E-12  0.17120000000E+03  0.17120000000E+03 0.  0.
         13    1    1    2    0    0  0.46148584995E+02  0.14881917645E+03  0.82763862386E+03  0.84217726284E+03  0.10566000000E+00 0.  1.
        994    1    1    2    0    0 -0.60937628797E+02 -0.15610784282E+03  0.10539106676E+03  0.26172460745E+03  0.17120000000E+03 0.  0.
        998    1    1    2    0    0  0.14789043802E+02  0.72886663695E+01  0.56697030565E+03  0.56729812971E+03  0.10000000000E+02 0. -1.
</event>
<event>
 5    1  0.1556794E-008  0.3852316E+03  0.7957747E-01  0.3428690E+00
         13   -1    0    0    0    0  0.00000000000E+00  0.00000000000E+00  0.14999999963E+04  0.15000000000E+04  0.10566000000E+00 0. -1.
        994   -1    0    0    0    0 -0.00000000000E+00 -0.00000000000E+00  0.11368683772E-12  0.17120000000E+03  0.17120000000E+03 0.  0.
         13    1    1    2    0    0  0.47922742311E+01 -0.93071512193E+01  0.37037410920E+02  0.38488568794E+02  0.10566000000E+00 0. -1.
        994    1    1    2    0    0 -0.86687283918E+01 -0.21363917320E+01  0.17771778847E+01  0.17144185423E+03  0.17120000000E+03 0.  0.
        998    1    1    2    0    0  0.38764541607E+01  0.11443542951E+02  0.14611854075E+04  0.14612695770E+04  0.10000000000E+02 0. -1.
</event>
<event>
 5    1  0.1556794E-008  0.3901337E+03  0.7957747E-01  0.3408187E+00
         13   -1    0    0    0    0  0.00000000000E+00  0.00000000000E+00  0.14999999963E+04  0.15000000000E+04  0.10566000000E+00 0.  1.
        994   -1    0    0    0    0 -0.00000000000E+00 -0.00000000000E+00  0.11368683772E-12  0.17120000000E+03  0.17120000000E+03 0.  0.
         13    1    1    2    0    0 -0.47111358814E+02  0.42864603578E+02  0.82295815532E+02  0.10406472403E+03  0.10566000000E+00 0.  1.
        994    1    1    2    0    0  0.37942527481E+02 -0.41683738071E+02  0.34067702482E+02  0.18343177959E+03  0.17120000000E+03 0.  0.
        998    1    1    2    0    0  0.91688313323E+01 -0.11808655072E+01  0.13836364783E+04  0.13837034964E+04  0.10000000000E+02 0.  1.
</event>
<event>
 5    1  0.1556794E-008  0.3856167E+03  0.7957747E-01  0.3427061E+00
         13   -1    0    0    0    0  0.00000000000E+00  0.00000000000E+00  0.14999999963E+04  0.15000000000E+04  0.10566000000E+00 0.  1.
        994   -1    0    0    0    0 -0.00000000000E+00 -0.00000000000E+00  0.11368683772E-12  0.17120000000E+03  0.17120000000E+03 0.  0.
         13    1    1    2    0    0 -0.60197815874E-01  0.10635439801E+02  0.41391555282E+02  0.42736263480E+02  0.10566000000E+00 0.  1.
        994    1    1    2    0    0  0.25790582036E+01 -0.13686553550E+02  0.19611749015E+01  0.17177677228E+03  0.17120000000E+03 0.  0.
        998    1    1    2    0    0 -0.25188603878E+01  0.30511137492E+01  0.14566472661E+04  0.14566869642E+04  0.10000000000E+02 0.  1.
</event>
<event>
 5    1  0.1556794E-008  0.3799635E+03  0.7957747E-01  0.3451318E+00
         13   -1    0    0    0    0  0.00000000000E+00  0.00000000000E+00  0.14999999963E+04  0.15000000000E+04  0.10566000000E+00 0.  1.
        994   -1    0    0    0    0 -0.00000000000E+00 -0.00000000000E+00  0.11368683772E-12  0.17120000000E+03  0.17120000000E+03 0.  0.
         13    1    1    2    0    0  0.53377779677E+02 -0.79593771412E+02  0.41144882155E+03  0.42246242404E+03  0.10566000000E+00 0.  1.
        994    1    1    2    0    0 -0.31494508450E+02 -0.21650151645E+02  0.21617536116E+02  0.17674102805E+03  0.17120000000E+03 0.  0.
        998    1    1    2    0    0 -0.21883271226E+02  0.10124392306E+03  0.10669336386E+04  0.10719965479E+04  0.10000000000E+02 0.  1.
</event>
<event>
 5    1  0.1556794E-008  0.3840241E+03  0.7957747E-01  0.3433822E+00
         13   -1    0    0    0    0  0.00000000000E+00  0.00000000000E+00  0.14999999963E+04  0.15000000000E+04  0.10566000000E+00 0.  1.
        994   -1    0    0    0    0 -0.00000000000E+00 -0.00000000000E+00  0.11368683772E-12  0.17120000000E+03  0.17120000000E+03 0.  0.
         13    1    1    2    0    0  0.82338738733E+01  0.12531812995E+02  0.52465125613E+02  0.54565956287E+02  0.10566000000E+00 0.  1.
        994    1    1    2    0    0  0.14988461822E+02 -0.23341147612E+02  0.46580679626E+01  0.17349524707E+03  0.17120000000E+03 0.  0.
        998    1    1    2    0    0 -0.23222335695E+02  0.10809334617E+02  0.14428768027E+04  0.14431387966E+04  0.10000000000E+02 0.  1.
</event>
<event>
 5    1  0.1556794E-008  0.3713157E+03  0.7957747E-01  0.3489866E+00
         13   -1    0    0    0    0  0.00000000000E+00  0.00000000000E+00  0.14999999963E+04  0.15000000000E+04  0.10566000000E+00 0.  1.
        994   -1    0    0    0    0 -0.00000000000E+00 -0.00000000000E+00  0.11368683772E-12  0.17120000000E+03  0.17120000000E+03 0.  0.
         13    1    1    2    0    0 -0.61479146370E+02 -0.66653084857E+02  0.35459574848E+03  0.36600611356E+03  0.10566000000E+00 0.  1.
        994    1    1    2    0    0  0.66220519917E+02  0.65008851701E+02  0.38833824434E+02  0.19856690051E+03  0.17120000000E+03 0.  0.
        998    1    1    2    0    0 -0.47413735471E+01  0.16442331561E+01  0.11065704234E+04  0.11066269859E+04  0.10000000000E+02 0.  1.
</event>
<event>
 5    1  0.1556794E-008  0.3718020E+03  0.7957747E-01  0.3487650E+00
         13   -1    0    0    0    0  0.00000000000E+00  0.00000000000E+00  0.14999999963E+04  0.15000000000E+04  0.10566000000E+00 0.  1.
        994   -1    0    0    0    0 -0.00000000000E+00 -0.00000000000E+00  0.11368683772E-12  0.17120000000E+03  0.17120000000E+03 0.  0.
         13    1    1    2    0    0  0.99880630699E+02  0.49185898597E+01  0.43350445194E+03  0.44488926030E+03  0.10566000000E+00 0.  1.
        994    1    1    2    0    0 -0.97174094221E+02  0.12398897879E+02  0.42065094590E+02  0.20168155453E+03  0.17120000000E+03 0.  0.
        998    1    1    2    0    0 -0.27065364773E+01 -0.17317487739E+02  0.10244304497E+04  0.10246291852E+04  0.10000000000E+02 0.  1.
</event>
<event>
 5    1  0.1556794E-008  0.3697931E+03  0.7957747E-01  0.3496842E+00
         13   -1    0    0    0    0  0.00000000000E+00  0.00000000000E+00  0.14999999963E+04  0.15000000000E+04  0.10566000000E+00 0.  1.
        994   -1    0    0    0    0 -0.00000000000E+00 -0.00000000000E+00  0.11368683772E-12  0.17120000000E+03  0.17120000000E+03 0.  0.
         13    1    1    2    0    0 -0.56573752169E+01  0.40488772578E+02  0.83416072527E+02  0.92895634554E+02  0.10566000000E+00 0.  1.
        994    1    1    2    0    0  0.61797354287E+01 -0.33487781974E+02  0.13400246509E+02  0.17506749349E+03  0.17120000000E+03 0.  0.
        998    1    1    2    0    0 -0.52236021180E+00 -0.70009906035E+01  0.14031836772E+04  0.14032368720E+04  0.10000000000E+02 0.  0.
</event>
<event>
 5    1  0.1556794E-008  0.3790413E+03  0.7957747E-01  0.3455344E+00
         13   -1    0    0    0    0  0.00000000000E+00  0.00000000000E+00  0.14999999963E+04  0.15000000000E+04  0.10566000000E+00 0. -1.
        994   -1    0    0    0    0 -0.00000000000E+00 -0.00000000000E+00  0.11368683772E-12  0.17120000000E+03  0.17120000000E+03 0.  0.
         13    1    1    2    0    0 -0.69590445616E+01  0.15350975579E+02  0.29314550941E+02  0.33814712971E+02  0.10566000000E+00 0. -1.
        994    1    1    2    0    0  0.12704973464E+01 -0.66280708389E+01  0.47706260083E+01  0.17139937094E+03  0.17120000000E+03 0.  0.
        998    1    1    2    0    0  0.56885472152E+01 -0.87229047402E+01  0.14659148193E+04  0.14659859161E+04  0.10000000000E+02 0. -1.
</event>
<event>
 5    1  0.1556794E-008  0.3804188E+03  0.7957747E-01  0.3449337E+00
         13   -1    0    0    0    0  0.00000000000E+00  0.00000000000E+00  0.14999999963E+04  0.15000000000E+04  0.10566000000E+00 0.  1.
        994   -1    0    0    0    0 -0.00000000000E+00 -0.00000000000E+00  0.11368683772E-12  0.17120000000E+03  0.17120000000E+03 0.  0.
         13    1    1    2    0    0  0.18045654259E+01  0.10206708034E+02  0.11820146640E+02  0.15721335054E+02  0.10566000000E+00 0.  1.
        994    1    1    2    0    0 -0.17297420285E+01 -0.13240301152E+02  0.45173343745E+01  0.17177934652E+03  0.17120000000E+03 0.  0.
        998    1    1    2    0    0 -0.74823397421E-01  0.30335931173E+01  0.14836625153E+04  0.14836993184E+04  0.10000000000E+02 0.  1.
</event>
<event>
 5    1  0.1556794E-008  0.3713330E+03  0.7957747E-01  0.3489787E+00
         13   -1    0    0    0    0  0.00000000000E+00  0.00000000000E+00  0.14999999963E+04  0.15000000000E+04  0.10566000000E+00 0.  1.
        994   -1    0    0    0    0 -0.00000000000E+00 -0.00000000000E+00  0.11368683772E-12  0.17120000000E+03  0.17120000000E+03 0.  0.
         13    1    1    2    0    0 -0.19896917172E+02  0.46659625175E+02  0.10417223736E+03  0.11586575912E+03  0.10566000000E+00 0.  1.
        994    1    1    2    0    0  0.12560112762E+02 -0.36467576900E+02  0.16888714993E+02  0.17630175635E+03  0.17120000000E+03 0.  0.
        998    1    1    2    0    0  0.73368044100E+01 -0.10192048275E+02  0.13789390439E+04  0.13790324845E+04  0.10000000000E+02 0.  1.
</event>
<event>
 5    1  0.1556794E-008  0.3837659E+03  0.7957747E-01  0.3434923E+00
         13   -1    0    0    0    0  0.00000000000E+00  0.00000000000E+00  0.14999999963E+04  0.15000000000E+04  0.10566000000E+00 0. -1.
        994   -1    0    0    0    0 -0.00000000000E+00 -0.00000000000E+00  0.11368683772E-12  0.17120000000E+03  0.17120000000E+03 0.  0.
         13    1    1    2    0    0 -0.44599115325E+01  0.12593753131E+02  0.38721744027E+02  0.40961909786E+02  0.10566000000E+00 0. -1.
        994    1    1    2    0    0  0.55928181818E+01 -0.10394508137E+02  0.27042719550E+01  0.17162773232E+03  0.17120000000E+03 0.  0.
        998    1    1    2    0    0 -0.11329066493E+01 -0.21992449940E+01  0.14585739803E+04  0.14586103579E+04  0.10000000000E+02 0. -1.
</event>
<event>
 5    1  0.1556794E-008  0.3855884E+03  0.7957747E-01  0.3427181E+00
         13   -1    0    0    0    0  0.00000000000E+00  0.00000000000E+00  0.14999999963E+04  0.15000000000E+04  0.10566000000E+00 0.  1.
        994   -1    0    0    0    0 -0.00000000000E+00 -0.00000000000E+00  0.11368683772E-12  0.17120000000E+03  0.17120000000E+03 0.  0.
         13    1    1    2    0    0  0.10388480058E+01  0.12953848563E+02  0.61305321927E+02  0.62667655600E+02  0.10566000000E+00 0.  1.
        994    1    1    2    0    0 -0.58983930545E+01 -0.13428870183E+02  0.20447342512E+01  0.17183930439E+03  0.17120000000E+03 0.  0.
        998    1    1    2    0    0  0.48595450487E+01  0.47502162010E+00  0.14366499401E+04  0.14366930400E+04  0.10000000000E+02 0.  1.
</event>
<event>
 5    1  0.1556794E-008  0.3795284E+03  0.7957747E-01  0.3453214E+00
         13   -1    0    0    0    0  0.00000000000E+00  0.00000000000E+00  0.14999999963E+04  0.15000000000E+04  0.10566000000E+00 0. -1.
        994   -1    0    0    0    0 -0.00000000000E+00 -0.00000000000E+00  0.11368683772E-12  0.17120000000E+03  0.17120000000E+03 0.  0.
         13    1    1    2    0    0 -0.21984849151E+02 -0.20154647425E+02  0.96590158069E+02  0.10109012417E+03  0.10566000000E+00 0. -1.
        994    1    1    2    0    0  0.15430220271E+02  0.21184828036E+02  0.66745654927E+01  0.17332304654E+03  0.17120000000E+03 0.  0.
        998    1    1    2    0    0  0.65546288796E+01 -0.10301806111E+01  0.13967352727E+04  0.13967868293E+04  0.10000000000E+02 0. -1.
</event>
<event>
 5    1  0.1556794E-008  0.3810826E+03  0.7957747E-01  0.3446458E+00
         13   -1    0    0    0    0  0.00000000000E+00  0.00000000000E+00  0.14999999963E+04  0.15000000000E+04  0.10566000000E+00 0. -1.
        994   -1    0    0    0    0 -0.00000000000E+00 -0.00000000000E+00  0.11368683772E-12  0.17120000000E+03  0.17120000000E+03 0.  0.
         13    1    1    2    0    0  0.13443748589E+02  0.45305458940E+01  0.26481404600E+02  0.30042239861E+02  0.10566000000E+00 0. -1.
        994    1    1    2    0    0 -0.17851428846E+02  0.16447229798E+02  0.55527093322E+01  0.17300132214E+03  0.17120000000E+03 0.  0.
        998    1    1    2    0    0  0.44076802577E+01 -0.20977775692E+02  0.14679658823E+04  0.14681564380E+04  0.10000000000E+02 0. -1.
</event>
<event>
 5    1  0.1556794E-008  0.3725834E+03  0.7957747E-01  0.3484101E+00
         13   -1    0    0    0    0  0.00000000000E+00  0.00000000000E+00  0.14999999963E+04  0.15000000000E+04  0.10566000000E+00 0.  1.
        994   -1    0    0    0    0 -0.00000000000E+00 -0.00000000000E+00  0.11368683772E-12  0.17120000000E+03  0.17120000000E+03 0.  0.
         13    1    1    2    0    0 -0.12901242194E+02 -0.28326330188E+03  0.10895584643E+04  0.11258517658E+04  0.10566000000E+00 0.  1.
        994    1    1    2    0    0  0.12931044862E+02  0.25892521685E+03  0.30022606647E+03  0.43203542774E+03  0.17120000000E+03 0.  0.
        998    1    1    2    0    0 -0.29802667410E-01  0.24338085030E+02  0.11021546547E+03  0.11331280642E+03  0.10000000000E+02 0. -1.
</event>
<event>
 5    1  0.1556794E-008  0.3779379E+03  0.7957747E-01  0.3460187E+00
         13   -1    0    0    0    0  0.00000000000E+00  0.00000000000E+00  0.14999999963E+04  0.15000000000E+04  0.10566000000E+00 0.  1.
        994   -1    0    0    0    0 -0.00000000000E+00 -0.00000000000E+00  0.11368683772E-12  0.17120000000E+03  0.17120000000E+03 0.  0.
         13    1    1    2    0    0  0.24379324983E+02  0.57902601497E+01  0.60646950016E+02  0.65619679285E+02  0.10566000000E+00 0.  1.
        994    1    1    2    0    0 -0.74468706890E+01 -0.16828503042E+00  0.53644907210E+01  0.17144591556E+03  0.17120000000E+03 0.  0.
        998    1    1    2    0    0 -0.16932454294E+02 -0.56219751193E+01  0.14339885555E+04  0.14341344052E+04  0.10000000000E+02 0.  1.
</event>
<event>
 5    1  0.1556794E-008  0.3746439E+03  0.7957747E-01  0.3474817E+00
         13   -1    0    0    0    0  0.00000000000E+00  0.00000000000E+00  0.14999999963E+04  0.15000000000E+04  0.10566000000E+00 0. -1.
        994   -1    0    0    0    0 -0.00000000000E+00 -0.00000000000E+00  0.11368683772E-12  0.17120000000E+03  0.17120000000E+03 0.  0.
         13    1    1    2    0    0  0.95817926605E+02  0.11042695248E+03  0.69264020881E+03  0.70790229334E+03  0.10566000000E+00 0. -1.
        994    1    1    2    0    0 -0.13110787633E+03 -0.94031008809E+02  0.10135574223E+03  0.25615138558E+03  0.17120000000E+03 0.  0.
        998    1    1    2    0    0  0.35289949723E+02 -0.16395943674E+02  0.70600404523E+03  0.70714632107E+03  0.10000000000E+02 0.  1.
</event>
<event>
 5    1  0.1556794E-008  0.3776555E+03  0.7957747E-01  0.3461431E+00
         13   -1    0    0    0    0  0.00000000000E+00  0.00000000000E+00  0.14999999963E+04  0.15000000000E+04  0.10566000000E+00 0. -1.
        994   -1    0    0    0    0 -0.00000000000E+00 -0.00000000000E+00  0.11368683772E-12  0.17120000000E+03  0.17120000000E+03 0.  0.
         13    1    1    2    0    0  0.15732812140E+02 -0.33820705433E+02  0.12298006498E+03  0.12851252483E+03  0.10566000000E+00 0. -1.
        994    1    1    2    0    0 -0.35287858948E+02  0.18765198291E+02  0.10721881158E+02  0.17612996449E+03  0.17120000000E+03 0.  0.
        998    1    1    2    0    0  0.19555046808E+02  0.15055507142E+02  0.13662980501E+04  0.13665575107E+04  0.10000000000E+02 0. -1.
</event>
<event>
 5    1  0.1556794E-008  0.3824549E+03  0.7957747E-01  0.3440538E+00
         13   -1    0    0    0    0  0.00000000000E+00  0.00000000000E+00  0.14999999963E+04  0.15000000000E+04  0.10566000000E+00 0. -1.
        994   -1    0    0    0    0 -0.00000000000E+00 -0.00000000000E+00  0.11368683772E-12  0.17120000000E+03  0.17120000000E+03 0.  0.
         13    1    1    2    0    0  0.12513190792E+02  0.14021145425E+02  0.63778387182E+02  0.66489595414E+02  0.10566000000E+00 0. -1.
        994    1    1    2    0    0 -0.34080278520E+01  0.35499851739E+01  0.29793347431E+01  0.17129662426E+03  0.17120000000E+03 0.  0.
        998    1    1    2    0    0 -0.91051629398E+01 -0.17571130599E+02  0.14332422744E+04  0.14334137803E+04  0.10000000000E+02 0. -1.
</event>
<event>
 5    1  0.1556794E-008  0.3713834E+03  0.7957747E-01  0.3489557E+00
         13   -1    0    0    0    0  0.00000000000E+00  0.00000000000E+00  0.14999999963E+04  0.15000000000E+04  0.10566000000E+00 0.  1.
        994   -1    0    0    0    0 -0.00000000000E+00 -0.00000000000E+00  0.11368683772E-12  0.17120000000E+03  0.17120000000E+03 0.  0.
         13    1    1    2    0    0 -0.81826251418E+01  0.19417586486E+02  0.21867674490E+02  0.30367818011E+02  0.10566000000E+00 0.  1.
        994    1    1    2    0    0  0.16448114414E+02 -0.19004186335E+02  0.10724668555E+02  0.17336711938E+03  0.17120000000E+03 0.  0.
        998    1    1    2    0    0 -0.82654892722E+01 -0.41340015025E+00  0.14674076532E+04  0.14674650626E+04  0.10000000000E+02 0.  1.
</event>
<event>
 5    1  0.1556794E-008  0.3741768E+03  0.7957747E-01  0.3476912E+00
         13   -1    0    0    0    0  0.00000000000E+00  0.00000000000E+00  0.14999999963E+04  0.15000000000E+04  0.10566000000E+00 0.  1.
        994   -1    0    0    0    0 -0.00000000000E+00 -0.00000000000E+00  0.11368683772E-12  0.17120000000E+03  0.17120000000E+03 0.  0.
         13    1    1    2    0    0  0.19791712581E+02  0.12355266896E+02  0.14913450615E+02  0.27690913315E+02  0.10566000000E+00 0.  1.
        994    1    1    2    0    0 -0.16024967916E+02 -0.13247869293E+02  0.14699867422E+02  0.17308330867E+03  0.17120000000E+03 0.  0.
        998    1    1    2    0    0 -0.37667446649E+01  0.89260239707E+00  0.14703866782E+04  0.14704257780E+04  0.10000000000E+02 0.  1.
</event>
<event>
 5    1  0.1556794E-008  0.3847362E+03  0.7957747E-01  0.3430792E+00
         13   -1    0    0    0    0  0.00000000000E+00  0.00000000000E+00  0.14999999963E+04  0.15000000000E+04  0.10566000000E+00 0.  1.
        994   -1    0    0    0    0 -0.00000000000E+00 -0.00000000000E+00  0.11368683772E-12  0.17120000000E+03  0.17120000000E+03 0.  0.
         13    1    1    2    0    0  0.20297005683E+02 -0.52186525178E+01  0.11270736270E+03  0.11463927575E+03  0.10566000000E+00 0.  1.
        994    1    1    2    0    0 -0.23043493109E+02  0.14331352255E+02  0.41887393252E+01  0.17338793432E+03  0.17120000000E+03 0.  0.
        998    1    1    2    0    0  0.27464874260E+01 -0.91126997372E+01  0.13831038943E+04  0.13831727899E+04  0.10000000000E+02 0.  1.
</event>
<event>
 5    1  0.1556794E-008  0.3751182E+03  0.7957747E-01  0.3472694E+00
         13   -1    0    0    0    0  0.00000000000E+00  0.00000000000E+00  0.14999999963E+04  0.15000000000E+04  0.10566000000E+00 0. -1.
        994   -1    0    0    0    0 -0.00000000000E+00 -0.00000000000E+00  0.11368683772E-12  0.17120000000E+03  0.17120000000E+03 0.  0.
         13    1    1    2    0    0 -0.55441166666E+02 -0.51296599570E+02  0.25016281725E+03  0.26131687734E+03  0.10566000000E+00 0. -1.
        994    1    1    2    0    0 -0.15549437611E+01  0.10829069653E+02  0.14097357856E+02  0.17212745887E+03  0.17120000000E+03 0.  0.
        998    1    1    2    0    0  0.56996110427E+02  0.40467529917E+02  0.12357398212E+04  0.12377556638E+04  0.10000000000E+02 0. -1.
</event>
<event>
 5    1  0.1556794E-008  0.3795882E+03  0.7957747E-01  0.3452953E+00
         13   -1    0    0    0    0  0.00000000000E+00  0.00000000000E+00  0.14999999963E+04  0.15000000000E+04  0.10566000000E+00 0. -1.
        994   -1    0    0    0    0 -0.00000000000E+00 -0.00000000000E+00  0.11368683772E-12  0.17120000000E+03  0.17120000000E+03 0.  0.
         13    1    1    2    0    0 -0.54228477585E+01  0.84491491824E+01  0.96276231747E+01  0.13910344775E+02  0.10566000000E+00 0. -1.
        994    1    1    2    0    0  0.41066445244E+01 -0.85467654217E+01  0.46421785091E+01  0.17152522132E+03  0.17120000000E+03 0.  0.
        998    1    1    2    0    0  0.13162032341E+01  0.97616239330E-01  0.14857301946E+04  0.14857644339E+04  0.10000000000E+02 0. -1.
</event>
<event>
 5    1  0.1556794E-008  0.3851325E+03  0.7957747E-01  0.3429111E+00
         13   -1    0    0    0    0  0.00000000000E+00  0.00000000000E+00  0.14999999963E+04  0.15000000000E+04  0.10566000000E+00 0. -1.
        994   -1    0    0    0    0 -0.00000000000E+00 -0.00000000000E+00  0.11368683772E-12  0.17120000000E+03  0.17120000000E+03 0.  0.
         13    1    1    2    0    0 -0.23033270682E+02  0.13577561751E+02  0.14593833088E+03  0.14836741329E+03  0.10566000000E+00 0. -1.
        994    1    1    2    0    0  0.62000878260E+02 -0.25709143338E+02  0.16516414769E+02  0.18462746522E+03  0.17120000000E+03 0.  0.
        998    1    1    2    0    0 -0.38967607578E+02  0.12131581587E+02  0.13375452506E+04  0.13382051215E+04  0.10000000000E+02 0. -1.
</event>
<event>
 5    1  0.1556794E-008  0.3844862E+03  0.7957747E-01  0.3431854E+00
         13   -1    0    0    0    0  0.00000000000E+00  0.00000000000E+00  0.14999999963E+04  0.15000000000E+04  0.10566000000E+00 0. -1.
        994   -1    0    0    0    0 -0.00000000000E+00 -0.00000000000E+00  0.11368683772E-12  0.17120000000E+03  0.17120000000E+03 0.  0.
         13    1    1    2    0    0  0.13277290216E+02 -0.35487416777E+01  0.45712981894E+02  0.47734346970E+02  0.10566000000E+00 0. -1.
        994    1    1    2    0    0 -0.20223226449E+02  0.28118699606E+02  0.58472337743E+01  0.17476633056E+03  0.17120000000E+03 0.  0.
        998    1    1    2    0    0  0.69459362332E+01 -0.24569957928E+02  0.14484397806E+04  0.14486993225E+04  0.10000000000E+02 0. -1.
</event>
<event>
 5    1  0.1556794E-008  0.3918917E+03  0.7957747E-01  0.3400959E+00
         13   -1    0    0    0    0  0.00000000000E+00  0.00000000000E+00  0.14999999963E+04  0.15000000000E+04  0.10566000000E+00 0. -1.
        994   -1    0    0    0    0 -0.00000000000E+00 -0.00000000000E+00  0.11368683772E-12  0.17120000000E+03  0.17120000000E+03 0.  0.
         13    1    1    2    0    0  0.10741634015E+03  0.40007210474E+02  0.31953478882E+03  0.33947214828E+03  0.10566000000E+00 0. -1.
        994    1    1    2    0    0 -0.53987626119E+02  0.19466335164E+02  0.35610118485E+02  0.18404108921E+03  0.17120000000E+03 0.  0.
        998    1    1    2    0    0 -0.53428714034E+02 -0.59473545637E+02  0.11448550890E+04  0.11476867625E+04  0.10000000000E+02 0. -1.
</event>
<event>
 5    1  0.1556794E-008  0.3731274E+03  0.7957747E-01  0.3481640E+00
         13   -1    0    0    0    0  0.00000000000E+00  0.00000000000E+00  0.14999999963E+04  0.15000000000E+04  0.10566000000E+00 0.  1.
        994   -1    0    0    0    0 -0.00000000000E+00 -0.00000000000E+00  0.11368683772E-12  0.17120000000E+03  0.17120000000E+03 0.  0.
         13    1    1    2    0    0  0.31325644374E+02  0.17282060463E+02  0.47768487476E+02  0.59680860994E+02  0.10566000000E+00 0.  1.
        994    1    1    2    0    0 -0.11863643563E+02  0.62702800496E+00  0.13101186246E+02  0.17211106961E+03  0.17120000000E+03 0.  0.
        998    1    1    2    0    0 -0.19462000810E+02 -0.17909088468E+02  0.14391303226E+04  0.14394080694E+04  0.10000000000E+02 0.  1.
</event>
<event>
 5    1  0.1556794E-008  0.3839725E+03  0.7957747E-01  0.3434041E+00
         13   -1    0    0    0    0  0.00000000000E+00  0.00000000000E+00  0.14999999963E+04  0.15000000000E+04  0.10566000000E+00 0.  1.
        994   -1    0    0    0    0 -0.00000000000E+00 -0.00000000000E+00  0.11368683772E-12  0.17120000000E+03  0.17120000000E+03 0.  0.
         13    1    1    2    0    0 -0.17556675461E+01  0.18367208511E+02  0.78912592355E+02  0.81041008837E+02  0.10566000000E+00 0.  1.
        994    1    1    2    0    0  0.14411277821E+02 -0.11031010262E+02  0.32286577428E+01  0.17218952450E+03  0.17120000000E+03 0.  0.
        998    1    1    2    0    0 -0.12655610275E+02 -0.73361982486E+01  0.14178587462E+04  0.14179694667E+04  0.10000000000E+02 0.  1.
</event>
<event>
 5    1  0.1556794E-008  0.3848860E+03  0.7957747E-01  0.3430156E+00
         13   -1    0    0    0    0  0.00000000000E+00  0.00000000000E+00  0.14999999963E+04  0.15000000000E+04  0.10566000000E+00 0. -1.
        994   -1    0    0    0    0 -0.00000000000E+00 -0.00000000000E+00  0.11368683772E-12  0.17120000000E+03  0.17120000000E+03 0.  0.
         13    1    1    2    0    0 -0.10705581788E+02  0.23030315999E+01  0.36422996797E+02  0.38033660035E+02  0.10566000000E+00 0. -1.
        994    1    1    2    0    0  0.17733408185E+01  0.34609780451E+01  0.17364803662E+01  0.17125296631E+03  0.17120000000E+03 0.  0.
        998    1    1    2    0    0  0.89322409699E+01 -0.57640096451E+01  0.14618405191E+04  0.14619133737E+04  0.10000000000E+02 0. -1.
</event>
<event>
 5    1  0.1556794E-008  0.3800924E+03  0.7957747E-01  0.3450756E+00
         13   -1    0    0    0    0  0.00000000000E+00  0.00000000000E+00  0.14999999963E+04  0.15000000000E+04  0.10566000000E+00 0. -1.
        994   -1    0    0    0    0 -0.00000000000E+00 -0.00000000000E+00  0.11368683772E-12  0.17120000000E+03  0.17120000000E+03 0.  0.
         13    1    1    2    0    0 -0.35333954046E+02  0.73711686967E+01  0.14822145090E+03  0.15255304686E+03  0.10566000000E+00 0. -1.
        994    1    1    2    0    0  0.28642257869E+02 -0.17329957057E+02  0.78408651606E+01  0.17461851424E+03  0.17120000000E+03 0.  0.
        998    1    1    2    0    0  0.66916961777E+01  0.99587883599E+01  0.13439376802E+04  0.13440284389E+04  0.10000000000E+02 0. -1.
</event>
<event>
 5    1  0.1556794E-008  0.3776284E+03  0.7957747E-01  0.3461550E+00
         13   -1    0    0    0    0  0.00000000000E+00  0.00000000000E+00  0.14999999963E+04  0.15000000000E+04  0.10566000000E+00 0.  1.
        994   -1    0    0    0    0 -0.00000000000E+00 -0.00000000000E+00  0.11368683772E-12  0.17120000000E+03  0.17120000000E+03 0.  0.
         13    1    1    2    0    0  0.31517000133E+02 -0.34866268152E+01  0.89832539823E+02  0.95264758642E+02  0.10566000000E+00 0.  1.
        994    1    1    2    0    0 -0.25622441159E+02  0.22888134784E+01  0.75679856671E+01  0.17328722563E+03  0.17120000000E+03 0.  0.
        998    1    1    2    0    0 -0.58945589738E+01  0.11978133368E+01  0.14025994708E+04  0.14026480157E+04  0.10000000000E+02 0.  1.
</event>
<event>
 5    1  0.1556794E-008  0.3854192E+03  0.7957747E-01  0.3427896E+00
         13   -1    0    0    0    0  0.00000000000E+00  0.00000000000E+00  0.14999999963E+04  0.15000000000E+04  0.10566000000E+00 0. -1.
        994   -1    0    0    0    0 -0.00000000000E+00 -0.00000000000E+00  0.11368683772E-12  0.17120000000E+03  0.17120000000E+03 0.  0.
         13    1    1    2    0    0  0.16322410506E+02 -0.26659072698E+01  0.99399237666E+02  0.10076580650E+03  0.10566000000E+00 0. -1.
        994    1    1    2    0    0 -0.11698626475E+02 -0.21179165482E+02  0.33471257841E+01  0.17293368140E+03  0.17120000000E+03 0.  0.
        998    1    1    2    0    0 -0.46237840315E+01  0.23845072752E+02  0.13972536328E+04  0.13975005121E+04  0.10000000000E+02 0. -1.
</event>
<event>
 5    1  0.1556794E-008  0.3764524E+03  0.7957747E-01  0.3466752E+00
         13   -1    0    0    0    0  0.00000000000E+00  0.00000000000E+00  0.14999999963E+04  0.15000000000E+04  0.10566000000E+00 0.  1.
        994   -1    0    0    0    0 -0.00000000000E+00 -0.00000000000E+00  0.11368683772E-12  0.17120000000E+03  0.17120000000E+03 0.  0.
         13    1    1    2    0    0 -0.48416513163E+01 -0.49132762999E+02  0.20586552589E+03  0.21170284812E+03  0.10566000000E+00 0.  1.
        994    1    1    2    0    0  0.12006159827E+01  0.26621139451E+02  0.83405959804E+01  0.17346219209E+03  0.17120000000E+03 0.  0.
        998    1    1    2    0    0  0.36410353336E+01  0.22511623549E+02  0.12857938744E+04  0.12860349598E+04  0.10000000000E+02 0.  1.
</event>
<event>
 5    1  0.1556794E-008  0.3764924E+03  0.7957747E-01  0.3466575E+00
         13   -1    0    0    0    0  0.00000000000E+00  0.00000000000E+00  0.14999999963E+04  0.15000000000E+04  0.10566000000E+00 0. -1.
        994   -1    0    0    0    0 -0.00000000000E+00 -0.00000000000E+00  0.11368683772E-12  0.17120000000E+03  0.17120000000E+03 0.  0.
         13    1    1    2    0    0  0.77849577515E+01 -0.15266518230E+02  0.23083153745E+02  0.28749179065E+02  0.10566000000E+00 0. -1.
        994    1    1    2    0    0 -0.84703655111E+01 -0.55762543140E+01  0.62622511053E+01  0.17161438603E+03  0.17120000000E+03 0.  0.
        998    1    1    2    0    0  0.68540775968E+00  0.20842772544E+02  0.14706545914E+04  0.14708364349E+04  0.10000000000E+02 0. -1.
</event>
<event>
 5    1  0.1556794E-008  0.3838488E+03  0.7957747E-01  0.3434569E+00
         13   -1    0    0    0    0  0.00000000000E+00  0.00000000000E+00  0.14999999963E+04  0.15000000000E+04  0.10566000000E+00 0.  1.
        994   -1    0    0    0    0 -0.00000000000E+00 -0.00000000000E+00  0.11368683772E-12  0.17120000000E+03  0.17120000000E+03 0.  0.
         13    1    1    2    0    0  0.74889037855E+01 -0.93793378969E+01  0.31415659402E+02  0.33630499238E+02  0.10566000000E+00 0.  1.
        994    1    1    2    0    0 -0.84983116080E+01  0.10403042934E+02  0.27986463847E+01  0.17174899424E+03  0.17120000000E+03 0.  0.
        998    1    1    2    0    0  0.10094078225E+01 -0.10237050368E+01  0.14657856905E+04  0.14658205065E+04  0.10000000000E+02 0.  1.
</event>
<event>
 5    1  0.1556794E-008  0.3953965E+03  0.7957747E-01  0.3386742E+00
         13   -1    0    0    0    0  0.00000000000E+00  0.00000000000E+00  0.14999999963E+04  0.15000000000E+04  0.10566000000E+00 0. -1.
        994   -1    0    0    0    0 -0.00000000000E+00 -0.00000000000E+00  0.11368683772E-12  0.17120000000E+03  0.17120000000E+03 0.  0.
         13    1    1    2    0    0 -0.80480481103E+01 -0.34444686846E+02  0.19069156829E+02  0.40185214153E+02  0.10566000000E+00 0. -1.
        994    1    1    2    0    0  0.21523495031E+00 -0.83458262675E+02  0.52353168824E+02  0.19752372572E+03  0.17120000000E+03 0.  0.
        998    1    1    2    0    0  0.78328131600E+01  0.11790294952E+03  0.14285776706E+04  0.14334910601E+04  0.10000000000E+02 0. -1.
</event>
<event>
 5    1  0.1556794E-008  0.3858265E+03  0.7957747E-01  0.3426174E+00
         13   -1    0    0    0    0  0.00000000000E+00  0.00000000000E+00  0.14999999963E+04  0.15000000000E+04  0.10566000000E+00 0. -1.
        994   -1    0    0    0    0 -0.00000000000E+00 -0.00000000000E+00  0.11368683772E-12  0.17120000000E+03  0.17120000000E+03 0.  0.
         13    1    1    2    0    0  0.99832834220E+01  0.27243103462E+01  0.43139850112E+02  0.44363787558E+02  0.10566000000E+00 0. -1.
        994    1    1    2    0    0 -0.93664936807E+01 -0.85782578371E+01  0.17496078013E+01  0.17167940715E+03  0.17120000000E+03 0.  0.
        998    1    1    2    0    0 -0.61678974129E+00  0.58539474909E+01  0.14551105384E+04  0.14551568053E+04  0.10000000000E+02 0. -1.
</event>
<event>
 5    1  0.1556794E-008  0.3695657E+03  0.7957747E-01  0.3497889E+00
         13   -1    0    0    0    0  0.00000000000E+00  0.00000000000E+00  0.14999999963E+04  0.15000000000E+04  0.10566000000E+00 0. -1.
        994   -1    0    0    0    0 -0.00000000000E+00 -0.00000000000E+00  0.11368683772E-12  0.17120000000E+03  0.17120000000E+03 0.  0.
         13    1    1    2    0    0 -0.11832040136E+02  0.18838867968E+00  0.29476597216E+01  0.12195594531E+02  0.10566000000E+00 0. -1.
        994    1    1    2    0    0  0.11603436003E+02 -0.36406425607E+01  0.10008541363E+02  0.17192296212E+03  0.17120000000E+03 0.  0.
        998    1    1    2    0    0  0.22860413351E+00  0.34522538811E+01  0.14870437952E+04  0.14870814433E+04  0.10000000000E+02 0. -1.
</event>
<event>
 5    1  0.1556794E-008  0.3816109E+03  0.7957747E-01  0.3444174E+00
         13   -1    0    0    0    0  0.00000000000E+00  0.00000000000E+00  0.14999999963E+04  0.15000000000E+04  0.10566000000E+00 0. -1.
        994   -1    0    0    0    0 -0.00000000000E+00 -0.00000000000E+00  0.11368683772E-12  0.17120000000E+03  0.17120000000E+03 0.  0.
         13    1    1    2    0    0 -0.10960227285E+02 -0.34393661187E+02  0.18563204045E+03  0.18910927031E+03  0.10566000000E+00 0. -1.
        994    1    1    2    0    0 -0.13778820540E+01  0.29297755568E+02  0.61880063539E+01  0.17380445467E+03  0.17120000000E+03 0.  0.
        998    1    1    2    0    0  0.12338109339E+02  0.50959056192E+01  0.13081799495E+04  0.13082862750E+04  0.10000000000E+02 0. -1.
</event>
<event>
 5    1  0.1556794E-008  0.3798674E+03  0.7957747E-01  0.3451736E+00
         13   -1    0    0    0    0  0.00000000000E+00  0.00000000000E+00  0.14999999963E+04  0.15000000000E+04  0.10566000000E+00 0.  1.
        994   -1    0    0    0    0 -0.00000000000E+00 -0.00000000000E+00  0.11368683772E-12  0.17120000000E+03  0.17120000000E+03 0.  0.
         13    1    1    2    0    0  0.68789234818E+01 -0.63165128404E+02  0.38307352503E+03  0.38830721056E+03  0.10566000000E+00 0.  1.
        994    1    1    2    0    0  0.11893258337E+02  0.60063699810E+02  0.16842102132E+02  0.18259845025E+03  0.17120000000E+03 0.  0.
        998    1    1    2    0    0 -0.18772181819E+02  0.31014285943E+01  0.11000843691E+04  0.11002943392E+04  0.10000000000E+02 0.  1.
</event>
<event>
 5    1  0.1556794E-008  0.3818474E+03  0.7957747E-01  0.3443154E+00
         13   -1    0    0    0    0  0.00000000000E+00  0.00000000000E+00  0.14999999963E+04  0.15000000000E+04  0.10566000000E+00 0. -1.
        994   -1    0    0    0    0 -0.00000000000E+00 -0.00000000000E+00  0.11368683772E-12  0.17120000000E+03  0.17120000000E+03 0.  0.
         13    1    1    2    0    0 -0.21467637667E+02  0.34608581328E+01  0.76114481440E+02  0.79159727482E+02  0.10566000000E+00 0. -1.
        994    1    1    2    0    0  0.20027501744E+01 -0.19547989084E+02  0.44875353449E+01  0.17238246100E+03  0.17120000000E+03 0.  0.
        998    1    1    2    0    0  0.19464887492E+02  0.16087130951E+02  0.14193979795E+04  0.14196578115E+04  0.10000000000E+02 0. -1.
</event>
<event>
 5    1  0.1556794E-008  0.3859340E+03  0.7957747E-01  0.3425721E+00
         13   -1    0    0    0    0  0.00000000000E+00  0.00000000000E+00  0.14999999963E+04  0.15000000000E+04  0.10566000000E+00 0.  1.
        994   -1    0    0    0    0 -0.00000000000E+00 -0.00000000000E+00  0.11368683772E-12  0.17120000000E+03  0.17120000000E+03 0.  0.
         13    1    1    2    0    0  0.61459574616E+01  0.10546112099E+02  0.62889162788E+02  0.64062869384E+02  0.10566000000E+00 0.  1.
        994    1    1    2    0    0  0.57689106715E+01 -0.17151686213E+02  0.22415244591E+01  0.17216830458E+03  0.17120000000E+03 0.  0.
        998    1    1    2    0    0 -0.11914868133E+02  0.66055741140E+01  0.14348693090E+04  0.14349688260E+04  0.10000000000E+02 0.  1.
</event>
<event>
 5    1  0.1556794E-008  0.3688390E+03  0.7957747E-01  0.3501244E+00
         13   -1    0    0    0    0  0.00000000000E+00  0.00000000000E+00  0.14999999963E+04  0.15000000000E+04  0.10566000000E+00 0.  1.
        994   -1    0    0    0    0 -0.00000000000E+00 -0.00000000000E+00  0.11368683772E-12  0.17120000000E+03  0.17120000000E+03 0.  0.
         13    1    1    2    0    0  0.19945459310E+02 -0.21041886361E+02  0.35703541805E+02  0.45992786284E+02  0.10566000000E+00 0.  1.
        994    1    1    2    0    0 -0.14799681457E+02  0.26415174865E+02  0.13524997656E+02  0.17438221697E+03  0.17120000000E+03 0.  0.
        998    1    1    2    0    0 -0.51457778538E+01 -0.53732885040E+01  0.14507714568E+04  0.14508249967E+04  0.10000000000E+02 0.  1.
</event>
<event>
 5    1  0.1556794E-008  0.3686890E+03  0.7957747E-01  0.3501938E+00
         13   -1    0    0    0    0  0.00000000000E+00  0.00000000000E+00  0.14999999963E+04  0.15000000000E+04  0.10566000000E+00 0. -1.
        994   -1    0    0    0    0 -0.00000000000E+00 -0.00000000000E+00  0.11368683772E-12  0.17120000000E+03  0.17120000000E+03 0.  0.
         13    1    1    2    0    0  0.16680081168E+02 -0.68903570047E+02  0.34217891763E+03  0.34944577535E+03  0.10566000000E+00 0. -1.
        994    1    1    2    0    0 -0.57327562629E+02 -0.11738453763E+02  0.21945600876E+02  0.18225062450E+03  0.17120000000E+03 0.  0.
        998    1    1    2    0    0  0.40647481461E+02  0.80642023809E+02  0.11358754778E+04  0.11395036001E+04  0.10000000000E+02 0. -1.
</event>
<event>
 5    1  0.1556794E-008  0.3786149E+03  0.7957747E-01  0.3457212E+00
         13   -1    0    0    0    0  0.00000000000E+00  0.00000000000E+00  0.14999999963E+04  0.15000000000E+04  0.10566000000E+00 0. -1.
        994   -1    0    0    0    0 -0.00000000000E+00 -0.00000000000E+00  0.11368683772E-12  0.17120000000E+03  0.17120000000E+03 0.  0.
         13    1    1    2    0    0 -0.38944811020E+00 -0.15767145203E+02  0.23636481996E+02  0.28415646797E+02  0.10566000000E+00 0. -1.
        994    1    1    2    0    0  0.56770223555E+01  0.12100358372E+02  0.54341447507E+01  0.17180691833E+03  0.17120000000E+03 0.  0.
        998    1    1    2    0    0 -0.52875742453E+01  0.36667868313E+01  0.14709293695E+04  0.14709774349E+04  0.10000000000E+02 0. -1.
</event>
<event>
 5    1  0.1784860E-008  0.3855317E+03  0.7957747E-01  0.3427421E+00
         13   -1    0    0    0    0  0.00000000000E+00  0.00000000000E+00  0.14999999963E+04  0.15000000000E+04  0.10566000000E+00 0.  1.
        994   -1    0    0    0    0 -0.00000000000E+00 -0.00000000000E+00  0.11368683772E-12  0.17120000000E+03  0.17120000000E+03 0.  0.
         13    1    1    2    0    0  0.10790661409E+02  0.44914341748E+00  0.43274960250E+02  0.44602392897E+02  0.10566000000E+00 0.  1.
        994    1    1    2    0    0 -0.54941539112E+01 -0.12817245375E+01  0.14709104936E+01  0.17129924729E+03  0.17120000000E+03 0.  0.
        998    1    1    2    0    0 -0.52965074980E+01  0.83258111997E+00  0.14552541255E+04  0.14552983598E+04  0.10000000000E+02 0.  1.
</event>
<event>
 5    1  0.1556794E-008  0.3701312E+03  0.7957747E-01  0.3495288E+00
         13   -1    0    0    0    0  0.00000000000E+00  0.00000000000E+00  0.14999999963E+04  0.15000000000E+04  0.10566000000E+00 0. -1.
        994   -1    0    0    0    0 -0.00000000000E+00 -0.00000000000E+00  0.11368683772E-12  0.17120000000E+03  0.17120000000E+03 0.  0.
         13    1    1    2    0    0  0.65974692598E+01 -0.41815913530E+02  0.75047482231E+02  0.86163988871E+02  0.10566000000E+00 0. -1.
        994    1    1    2    0    0 -0.60247700675E+01  0.37016243037E+02  0.15943629227E+02  0.17598334983E+03  0.17120000000E+03 0.  0.
        998    1    1    2    0    0 -0.57269919236E+00  0.47996704927E+01  0.14090088848E+04  0.14090526613E+04  0.10000000000E+02 0. -1.
</event>
<event>
 5    1  0.1556794E-008  0.3750849E+03  0.7957747E-01  0.3472843E+00
         13   -1    0    0    0    0  0.00000000000E+00  0.00000000000E+00  0.14999999963E+04  0.15000000000E+04  0.10566000000E+00 0. -1.
        994   -1    0    0    0    0 -0.00000000000E+00 -0.00000000000E+00  0.11368683772E-12  0.17120000000E+03  0.17120000000E+03 0.  0.
         13    1    1    2    0    0  0.26267153740E+02  0.16018346102E+03  0.95274085228E+03  0.96646978604E+03  0.10566000000E+00 0. -1.
        994    1    1    2    0    0 -0.90366572335E+01 -0.14614633383E+03  0.83381891939E+02  0.24021322189E+03  0.17120000000E+03 0.  0.
        998    1    1    2    0    0 -0.17230496506E+02 -0.14037127187E+02  0.46387725206E+03  0.46451699207E+03  0.10000000000E+02 0. -1.
</event>
<event>
 5    1  0.1556794E-008  0.3892491E+03  0.7957747E-01  0.3411849E+00
         13   -1    0    0    0    0  0.00000000000E+00  0.00000000000E+00  0.14999999963E+04  0.15000000000E+04  0.10566000000E+00 0.  1.
        994   -1    0    0    0    0 -0.00000000000E+00 -0.00000000000E+00  0.11368683772E-12  0.17120000000E+03  0.17120000000E+03 0.  0.
         13    1    1    2    0    0 -0.39425394111E+02  0.56990711825E+02  0.11087164467E+03  0.13074722059E+03  0.10566000000E+00 0.  1.
        994    1    1    2    0    0  0.22790385055E+02 -0.20050016629E+02  0.24967341526E+02  0.17565367335E+03  0.17120000000E+03 0.  0.
        998    1    1    2    0    0  0.16635009056E+02 -0.36940695196E+02  0.13641610101E+04  0.13647991061E+04  0.10000000000E+02 0.  1.
</event>
<event>
 5    1  0.1556794E-008  0.3689925E+03  0.7957747E-01  0.3500534E+00
         13   -1    0    0    0    0  0.00000000000E+00  0.00000000000E+00  0.14999999963E+04  0.15000000000E+04  0.10566000000E+00 0.  1.
        994   -1    0    0    0    0 -0.00000000000E+00 -0.00000000000E+00  0.11368683772E-12  0.17120000000E+03  0.17120000000E+03 0.  0.
         13    1    1    2    0    0  0.43542642574E+02  0.64009505063E+02  0.39262063891E+03  0.40018015408E+03  0.10566000000E+00 0.  1.
        994    1    1    2    0    0  0.38682530545E+02 -0.47116179681E+02  0.22804017494E+02  0.18315495017E+03  0.17120000000E+03 0.  0.
        998    1    1    2    0    0 -0.82225173120E+02 -0.16893325383E+02  0.10845753399E+04  0.10878648957E+04  0.10000000000E+02 0.  1.
</event>
<event>
 5    1  0.1556794E-008  0.3811716E+03  0.7957747E-01  0.3446073E+00
         13   -1    0    0    0    0  0.00000000000E+00  0.00000000000E+00  0.14999999963E+04  0.15000000000E+04  0.10566000000E+00 0. -1.
        994   -1    0    0    0    0 -0.00000000000E+00 -0.00000000000E+00  0.11368683772E-12  0.17120000000E+03  0.17120000000E+03 0.  0.
         13    1    1    2    0    0  0.16906846670E+02  0.11152807151E+02  0.54090796719E+02  0.57758566684E+02  0.10566000000E+00 0. -1.
        994    1    1    2    0    0 -0.15398950004E+02 -0.20873275660E+02  0.57866086684E+01  0.17325052998E+03  0.17120000000E+03 0.  0.
        998    1    1    2    0    0 -0.15078966659E+01  0.97204685097E+01  0.14401225909E+04  0.14401909033E+04  0.10000000000E+02 0. -1.
</event>
<event>
 5    1  0.1556794E-008  0.3795882E+03  0.7957747E-01  0.3452954E+00
         13   -1    0    0    0    0  0.00000000000E+00  0.00000000000E+00  0.14999999963E+04  0.15000000000E+04  0.10566000000E+00 0.  1.
        994   -1    0    0    0    0 -0.00000000000E+00 -0.00000000000E+00  0.11368683772E-12  0.17120000000E+03  0.17120000000E+03 0.  0.
         13    1    1    2    0    0 -0.16155032614E+02  0.49466606891E+02  0.29677840891E+03  0.30130609923E+03  0.10566000000E+00 0.  1.
        994    1    1    2    0    0  0.88709279299E+01 -0.33482650190E+02  0.83678489873E+01  0.17486921434E+03  0.17120000000E+03 0.  0.
        998    1    1    2    0    0  0.72841046839E+01 -0.15983956701E+02  0.11948537384E+04  0.11950246864E+04  0.10000000000E+02 0. -1.
</event>
<event>
 5    1  0.1556794E-008  0.3768776E+03  0.7957747E-01  0.3464868E+00
         13   -1    0    0    0    0  0.00000000000E+00  0.00000000000E+00  0.14999999963E+04  0.15000000000E+04  0.10566000000E+00 0.  1.
        994   -1    0    0    0    0 -0.00000000000E+00 -0.00000000000E+00  0.11368683772E-12  0.17120000000E+03  0.17120000000E+03 0.  0.
         13    1    1    2    0    0 -0.60084960031E+02  0.12853393672E+02  0.27777351597E+03  0.28448822381E+03  0.10566000000E+00 0.  1.
        994    1    1    2    0    0  0.55452806322E+02 -0.14363006762E+02  0.16882824088E+02  0.18131679305E+03  0.17120000000E+03 0.  0.
        998    1    1    2    0    0  0.46321537087E+01  0.15096130905E+01  0.12053436562E+04  0.12053949831E+04  0.10000000000E+02 0.  1.
</event>
<event>
 5    1  0.1556794E-008  0.3761817E+03  0.7957747E-01  0.3467955E+00
         13   -1    0    0    0    0  0.00000000000E+00  0.00000000000E+00  0.14999999963E+04  0.15000000000E+04  0.10566000000E+00 0. -1.
        994   -1    0    0    0    0 -0.00000000000E+00 -0.00000000000E+00  0.11368683772E-12  0.17120000000E+03  0.17120000000E+03 0.  0.
         13    1    1    2    0    0  0.49391745361E+01 -0.18785790545E+02  0.28230848906E+02  0.34267964128E+02  0.10566000000E+00 0. -1.
        994    1    1    2    0    0 -0.48462788951E+01  0.16878874244E+02  0.71179216578E+01  0.17224542845E+03  0.17120000000E+03 0.  0.
        998    1    1    2    0    0 -0.92895640954E-01  0.19069163004E+01  0.14646512257E+04  0.14646866074E+04  0.10000000000E+02 0. -1.
</event>
<event>
 5    1  0.1556794E-008  0.3816913E+03  0.7957747E-01  0.3443827E+00
         13   -1    0    0    0    0  0.00000000000E+00  0.00000000000E+00  0.14999999963E+04  0.15000000000E+04  0.10566000000E+00 0.  1.
        994   -1    0    0    0    0 -0.00000000000E+00 -0.00000000000E+00  0.11368683772E-12  0.17120000000E+03  0.17120000000E+03 0.  0.
         13    1    1    2    0    0 -0.82101782117E+00  0.26951258956E+02  0.92980773673E+02  0.96811568866E+02  0.10566000000E+00 0.  1.
        994    1    1    2    0    0  0.13287899375E+02 -0.46960043904E+02  0.11240584652E+02  0.17837489940E+03  0.17120000000E+03 0.  0.
        998    1    1    2    0    0 -0.12466881554E+02  0.20008784948E+02  0.13957786380E+04  0.13960135317E+04  0.10000000000E+02 0.  1.
</event>
<event>
 5    1  0.1556794E-008  0.3840605E+03  0.7957747E-01  0.3433666E+00
         13   -1    0    0    0    0  0.00000000000E+00  0.00000000000E+00  0.14999999963E+04  0.15000000000E+04  0.10566000000E+00 0.  1.
        994   -1    0    0    0    0 -0.00000000000E+00 -0.00000000000E+00  0.11368683772E-12  0.17120000000E+03  0.17120000000E+03 0.  0.
         13    1    1    2    0    0  0.10898745334E+02  0.29984247328E+01  0.31092941290E+02  0.33084065089E+02  0.10566000000E+00 0.  1.
        994    1    1    2    0    0  0.70232709778E+00  0.50740766184E+01  0.21838388946E+01  0.17129053876E+03  0.17120000000E+03 0.  0.
        998    1    1    2    0    0 -0.11601072431E+02 -0.80725013512E+01  0.14667232161E+04  0.14668253961E+04  0.10000000000E+02 0.  1.
</event>
<event>
 5    1  0.1556794E-008  0.3838966E+03  0.7957747E-01  0.3434365E+00
         13   -1    0    0    0    0  0.00000000000E+00  0.00000000000E+00  0.14999999963E+04  0.15000000000E+04  0.10566000000E+00 0. -1.
        994   -1    0    0    0    0 -0.00000000000E+00 -0.00000000000E+00  0.11368683772E-12  0.17120000000E+03  0.17120000000E+03 0.  0.
         13    1    1    2    0    0  0.32309326278E+02  0.30105898163E+01  0.19535691596E+03  0.19803356280E+03  0.10566000000E+00 0. -1.
        994    1    1    2    0    0 -0.44542267590E+02  0.19436910475E+02  0.10013287373E+02  0.17824565357E+03  0.17120000000E+03 0.  0.
        998    1    1    2    0    0  0.12232941312E+02 -0.22447500291E+02  0.12946297929E+04  0.12949207836E+04  0.10000000000E+02 0. -1.
</event>
<event>
 5    1  0.1556794E-008  0.3688440E+03  0.7957747E-01  0.3501221E+00
         13   -1    0    0    0    0  0.00000000000E+00  0.00000000000E+00  0.14999999963E+04  0.15000000000E+04  0.10566000000E+00 0. -1.
        994   -1    0    0    0    0 -0.00000000000E+00 -0.00000000000E+00  0.11368683772E-12  0.17120000000E+03  0.17120000000E+03 0.  0.
         13    1    1    2    0    0  0.15751004038E+03 -0.19297272211E+02  0.63796508528E+03  0.65740494274E+03  0.10566000000E+00 0. -1.
        994    1    1    2    0    0 -0.15768512200E+03  0.12271390197E+02  0.10326717139E+03  0.25492887911E+03  0.17120000000E+03 0.  0.
        998    1    1    2    0    0  0.17508162292E+00  0.70258820134E+01  0.75876773961E+03  0.75886617815E+03  0.10000000000E+02 0. -1.
</event>
<event>
 5    1  0.1556794E-008  0.3728704E+03  0.7957747E-01  0.3482802E+00
         13   -1    0    0    0    0  0.00000000000E+00  0.00000000000E+00  0.14999999963E+04  0.15000000000E+04  0.10566000000E+00 0. -1.
        994   -1    0    0    0    0 -0.00000000000E+00 -0.00000000000E+00  0.11368683772E-12  0.17120000000E+03  0.17120000000E+03 0.  0.
         13    1    1    2    0    0 -0.22338694404E+02 -0.36257236949E+02  0.10717029183E+03  0.11532166802E+03  0.10566000000E+00 0. -1.
        994    1    1    2    0    0  0.52486666742E+02  0.16164059097E+02  0.18174466131E+02  0.18070937500E+03  0.17120000000E+03 0.  0.
        998    1    1    2    0    0 -0.30147972338E+02  0.20093177852E+02  0.13746552383E+04  0.13751689570E+04  0.10000000000E+02 0. -1.
</event>
<event>
 5    1  0.1556794E-008  0.3786366E+03  0.7957747E-01  0.3457117E+00
         13   -1    0    0    0    0  0.00000000000E+00  0.00000000000E+00  0.14999999963E+04  0.15000000000E+04  0.10566000000E+00 0.  1.
        994   -1    0    0    0    0 -0.00000000000E+00 -0.00000000000E+00  0.11368683772E-12  0.17120000000E+03  0.17120000000E+03 0.  0.
         13    1    1    2    0    0  0.12267534703E+02  0.28184800737E+01  0.14205291290E+02  0.18979928933E+02  0.10566000000E+00 0.  1.
        994    1    1    2    0    0 -0.12350309503E+02 -0.18481535446E+01  0.53468255563E+01  0.17173809816E+03  0.17120000000E+03 0.  0.
        998    1    1    2    0    0  0.82774800009E-01 -0.97032652918E+00  0.14804478794E+04  0.14804819729E+04  0.10000000000E+02 0.  1.
</event>
<event>
 5    1  0.1556794E-008  0.3842494E+03  0.7957747E-01  0.3432862E+00
         13   -1    0    0    0    0  0.00000000000E+00  0.00000000000E+00  0.14999999963E+04  0.15000000000E+04  0.10566000000E+00 0.  1.
        994   -1    0    0    0    0 -0.00000000000E+00 -0.00000000000E+00  0.11368683772E-12  0.17120000000E+03  0.17120000000E+03 0.  0.
         13    1    1    2    0    0  0.11386374297E+02 -0.27939896513E+01  0.32314211523E+02  0.34375504770E+02  0.10566000000E+00 0.  1.
        994    1    1    2    0    0 -0.15915778931E+02  0.15060879770E+02  0.35877042858E+01  0.17263387194E+03  0.17120000000E+03 0.  0.
        998    1    1    2    0    0  0.45294046337E+01 -0.12266890119E+02  0.14640980805E+04  0.14641906233E+04  0.10000000000E+02 0.  1.
</event>
<event>
 5    1  0.1556794E-008  0.3821644E+03  0.7957747E-01  0.3441788E+00
         13   -1    0    0    0    0  0.00000000000E+00  0.00000000000E+00  0.14999999963E+04  0.15000000000E+04  0.10566000000E+00 0.  1.
        994   -1    0    0    0    0 -0.00000000000E+00 -0.00000000000E+00  0.11368683772E-12  0.17120000000E+03  0.17120000000E+03 0.  0.
         13    1    1    2    0    0 -0.20982055494E+02 -0.14983522722E+02  0.10899867162E+03  0.11200658099E+03  0.10566000000E+00 0.  1.
        994    1    1    2    0    0  0.53386471601E+01  0.17807205815E+02  0.41924661339E+01  0.17225740769E+03  0.17120000000E+03 0.  0.
        998    1    1    2    0    0  0.15643408334E+02 -0.28236830937E+01  0.13868088585E+04  0.13869360113E+04  0.10000000000E+02 0.  1.
</event>
<event>
 5    1  0.1556794E-008  0.3709372E+03  0.7957747E-01  0.3491595E+00
         13   -1    0    0    0    0  0.00000000000E+00  0.00000000000E+00  0.14999999963E+04  0.15000000000E+04  0.10566000000E+00 0.  1.
        994   -1    0    0    0    0 -0.00000000000E+00 -0.00000000000E+00  0.11368683772E-12  0.17120000000E+03  0.17120000000E+03 0.  0.
         13    1    1    2    0    0  0.23330768287E+02  0.51467061783E+01  0.28528673397E+02  0.37211687722E+02  0.10566000000E+00 0.  1.
        994    1    1    2    0    0 -0.20016425893E+02 -0.92082653063E+01  0.10454932063E+02  0.17292829456E+03  0.17120000000E+03 0.  0.
        998    1    1    2    0    0 -0.33143423941E+01  0.40615591280E+01  0.14610163908E+04  0.14610600177E+04  0.10000000000E+02 0.  1.
</event>
<event>
 5    1  0.1556794E-008  0.3804240E+03  0.7957747E-01  0.3449314E+00
         13   -1    0    0    0    0  0.00000000000E+00  0.00000000000E+00  0.14999999963E+04  0.15000000000E+04  0.10566000000E+00 0.  1.
        994   -1    0    0    0    0 -0.00000000000E+00 -0.00000000000E+00  0.11368683772E-12  0.17120000000E+03  0.17120000000E+03 0.  0.
         13    1    1    2    0    0 -0.12354207955E+02  0.17913828616E+02  0.56954899969E+02  0.60970513401E+02  0.10566000000E+00 0.  1.
        994    1    1    2    0    0  0.20646359950E+02 -0.13362925467E+02  0.59409849868E+01  0.17305945585E+03  0.17120000000E+03 0.  0.
        998    1    1    2    0    0 -0.82921519951E+01 -0.45509031484E+01  0.14371041113E+04  0.14371700307E+04  0.10000000000E+02 0.  1.
</event>
<event>
 5    1  0.1556794E-008  0.3843590E+03  0.7957747E-01  0.3432395E+00
         13   -1    0    0    0    0  0.00000000000E+00  0.00000000000E+00  0.14999999963E+04  0.15000000000E+04  0.10566000000E+00 0.  1.
        994   -1    0    0    0    0 -0.00000000000E+00 -0.00000000000E+00  0.11368683772E-12  0.17120000000E+03  0.17120000000E+03 0.  0.
         13    1    1    2    0    0 -0.61689382718E+01  0.14403147094E+02  0.61833207306E+02  0.63787640930E+02  0.10566000000E+00 0.  1.
        994    1    1    2    0    0  0.68321249770E+01 -0.10918718370E+02  0.24956016711E+01  0.17170196379E+03  0.17120000000E+03 0.  0.
        998    1    1    2    0    0 -0.66318670519E+00 -0.34844287233E+01  0.14356711873E+04  0.14357103953E+04  0.10000000000E+02 0.  1.
</event>
<event>
 5    1  0.1556794E-008  0.3846659E+03  0.7957747E-01  0.3431090E+00
         13   -1    0    0    0    0  0.00000000000E+00  0.00000000000E+00  0.14999999963E+04  0.15000000000E+04  0.10566000000E+00 0.  1.
        994   -1    0    0    0    0 -0.00000000000E+00 -0.00000000000E+00  0.11368683772E-12  0.17120000000E+03  0.17120000000E+03 0.  0.
         13    1    1    2    0    0 -0.34921351006E+00  0.16676265895E+02  0.75353278571E+02  0.77177377189E+02  0.10566000000E+00 0.  1.
        994    1    1    2    0    0  0.85728213032E+00 -0.14779183476E+02  0.25179312162E+01  0.17185732214E+03  0.17120000000E+03 0.  0.
        998    1    1    2    0    0 -0.50806862026E+00 -0.18970824192E+01  0.14221287865E+04  0.14221653007E+04  0.10000000000E+02 0.  1.
</event>
<event>
 5    1  0.1556794E-008  0.3800276E+03  0.7957747E-01  0.3451038E+00
         13   -1    0    0    0    0  0.00000000000E+00  0.00000000000E+00  0.14999999963E+04  0.15000000000E+04  0.10566000000E+00 0. -1.
        994   -1    0    0    0    0 -0.00000000000E+00 -0.00000000000E+00  0.11368683772E-12  0.17120000000E+03  0.17120000000E+03 0.  0.
         13    1    1    2    0    0  0.21804537692E+02  0.29167497161E+02  0.15992581926E+03  0.16401969267E+03  0.10566000000E+00 0. -1.
        994    1    1    2    0    0  0.18194556861E+00 -0.26734550797E+02  0.65120899888E+01  0.17339727976E+03  0.17120000000E+03 0.  0.
        998    1    1    2    0    0 -0.21986483261E+02 -0.24329463632E+01  0.13335620870E+04  0.13337830276E+04  0.10000000000E+02 0. -1.
</event>
<event>
 5    1  0.1556794E-008  0.3763426E+03  0.7957747E-01  0.3467240E+00
         13   -1    0    0    0    0  0.00000000000E+00  0.00000000000E+00  0.14999999963E+04  0.15000000000E+04  0.10566000000E+00 0.  1.
        994   -1    0    0    0    0 -0.00000000000E+00 -0.00000000000E+00  0.11368683772E-12  0.17120000000E+03  0.17120000000E+03 0.  0.
         13    1    1    2    0    0 -0.12185619796E+02  0.98015870717E+00  0.97558109250E+01  0.15640877589E+02  0.10566000000E+00 0.  1.
        994    1    1    2    0    0  0.99066449708E+01 -0.10713056279E+01  0.63269177253E+01  0.17160640780E+03  0.17120000000E+03 0.  0.
        998    1    1    2    0    0  0.22789748257E+01  0.91146920707E-01  0.14839172676E+04  0.14839527146E+04  0.10000000000E+02 0.  1.
</event>
<event>
 5    1  0.1556794E-008  0.3755842E+03  0.7957747E-01  0.3470614E+00
         13   -1    0    0    0    0  0.00000000000E+00  0.00000000000E+00  0.14999999963E+04  0.15000000000E+04  0.10566000000E+00 0. -1.
        994   -1    0    0    0    0 -0.00000000000E+00 -0.00000000000E+00  0.11368683772E-12  0.17120000000E+03  0.17120000000E+03 0.  0.
         13    1    1    2    0    0 -0.59399108177E+02 -0.55016214244E+02  0.22841644284E+03  0.24234091773E+03  0.10566000000E+00 0. -1.
        994    1    1    2    0    0  0.32425148765E+02  0.40338258459E+02  0.23536160600E+02  0.18039389187E+03  0.17120000000E+03 0.  0.
        998    1    1    2    0    0  0.26973959411E+02  0.14677955785E+02  0.12480473928E+04  0.12484651904E+04  0.10000000000E+02 0. -1.
</event>
<event>
 5    1  0.1556794E-008  0.3854802E+03  0.7957747E-01  0.3427638E+00
         13   -1    0    0    0    0  0.00000000000E+00  0.00000000000E+00  0.14999999963E+04  0.15000000000E+04  0.10566000000E+00 0.  1.
        994   -1    0    0    0    0 -0.00000000000E+00 -0.00000000000E+00  0.11368683772E-12  0.17120000000E+03  0.17120000000E+03 0.  0.
         13    1    1    2    0    0 -0.12292526532E+02 -0.32396452741E+01  0.55226006546E+02  0.56670313861E+02  0.10566000000E+00 0.  1.
        994    1    1    2    0    0  0.20536666761E+02 -0.94354335047E+01  0.30708995211E+01  0.17271262985E+03  0.17120000000E+03 0.  0.
        998    1    1    2    0    0 -0.82441402295E+01  0.12675078779E+02  0.14417030902E+04  0.14418170563E+04  0.10000000000E+02 0.  1.
</event>
<event>
 5    1  0.1556794E-008  0.3845945E+03  0.7957747E-01  0.3431394E+00
         13   -1    0    0    0    0  0.00000000000E+00  0.00000000000E+00  0.14999999963E+04  0.15000000000E+04  0.10566000000E+00 0. -1.
        994   -1    0    0    0    0 -0.00000000000E+00 -0.00000000000E+00  0.11368683772E-12  0.17120000000E+03  0.17120000000E+03 0.  0.
         13    1    1    2    0    0 -0.13099966774E+01 -0.11735890519E+02  0.36352658036E+02  0.38222691269E+02  0.10566000000E+00 0. -1.
        994    1    1    2    0    0  0.59499857536E+01  0.15704650874E+02  0.27609067622E+01  0.17204389264E+03  0.17120000000E+03 0.  0.
        998    1    1    2    0    0 -0.46399890762E+01 -0.39687603551E+01  0.14608864315E+04  0.14609334161E+04  0.10000000000E+02 0. -1.
</event>
<event>
 5    1  0.1556794E-008  0.3740051E+03  0.7957747E-01  0.3477684E+00
         13   -1    0    0    0    0  0.00000000000E+00  0.00000000000E+00  0.14999999963E+04  0.15000000000E+04  0.10566000000E+00 0. -1.
        994   -1    0    0    0    0 -0.00000000000E+00 -0.00000000000E+00  0.11368683772E-12  0.17120000000E+03  0.17120000000E+03 0.  0.
         13    1    1    2    0    0  0.19827122669E+02  0.13494344114E+01  0.24202542109E+02  0.31316289294E+02  0.10566000000E+00 0. -1.
        994    1    1    2    0    0 -0.17788806129E+02  0.39359725571E+00  0.82710309226E+01  0.17232076629E+03  0.17120000000E+03 0.  0.
        998    1    1    2    0    0 -0.20383165404E+01 -0.17430316671E+01  0.14675264232E+04  0.14675629444E+04  0.10000000000E+02 0. -1.
</event>
<event>
 5    1  0.1556794E-008  0.3784844E+03  0.7957747E-01  0.3457785E+00
         13   -1    0    0    0    0  0.00000000000E+00  0.00000000000E+00  0.14999999963E+04  0.15000000000E+04  0.10566000000E+00 0. -1.
        994   -1    0    0    0    0 -0.00000000000E+00 -0.00000000000E+00  0.11368683772E-12  0.17120000000E+03  0.17120000000E+03 0.  0.
         13    1    1    2    0    0  0.33307919543E+02  0.93626745157E+01  0.11342026044E+03  0.11858011562E+03  0.10566000000E+00 0. -1.
        994    1    1    2    0    0 -0.30156907253E+02 -0.13379096046E+02  0.85657563238E+01  0.17456016569E+03  0.17120000000E+03 0.  0.
        998    1    1    2    0    0 -0.31510122907E+01  0.40164215304E+01  0.13780139795E+04  0.13780597187E+04  0.10000000000E+02 0. -1.
</event>
<event>
 5    1  0.1556794E-008  0.3864413E+03  0.7957747E-01  0.3423583E+00
         13   -1    0    0    0    0  0.00000000000E+00  0.00000000000E+00  0.14999999963E+04  0.15000000000E+04  0.10566000000E+00 0.  1.
        994   -1    0    0    0    0 -0.00000000000E+00 -0.00000000000E+00  0.11368683772E-12  0.17120000000E+03  0.17120000000E+03 0.  0.
         13    1    1    2    0    0  0.23972417431E+02 -0.50030101767E+02  0.66996028407E+02  0.86983716100E+02  0.10566000000E+00 0.  1.
        994    1    1    2    0    0 -0.23703184570E+02  0.52383086053E+02  0.32285523614E+02  0.18346014199E+03  0.17120000000E+03 0.  0.
        998    1    1    2    0    0 -0.26923286038E+00 -0.23529842861E+01  0.14007184443E+04  0.14007561419E+04  0.10000000000E+02 0.  1.
</event>
<event>
 5    1  0.1556794E-008  0.3689171E+03  0.7957747E-01  0.3500883E+00
         13   -1    0    0    0    0  0.00000000000E+00  0.00000000000E+00  0.14999999963E+04  0.15000000000E+04  0.10566000000E+00 0.  1.
        994   -1    0    0    0    0 -0.00000000000E+00 -0.00000000000E+00  0.11368683772E-12  0.17120000000E+03  0.17120000000E+03 0.  0.
         13    1    1    2    0    0  0.10644647804E+02  0.34488200550E+01  0.11891709003E+01  0.11252918649E+02  0.10566000000E+00 0.  1.
        994    1    1    2    0    0 -0.10075259751E+02 -0.47521809587E+01  0.10799643612E+02  0.17190161833E+03  0.17120000000E+03 0.  0.
        998    1    1    2    0    0 -0.56938805290E+00  0.13033609038E+01  0.14880111818E+04  0.14880454630E+04  0.10000000000E+02 0.  1.
</event>
<event>
 5    1  0.1556794E-008  0.3814292E+03  0.7957747E-01  0.3444959E+00
         13   -1    0    0    0    0  0.00000000000E+00  0.00000000000E+00  0.14999999963E+04  0.15000000000E+04  0.10566000000E+00 0.  1.
        994   -1    0    0    0    0 -0.00000000000E+00 -0.00000000000E+00  0.11368683772E-12  0.17120000000E+03  0.17120000000E+03 0.  0.
         13    1    1    2    0    0 -0.26454575072E+02 -0.12755889296E+02  0.13794735322E+03  0.14103914591E+03  0.10566000000E+00 0.  1.
        994    1    1    2    0    0  0.89171798779E+01 -0.10819499186E+02  0.40677594964E+01  0.17182131511E+03  0.17120000000E+03 0.  0.
        998    1    1    2    0    0  0.17537395194E+02  0.23575388482E+02  0.13579848836E+04  0.13583395390E+04  0.10000000000E+02 0.  1.
</event>
<event>
 5    1  0.1556794E-008  0.3837376E+03  0.7957747E-01  0.3435044E+00
         13   -1    0    0    0    0  0.00000000000E+00  0.00000000000E+00  0.14999999963E+04  0.15000000000E+04  0.10566000000E+00 0. -1.
        994   -1    0    0    0    0 -0.00000000000E+00 -0.00000000000E+00  0.11368683772E-12  0.17120000000E+03  0.17120000000E+03 0.  0.
         13    1    1    2    0    0  0.36964917600E+02 -0.42637950905E+01  0.20708323160E+03  0.21039976487E+03  0.10566000000E+00 0. -1.
        994    1    1    2    0    0 -0.61872099223E+02  0.39998440181E+02  0.20393377558E+02  0.18749229778E+03  0.17120000000E+03 0.  0.
        998    1    1    2    0    0  0.24907181623E+02 -0.35734645090E+02  0.12725233871E+04  0.12733079374E+04  0.10000000000E+02 0. -1.
</event>
<event>
 5    1  0.1556794E-008  0.3731735E+03  0.7957747E-01  0.3481432E+00
         13   -1    0    0    0    0  0.00000000000E+00  0.00000000000E+00  0.14999999963E+04  0.15000000000E+04  0.10566000000E+00 0. -1.
        994   -1    0    0    0    0 -0.00000000000E+00 -0.00000000000E+00  0.11368683772E-12  0.17120000000E+03  0.17120000000E+03 0.  0.
         13    1    1    2    0    0 -0.12325691699E+02  0.34897784302E+02  0.87822831877E+02  0.95302880271E+02  0.10566000000E+00 0. -1.
        994    1    1    2    0    0 -0.29012524601E+02 -0.32939357217E+02  0.14238417164E+02  0.17731018121E+03  0.17120000000E+03 0.  0.
        998    1    1    2    0    0  0.41338216301E+02 -0.19584270852E+01  0.13979387472E+04  0.13985869385E+04  0.10000000000E+02 0. -1.
</event>
<event>
 5    1  0.1556794E-008  0.3801735E+03  0.7957747E-01  0.3450403E+00
         13   -1    0    0    0    0  0.00000000000E+00  0.00000000000E+00  0.14999999963E+04  0.15000000000E+04  0.10566000000E+00 0.  1.
        994   -1    0    0    0    0 -0.00000000000E+00 -0.00000000000E+00  0.11368683772E-12  0.17120000000E+03  0.17120000000E+03 0.  0.
         13    1    1    2    0    0 -0.94991409056E+01  0.10288247795E+02  0.22649505800E+02  0.26628800154E+02  0.10566000000E+00 0.  1.
        994    1    1    2    0    0  0.10061058622E+02 -0.24055656396E+01  0.44031960551E+01  0.17156876109E+03  0.17120000000E+03 0.  0.
        998    1    1    2    0    0 -0.56191771671E+00 -0.78826821551E+01  0.14729472944E+04  0.14730024388E+04  0.10000000000E+02 0.  1.
</event>
<event>
 5    1  0.1556794E-008  0.3811852E+03  0.7957747E-01  0.3446014E+00
         13   -1    0    0    0    0  0.00000000000E+00  0.00000000000E+00  0.14999999963E+04  0.15000000000E+04  0.10566000000E+00 0. -1.
        994   -1    0    0    0    0 -0.00000000000E+00 -0.00000000000E+00  0.11368683772E-12  0.17120000000E+03  0.17120000000E+03 0.  0.
         13    1    1    2    0    0  0.18314691546E+02 -0.38312823380E+02  0.22029280051E+03  0.22434845550E+03  0.10566000000E+00 0. -1.
        994    1    1    2    0    0 -0.20662243817E+02  0.36370484280E+02  0.93844976563E+01  0.17648583298E+03  0.17120000000E+03 0.  0.
        998    1    1    2    0    0  0.23475522712E+01  0.19423391002E+01  0.12703226981E+04  0.12703657115E+04  0.10000000000E+02 0. -1.
</event>
<event>
 5    1  0.1556794E-008  0.3761684E+03  0.7957747E-01  0.3468013E+00
         13   -1    0    0    0    0  0.00000000000E+00  0.00000000000E+00  0.14999999963E+04  0.15000000000E+04  0.10566000000E+00 0.  1.
        994   -1    0    0    0    0 -0.00000000000E+00 -0.00000000000E+00  0.11368683772E-12  0.17120000000E+03  0.17120000000E+03 0.  0.
         13    1    1    2    0    0  0.24608358591E+02 -0.22627849435E+02  0.33374689287E+02  0.47238458184E+02  0.10566000000E+00 0.  1.
        994    1    1    2    0    0 -0.16920411702E+02  0.21332412601E+02  0.16891978868E+02  0.17417276225E+03  0.17120000000E+03 0.  0.
        998    1    1    2    0    0 -0.76879468895E+01  0.12954368336E+01  0.14497333281E+04  0.14497887796E+04  0.10000000000E+02 0.  0.
</event>
<event>
 5    1  0.1556794E-008  0.3846671E+03  0.7957747E-01  0.3431085E+00
         13   -1    0    0    0    0  0.00000000000E+00  0.00000000000E+00  0.14999999963E+04  0.15000000000E+04  0.10566000000E+00 0.  1.
        994   -1    0    0    0    0 -0.00000000000E+00 -0.00000000000E+00  0.11368683772E-12  0.17120000000E+03  0.17120000000E+03 0.  0.
         13    1    1    2    0    0 -0.10016444878E+02  0.12134504814E+02  0.67116052663E+02  0.68935847454E+02  0.10566000000E+00 0.  1.
        994    1    1    2    0    0  0.12242135335E+02 -0.85080577798E+01  0.25275511880E+01  0.17186647561E+03  0.17120000000E+03 0.  0.
        998    1    1    2    0    0 -0.22256904568E+01 -0.36264470346E+01  0.14303563924E+04  0.14303976769E+04  0.10000000000E+02 0.  1.
</event>
<event>
 5    1  0.1556794E-008  0.3790201E+03  0.7957747E-01  0.3455437E+00
         13   -1    0    0    0    0  0.00000000000E+00  0.00000000000E+00  0.14999999963E+04  0.15000000000E+04  0.10566000000E+00 0. -1.
        994   -1    0    0    0    0 -0.00000000000E+00 -0.00000000000E+00  0.11368683772E-12  0.17120000000E+03  0.17120000000E+03 0.  0.
         13    1    1    2    0    0 -0.12728208108E+02  0.24003159021E+02  0.71761274057E+02  0.76732330493E+02  0.10566000000E+00 0. -1.
        994    1    1    2    0    0  0.12500801473E+02 -0.35417142658E+02  0.93741800645E+01  0.17552196240E+03  0.17120000000E+03 0.  0.
        998    1    1    2    0    0  0.22740663553E+00  0.11413983637E+02  0.14188645422E+04  0.14189457071E+04  0.10000000000E+02 0. -1.
</event>
<event>
 5    1  0.1831968E-008  0.3858637E+03  0.7957747E-01  0.3426018E+00
         13   -1    0    0    0    0  0.00000000000E+00  0.00000000000E+00  0.14999999963E+04  0.15000000000E+04  0.10566000000E+00 0.  1.
        994   -1    0    0    0    0 -0.00000000000E+00 -0.00000000000E+00  0.11368683772E-12  0.17120000000E+03  0.17120000000E+03 0.  0.
         13    1    1    2    0    0  0.55522886672E+01  0.95926169233E+01  0.49882337319E+02  0.51098972097E+02  0.10566000000E+00 0.  1.
        994    1    1    2    0    0 -0.88398497524E+01 -0.95874610795E+01  0.17598615481E+01  0.17170497799E+03  0.17120000000E+03 0.  0.
        998    1    1    2    0    0  0.32875610852E+01 -0.51558438210E-02  0.14483577974E+04  0.14483960499E+04  0.10000000000E+02 0.  1.
</event>
<event>
 5    1  0.1556794E-008  0.3817309E+03  0.7957747E-01  0.3443656E+00
         13   -1    0    0    0    0  0.00000000000E+00  0.00000000000E+00  0.14999999963E+04  0.15000000000E+04  0.10566000000E+00 0. -1.
        994   -1    0    0    0    0 -0.00000000000E+00 -0.00000000000E+00  0.11368683772E-12  0.17120000000E+03  0.17120000000E+03 0.  0.
         13    1    1    2    0    0  0.76343721334E+01 -0.27994846985E+02  0.11868736635E+03  0.12218304789E+03  0.10566000000E+00 0. -1.
        994    1    1    2    0    0 -0.18879979523E+01  0.30335299023E+02  0.63386064029E+01  0.17399256546E+03  0.17120000000E+03 0.  0.
        998    1    1    2    0    0 -0.57463741811E+01 -0.23404520388E+01  0.13749740235E+04  0.13750243867E+04  0.10000000000E+02 0. -1.
</event>
<event>
 5    1  0.1556794E-008  0.3792211E+03  0.7957747E-01  0.3454557E+00
         13   -1    0    0    0    0  0.00000000000E+00  0.00000000000E+00  0.14999999963E+04  0.15000000000E+04  0.10566000000E+00 0. -1.
        994   -1    0    0    0    0 -0.00000000000E+00 -0.00000000000E+00  0.11368683772E-12  0.17120000000E+03  0.17120000000E+03 0.  0.
         13    1    1    2    0    0 -0.94747977763E+01  0.31336864122E+02  0.10696288732E+03  0.11186081205E+03  0.10566000000E+00 0. -1.
        994    1    1    2    0    0  0.12590077306E+02 -0.34952323337E+02  0.91664481432E+01  0.17542416802E+03  0.17120000000E+03 0.  0.
        998    1    1    2    0    0 -0.31152795296E+01  0.36154592148E+01  0.13838706608E+04  0.13839150199E+04  0.10000000000E+02 0. -1.
</event>
<event>
 5    1  0.1556794E-008  0.4092019E+03  0.7957747E-01  0.3333096E+00
         13   -1    0    0    0    0  0.00000000000E+00  0.00000000000E+00  0.14999999963E+04  0.15000000000E+04  0.10566000000E+00 0. -1.
        994   -1    0    0    0    0 -0.00000000000E+00 -0.00000000000E+00  0.11368683772E-12  0.17120000000E+03  0.17120000000E+03 0.  0.
         13    1    1    2    0    0  0.87728720305E+02 -0.12371474193E+03  0.34493401913E+03  0.37680386736E+03  0.10566000000E+00 0. -1.
        994    1    1    2    0    0 -0.68591932684E+02  0.62025806467E+02  0.69130840791E+02  0.20649592501E+03  0.17120000000E+03 0.  0.
        998    1    1    2    0    0 -0.19136787620E+02  0.61688935459E+02  0.10859351364E+04  0.10879002076E+04  0.10000000000E+02 0. -1.
</event>
<event>
 5    1  0.2732478E-008  0.3862012E+03  0.7957747E-01  0.3424593E+00
         13   -1    0    0    0    0  0.00000000000E+00  0.00000000000E+00  0.14999999963E+04  0.15000000000E+04  0.10566000000E+00 0. -1.
        994   -1    0    0    0    0 -0.00000000000E+00 -0.00000000000E+00  0.11368683772E-12  0.17120000000E+03  0.17120000000E+03 0.  0.
         13    1    1    2    0    0  0.11260483719E+02  0.14200871328E+01  0.61932405267E+02  0.62963871603E+02  0.10566000000E+00 0. -1.
        994    1    1    2    0    0 -0.94407856075E+01 -0.71359630629E+01  0.14938305388E+01  0.17161503993E+03  0.17120000000E+03 0.  0.
        998    1    1    2    0    0 -0.18196981113E+01  0.57158759301E+01  0.14365737605E+04  0.14366210885E+04  0.10000000000E+02 0. -1.
</event>
<event>
 5    1  0.1556794E-008  0.3852603E+03  0.7957747E-01  0.3428569E+00
         13   -1    0    0    0    0  0.00000000000E+00  0.00000000000E+00  0.14999999963E+04  0.15000000000E+04  0.10566000000E+00 0. -1.
        994   -1    0    0    0    0 -0.00000000000E+00 -0.00000000000E+00  0.11368683772E-12  0.17120000000E+03  0.17120000000E+03 0.  0.
         13    1    1    2    0    0  0.15222234275E+02 -0.87691513310E+01  0.10343011993E+03  0.10491146412E+03  0.10566000000E+00 0. -1.
        994    1    1    2    0    0 -0.86207561375E+01  0.66699081466E+01  0.18914471148E+01  0.17155705373E+03  0.17120000000E+03 0.  0.
        998    1    1    2    0    0 -0.66014781374E+01  0.20992431844E+01  0.13946784292E+04  0.13947314822E+04  0.10000000000E+02 0. -1.
</event>
<event>
 5    1  0.1556794E-008  0.3772971E+03  0.7957747E-01  0.3463013E+00
         13   -1    0    0    0    0  0.00000000000E+00  0.00000000000E+00  0.14999999963E+04  0.15000000000E+04  0.10566000000E+00 0. -1.
        994   -1    0    0    0    0 -0.00000000000E+00 -0.00000000000E+00  0.11368683772E-12  0.17120000000E+03  0.17120000000E+03 0.  0.
         13    1    1    2    0    0 -0.10498812682E+02  0.76863396956E+00  0.76937535616E+01  0.13039205260E+02  0.10566000000E+00 0. -1.
        994    1    1    2    0    0  0.54743337410E+00  0.63761987101E+01  0.56420022032E+01  0.17141244932E+03  0.17120000000E+03 0.  0.
        998    1    1    2    0    0  0.99513793078E+01 -0.71448326797E+01  0.14866642405E+04  0.14867483454E+04  0.10000000000E+02 0. -1.
</event>
<event>
 5    1  0.1556794E-008  0.3884416E+03  0.7957747E-01  0.3415206E+00
         13   -1    0    0    0    0  0.00000000000E+00  0.00000000000E+00  0.14999999963E+04  0.15000000000E+04  0.10566000000E+00 0.  1.
        994   -1    0    0    0    0 -0.00000000000E+00 -0.00000000000E+00  0.11368683772E-12  0.17120000000E+03  0.17120000000E+03 0.  0.
         13    1    1    2    0    0 -0.25889841142E+02  0.58526469567E+02  0.90643797656E+02  0.11095918498E+03  0.10566000000E+00 0.  1.
        994    1    1    2    0    0  0.28023390963E+02 -0.35542039099E+02  0.28744140558E+02  0.17939958919E+03  0.17120000000E+03 0.  0.
        998    1    1    2    0    0 -0.21335498208E+01 -0.22984430468E+02  0.13806120581E+04  0.13808412258E+04  0.10000000000E+02 0.  1.
</event>
<event>
 5    1  0.1556794E-008  0.3828263E+03  0.7957747E-01  0.3438944E+00
         13   -1    0    0    0    0  0.00000000000E+00  0.00000000000E+00  0.14999999963E+04  0.15000000000E+04  0.10566000000E+00 0. -1.
        994   -1    0    0    0    0 -0.00000000000E+00 -0.00000000000E+00  0.11368683772E-12  0.17120000000E+03  0.17120000000E+03 0.  0.
         13    1    1    2    0    0  0.10575469167E+02  0.14804367747E+00  0.19884471123E+02  0.22522562486E+02  0.10566000000E+00 0. -1.
        994    1    1    2    0    0 -0.24975134398E+01 -0.17787584552E+01  0.27443616545E+01  0.17124944694E+03  0.17120000000E+03 0.  0.
        998    1    1    2    0    0 -0.80779557277E+01  0.16307147777E+01  0.14773711635E+04  0.14774279906E+04  0.10000000000E+02 0. -1.
</event>
<event>
 5    1  0.1556794E-008  0.3821765E+03  0.7957747E-01  0.3441736E+00
         13   -1    0    0    0    0  0.00000000000E+00  0.00000000000E+00  0.14999999963E+04  0.15000000000E+04  0.10566000000E+00 0. -1.
        994   -1    0    0    0    0 -0.00000000000E+00 -0.00000000000E+00  0.11368683772E-12  0.17120000000E+03  0.17120000000E+03 0.  0.
         13    1    1    2    0    0 -0.22905439117E+00 -0.14292526837E+02  0.31862166855E+02  0.34921878959E+02  0.10566000000E+00 0. -1.
        994    1    1    2    0    0 -0.14029182351E+02  0.15863702089E+02  0.45284141253E+01  0.17256425335E+03  0.17120000000E+03 0.  0.
        998    1    1    2    0    0  0.14258236742E+02 -0.15711752518E+01  0.14636094153E+04  0.14637138677E+04  0.10000000000E+02 0. -1.
</event>
<event>
 5    1  0.1556794E-008  0.3835966E+03  0.7957747E-01  0.3435646E+00
         13   -1    0    0    0    0  0.00000000000E+00  0.00000000000E+00  0.14999999963E+04  0.15000000000E+04  0.10566000000E+00 0. -1.
        994   -1    0    0    0    0 -0.00000000000E+00 -0.00000000000E+00  0.11368683772E-12  0.17120000000E+03  0.17120000000E+03 0.  0.
         13    1    1    2    0    0  0.10406229874E+02 -0.72079314271E+01  0.33210683039E+02  0.35541588704E+02  0.10566000000E+00 0. -1.
        994    1    1    2    0    0 -0.93670313049E+01  0.83303882056E+01  0.28477893024E+01  0.17168193425E+03  0.17120000000E+03 0.  0.
        998    1    1    2    0    0 -0.10391985695E+01 -0.11224567785E+01  0.14639415239E+04  0.14639764770E+04  0.10000000000E+02 0. -1.
</event>
<event>
 5    1  0.1556794E-008  0.3835913E+03  0.7957747E-01  0.3435669E+00
         13   -1    0    0    0    0  0.00000000000E+00  0.00000000000E+00  0.14999999963E+04  0.15000000000E+04  0.10566000000E+00 0. -1.
        994   -1    0    0    0    0 -0.00000000000E+00 -0.00000000000E+00  0.11368683772E-12  0.17120000000E+03  0.17120000000E+03 0.  0.
         13    1    1    2    0    0 -0.31123987452E+02 -0.72545796180E+02  0.14183600364E+03  0.16232392994E+03  0.10566000000E+00 0. -1.
        994    1    1    2    0    0 -0.25253503026E+02  0.11001049965E+03  0.66749570109E+02  0.21565016707E+03  0.17120000000E+03 0.  0.
        998    1    1    2    0    0  0.56377490478E+02 -0.37464703473E+02  0.12914144225E+04  0.12932259030E+04  0.10000000000E+02 0. -1.
</event>
<event>
 5    1  0.1556794E-008  0.3804825E+03  0.7957747E-01  0.3449060E+00
         13   -1    0    0    0    0  0.00000000000E+00  0.00000000000E+00  0.14999999963E+04  0.15000000000E+04  0.10566000000E+00 0.  1.
        994   -1    0    0    0    0 -0.00000000000E+00 -0.00000000000E+00  0.11368683772E-12  0.17120000000E+03  0.17120000000E+03 0.  0.
         13    1    1    2    0    0 -0.42726595358E+01  0.17675251895E+02  0.39889979304E+02  0.43839385967E+02  0.10566000000E+00 0.  1.
        994    1    1    2    0    0  0.66385693750E+00 -0.20615621243E+02  0.53110489749E+01  0.17251983013E+03  0.17120000000E+03 0.  0.
        998    1    1    2    0    0  0.36088025983E+01  0.29403693483E+01  0.14547989680E+04  0.14548407839E+04  0.10000000000E+02 0.  1.
</event>
<event>
 5    1  0.1556794E-008  0.3795203E+03  0.7957747E-01  0.3453250E+00
         13   -1    0    0    0    0  0.00000000000E+00  0.00000000000E+00  0.14999999963E+04  0.15000000000E+04  0.10566000000E+00 0. -1.
        994   -1    0    0    0    0 -0.00000000000E+00 -0.00000000000E+00  0.11368683772E-12  0.17120000000E+03  0.17120000000E+03 0.  0.
         13    1    1    2    0    0 -0.16445252268E+02 -0.23062848689E+01  0.29279079376E+02  0.33660673273E+02  0.10566000000E+00 0. -1.
        994    1    1    2    0    0  0.15458447971E+02  0.10206073304E+02  0.55251690562E+01  0.17228782615E+03  0.17120000000E+03 0.  0.
        998    1    1    2    0    0  0.98680429686E+00 -0.78997884351E+01  0.14651957478E+04  0.14652515006E+04  0.10000000000E+02 0. -1.
</event>
<event>
 5    1  0.1556794E-008  0.3769571E+03  0.7957747E-01  0.3464516E+00
         13   -1    0    0    0    0  0.00000000000E+00  0.00000000000E+00  0.14999999963E+04  0.15000000000E+04  0.10566000000E+00 0. -1.
        994   -1    0    0    0    0 -0.00000000000E+00 -0.00000000000E+00  0.11368683772E-12  0.17120000000E+03  0.17120000000E+03 0.  0.
         13    1    1    2    0    0  0.10548824951E+02 -0.39670531554E+01  0.85907139991E+01  0.14171335492E+02  0.10566000000E+00 0. -1.
        994    1    1    2    0    0 -0.10352436835E+02 -0.19080636353E+00  0.60392291771E+01  0.17161911795E+03  0.17120000000E+03 0.  0.
        998    1    1    2    0    0 -0.19638811531E+00  0.41578595190E+01  0.14853700531E+04  0.14854095466E+04  0.10000000000E+02 0. -1.
</event>
<event>
 5    1  0.1556794E-008  0.3859556E+03  0.7957747E-01  0.3425630E+00
         13   -1    0    0    0    0  0.00000000000E+00  0.00000000000E+00  0.14999999963E+04  0.15000000000E+04  0.10566000000E+00 0.  1.
        994   -1    0    0    0    0 -0.00000000000E+00 -0.00000000000E+00  0.11368683772E-12  0.17120000000E+03  0.17120000000E+03 0.  0.
         13    1    1    2    0    0  0.20954062840E+01  0.12166262406E+02  0.60997145171E+02  0.62234006391E+02  0.10566000000E+00 0.  1.
        994    1    1    2    0    0  0.25735048742E+02 -0.26676509793E+02  0.56738826342E+01  0.17525855715E+03  0.17120000000E+03 0.  0.
        998    1    1    2    0    0 -0.27830455026E+02  0.14510247388E+02  0.14333289685E+04  0.14337074365E+04  0.10000000000E+02 0.  1.
</event>
<event>
 5    1  0.1556794E-008  0.3823538E+03  0.7957747E-01  0.3440973E+00
         13   -1    0    0    0    0  0.00000000000E+00  0.00000000000E+00  0.14999999963E+04  0.15000000000E+04  0.10566000000E+00 0.  1.
        994   -1    0    0    0    0 -0.00000000000E+00 -0.00000000000E+00  0.11368683772E-12  0.17120000000E+03  0.17120000000E+03 0.  0.
         13    1    1    2    0    0 -0.31584569187E+01 -0.95007292883E+01  0.15513009566E+02  0.18463594908E+02  0.10566000000E+00 0.  1.
        994    1    1    2    0    0 -0.18628553805E+00  0.14628668768E+02  0.36599350430E+01  0.17186293311E+03  0.17120000000E+03 0.  0.
        998    1    1    2    0    0  0.33447424567E+01 -0.51279394793E+01  0.14808270517E+04  0.14808734720E+04  0.10000000000E+02 0.  1.
</event>
<event>
 5    1  0.1556794E-008  0.3848656E+03  0.7957747E-01  0.3430242E+00
         13   -1    0    0    0    0  0.00000000000E+00  0.00000000000E+00  0.14999999963E+04  0.15000000000E+04  0.10566000000E+00 0.  1.
        994   -1    0    0    0    0 -0.00000000000E+00 -0.00000000000E+00  0.11368683772E-12  0.17120000000E+03  0.17120000000E+03 0.  0.
         13    1    1    2    0    0  0.84710828831E+01 -0.10831271165E+02  0.55972432021E+02  0.57636793723E+02  0.10566000000E+00 0.  1.
        994    1    1    2    0    0 -0.46614847314E+01  0.65733776466E+01  0.19105471902E+01  0.17140020106E+03  0.17120000000E+03 0.  0.
        998    1    1    2    0    0 -0.38095981516E+01  0.42578935183E+01  0.14421170171E+04  0.14421630052E+04  0.10000000000E+02 0.  1.
</event>
<event>
 5    1  0.1556794E-008  0.3839791E+03  0.7957747E-01  0.3434014E+00
         13   -1    0    0    0    0  0.00000000000E+00  0.00000000000E+00  0.14999999963E+04  0.15000000000E+04  0.10566000000E+00 0.  1.
        994   -1    0    0    0    0 -0.00000000000E+00 -0.00000000000E+00  0.11368683772E-12  0.17120000000E+03  0.17120000000E+03 0.  0.
         13    1    1    2    0    0  0.15134668914E+02 -0.14814961880E+02  0.11018520845E+03  0.11220219527E+03  0.10566000000E+00 0.  1.
        994    1    1    2    0    0 -0.54965202027E+00  0.80169642059E+01  0.23509377650E+01  0.17140461120E+03  0.17120000000E+03 0.  0.
        998    1    1    2    0    0 -0.14585016894E+02  0.67979976741E+01  0.13874638501E+04  0.13875931935E+04  0.10000000000E+02 0.  1.
</event>
<event>
 5    1  0.1556794E-008  0.3741698E+03  0.7957747E-01  0.3476944E+00
         13   -1    0    0    0    0  0.00000000000E+00  0.00000000000E+00  0.14999999963E+04  0.15000000000E+04  0.10566000000E+00 0. -1.
        994   -1    0    0    0    0 -0.00000000000E+00 -0.00000000000E+00  0.11368683772E-12  0.17120000000E+03  0.17120000000E+03 0.  0.
         13    1    1    2    0    0  0.43990321719E+02 -0.17668792950E+01  0.12207110408E+03  0.12976762263E+03  0.10566000000E+00 0. -1.
        994    1    1    2    0    0 -0.47030124163E+02  0.25423069092E+01  0.14705202021E+02  0.17816840031E+03  0.17120000000E+03 0.  0.
        998    1    1    2    0    0  0.30398024438E+01 -0.77542761418E+00  0.13632236902E+04  0.13632639771E+04  0.10000000000E+02 0. -1.
</event>
<event>
 5    1  0.1556794E-008  0.3816826E+03  0.7957747E-01  0.3443865E+00
         13   -1    0    0    0    0  0.00000000000E+00  0.00000000000E+00  0.14999999963E+04  0.15000000000E+04  0.10566000000E+00 0. -1.
        994   -1    0    0    0    0 -0.00000000000E+00 -0.00000000000E+00  0.11368683772E-12  0.17120000000E+03  0.17120000000E+03 0.  0.
         13    1    1    2    0    0  0.18500008457E+02 -0.20842139603E+01  0.53362263887E+02  0.56516693392E+02  0.10566000000E+00 0. -1.
        994    1    1    2    0    0 -0.40655901812E+01  0.17063366233E+01  0.33508407861E+01  0.17128954651E+03  0.17120000000E+03 0.  0.
        998    1    1    2    0    0 -0.14434418276E+02  0.37787733695E+00  0.14432868916E+04  0.14433937601E+04  0.10000000000E+02 0. -1.
</event>
<event>
 5    1  0.1556794E-008  0.3837298E+03  0.7957747E-01  0.3435077E+00
         13   -1    0    0    0    0  0.00000000000E+00  0.00000000000E+00  0.14999999963E+04  0.15000000000E+04  0.10566000000E+00 0. -1.
        994   -1    0    0    0    0 -0.00000000000E+00 -0.00000000000E+00  0.11368683772E-12  0.17120000000E+03  0.17120000000E+03 0.  0.
         13    1    1    2    0    0  0.88476233784E+02 -0.46030106625E+02  0.21445164999E+03  0.23650863834E+03  0.10566000000E+00 0. -1.
        994    1    1    2    0    0 -0.99045063610E+02  0.48721573708E+02  0.64662263954E+02  0.21371561653E+03  0.17120000000E+03 0.  0.
        998    1    1    2    0    0  0.10568829827E+02 -0.26914670830E+01  0.12208860823E+04  0.12209757451E+04  0.10000000000E+02 0. -1.
</event>
<event>
 5    1  0.1556794E-008  0.3915893E+03  0.7957747E-01  0.3402198E+00
         13   -1    0    0    0    0  0.00000000000E+00  0.00000000000E+00  0.14999999963E+04  0.15000000000E+04  0.10566000000E+00 0. -1.
        994   -1    0    0    0    0 -0.00000000000E+00 -0.00000000000E+00  0.11368683772E-12  0.17120000000E+03  0.17120000000E+03 0.  0.
         13    1    1    2    0    0  0.53119669054E+02  0.43046734274E+02  0.11205571724E+03  0.13126772453E+03  0.10566000000E+00 0. -1.
        994    1    1    2    0    0  0.32913825155E+02 -0.27967397138E+02  0.29939431776E+02  0.17908463017E+03  0.17120000000E+03 0.  0.
        998    1    1    2    0    0 -0.86033494209E+02 -0.15079337137E+02  0.13580048473E+04  0.13608476453E+04  0.10000000000E+02 0. -1.
</event>
<event>
 5    1  0.1556794E-008  0.3774743E+03  0.7957747E-01  0.3462230E+00
         13   -1    0    0    0    0  0.00000000000E+00  0.00000000000E+00  0.14999999963E+04  0.15000000000E+04  0.10566000000E+00 0.  1.
        994   -1    0    0    0    0 -0.00000000000E+00 -0.00000000000E+00  0.11368683772E-12  0.17120000000E+03  0.17120000000E+03 0.  0.
         13    1    1    2    0    0  0.34285900285E+02  0.58247601755E+02  0.39015663720E+03  0.39596782544E+03  0.10566000000E+00 0.  1.
        994    1    1    2    0    0 -0.54631037801E+02 -0.24326050465E+02  0.17565960005E+02  0.18219305687E+03  0.17120000000E+03 0.  0.
        998    1    1    2    0    0  0.20345137515E+02 -0.33921551291E+02  0.10922773991E+04  0.10930391177E+04  0.10000000000E+02 0.  1.
</event>
<event>
 5    1  0.1556794E-008  0.3785797E+03  0.7957747E-01  0.3457366E+00
         13   -1    0    0    0    0  0.00000000000E+00  0.00000000000E+00  0.14999999963E+04  0.15000000000E+04  0.10566000000E+00 0.  1.
        994   -1    0    0    0    0 -0.00000000000E+00 -0.00000000000E+00  0.11368683772E-12  0.17120000000E+03  0.17120000000E+03 0.  0.
         13    1    1    2    0    0 -0.22285422277E+02 -0.31555611837E+02  0.15790152130E+03  0.16255859951E+03  0.10566000000E+00 0.  1.
        994    1    1    2    0    0 -0.10144272014E+02  0.28203378899E+02  0.78749682328E+01  0.17398215989E+03  0.17120000000E+03 0.  0.
        998    1    1    2    0    0  0.32429694292E+02  0.33522329381E+01  0.13342235068E+04  0.13346592406E+04  0.10000000000E+02 0.  1.
</event>
<event>
 5    1  0.1556794E-008  0.3782520E+03  0.7957747E-01  0.3458805E+00
         13   -1    0    0    0    0  0.00000000000E+00  0.00000000000E+00  0.14999999963E+04  0.15000000000E+04  0.10566000000E+00 0.  1.
        994   -1    0    0    0    0 -0.00000000000E+00 -0.00000000000E+00  0.11368683772E-12  0.17120000000E+03  0.17120000000E+03 0.  0.
         13    1    1    2    0    0 -0.26097148191E+02 -0.31842097970E+02  0.19222180613E+03  0.19658131717E+03  0.10566000000E+00 0.  1.
        994    1    1    2    0    0  0.44118812648E+01  0.65971742153E+00  0.50850362271E+01  0.17133358549E+03  0.17120000000E+03 0.  0.
        998    1    1    2    0    0  0.21685266926E+02  0.31182380549E+02  0.13026931539E+04  0.13032850973E+04  0.10000000000E+02 0.  1.
</event>
<event>
 5    1  0.1556794E-008  0.3857013E+03  0.7957747E-01  0.3426703E+00
         13   -1    0    0    0    0  0.00000000000E+00  0.00000000000E+00  0.14999999963E+04  0.15000000000E+04  0.10566000000E+00 0.  1.
        994   -1    0    0    0    0 -0.00000000000E+00 -0.00000000000E+00  0.11368683772E-12  0.17120000000E+03  0.17120000000E+03 0.  0.
         13    1    1    2    0    0 -0.63635160820E+01  0.11229150884E+02  0.62042520672E+02  0.63370921579E+02  0.10566000000E+00 0.  1.
        994    1    1    2    0    0  0.70995839668E+01 -0.14756493144E+02  0.21627291606E+01  0.17199498708E+03  0.17120000000E+03 0.  0.
        998    1    1    2    0    0 -0.73606788485E+00  0.35273422595E+01  0.14357947464E+04  0.14358340913E+04  0.10000000000E+02 0.  1.
</event>
<event>
 5    1  0.1556794E-008  0.3849995E+03  0.7957747E-01  0.3429674E+00
         13   -1    0    0    0    0  0.00000000000E+00  0.00000000000E+00  0.14999999963E+04  0.15000000000E+04  0.10566000000E+00 0.  1.
        994   -1    0    0    0    0 -0.00000000000E+00 -0.00000000000E+00  0.11368683772E-12  0.17120000000E+03  0.17120000000E+03 0.  0.
         13    1    1    2    0    0  0.13167531695E+02  0.65780586165E+01  0.67039982420E+02  0.68636908096E+02  0.10566000000E+00 0.  1.
        994    1    1    2    0    0 -0.51870619131E+01 -0.83553250489E+01  0.19485229315E+01  0.17149330544E+03  0.17120000000E+03 0.  0.
        998    1    1    2    0    0 -0.79804697815E+01  0.17772664325E+01  0.14310114909E+04  0.14310697865E+04  0.10000000000E+02 0.  1.
</event>
<event>
 5    1  0.1556794E-008  0.3718015E+03  0.7957747E-01  0.3487652E+00
         13   -1    0    0    0    0  0.00000000000E+00  0.00000000000E+00  0.14999999963E+04  0.15000000000E+04  0.10566000000E+00 0. -1.
        994   -1    0    0    0    0 -0.00000000000E+00 -0.00000000000E+00  0.11368683772E-12  0.17120000000E+03  0.17120000000E+03 0.  0.
         13    1    1    2    0    0  0.11382007670E+02  0.16825709952E+02  0.20983520472E+02  0.29205717067E+02  0.10566000000E+00 0. -1.
        994    1    1    2    0    0 -0.15996003532E+02 -0.12218962737E+02  0.97240165970E+01  0.17265332803E+03  0.17120000000E+03 0.  0.
        998    1    1    2    0    0  0.46139958627E+01 -0.46067472156E+01  0.14692924592E+04  0.14693409549E+04  0.10000000000E+02 0. -1.
</event>
<event>
 5    1  0.1556794E-008  0.3819952E+03  0.7957747E-01  0.3442517E+00
         13   -1    0    0    0    0  0.00000000000E+00  0.00000000000E+00  0.14999999963E+04  0.15000000000E+04  0.10566000000E+00 0. -1.
        994   -1    0    0    0    0 -0.00000000000E+00 -0.00000000000E+00  0.11368683772E-12  0.17120000000E+03  0.17120000000E+03 0.  0.
         13    1    1    2    0    0 -0.28893995056E+02  0.23657827823E+02  0.19793603834E+03  0.20142800750E+03  0.10566000000E+00 0. -1.
        994    1    1    2    0    0  0.25884453261E+02 -0.24516188602E+02  0.73620442100E+01  0.17502767815E+03  0.17120000000E+03 0.  0.
        998    1    1    2    0    0  0.30095417944E+01  0.85836077887E+00  0.12947019137E+04  0.12947443143E+04  0.10000000000E+02 0. -1.
</event>
<event>
 5    1  0.1556794E-008  0.3829126E+03  0.7957747E-01  0.3438573E+00
         13   -1    0    0    0    0  0.00000000000E+00  0.00000000000E+00  0.14999999963E+04  0.15000000000E+04  0.10566000000E+00 0. -1.
        994   -1    0    0    0    0 -0.00000000000E+00 -0.00000000000E+00  0.11368683772E-12  0.17120000000E+03  0.17120000000E+03 0.  0.
         13    1    1    2    0    0  0.36160278535E+02  0.14636525403E+02  0.22213312974E+03  0.22553255222E+03  0.10566000000E+00 0. -1.
        994    1    1    2    0    0 -0.44946130605E+02 -0.20668677931E+02  0.10815975350E+02  0.17853227783E+03  0.17120000000E+03 0.  0.
        998    1    1    2    0    0  0.87858520696E+01  0.60321525284E+01  0.12670508912E+04  0.12671351700E+04  0.10000000000E+02 0. -1.
</event>
<event>
 5    1  0.1556794E-008  0.3850905E+03  0.7957747E-01  0.3429289E+00
         13   -1    0    0    0    0  0.00000000000E+00  0.00000000000E+00  0.14999999963E+04  0.15000000000E+04  0.10566000000E+00 0. -1.
        994   -1    0    0    0    0 -0.00000000000E+00 -0.00000000000E+00  0.11368683772E-12  0.17120000000E+03  0.17120000000E+03 0.  0.
         13    1    1    2    0    0 -0.95485506122E+01  0.11003645950E+02  0.62319084478E+02  0.63999488257E+02  0.10566000000E+00 0. -1.
        994    1    1    2    0    0  0.21530575455E+02 -0.96977622650E+01  0.34206191835E+01  0.17285471619E+03  0.17120000000E+03 0.  0.
        998    1    1    2    0    0 -0.11982024842E+02 -0.13058836845E+01  0.14342602926E+04  0.14343457956E+04  0.10000000000E+02 0. -1.
</event>
<event>
 5    1  0.1556794E-008  0.3852588E+03  0.7957747E-01  0.3428575E+00
         13   -1    0    0    0    0  0.00000000000E+00  0.00000000000E+00  0.14999999963E+04  0.15000000000E+04  0.10566000000E+00 0.  1.
        994   -1    0    0    0    0 -0.00000000000E+00 -0.00000000000E+00  0.11368683772E-12  0.17120000000E+03  0.17120000000E+03 0.  0.
         13    1    1    2    0    0 -0.56456021973E+02  0.10253370032E+03  0.23637823072E+03  0.26377096361E+03  0.10566000000E+00 0.  1.
        994    1    1    2    0    0  0.10197539311E+03 -0.12231701795E+03  0.12022947836E+03  0.26291633868E+03  0.17120000000E+03 0.  0.
        998    1    1    2    0    0 -0.45519371140E+02  0.19783317630E+02  0.11433922872E+04  0.11445126977E+04  0.10000000000E+02 0.  1.
</event>
<event>
 5    1  0.1556794E-008  0.3848302E+03  0.7957747E-01  0.3430393E+00
         13   -1    0    0    0    0  0.00000000000E+00  0.00000000000E+00  0.14999999963E+04  0.15000000000E+04  0.10566000000E+00 0. -1.
        994   -1    0    0    0    0 -0.00000000000E+00 -0.00000000000E+00  0.11368683772E-12  0.17120000000E+03  0.17120000000E+03 0.  0.
         13    1    1    2    0    0  0.39060826875E+01  0.10806015193E+02  0.39604372542E+02  0.41237664032E+02  0.10566000000E+00 0. -1.
        994    1    1    2    0    0  0.31594149583E+01 -0.20888674649E+01  0.17616772106E+01  0.17125095263E+03  0.17120000000E+03 0.  0.
        998    1    1    2    0    0 -0.70654976458E+01 -0.87171477283E+01  0.14586339465E+04  0.14587113833E+04  0.10000000000E+02 0. -1.
</event>
<event>
 5    1  0.1556794E-008  0.3686418E+03  0.7957747E-01  0.3502156E+00
         13   -1    0    0    0    0  0.00000000000E+00  0.00000000000E+00  0.14999999963E+04  0.15000000000E+04  0.10566000000E+00 0. -1.
        994   -1    0    0    0    0 -0.00000000000E+00 -0.00000000000E+00  0.11368683772E-12  0.17120000000E+03  0.17120000000E+03 0.  0.
         13    1    1    2    0    0 -0.46370494885E+02  0.66666843692E+01  0.12995929635E+03  0.13814520386E+03  0.10566000000E+00 0. -1.
        994    1    1    2    0    0 -0.15092749992E+02  0.26975108944E+02  0.13307073053E+02  0.17447626142E+03  0.17120000000E+03 0.  0.
        998    1    1    2    0    0  0.61463244877E+02 -0.33641793314E+02  0.13567336269E+04  0.13585785347E+04  0.10000000000E+02 0. -1.
</event>
<event>
 5    1  0.1556794E-008  0.3714517E+03  0.7957747E-01  0.3489246E+00
         13   -1    0    0    0    0  0.00000000000E+00  0.00000000000E+00  0.14999999963E+04  0.15000000000E+04  0.10566000000E+00 0.  1.
        994   -1    0    0    0    0 -0.00000000000E+00 -0.00000000000E+00  0.11368683772E-12  0.17120000000E+03  0.17120000000E+03 0.  0.
         13    1    1    2    0    0  0.31153487811E+02  0.10172217730E+02  0.40613632030E+02  0.52187087360E+02  0.10566000000E+00 0.  1.
        994    1    1    2    0    0 -0.27793344600E+02 -0.84562721566E+01  0.14679777704E+02  0.17426679092E+03  0.17120000000E+03 0.  0.
        998    1    1    2    0    0 -0.33601432118E+01 -0.17159455733E+01  0.14447065865E+04  0.14447461217E+04  0.10000000000E+02 0.  1.
</event>
<event>
 5    1  0.1556794E-008  0.3831794E+03  0.7957747E-01  0.3437430E+00
         13   -1    0    0    0    0  0.00000000000E+00  0.00000000000E+00  0.14999999963E+04  0.15000000000E+04  0.10566000000E+00 0.  1.
        994   -1    0    0    0    0 -0.00000000000E+00 -0.00000000000E+00  0.11368683772E-12  0.17120000000E+03  0.17120000000E+03 0.  0.
         13    1    1    2    0    0  0.99116194013E+01 -0.37676442382E+01  0.21104209255E+02  0.23618512963E+02  0.10566000000E+00 0.  1.
        994    1    1    2    0    0 -0.96712191349E+01  0.13116156840E+01  0.28519167885E+01  0.17150168001E+03  0.17120000000E+03 0.  0.
        998    1    1    2    0    0 -0.24040026646E+00  0.24560285542E+01  0.14760438702E+04  0.14760798070E+04  0.10000000000E+02 0.  1.
</event>
<event>
 5    1  0.1556794E-008  0.3784024E+03  0.7957747E-01  0.3458144E+00
         13   -1    0    0    0    0  0.00000000000E+00  0.00000000000E+00  0.14999999963E+04  0.15000000000E+04  0.10566000000E+00 0.  1.
        994   -1    0    0    0    0 -0.00000000000E+00 -0.00000000000E+00  0.11368683772E-12  0.17120000000E+03  0.17120000000E+03 0.  0.
         13    1    1    2    0    0  0.11637596400E+02 -0.53200457144E+01  0.14182841894E+02  0.19102374319E+02  0.10566000000E+00 0.  1.
        994    1    1    2    0    0 -0.12032834452E+02  0.11601620543E+02  0.58812393464E+01  0.17211454233E+03  0.17120000000E+03 0.  0.
        998    1    1    2    0    0  0.39523805162E+00 -0.62815748287E+01  0.14799359150E+04  0.14799830834E+04  0.10000000000E+02 0.  1.
</event>
<event>
 5    1  0.1556794E-008  0.3803743E+03  0.7957747E-01  0.3449530E+00
         13   -1    0    0    0    0  0.00000000000E+00  0.00000000000E+00  0.14999999963E+04  0.15000000000E+04  0.10566000000E+00 0.  1.
        994   -1    0    0    0    0 -0.00000000000E+00 -0.00000000000E+00  0.11368683772E-12  0.17120000000E+03  0.17120000000E+03 0.  0.
         13    1    1    2    0    0 -0.11515298793E+01  0.14451825731E+02  0.24680653341E+02  0.28623890396E+02  0.10566000000E+00 0.  1.
        994    1    1    2    0    0 -0.20069329736E+01 -0.15351564555E+02  0.47450051910E+01  0.17196410494E+03  0.17120000000E+03 0.  0.
        998    1    1    2    0    0  0.31584628529E+01  0.89973882389E+00  0.14705743377E+04  0.14706120047E+04  0.10000000000E+02 0.  1.
</event>
<event>
 5    1  0.1556794E-008  0.3829709E+03  0.7957747E-01  0.3438324E+00
         13   -1    0    0    0    0  0.00000000000E+00  0.00000000000E+00  0.14999999963E+04  0.15000000000E+04  0.10566000000E+00 0. -1.
        994   -1    0    0    0    0 -0.00000000000E+00 -0.00000000000E+00  0.11368683772E-12  0.17120000000E+03  0.17120000000E+03 0.  0.
         13    1    1    2    0    0 -0.18093370037E+02  0.22403267036E+02  0.15136482187E+03  0.15407983929E+03  0.10566000000E+00 0. -1.
        994    1    1    2    0    0  0.85472144171E+01 -0.20462095249E+02  0.42705308098E+01  0.17268303232E+03  0.17120000000E+03 0.  0.
        998    1    1    2    0    0  0.95461556201E+01 -0.19411717870E+01  0.13443646436E+04  0.13444371284E+04  0.10000000000E+02 0. -1.
</event>
<event>
 5    1  0.1556794E-008  0.3763878E+03  0.7957747E-01  0.3467039E+00
         13   -1    0    0    0    0  0.00000000000E+00  0.00000000000E+00  0.14999999963E+04  0.15000000000E+04  0.10566000000E+00 0.  1.
        994   -1    0    0    0    0 -0.00000000000E+00 -0.00000000000E+00  0.11368683772E-12  0.17120000000E+03  0.17120000000E+03 0.  0.
         13    1    1    2    0    0 -0.57194652901E+01  0.44213059823E+02  0.18641741914E+03  0.19167413040E+03  0.10566000000E+00 0.  1.
        994    1    1    2    0    0  0.21842849254E+02 -0.33596538065E+01  0.76219771931E+01  0.17278869139E+03  0.17120000000E+03 0.  0.
        998    1    1    2    0    0 -0.16123383964E+02 -0.40853406016E+02  0.13059605999E+04  0.13067371782E+04  0.10000000000E+02 0.  1.
</event>
<event>
 5    1  0.1556794E-008  0.3117505E+03  0.7957747E-01  0.3815545E+00
         13   -1    0    0    0    0  0.00000000000E+00  0.00000000000E+00  0.14999999963E+04  0.15000000000E+04  0.10566000000E+00 0. -1.
        994   -1    0    0    0    0 -0.00000000000E+00 -0.00000000000E+00  0.11368683772E-12  0.17120000000E+03  0.17120000000E+03 0.  0.
         13    1    1    2    0    0 -0.13217284087E+03 -0.15481493614E+03  0.69907368955E+03  0.72810806815E+03  0.10566000000E+00 0. -1.
        994    1    1    2    0    0  0.13134808721E+03  0.15043788614E+03  0.17248276330E+03  0.31455304996E+03  0.17120000000E+03 0.  0.
        998    1    1    2    0    0  0.82475365945E+00  0.43770499980E+01  0.62844354342E+03  0.62853888190E+03  0.10000000000E+02 0.  0.
</event>
<event>
 5    1  0.1556794E-008  0.3854738E+03  0.7957747E-01  0.3427665E+00
         13   -1    0    0    0    0  0.00000000000E+00  0.00000000000E+00  0.14999999963E+04  0.15000000000E+04  0.10566000000E+00 0. -1.
        994   -1    0    0    0    0 -0.00000000000E+00 -0.00000000000E+00  0.11368683772E-12  0.17120000000E+03  0.17120000000E+03 0.  0.
         13    1    1    2    0    0  0.15856836338E+02  0.27754206463E+01  0.88442502261E+02  0.89895659454E+02  0.10566000000E+00 0. -1.
        994    1    1    2    0    0 -0.16531717751E+02 -0.54277912070E+01  0.23898398673E+01  0.17209854719E+03  0.17120000000E+03 0.  0.
        998    1    1    2    0    0  0.67488141282E+00  0.26523705606E+01  0.14091676542E+04  0.14092057934E+04  0.10000000000E+02 0. -1.
</event>
<event>
 5    1  0.1556794E-008  0.3820240E+03  0.7957747E-01  0.3442392E+00
         13   -1    0    0    0    0  0.00000000000E+00  0.00000000000E+00  0.14999999963E+04  0.15000000000E+04  0.10566000000E+00 0. -1.
        994   -1    0    0    0    0 -0.00000000000E+00 -0.00000000000E+00  0.11368683772E-12  0.17120000000E+03  0.17120000000E+03 0.  0.
         13    1    1    2    0    0  0.77326431480E+00  0.18747052978E+02  0.53984451950E+02  0.57152271603E+02  0.10566000000E+00 0. -1.
        994    1    1    2    0    0  0.77481331856E+01 -0.18826931423E+02  0.44924954194E+01  0.17246480635E+03  0.17120000000E+03 0.  0.
        998    1    1    2    0    0 -0.85213975004E+01  0.79878445404E-01  0.14415230489E+04  0.14415829220E+04  0.10000000000E+02 0. -1.
</event>
<event>
 5    1  0.1556794E-008  0.3860200E+03  0.7957747E-01  0.3425358E+00
         13   -1    0    0    0    0  0.00000000000E+00  0.00000000000E+00  0.14999999963E+04  0.15000000000E+04  0.10566000000E+00 0.  1.
        994   -1    0    0    0    0 -0.00000000000E+00 -0.00000000000E+00  0.11368683772E-12  0.17120000000E+03  0.17120000000E+03 0.  0.
         13    1    1    2    0    0  0.34695728256E+01  0.10228371701E+02  0.52734505026E+02  0.53829329436E+02  0.10566000000E+00 0.  1.
        994    1    1    2    0    0  0.28813025570E+01 -0.79837780228E+01  0.13607669539E+01  0.17141567695E+03  0.17120000000E+03 0.  0.
        998    1    1    2    0    0 -0.63508753826E+01 -0.22445936779E+01  0.14459047243E+04  0.14459549936E+04  0.10000000000E+02 0.  1.
</event>
<event>
 5    1  0.1556794E-008  0.3842696E+03  0.7957747E-01  0.3432776E+00
         13   -1    0    0    0    0  0.00000000000E+00  0.00000000000E+00  0.14999999963E+04  0.15000000000E+04  0.10566000000E+00 0.  1.
        994   -1    0    0    0    0 -0.00000000000E+00 -0.00000000000E+00  0.11368683772E-12  0.17120000000E+03  0.17120000000E+03 0.  0.
         13    1    1    2    0    0  0.10814165475E+02  0.63482478996E+01  0.38048727566E+02  0.40061992708E+02  0.10566000000E+00 0.  1.
        994    1    1    2    0    0 -0.93430104494E+01 -0.11872397242E+02  0.27459719875E+01  0.17188724799E+03  0.17120000000E+03 0.  0.
        998    1    1    2    0    0 -0.14711550256E+01  0.55241493420E+01  0.14592052967E+04  0.14592507593E+04  0.10000000000E+02 0.  1.
</event>
<event>
 5    1  0.1694225E-008  0.3863783E+03  0.7957747E-01  0.3423847E+00
         13   -1    0    0    0    0  0.00000000000E+00  0.00000000000E+00  0.14999999963E+04  0.15000000000E+04  0.10566000000E+00 0.  1.
        994   -1    0    0    0    0 -0.00000000000E+00 -0.00000000000E+00  0.11368683772E-12  0.17120000000E+03  0.17120000000E+03 0.  0.
         13    1    1    2    0    0 -0.44943686478E+01 -0.95467383215E+01  0.56998155285E+02  0.57966718313E+02  0.10566000000E+00 0.  1.
        994    1    1    2    0    0  0.13811896204E+01  0.14373336856E+02  0.16302849515E+01  0.17181559396E+03  0.17120000000E+03 0.  0.
        998    1    1    2    0    0  0.31131790274E+01 -0.48265985342E+01  0.14413715560E+04  0.14414176877E+04  0.10000000000E+02 0.  1.
</event>
<event>
 5    1  0.1556794E-008  0.3853301E+03  0.7957747E-01  0.3428273E+00
         13   -1    0    0    0    0  0.00000000000E+00  0.00000000000E+00  0.14999999963E+04  0.15000000000E+04  0.10566000000E+00 0. -1.
        994   -1    0    0    0    0 -0.00000000000E+00 -0.00000000000E+00  0.11368683772E-12  0.17120000000E+03  0.17120000000E+03 0.  0.
         13    1    1    2    0    0  0.78697480142E+01  0.10670293291E+02  0.64485211983E+02  0.65834199481E+02  0.10566000000E+00 0. -1.
        994    1    1    2    0    0 -0.17111082478E+01  0.32455366716E+01  0.15105649714E+01  0.17124597282E+03  0.17120000000E+03 0.  0.
        998    1    1    2    0    0 -0.61586397664E+01 -0.13915829963E+02  0.14340042193E+04  0.14341198277E+04  0.10000000000E+02 0. -1.
</event>
<event>
 5    1  0.1556794E-008  0.3716276E+03  0.7957747E-01  0.3488444E+00
         13   -1    0    0    0    0  0.00000000000E+00  0.00000000000E+00  0.14999999963E+04  0.15000000000E+04  0.10566000000E+00 0. -1.
        994   -1    0    0    0    0 -0.00000000000E+00 -0.00000000000E+00  0.11368683772E-12  0.17120000000E+03  0.17120000000E+03 0.  0.
         13    1    1    2    0    0  0.35192810562E+02  0.66418398241E+02  0.29626461785E+03  0.30565122688E+03  0.10566000000E+00 0. -1.
        994    1    1    2    0    0 -0.23344800136E+02 -0.56258408451E+02  0.21286974460E+02  0.18295508601E+03  0.17120000000E+03 0.  0.
        998    1    1    2    0    0 -0.11848010426E+02 -0.10159989790E+02  0.11824484040E+04  0.11825936871E+04  0.10000000000E+02 0. -1.
</event>
<event>
 5    1  0.1556794E-008  0.3866355E+03  0.7957747E-01  0.3422766E+00
         13   -1    0    0    0    0  0.00000000000E+00  0.00000000000E+00  0.14999999963E+04  0.15000000000E+04  0.10566000000E+00 0.  1.
        994   -1    0    0    0    0 -0.00000000000E+00 -0.00000000000E+00  0.11368683772E-12  0.17120000000E+03  0.17120000000E+03 0.  0.
         13    1    1    2    0    0  0.50639005681E+02 -0.11512195440E+03  0.36497988917E+03  0.38604106510E+03  0.10566000000E+00 0.  1.
        994    1    1    2    0    0 -0.55849803048E+02  0.70880553785E+02  0.50941405393E+02  0.20011926491E+03  0.17120000000E+03 0.  0.
        998    1    1    2    0    0  0.52107973673E+01  0.44241400610E+02  0.10840787017E+04  0.10850396700E+04  0.10000000000E+02 0. -1.
</event>
<event>
 5    1  0.1556794E-008  0.3857212E+03  0.7957747E-01  0.3426619E+00
         13   -1    0    0    0    0  0.00000000000E+00  0.00000000000E+00  0.14999999963E+04  0.15000000000E+04  0.10566000000E+00 0.  1.
        994   -1    0    0    0    0 -0.00000000000E+00 -0.00000000000E+00  0.11368683772E-12  0.17120000000E+03  0.17120000000E+03 0.  0.
         13    1    1    2    0    0 -0.13486040211E+02 -0.47338266720E+01  0.84732042573E+02  0.85929113799E+02  0.10566000000E+00 0.  1.
        994    1    1    2    0    0  0.23614679574E+01  0.44227351019E+01  0.13549845211E+01  0.17127875846E+03  0.17120000000E+03 0.  0.
        998    1    1    2    0    0  0.11124572254E+02  0.31109157015E+00  0.14139129692E+04  0.14139921277E+04  0.10000000000E+02 0.  1.
</event>
<event>
 5    1  0.1556794E-008  0.3821078E+03  0.7957747E-01  0.3442032E+00
         13   -1    0    0    0    0  0.00000000000E+00  0.00000000000E+00  0.14999999963E+04  0.15000000000E+04  0.10566000000E+00 0.  1.
        994   -1    0    0    0    0 -0.00000000000E+00 -0.00000000000E+00  0.11368683772E-12  0.17120000000E+03  0.17120000000E+03 0.  0.
         13    1    1    2    0    0 -0.96678113468E+01  0.24770024225E+02  0.10875308591E+03  0.11195653414E+03  0.10566000000E+00 0.  1.
        994    1    1    2    0    0  0.94059303164E+01 -0.22119287380E+02  0.49932404236E+01  0.17295116897E+03  0.17120000000E+03 0.  0.
        998    1    1    2    0    0  0.26188103032E+00 -0.26507368460E+01  0.13862536699E+04  0.13862922969E+04  0.10000000000E+02 0.  1.
</event>
<event>
 5    1  0.1556794E-008  0.3819118E+03  0.7957747E-01  0.3442876E+00
         13   -1    0    0    0    0  0.00000000000E+00  0.00000000000E+00  0.14999999963E+04  0.15000000000E+04  0.10566000000E+00 0.  1.
        994   -1    0    0    0    0 -0.00000000000E+00 -0.00000000000E+00  0.11368683772E-12  0.17120000000E+03  0.17120000000E+03 0.  0.
         13    1    1    2    0    0  0.10149072438E+02 -0.12767521939E+02  0.41180470299E+02  0.44292838991E+02  0.10566000000E+00 0.  1.
        994    1    1    2    0    0  0.38645535062E+01  0.14127788464E+02  0.38841497456E+01  0.17186929860E+03  0.17120000000E+03 0.  0.
        998    1    1    2    0    0 -0.14013625944E+02 -0.13602665248E+01  0.14549353762E+04  0.14550378624E+04  0.10000000000E+02 0.  1.
</event>
<event>
 5    1  0.1556794E-008  0.3684296E+03  0.7957747E-01  0.3503140E+00
         13   -1    0    0    0    0  0.00000000000E+00  0.00000000000E+00  0.14999999963E+04  0.15000000000E+04  0.10566000000E+00 0. -1.
        994   -1    0    0    0    0 -0.00000000000E+00 -0.00000000000E+00  0.11368683772E-12  0.17120000000E+03  0.17120000000E+03 0.  0.
         13    1    1    2    0    0  0.38748064214E+02 -0.98275020856E+02  0.57978587438E+03  0.58933103049E+03  0.10566000000E+00 0. -1.
        994    1    1    2    0    0  0.17771236158E+02  0.71776553804E+02  0.29370426964E+02  0.18878493714E+03  0.17120000000E+03 0.  0.
        998    1    1    2    0    0 -0.56519300372E+02  0.26498467052E+02  0.89084369493E+03  0.89308403237E+03  0.10000000000E+02 0. -1.
</event>
<event>
 5    1  0.1556794E-008  0.3851380E+03  0.7957747E-01  0.3429087E+00
         13   -1    0    0    0    0  0.00000000000E+00  0.00000000000E+00  0.14999999963E+04  0.15000000000E+04  0.10566000000E+00 0. -1.
        994   -1    0    0    0    0 -0.00000000000E+00 -0.00000000000E+00  0.11368683772E-12  0.17120000000E+03  0.17120000000E+03 0.  0.
         13    1    1    2    0    0  0.37885247884E+01  0.15877302519E+02  0.81513663322E+02  0.83132004232E+02  0.10566000000E+00 0. -1.
        994    1    1    2    0    0 -0.64669750428E+01 -0.16121555316E+02  0.25541111072E+01  0.17209790759E+03  0.17120000000E+03 0.  0.
        998    1    1    2    0    0  0.26784502544E+01  0.24425279702E+00  0.14159322218E+04  0.14159700882E+04  0.10000000000E+02 0. -1.
</event>
<event>
 5    1  0.1556794E-008  0.3853871E+03  0.7957747E-01  0.3428032E+00
         13   -1    0    0    0    0  0.00000000000E+00  0.00000000000E+00  0.14999999963E+04  0.15000000000E+04  0.10566000000E+00 0. -1.
        994   -1    0    0    0    0 -0.00000000000E+00 -0.00000000000E+00  0.11368683772E-12  0.17120000000E+03  0.17120000000E+03 0.  0.
         13    1    1    2    0    0  0.14431683395E+02  0.98146313941E+01  0.10443854554E+03  0.10588683315E+03  0.10566000000E+00 0. -1.
        994    1    1    2    0    0 -0.13324714657E+02 -0.39360890985E+01  0.20723669643E+01  0.17177536355E+03  0.17120000000E+03 0.  0.
        998    1    1    2    0    0 -0.11069687381E+01 -0.58785422956E+01  0.13934890838E+04  0.13935378033E+04  0.10000000000E+02 0. -1.
</event>
<event>
 5    1  0.1556794E-008  0.3813288E+03  0.7957747E-01  0.3445393E+00
         13   -1    0    0    0    0  0.00000000000E+00  0.00000000000E+00  0.14999999963E+04  0.15000000000E+04  0.10566000000E+00 0.  1.
        994   -1    0    0    0    0 -0.00000000000E+00 -0.00000000000E+00  0.11368683772E-12  0.17120000000E+03  0.17120000000E+03 0.  0.
         13    1    1    2    0    0  0.58537799892E+01 -0.93265869679E+01  0.16292890998E+02  0.19665233936E+02  0.10566000000E+00 0.  1.
        994    1    1    2    0    0 -0.50397372702E+01 -0.28042987989E+00  0.35486707095E+01  0.17131115158E+03  0.17120000000E+03 0.  0.
        998    1    1    2    0    0 -0.81404271891E+00  0.96070168478E+01  0.14801584346E+04  0.14802236145E+04  0.10000000000E+02 0.  1.
</event>
<event>
 5    1  0.1556794E-008  0.3837335E+03  0.7957747E-01  0.3435061E+00
         13   -1    0    0    0    0  0.00000000000E+00  0.00000000000E+00  0.14999999963E+04  0.15000000000E+04  0.10566000000E+00 0. -1.
        994   -1    0    0    0    0 -0.00000000000E+00 -0.00000000000E+00  0.11368683772E-12  0.17120000000E+03  0.17120000000E+03 0.  0.
         13    1    1    2    0    0  0.94942668673E+01  0.20584283379E+02  0.12265641878E+03  0.12473356427E+03  0.10566000000E+00 0. -1.
        994    1    1    2    0    0 -0.61036046481E+01 -0.92625117348E+00  0.23860911144E+01  0.17132788845E+03  0.17120000000E+03 0.  0.
        998    1    1    2    0    0 -0.33906622192E+01 -0.19658032205E+02  0.13749574864E+04  0.13751385473E+04  0.10000000000E+02 0. -1.
</event>
<event>
 5    1  0.1556794E-008  0.3755807E+03  0.7957747E-01  0.3470630E+00
         13   -1    0    0    0    0  0.00000000000E+00  0.00000000000E+00  0.14999999963E+04  0.15000000000E+04  0.10566000000E+00 0. -1.
        994   -1    0    0    0    0 -0.00000000000E+00 -0.00000000000E+00  0.11368683772E-12  0.17120000000E+03  0.17120000000E+03 0.  0.
         13    1    1    2    0    0  0.18205541823E+02 -0.31702900337E+02  0.10327533992E+03  0.10955511235E+03  0.10566000000E+00 0. -1.
        994    1    1    2    0    0 -0.33955560389E+01  0.21743534813E+02  0.80255924122E+01  0.17279514241E+03  0.17120000000E+03 0.  0.
        998    1    1    2    0    0 -0.14809985784E+02  0.99593655240E+01  0.13886990639E+04  0.13888497452E+04  0.10000000000E+02 0. -1.
</event>
<event>
 5    1  0.1556794E-008  0.3829824E+03  0.7957747E-01  0.3438274E+00
         13   -1    0    0    0    0  0.00000000000E+00  0.00000000000E+00  0.14999999963E+04  0.15000000000E+04  0.10566000000E+00 0.  1.
        994   -1    0    0    0    0 -0.00000000000E+00 -0.00000000000E+00  0.11368683772E-12  0.17120000000E+03  0.17120000000E+03 0.  0.
         13    1    1    2    0    0 -0.24555221443E+02 -0.45088713414E+01  0.11279858620E+03  0.11552844253E+03  0.10566000000E+00 0.  1.
        994    1    1    2    0    0  0.20695678733E+02  0.58986657122E+01  0.41696884550E+01  0.17259760044E+03  0.17120000000E+03 0.  0.
        998    1    1    2    0    0  0.38595427096E+01 -0.13897943708E+01  0.13830317216E+04  0.13830739570E+04  0.10000000000E+02 0.  1.
</event>
<event>
 5    1  0.1556794E-008  0.3792861E+03  0.7957747E-01  0.3454273E+00
         13   -1    0    0    0    0  0.00000000000E+00  0.00000000000E+00  0.14999999963E+04  0.15000000000E+04  0.10566000000E+00 0. -1.
        994   -1    0    0    0    0 -0.00000000000E+00 -0.00000000000E+00  0.11368683772E-12  0.17120000000E+03  0.17120000000E+03 0.  0.
         13    1    1    2    0    0  0.25559664245E+02  0.17085252532E+02  0.11172552709E+03  0.11587841412E+03  0.10566000000E+00 0. -1.
        994    1    1    2    0    0 -0.50590497041E+01 -0.20896055782E+00  0.45798522449E+01  0.17133608112E+03  0.17120000000E+03 0.  0.
        998    1    1    2    0    0 -0.20500614540E+02 -0.16876291974E+02  0.13836946169E+04  0.13839855048E+04  0.10000000000E+02 0. -1.
</event>
<event>
 5    1  0.1556794E-008  0.3855115E+03  0.7957747E-01  0.3427506E+00
         13   -1    0    0    0    0  0.00000000000E+00  0.00000000000E+00  0.14999999963E+04  0.15000000000E+04  0.10566000000E+00 0.  1.
        994   -1    0    0    0    0 -0.00000000000E+00 -0.00000000000E+00  0.11368683772E-12  0.17120000000E+03  0.17120000000E+03 0.  0.
         13    1    1    2    0    0 -0.10257067594E+02  0.87110631194E-01  0.36573386215E+02  0.37984717548E+02  0.10566000000E+00 0.  1.
        994    1    1    2    0    0  0.16218830902E+02  0.12906169383E+02  0.27882185790E+01  0.17247270464E+03  0.17120000000E+03 0.  0.
        998    1    1    2    0    0 -0.59617633075E+01 -0.12993280014E+02  0.14606383915E+04  0.14607425778E+04  0.10000000000E+02 0.  1.
</event>
<event>
 5    1  0.1556794E-008  0.3716375E+03  0.7957747E-01  0.3488399E+00
         13   -1    0    0    0    0  0.00000000000E+00  0.00000000000E+00  0.14999999963E+04  0.15000000000E+04  0.10566000000E+00 0.  1.
        994   -1    0    0    0    0 -0.00000000000E+00 -0.00000000000E+00  0.11368683772E-12  0.17120000000E+03  0.17120000000E+03 0.  0.
         13    1    1    2    0    0  0.11805865658E+03  0.21351537889E+02  0.47256047672E+03  0.48755220221E+03  0.10566000000E+00 0.  1.
        994    1    1    2    0    0 -0.96928139020E+02 -0.38145296374E+02  0.51002889023E+02  0.20678699780E+03  0.17120000000E+03 0.  0.
        998    1    1    2    0    0 -0.21130517564E+02  0.16793758485E+02  0.97643663054E+03  0.97686079999E+03  0.10000000000E+02 0.  1.
</event>
<event>
 5    1  0.2441615E-008  0.3859733E+03  0.7957747E-01  0.3425555E+00
         13   -1    0    0    0    0  0.00000000000E+00  0.00000000000E+00  0.14999999963E+04  0.15000000000E+04  0.10566000000E+00 0. -1.
        994   -1    0    0    0    0 -0.00000000000E+00 -0.00000000000E+00  0.11368683772E-12  0.17120000000E+03  0.17120000000E+03 0.  0.
         13    1    1    2    0    0 -0.46449756142E+01 -0.89200765617E+01  0.43380871418E+02  0.44531502707E+02  0.10566000000E+00 0. -1.
        994    1    1    2    0    0  0.59244408015E+01  0.94563709595E+01  0.15559956639E+01  0.17157034439E+03  0.17120000000E+03 0.  0.
        998    1    1    2    0    0 -0.12794651873E+01 -0.53629439785E+00  0.14550631292E+04  0.14550981529E+04  0.10000000000E+02 0. -1.
</event>
<event>
 5    1  0.1556794E-008  0.3759467E+03  0.7957747E-01  0.3468999E+00
         13   -1    0    0    0    0  0.00000000000E+00  0.00000000000E+00  0.14999999963E+04  0.15000000000E+04  0.10566000000E+00 0.  1.
        994   -1    0    0    0    0 -0.00000000000E+00 -0.00000000000E+00  0.11368683772E-12  0.17120000000E+03  0.17120000000E+03 0.  0.
         13    1    1    2    0    0 -0.11561790283E+03  0.87594713501E+02  0.69329399071E+03  0.70830565578E+03  0.10566000000E+00 0.  1.
        994    1    1    2    0    0  0.13012359072E+03 -0.88753245796E+02  0.95507121166E+02  0.25147631637E+03  0.17120000000E+03 0.  0.
        998    1    1    2    0    0 -0.14505687887E+02  0.11585322950E+01  0.71119888440E+03  0.71141802785E+03  0.10000000000E+02 0.  1.
</event>
<event>
 5    1  0.1556794E-008  0.3826639E+03  0.7957747E-01  0.3439641E+00
         13   -1    0    0    0    0  0.00000000000E+00  0.00000000000E+00  0.14999999963E+04  0.15000000000E+04  0.10566000000E+00 0.  1.
        994   -1    0    0    0    0 -0.00000000000E+00 -0.00000000000E+00  0.11368683772E-12  0.17120000000E+03  0.17120000000E+03 0.  0.
         13    1    1    2    0    0 -0.29934959357E+02 -0.16978894932E+02  0.18508562908E+03  0.18825803016E+03  0.10566000000E+00 0.  1.
        994    1    1    2    0    0  0.31960498023E+02  0.16522293452E+02  0.70958292815E+01  0.17508355265E+03  0.17120000000E+03 0.  0.
        998    1    1    2    0    0 -0.20255386666E+01  0.45660148025E+00  0.13078185379E+04  0.13078584172E+04  0.10000000000E+02 0.  0.
</event>
<event>
 5    1  0.1556794E-008  0.3701342E+03  0.7957747E-01  0.3495274E+00
         13   -1    0    0    0    0  0.00000000000E+00  0.00000000000E+00  0.14999999963E+04  0.15000000000E+04  0.10566000000E+00 0.  1.
        994   -1    0    0    0    0 -0.00000000000E+00 -0.00000000000E+00  0.11368683772E-12  0.17120000000E+03  0.17120000000E+03 0.  0.
         13    1    1    2    0    0 -0.18678648362E+02 -0.20442973297E+01  0.11382664836E+02  0.21969234830E+02  0.10566000000E+00 0.  1.
        994    1    1    2    0    0  0.88844156672E+00  0.34931793257E+02  0.15292483517E+02  0.17539760420E+03  0.17120000000E+03 0.  0.
        998    1    1    2    0    0  0.17790206796E+02 -0.32887495927E+02  0.14733248479E+04  0.14738331610E+04  0.10000000000E+02 0.  1.
</event>
<event>
 5    1  0.1556794E-008  0.3838695E+03  0.7957747E-01  0.3434481E+00
         13   -1    0    0    0    0  0.00000000000E+00  0.00000000000E+00  0.14999999963E+04  0.15000000000E+04  0.10566000000E+00 0.  1.
        994   -1    0    0    0    0 -0.00000000000E+00 -0.00000000000E+00  0.11368683772E-12  0.17120000000E+03  0.17120000000E+03 0.  0.
         13    1    1    2    0    0 -0.97925749916E+01  0.33593201946E+01  0.24028895687E+02  0.26164452013E+02  0.10566000000E+00 0.  1.
        994    1    1    2    0    0  0.34818446312E+01 -0.18892408375E+01  0.22442544415E+01  0.17126053004E+03  0.17120000000E+03 0.  0.
        998    1    1    2    0    0  0.63107303605E+01 -0.14700793570E+01  0.14737268461E+04  0.14737750179E+04  0.10000000000E+02 0.  1.
</event>
<event>
 5    1  0.1556794E-008  0.3857482E+03  0.7957747E-01  0.3426505E+00
         13   -1    0    0    0    0  0.00000000000E+00  0.00000000000E+00  0.14999999963E+04  0.15000000000E+04  0.10566000000E+00 0.  1.
        994   -1    0    0    0    0 -0.00000000000E+00 -0.00000000000E+00  0.11368683772E-12  0.17120000000E+03  0.17120000000E+03 0.  0.
         13    1    1    2    0    0 -0.46113453405E+01 -0.13545909881E+02  0.69844411336E+02  0.71295225221E+02  0.10566000000E+00 0.  1.
        994    1    1    2    0    0  0.26090160061E+02  0.24925806413E+02  0.55422454661E+01  0.17504898961E+03  0.17120000000E+03 0.  0.
        998    1    1    2    0    0 -0.21478814720E+02 -0.11379896532E+02  0.14246133395E+04  0.14248557852E+04  0.10000000000E+02 0.  1.
</event>
<event>
 5    1  0.1556794E-008  0.3826501E+03  0.7957747E-01  0.3439700E+00
         13   -1    0    0    0    0  0.00000000000E+00  0.00000000000E+00  0.14999999963E+04  0.15000000000E+04  0.10566000000E+00 0. -1.
        994   -1    0    0    0    0 -0.00000000000E+00 -0.00000000000E+00  0.11368683772E-12  0.17120000000E+03  0.17120000000E+03 0.  0.
         13    1    1    2    0    0 -0.18127587830E+01 -0.15281942288E+02  0.40847990540E+02  0.43650811558E+02  0.10566000000E+00 0. -1.
        994    1    1    2    0    0 -0.69108613254E+01  0.14256700820E+02  0.36336008305E+01  0.17196992928E+03  0.17120000000E+03 0.  0.
        998    1    1    2    0    0  0.87236201084E+01  0.10252414671E+01  0.14555184049E+04  0.14555792592E+04  0.10000000000E+02 0. -1.
</event>
<event>
 5    1  0.1556794E-008  0.3851257E+03  0.7957747E-01  0.3429139E+00
         13   -1    0    0    0    0  0.00000000000E+00  0.00000000000E+00  0.14999999963E+04  0.15000000000E+04  0.10566000000E+00 0. -1.
        994   -1    0    0    0    0 -0.00000000000E+00 -0.00000000000E+00  0.11368683772E-12  0.17120000000E+03  0.17120000000E+03 0.  0.
         13    1    1    2    0    0  0.60045498571E+01 -0.87862285841E+01  0.36838946749E+02  0.38345424672E+02  0.10566000000E+00 0. -1.
        994    1    1    2    0    0 -0.32049119099E+01  0.95574063270E+00  0.16045214087E+01  0.17124018042E+03  0.17120000000E+03 0.  0.
        998    1    1    2    0    0 -0.27996379473E+01  0.78304879514E+01  0.14615565281E+04  0.14616143949E+04  0.10000000000E+02 0. -1.
</event>
<event>
 5    1  0.1556794E-008  0.3780577E+03  0.7957747E-01  0.3459660E+00
         13   -1    0    0    0    0  0.00000000000E+00  0.00000000000E+00  0.14999999963E+04  0.15000000000E+04  0.10566000000E+00 0. -1.
        994   -1    0    0    0    0 -0.00000000000E+00 -0.00000000000E+00  0.11368683772E-12  0.17120000000E+03  0.17120000000E+03 0.  0.
         13    1    1    2    0    0  0.73098067745E+02 -0.80026015280E+02  0.62103575111E+03  0.63042279936E+03  0.10566000000E+00 0. -1.
        994    1    1    2    0    0 -0.76176319335E+02  0.81503485948E+02  0.48203429930E+02  0.20994918553E+03  0.17120000000E+03 0.  0.
        998    1    1    2    0    0  0.30782515901E+01 -0.14774706684E+01  0.83076081524E+03  0.83082801511E+03  0.10000000000E+02 0.  0.
</event>
<event>
 5    1  0.1556794E-008  0.3267012E+03  0.7957747E-01  0.3722095E+00
         13   -1    0    0    0    0  0.00000000000E+00  0.00000000000E+00  0.14999999963E+04  0.15000000000E+04  0.10566000000E+00 0.  1.
        994   -1    0    0    0    0 -0.00000000000E+00 -0.00000000000E+00  0.11368683772E-12  0.17120000000E+03  0.17120000000E+03 0.  0.
         13    1    1    2    0    0  0.16427187177E+03  0.65643281306E+01  0.93054052450E+03  0.94495185970E+03  0.10566000000E+00 0.  1.
        994    1    1    2    0    0 -0.12824929787E+03  0.16237808469E+02  0.71146880875E+02  0.22601519304E+03  0.17120000000E+03 0.  0.
        998    1    1    2    0    0 -0.36022573894E+02 -0.22802136599E+02  0.49831259090E+03  0.50023294725E+03  0.10000000000E+02 0.  1.
</event>
<event>
 5    1  0.1556794E-008  0.3752333E+03  0.7957747E-01  0.3472180E+00
         13   -1    0    0    0    0  0.00000000000E+00  0.00000000000E+00  0.14999999963E+04  0.15000000000E+04  0.10566000000E+00 0. -1.
        994   -1    0    0    0    0 -0.00000000000E+00 -0.00000000000E+00  0.11368683772E-12  0.17120000000E+03  0.17120000000E+03 0.  0.
         13    1    1    2    0    0  0.18086338834E+02  0.30245723188E+02  0.10120556406E+03  0.10716574445E+03  0.10566000000E+00 0. -1.
        994    1    1    2    0    0  0.12899585140E+02 -0.82445612170E+01  0.73553942070E+01  0.17204044266E+03  0.17120000000E+03 0.  0.
        998    1    1    2    0    0 -0.30985923974E+02 -0.22001161971E+02  0.13914390380E+04  0.13919938129E+04  0.10000000000E+02 0. -1.
</event>
<event>
 5    1  0.1556794E-008  0.3827600E+03  0.7957747E-01  0.3439228E+00
         13   -1    0    0    0    0  0.00000000000E+00  0.00000000000E+00  0.14999999963E+04  0.15000000000E+04  0.10566000000E+00 0.  1.
        994   -1    0    0    0    0 -0.00000000000E+00 -0.00000000000E+00  0.11368683772E-12  0.17120000000E+03  0.17120000000E+03 0.  0.
         13    1    1    2    0    0 -0.13328512091E+02 -0.16513124376E+02  0.77048041706E+02  0.79917109595E+02  0.10566000000E+00 0.  1.
        994    1    1    2    0    0  0.15296789414E+02  0.17334247568E+02  0.45189039327E+01  0.17281298677E+03  0.17120000000E+03 0.  0.
        998    1    1    2    0    0 -0.19682773230E+01 -0.82112319231E+00  0.14184330506E+04  0.14184699036E+04  0.10000000000E+02 0.  1.
</event>
<event>
 5    1  0.1556794E-008  0.3747100E+03  0.7957747E-01  0.3474521E+00
         13   -1    0    0    0    0  0.00000000000E+00  0.00000000000E+00  0.14999999963E+04  0.15000000000E+04  0.10566000000E+00 0. -1.
        994   -1    0    0    0    0 -0.00000000000E+00 -0.00000000000E+00  0.11368683772E-12  0.17120000000E+03  0.17120000000E+03 0.  0.
         13    1    1    2    0    0 -0.11153438179E+01 -0.30919073937E+02  0.66798594471E+02  0.73615871334E+02  0.10566000000E+00 0. -1.
        994    1    1    2    0    0 -0.11769741444E+02  0.23371357567E+02  0.91611029382E+01  0.17343042690E+03  0.17120000000E+03 0.  0.
        998    1    1    2    0    0  0.12885085262E+02  0.75477163698E+01  0.14240402989E+04  0.14241537018E+04  0.10000000000E+02 0. -1.
</event>
<event>
 5    1  0.1556794E-008  0.3750263E+03  0.7957747E-01  0.3473105E+00
         13   -1    0    0    0    0  0.00000000000E+00  0.00000000000E+00  0.14999999963E+04  0.15000000000E+04  0.10566000000E+00 0. -1.
        994   -1    0    0    0    0 -0.00000000000E+00 -0.00000000000E+00  0.11368683772E-12  0.17120000000E+03  0.17120000000E+03 0.  0.
         13    1    1    2    0    0  0.13485927101E+02  0.81773203957E+01  0.15403613701E+02  0.22045890268E+02  0.10566000000E+00 0. -1.
        994    1    1    2    0    0 -0.17985847280E+02 -0.10170388451E+02  0.81176612748E+01  0.17263332218E+03  0.17120000000E+03 0.  0.
        998    1    1    2    0    0  0.44999201788E+01  0.19930680550E+01  0.14764787213E+04  0.14765207875E+04  0.10000000000E+02 0. -1.
</event>
<event>
 5    1  0.1556794E-008  0.4042596E+03  0.7957747E-01  0.3351883E+00
         13   -1    0    0    0    0  0.00000000000E+00  0.00000000000E+00  0.14999999963E+04  0.15000000000E+04  0.10566000000E+00 0.  1.
        994   -1    0    0    0    0 -0.00000000000E+00 -0.00000000000E+00  0.11368683772E-12  0.17120000000E+03  0.17120000000E+03 0.  0.
         13    1    1    2    0    0 -0.65969814496E+02 -0.82342810466E+02  0.17488332292E+03  0.20424627943E+03  0.10566000000E+00 0.  1.
        994    1    1    2    0    0  0.39802102922E+02  0.60532482336E+02  0.51577582701E+02  0.19291986899E+03  0.17120000000E+03 0.  0.
        998    1    1    2    0    0  0.26167711575E+02  0.21810328130E+02  0.12735390907E+04  0.12740338516E+04  0.10000000000E+02 0.  1.
</event>
<event>
 5    1  0.1556794E-008  0.3815146E+03  0.7957747E-01  0.3444590E+00
         13   -1    0    0    0    0  0.00000000000E+00  0.00000000000E+00  0.14999999963E+04  0.15000000000E+04  0.10566000000E+00 0. -1.
        994   -1    0    0    0    0 -0.00000000000E+00 -0.00000000000E+00  0.11368683772E-12  0.17120000000E+03  0.17120000000E+03 0.  0.
         13    1    1    2    0    0  0.15635521322E+02  0.45997646805E+01  0.37687409337E+02  0.41060678863E+02  0.10566000000E+00 0. -1.
        994    1    1    2    0    0 -0.15685009663E+02  0.20302642934E+01  0.42029973238E+01  0.17198036716E+03  0.17120000000E+03 0.  0.
        998    1    1    2    0    0  0.49488340927E-01 -0.66300289738E+01  0.14581095896E+04  0.14581589540E+04  0.10000000000E+02 0. -1.
</event>
<event>
 5    1  0.1556794E-008  0.4203351E+03  0.7957747E-01  0.3292373E+00
         13   -1    0    0    0    0  0.00000000000E+00  0.00000000000E+00  0.14999999963E+04  0.15000000000E+04  0.10566000000E+00 0. -1.
        994   -1    0    0    0    0 -0.00000000000E+00 -0.00000000000E+00  0.11368683772E-12  0.17120000000E+03  0.17120000000E+03 0.  0.
         13    1    1    2    0    0  0.40488696481E+02 -0.42575349504E+02  0.27365928675E+02  0.64814351377E+02  0.10566000000E+00 0. -1.
        994    1    1    2    0    0 -0.41601697897E+02  0.45227835715E+02  0.56862090209E+02  0.19057543308E+03  0.17120000000E+03 0.  0.
        998    1    1    2    0    0  0.11130014158E+01 -0.26524862110E+01  0.14157719774E+04  0.14158102155E+04  0.10000000000E+02 0. -1.
</event>
<event>
 5    1  0.1556794E-008  0.3847263E+03  0.7957747E-01  0.3430834E+00
         13   -1    0    0    0    0  0.00000000000E+00  0.00000000000E+00  0.14999999963E+04  0.15000000000E+04  0.10566000000E+00 0. -1.
        994   -1    0    0    0    0 -0.00000000000E+00 -0.00000000000E+00  0.11368683772E-12  0.17120000000E+03  0.17120000000E+03 0.  0.
         13    1    1    2    0    0  0.11816879903E+02 -0.32866410590E+01  0.42386546929E+02  0.44125629567E+02  0.10566000000E+00 0. -1.
        994    1    1    2    0    0 -0.69045868530E+01  0.55665901148E+01  0.20250414075E+01  0.17144153825E+03  0.17120000000E+03 0.  0.
        998    1    1    2    0    0 -0.49122930499E+01 -0.22799490558E+01  0.14555884079E+04  0.14556328322E+04  0.10000000000E+02 0. -1.
</event>
<event>
 5    1  0.1556794E-008  0.3842096E+03  0.7957747E-01  0.3433031E+00
         13   -1    0    0    0    0  0.00000000000E+00  0.00000000000E+00  0.14999999963E+04  0.15000000000E+04  0.10566000000E+00 0. -1.
        994   -1    0    0    0    0 -0.00000000000E+00 -0.00000000000E+00  0.11368683772E-12  0.17120000000E+03  0.17120000000E+03 0.  0.
         13    1    1    2    0    0 -0.99387470838E+01  0.13600042574E+01  0.24546707954E+02  0.26517547786E+02  0.10566000000E+00 0. -1.
        994    1    1    2    0    0  0.41410527393E+01  0.11819577525E+00  0.20796629645E+01  0.17126274343E+03  0.17120000000E+03 0.  0.
        998    1    1    2    0    0  0.57976943445E+01 -0.14782000327E+01  0.14733736254E+04  0.14734197088E+04  0.10000000000E+02 0. -1.
</event>
<event>
 5    1  0.1556794E-008  0.3834944E+03  0.7957747E-01  0.3436083E+00
         13   -1    0    0    0    0  0.00000000000E+00  0.00000000000E+00  0.14999999963E+04  0.15000000000E+04  0.10566000000E+00 0. -1.
        994   -1    0    0    0    0 -0.00000000000E+00 -0.00000000000E+00  0.11368683772E-12  0.17120000000E+03  0.17120000000E+03 0.  0.
         13    1    1    2    0    0  0.46225491163E+01  0.97291905503E+01  0.23387314046E+02  0.25748839419E+02  0.10566000000E+00 0. -1.
        994    1    1    2    0    0 -0.70799566533E+00 -0.10555395265E+02  0.27494610712E+01  0.17154858543E+03  0.17120000000E+03 0.  0.
        998    1    1    2    0    0 -0.39145534510E+01  0.82620471502E+00  0.14738632212E+04  0.14739025752E+04  0.10000000000E+02 0. -1.
</event>
<event>
 5    1  0.1556794E-008  0.3815680E+03  0.7957747E-01  0.3444359E+00
         13   -1    0    0    0    0  0.00000000000E+00  0.00000000000E+00  0.14999999963E+04  0.15000000000E+04  0.10566000000E+00 0. -1.
        994   -1    0    0    0    0 -0.00000000000E+00 -0.00000000000E+00  0.11368683772E-12  0.17120000000E+03  0.17120000000E+03 0.  0.
         13    1    1    2    0    0 -0.30804166797E+00  0.19190857014E+02  0.52983807999E+02  0.56353162792E+02  0.10566000000E+00 0. -1.
        994    1    1    2    0    0  0.34063108183E+00 -0.16698420921E+02  0.42719702158E+01  0.17206581014E+03  0.17120000000E+03 0.  0.
        998    1    1    2    0    0 -0.32589413853E-01 -0.24924360931E+01  0.14427442181E+04  0.14427810271E+04  0.10000000000E+02 0. -1.
</event>
<event>
 5    1  0.1556794E-008  0.3791606E+03  0.7957747E-01  0.3454821E+00
         13   -1    0    0    0    0  0.00000000000E+00  0.00000000000E+00  0.14999999963E+04  0.15000000000E+04  0.10566000000E+00 0.  1.
        994   -1    0    0    0    0 -0.00000000000E+00 -0.00000000000E+00  0.11368683772E-12  0.17120000000E+03  0.17120000000E+03 0.  0.
         13    1    1    2    0    0  0.14234043444E+02 -0.35995824202E+02  0.16537793245E+03  0.16984751708E+03  0.10566000000E+00 0.  1.
        994    1    1    2    0    0 -0.71769033679E+01  0.18847540647E+02  0.59221048185E+01  0.17248550390E+03  0.17120000000E+03 0.  0.
        998    1    1    2    0    0 -0.70571400760E+01  0.17148283554E+02  0.13286999590E+04  0.13288669790E+04  0.10000000000E+02 0.  1.
</event>
<event>
 5    1  0.1556794E-008  0.2575048E+03  0.7957747E-01  0.4255499E+00
         13   -1    0    0    0    0  0.00000000000E+00  0.00000000000E+00  0.14999999963E+04  0.15000000000E+04  0.10566000000E+00 0. -1.
        994   -1    0    0    0    0 -0.00000000000E+00 -0.00000000000E+00  0.11368683772E-12  0.17120000000E+03  0.17120000000E+03 0.  0.
         13    1    1    2    0    0 -0.12736526850E+03 -0.11576568926E+03  0.35428730216E+03  0.39388210174E+03  0.10566000000E+00 0. -1.
        994    1    1    2    0    0  0.14499148058E+03  0.88610747085E+02  0.15652068626E+03  0.28754575143E+03  0.17120000000E+03 0.  0.
        998    1    1    2    0    0 -0.17626212082E+02  0.27154942176E+02  0.98919200786E+03  0.98977214683E+03  0.10000000000E+02 0. -1.
</event>
<event>
 5    1  0.1556794E-008  0.3848853E+03  0.7957747E-01  0.3430159E+00
         13   -1    0    0    0    0  0.00000000000E+00  0.00000000000E+00  0.14999999963E+04  0.15000000000E+04  0.10566000000E+00 0.  1.
        994   -1    0    0    0    0 -0.00000000000E+00 -0.00000000000E+00  0.11368683772E-12  0.17120000000E+03  0.17120000000E+03 0.  0.
         13    1    1    2    0    0 -0.58395913052E+01  0.16926338556E+02  0.90353201912E+02  0.92110336138E+02  0.10566000000E+00 0.  1.
        994    1    1    2    0    0  0.29006787577E+01 -0.18463416916E+02  0.28371129903E+01  0.17224053214E+03  0.17120000000E+03 0.  0.
        998    1    1    2    0    0  0.29389125475E+01  0.15370783599E+01  0.14068096814E+04  0.14068491317E+04  0.10000000000E+02 0.  1.
</event>
<event>
 5    1  0.1556794E-008  0.3856980E+03  0.7957747E-01  0.3426717E+00
         13   -1    0    0    0    0  0.00000000000E+00  0.00000000000E+00  0.14999999963E+04  0.15000000000E+04  0.10566000000E+00 0.  1.
        994   -1    0    0    0    0 -0.00000000000E+00 -0.00000000000E+00  0.11368683772E-12  0.17120000000E+03  0.17120000000E+03 0.  0.
         13    1    1    2    0    0 -0.13669000832E+02  0.64574495847E+01  0.87551658868E+02  0.88847309320E+02  0.10566000000E+00 0.  1.
        994    1    1    2    0    0  0.12061030380E+02 -0.41505047091E+01  0.18180237998E+01  0.17168412959E+03  0.17120000000E+03 0.  0.
        998    1    1    2    0    0  0.16079704525E+01 -0.23069448755E+01  0.14106303136E+04  0.14106685611E+04  0.10000000000E+02 0.  1.
</event>
<event>
 5    1  0.1556794E-008  0.3820213E+03  0.7957747E-01  0.3442404E+00
         13   -1    0    0    0    0  0.00000000000E+00  0.00000000000E+00  0.14999999963E+04  0.15000000000E+04  0.10566000000E+00 0.  1.
        994   -1    0    0    0    0 -0.00000000000E+00 -0.00000000000E+00  0.11368683772E-12  0.17120000000E+03  0.17120000000E+03 0.  0.
         13    1    1    2    0    0 -0.10064624958E+02 -0.13413434852E+02  0.43973783917E+02  0.47062955135E+02  0.10566000000E+00 0.  1.
        994    1    1    2    0    0  0.19202105578E+02  0.97400603000E-01  0.43416697598E+01  0.17232823460E+03  0.17120000000E+03 0.  0.
        998    1    1    2    0    0 -0.91374806203E+01  0.13316034249E+02  0.14516845426E+04  0.14518088103E+04  0.10000000000E+02 0.  1.
</event>
<event>
 5    1  0.1556794E-008  0.3810240E+03  0.7957747E-01  0.3446712E+00
         13   -1    0    0    0    0  0.00000000000E+00  0.00000000000E+00  0.14999999963E+04  0.15000000000E+04  0.10566000000E+00 0.  1.
        994   -1    0    0    0    0 -0.00000000000E+00 -0.00000000000E+00  0.11368683772E-12  0.17120000000E+03  0.17120000000E+03 0.  0.
         13    1    1    2    0    0  0.30639596969E+02  0.78950167872E+00  0.12011309177E+03  0.12396198689E+03  0.10566000000E+00 0.  1.
        994    1    1    2    0    0 -0.29861432532E+02 -0.38403169179E+01  0.66429919645E+01  0.17395408167E+03  0.17120000000E+03 0.  0.
        998    1    1    2    0    0 -0.77816443765E+00  0.30508152392E+01  0.13732439125E+04  0.13732839314E+04  0.10000000000E+02 0.  0.
</event>
<event>
 5    1  0.1556794E-008  0.3820258E+03  0.7957747E-01  0.3442385E+00
         13   -1    0    0    0    0  0.00000000000E+00  0.00000000000E+00  0.14999999963E+04  0.15000000000E+04  0.10566000000E+00 0.  1.
        994   -1    0    0    0    0 -0.00000000000E+00 -0.00000000000E+00  0.11368683772E-12  0.17120000000E+03  0.17120000000E+03 0.  0.
         13    1    1    2    0    0  0.19897687014E+02 -0.75845445360E+01  0.73260815605E+02  0.76292866845E+02  0.10566000000E+00 0.  1.
        994    1    1    2    0    0 -0.73865880357E+01  0.72647492673E+01  0.34705098824E+01  0.17154831012E+03  0.17120000000E+03 0.  0.
        998    1    1    2    0    0 -0.12511098979E+02  0.31979526875E+00  0.14232686708E+04  0.14233588230E+04  0.10000000000E+02 0.  1.
</event>
<event>
 5    1  0.1556794E-008  0.3809165E+03  0.7957747E-01  0.3447177E+00
         13   -1    0    0    0    0  0.00000000000E+00  0.00000000000E+00  0.14999999963E+04  0.15000000000E+04  0.10566000000E+00 0.  1.
        994   -1    0    0    0    0 -0.00000000000E+00 -0.00000000000E+00  0.11368683772E-12  0.17120000000E+03  0.17120000000E+03 0.  0.
         13    1    1    2    0    0 -0.14581011097E+02 -0.14217887181E+02  0.52315169658E+02  0.56139490030E+02  0.10566000000E+00 0.  1.
        994    1    1    2    0    0  0.19542550701E+02  0.17925794962E+02  0.60185120934E+01  0.17334620821E+03  0.17120000000E+03 0.  0.
        998    1    1    2    0    0 -0.49615396041E+01 -0.37079077803E+01  0.14416663145E+04  0.14417143018E+04  0.10000000000E+02 0.  1.
</event>
<event>
 5    1  0.1556794E-008  0.3837302E+03  0.7957747E-01  0.3435076E+00
         13   -1    0    0    0    0  0.00000000000E+00  0.00000000000E+00  0.14999999963E+04  0.15000000000E+04  0.10566000000E+00 0. -1.
        994   -1    0    0    0    0 -0.00000000000E+00 -0.00000000000E+00  0.11368683772E-12  0.17120000000E+03  0.17120000000E+03 0.  0.
         13    1    1    2    0    0  0.10738414418E+02  0.18588112158E+02  0.10498498162E+03  0.10715730954E+03  0.10566000000E+00 0. -1.
        994    1    1    2    0    0 -0.85727546266E+01 -0.46895505466E+01  0.25772834075E+01  0.17149800697E+03  0.17120000000E+03 0.  0.
        998    1    1    2    0    0 -0.21656597916E+01 -0.13898561612E+02  0.13924377312E+04  0.13925446835E+04  0.10000000000E+02 0. -1.
</event>
<event>
 5    1  0.1556794E-008  0.3844032E+03  0.7957747E-01  0.3432207E+00
         13   -1    0    0    0    0  0.00000000000E+00  0.00000000000E+00  0.14999999963E+04  0.15000000000E+04  0.10566000000E+00 0. -1.
        994   -1    0    0    0    0 -0.00000000000E+00 -0.00000000000E+00  0.11368683772E-12  0.17120000000E+03  0.17120000000E+03 0.  0.
         13    1    1    2    0    0  0.20416380832E+02  0.11060172899E+02  0.13222055352E+03  0.13424396436E+03  0.10566000000E+00 0. -1.
        994    1    1    2    0    0 -0.13503394147E+02 -0.19168708547E+02  0.37403649074E+01  0.17283868598E+03  0.17120000000E+03 0.  0.
        998    1    1    2    0    0 -0.69129866854E+01  0.81085356473E+01  0.13640390779E+04  0.13641173497E+04  0.10000000000E+02 0. -1.
</event>
<event>
 5    1  0.1556794E-008  0.3812405E+03  0.7957747E-01  0.3445775E+00
         13   -1    0    0    0    0  0.00000000000E+00  0.00000000000E+00  0.14999999963E+04  0.15000000000E+04  0.10566000000E+00 0. -1.
        994   -1    0    0    0    0 -0.00000000000E+00 -0.00000000000E+00  0.11368683772E-12  0.17120000000E+03  0.17120000000E+03 0.  0.
         13    1    1    2    0    0 -0.51029801592E+01  0.96718291846E+01  0.16164827473E+02  0.19516595439E+02  0.10566000000E+00 0. -1.
        994    1    1    2    0    0  0.45343638478E+00  0.73653573979E+01  0.36895726561E+01  0.17139867864E+03  0.17120000000E+03 0.  0.
        998    1    1    2    0    0  0.46495437744E+01 -0.17037186582E+02  0.14801455961E+04  0.14802847259E+04  0.10000000000E+02 0. -1.
</event>
<event>
 5    1  0.1556794E-008  0.3790395E+03  0.7957747E-01  0.3455351E+00
         13   -1    0    0    0    0  0.00000000000E+00  0.00000000000E+00  0.14999999963E+04  0.15000000000E+04  0.10566000000E+00 0.  1.
        994   -1    0    0    0    0 -0.00000000000E+00 -0.00000000000E+00  0.11368683772E-12  0.17120000000E+03  0.17120000000E+03 0.  0.
         13    1    1    2    0    0 -0.27051292257E+02 -0.26142583604E+02  0.21212999081E+03  0.21543990173E+03  0.10566000000E+00 0.  1.
        994    1    1    2    0    0 -0.21513707096E+02 -0.86823758185E+01  0.64258300937E+01  0.17288422292E+03  0.17120000000E+03 0.  0.
        998    1    1    2    0    0  0.48564999353E+02  0.34824959422E+02  0.12814441754E+04  0.12828758753E+04  0.10000000000E+02 0.  1.
</event>
<event>
 5    1  0.1556794E-008  0.3814655E+03  0.7957747E-01  0.3444802E+00
         13   -1    0    0    0    0  0.00000000000E+00  0.00000000000E+00  0.14999999963E+04  0.15000000000E+04  0.10566000000E+00 0. -1.
        994   -1    0    0    0    0 -0.00000000000E+00 -0.00000000000E+00  0.11368683772E-12  0.17120000000E+03  0.17120000000E+03 0.  0.
         13    1    1    2    0    0  0.35236056345E+02  0.92599439836E+01  0.15544410090E+03  0.15965652476E+03  0.10566000000E+00 0. -1.
        994    1    1    2    0    0 -0.48392538988E+02 -0.30498456320E+02  0.14358023704E+02  0.18107342851E+03  0.17120000000E+03 0.  0.
        998    1    1    2    0    0  0.13156482644E+02  0.21238512337E+02  0.13301978717E+04  0.13304700467E+04  0.10000000000E+02 0. -1.
</event>
<event>
 5    1  0.1767300E-008  0.3858439E+03  0.7957747E-01  0.3426101E+00
         13   -1    0    0    0    0  0.00000000000E+00  0.00000000000E+00  0.14999999963E+04  0.15000000000E+04  0.10566000000E+00 0.  1.
        994   -1    0    0    0    0 -0.00000000000E+00 -0.00000000000E+00  0.11368683772E-12  0.17120000000E+03  0.17120000000E+03 0.  0.
         13    1    1    2    0    0  0.11026234397E+02  0.52867508443E+01  0.61570405075E+02  0.62773031826E+02  0.10566000000E+00 0.  1.
        994    1    1    2    0    0 -0.99334022377E+01 -0.19022473961E+01  0.15472884045E+01  0.17150546675E+03  0.17120000000E+03 0.  0.
        998    1    1    2    0    0 -0.10928321592E+01 -0.33845034483E+01  0.14368823028E+04  0.14369215014E+04  0.10000000000E+02 0.  1.
</event>
<event>
 5    1  0.1556794E-008  0.3856389E+03  0.7957747E-01  0.3426967E+00
         13   -1    0    0    0    0  0.00000000000E+00  0.00000000000E+00  0.14999999963E+04  0.15000000000E+04  0.10566000000E+00 0.  1.
        994   -1    0    0    0    0 -0.00000000000E+00 -0.00000000000E+00  0.11368683772E-12  0.17120000000E+03  0.17120000000E+03 0.  0.
         13    1    1    2    0    0 -0.11735775789E+02  0.16105613509E+01  0.54193556114E+02  0.55473191990E+02  0.10566000000E+00 0.  1.
        994    1    1    2    0    0  0.72981965794E+01  0.36298028921E+01  0.15313455862E+01  0.17140077060E+03  0.17120000000E+03 0.  0.
        998    1    1    2    0    0  0.44375792091E+01 -0.52403642431E+01  0.14442750946E+04  0.14443260374E+04  0.10000000000E+02 0.  1.
</event>
<event>
 5    1  0.1556794E-008  0.3840941E+03  0.7957747E-01  0.3433523E+00
         13   -1    0    0    0    0  0.00000000000E+00  0.00000000000E+00  0.14999999963E+04  0.15000000000E+04  0.10566000000E+00 0.  1.
        994   -1    0    0    0    0 -0.00000000000E+00 -0.00000000000E+00  0.11368683772E-12  0.17120000000E+03  0.17120000000E+03 0.  0.
         13    1    1    2    0    0 -0.26326410814E+02  0.16599593235E+01  0.15592707930E+03  0.15814265899E+03  0.10566000000E+00 0.  1.
        994    1    1    2    0    0  0.24081949341E+02  0.57922617006E+01  0.41066895122E+01  0.17303119799E+03  0.17120000000E+03 0.  0.
        998    1    1    2    0    0  0.22444614735E+01 -0.74522210241E+01  0.13399662275E+04  0.13400261430E+04  0.10000000000E+02 0.  1.
</event>
<event>
 5    1  0.1556794E-008  0.3850024E+03  0.7957747E-01  0.3429662E+00
         13   -1    0    0    0    0  0.00000000000E+00  0.00000000000E+00  0.14999999963E+04  0.15000000000E+04  0.10566000000E+00 0.  1.
        994   -1    0    0    0    0 -0.00000000000E+00 -0.00000000000E+00  0.11368683772E-12  0.17120000000E+03  0.17120000000E+03 0.  0.
         13    1    1    2    0    0 -0.88446053882E+01  0.53151172511E+01  0.32529452548E+02  0.34127026870E+02  0.10566000000E+00 0.  1.
        994    1    1    2    0    0  0.39871849216E+01 -0.63446233828E+01  0.18136083959E+01  0.17137351331E+03  0.17120000000E+03 0.  0.
        998    1    1    2    0    0  0.48574204666E+01  0.10295061317E+01  0.14656569353E+04  0.14656994598E+04  0.10000000000E+02 0.  1.
</event>
<event>
 5    1  0.1556794E-008  0.3850254E+03  0.7957747E-01  0.3429564E+00
         13   -1    0    0    0    0  0.00000000000E+00  0.00000000000E+00  0.14999999963E+04  0.15000000000E+04  0.10566000000E+00 0.  1.
        994   -1    0    0    0    0 -0.00000000000E+00 -0.00000000000E+00  0.11368683772E-12  0.17120000000E+03  0.17120000000E+03 0.  0.
         13    1    1    2    0    0 -0.11330854044E+02 -0.60646915738E+01  0.49937341956E+02  0.51564697448E+02  0.10566000000E+00 0.  1.
        994    1    1    2    0    0  0.96619244301E+01  0.83053314941E+01  0.21515045399E+01  0.17168692521E+03  0.17120000000E+03 0.  0.
        998    1    1    2    0    0  0.16689296138E+01 -0.22406399203E+01  0.14479111498E+04  0.14479483773E+04  0.10000000000E+02 0.  1.
</event>
<event>
 5    1  0.1556794E-008  0.3847475E+03  0.7957747E-01  0.3430744E+00
         13   -1    0    0    0    0  0.00000000000E+00  0.00000000000E+00  0.14999999963E+04  0.15000000000E+04  0.10566000000E+00 0. -1.
        994   -1    0    0    0    0 -0.00000000000E+00 -0.00000000000E+00  0.11368683772E-12  0.17120000000E+03  0.17120000000E+03 0.  0.
         13    1    1    2    0    0 -0.13973126524E+02  0.91137414370E+00  0.58205045880E+02  0.59865828296E+02  0.10566000000E+00 0. -1.
        994    1    1    2    0    0  0.15684825925E+01 -0.30277709752E+01  0.17938335210E+01  0.17124335133E+03  0.17120000000E+03 0.  0.
        998    1    1    2    0    0  0.12404643931E+02  0.21163968315E+01  0.14400011169E+04  0.14400908204E+04  0.10000000000E+02 0. -1.
</event>
<event>
 5    1  0.1556794E-008  0.3851992E+03  0.7957747E-01  0.3428828E+00
         13   -1    0    0    0    0  0.00000000000E+00  0.00000000000E+00  0.14999999963E+04  0.15000000000E+04  0.10566000000E+00 0.  1.
        994   -1    0    0    0    0 -0.00000000000E+00 -0.00000000000E+00  0.11368683772E-12  0.17120000000E+03  0.17120000000E+03 0.  0.
         13    1    1    2    0    0 -0.13785606385E+02  0.40752023307E+01  0.66140649373E+02  0.67684908812E+02  0.10566000000E+00 0.  1.
        994    1    1    2    0    0  0.13264394186E+02 -0.49120276633E+00  0.21105170418E+01  0.17172675888E+03  0.17120000000E+03 0.  0.
        998    1    1    2    0    0  0.52121219907E+00 -0.35839995644E+01  0.14317488299E+04  0.14317883323E+04  0.10000000000E+02 0.  1.
</event>
<event>
 5    1  0.1867175E-008  0.3856219E+03  0.7957747E-01  0.3427039E+00
         13   -1    0    0    0    0  0.00000000000E+00  0.00000000000E+00  0.14999999963E+04  0.15000000000E+04  0.10566000000E+00 0.  1.
        994   -1    0    0    0    0 -0.00000000000E+00 -0.00000000000E+00  0.11368683772E-12  0.17120000000E+03  0.17120000000E+03 0.  0.
         13    1    1    2    0    0 -0.88865122856E+01 -0.66133023716E+01  0.47378068762E+02  0.48655918782E+02  0.10566000000E+00 0.  1.
        994    1    1    2    0    0  0.54594960319E+01  0.10549489118E+01  0.14231802149E+01  0.17129618926E+03  0.17120000000E+03 0.  0.
        998    1    1    2    0    0  0.34270162538E+01  0.55583534598E+01  0.14511987473E+04  0.14512478920E+04  0.10000000000E+02 0.  1.
</event>
<event>
 5    1  0.1556794E-008  0.3689933E+03  0.7957747E-01  0.3500530E+00
         13   -1    0    0    0    0  0.00000000000E+00  0.00000000000E+00  0.14999999963E+04  0.15000000000E+04  0.10566000000E+00 0.  1.
        994   -1    0    0    0    0 -0.00000000000E+00 -0.00000000000E+00  0.11368683772E-12  0.17120000000E+03  0.17120000000E+03 0.  0.
         13    1    1    2    0    0 -0.10396928140E+03 -0.11808933239E+03  0.60710265871E+03  0.62715895216E+03  0.10566000000E+00 0.  1.
        994    1    1    2    0    0  0.11510305886E+03  0.12129954680E+03  0.11415324824E+03  0.26514656003E+03  0.17120000000E+03 0.  0.
        998    1    1    2    0    0 -0.11133777464E+02 -0.32102144089E+01  0.77874408933E+03  0.77889448781E+03  0.10000000000E+02 0.  1.
</event>
<event>
 5    1  0.1556794E-008  0.3810945E+03  0.7957747E-01  0.3446407E+00
         13   -1    0    0    0    0  0.00000000000E+00  0.00000000000E+00  0.14999999963E+04  0.15000000000E+04  0.10566000000E+00 0. -1.
        994   -1    0    0    0    0 -0.00000000000E+00 -0.00000000000E+00  0.11368683772E-12  0.17120000000E+03  0.17120000000E+03 0.  0.
         13    1    1    2    0    0  0.59722115288E+01 -0.10543509003E+02  0.19207043531E+02  0.22710230687E+02  0.10566000000E+00 0. -1.
        994    1    1    2    0    0  0.17939912022E+01  0.69545564299E+01  0.37535060628E+01  0.17139169486E+03  0.17120000000E+03 0.  0.
        998    1    1    2    0    0 -0.77662027309E+01  0.35889525729E+01  0.14770394467E+04  0.14770980745E+04  0.10000000000E+02 0. -1.
</event>
<event>
 5    1  0.1556794E-008  0.3833432E+03  0.7957747E-01  0.3436729E+00
         13   -1    0    0    0    0  0.00000000000E+00  0.00000000000E+00  0.14999999963E+04  0.15000000000E+04  0.10566000000E+00 0.  1.
        994   -1    0    0    0    0 -0.00000000000E+00 -0.00000000000E+00  0.11368683772E-12  0.17120000000E+03  0.17120000000E+03 0.  0.
         13    1    1    2    0    0  0.12672200480E+02 -0.90941702866E+01  0.50064075693E+02  0.52437690999E+02  0.10566000000E+00 0.  1.
        994    1    1    2    0    0  0.26774524881E+01  0.12643665497E+02  0.30074033411E+01  0.17171346920E+03  0.17120000000E+03 0.  0.
        998    1    1    2    0    0 -0.15349652968E+02 -0.35494952105E+01  0.14469285172E+04  0.14470488398E+04  0.10000000000E+02 0.  1.
</event>
<event>
 5    1  0.1556794E-008  0.3762009E+03  0.7957747E-01  0.3467869E+00
         13   -1    0    0    0    0  0.00000000000E+00  0.00000000000E+00  0.14999999963E+04  0.15000000000E+04  0.10566000000E+00 0. -1.
        994   -1    0    0    0    0 -0.00000000000E+00 -0.00000000000E+00  0.11368683772E-12  0.17120000000E+03  0.17120000000E+03 0.  0.
         13    1    1    2    0    0 -0.83774474997E+01  0.46107336653E+02  0.16294495462E+03  0.16954980837E+03  0.10566000000E+00 0. -1.
        994    1    1    2    0    0  0.82614824940E+01 -0.43694106206E+02  0.12787370833E+02  0.17734256078E+03  0.17120000000E+03 0.  0.
        998    1    1    2    0    0  0.11596500571E+00 -0.24132304467E+01  0.13242676708E+04  0.13243076308E+04  0.10000000000E+02 0.  0.
</event>
<event>
 5    1  0.1556794E-008  0.3688489E+03  0.7957747E-01  0.3501198E+00
         13   -1    0    0    0    0  0.00000000000E+00  0.00000000000E+00  0.14999999963E+04  0.15000000000E+04  0.10566000000E+00 0.  1.
        994   -1    0    0    0    0 -0.00000000000E+00 -0.00000000000E+00  0.11368683772E-12  0.17120000000E+03  0.17120000000E+03 0.  0.
         13    1    1    2    0    0 -0.90959450878E+01  0.16273550086E+02  0.12211893533E+02  0.22286905508E+02  0.10566000000E+00 0.  1.
        994    1    1    2    0    0  0.74232133134E+01 -0.14168895990E+02  0.11222818584E+02  0.17231150097E+03  0.17120000000E+03 0.  0.
        998    1    1    2    0    0  0.16727317745E+01 -0.21046540954E+01  0.14765652842E+04  0.14766015935E+04  0.10000000000E+02 0.  1.
</event>
<event>
 5    1  0.1556794E-008  0.3830156E+03  0.7957747E-01  0.3438132E+00
         13   -1    0    0    0    0  0.00000000000E+00  0.00000000000E+00  0.14999999963E+04  0.15000000000E+04  0.10566000000E+00 0. -1.
        994   -1    0    0    0    0 -0.00000000000E+00 -0.00000000000E+00  0.11368683772E-12  0.17120000000E+03  0.17120000000E+03 0.  0.
         13    1    1    2    0    0 -0.78511498411E+00  0.15448811043E+02  0.44349772551E+02  0.46970157095E+02  0.10566000000E+00 0. -1.
        994    1    1    2    0    0 -0.83894358841E+01 -0.13581251566E+02  0.34624963800E+01  0.17197750408E+03  0.17120000000E+03 0.  0.
        998    1    1    2    0    0  0.91745508683E+01 -0.18675594772E+01  0.14521877273E+04  0.14522523388E+04  0.10000000000E+02 0. -1.
</event>
<event>
 5    1  0.1556794E-008  0.3827068E+03  0.7957747E-01  0.3439457E+00
         13   -1    0    0    0    0  0.00000000000E+00  0.00000000000E+00  0.14999999963E+04  0.15000000000E+04  0.10566000000E+00 0.  1.
        994   -1    0    0    0    0 -0.00000000000E+00 -0.00000000000E+00  0.11368683772E-12  0.17120000000E+03  0.17120000000E+03 0.  0.
         13    1    1    2    0    0  0.15271385798E+01  0.10829996030E+02  0.20390951365E+02  0.23139209750E+02  0.10566000000E+00 0.  1.
        994    1    1    2    0    0  0.80402570777E-01 -0.98287781482E+01  0.30931540266E+01  0.17150982172E+03  0.17120000000E+03 0.  0.
        998    1    1    2    0    0 -0.16075411506E+01 -0.10012178818E+01  0.14765158909E+04  0.14765509685E+04  0.10000000000E+02 0.  1.
</event>
<event>
 5    1  0.1556794E-008  0.3835294E+03  0.7957747E-01  0.3435933E+00
         13   -1    0    0    0    0  0.00000000000E+00  0.00000000000E+00  0.14999999963E+04  0.15000000000E+04  0.10566000000E+00 0.  1.
        994   -1    0    0    0    0 -0.00000000000E+00 -0.00000000000E+00  0.11368683772E-12  0.17120000000E+03  0.17120000000E+03 0.  0.
         13    1    1    2    0    0 -0.20943870450E+02  0.76591969703E+01  0.10349189568E+03  0.10586733511E+03  0.10566000000E+00 0.  1.
        994    1    1    2    0    0  0.91540850913E+01 -0.21334954774E+02  0.41450774202E+01  0.17281666365E+03  0.17120000000E+03 0.  0.
        998    1    1    2    0    0  0.11789785359E+02  0.13675757804E+02  0.13923630232E+04  0.13925160012E+04  0.10000000000E+02 0.  1.
</event>
<event>
 5    1  0.1556794E-008  0.3850717E+03  0.7957747E-01  0.3429368E+00
         13   -1    0    0    0    0  0.00000000000E+00  0.00000000000E+00  0.14999999963E+04  0.15000000000E+04  0.10566000000E+00 0.  1.
        994   -1    0    0    0    0 -0.00000000000E+00 -0.00000000000E+00  0.11368683772E-12  0.17120000000E+03  0.17120000000E+03 0.  0.
         13    1    1    2    0    0  0.90536452883E+01 -0.53148610892E+01  0.34866729678E+02  0.36413132849E+02  0.10566000000E+00 0.  1.
        994    1    1    2    0    0 -0.32041827612E+01  0.31293860606E+01  0.16605117917E+01  0.17126662589E+03  0.17120000000E+03 0.  0.
        998    1    1    2    0    0 -0.58494625271E+01  0.21854750285E+01  0.14634727548E+04  0.14635202413E+04  0.10000000000E+02 0.  1.
</event>
<event>
 5    1  0.1556794E-008  0.3834218E+03  0.7957747E-01  0.3436393E+00
         13   -1    0    0    0    0  0.00000000000E+00  0.00000000000E+00  0.14999999963E+04  0.15000000000E+04  0.10566000000E+00 0. -1.
        994   -1    0    0    0    0 -0.00000000000E+00 -0.00000000000E+00  0.11368683772E-12  0.17120000000E+03  0.17120000000E+03 0.  0.
         13    1    1    2    0    0  0.11322672518E+02 -0.62175795952E+01  0.34182008702E+02  0.36541511900E+02  0.10566000000E+00 0. -1.
        994    1    1    2    0    0 -0.58966197950E+01  0.15237373127E+01  0.25383569105E+01  0.17132709989E+03  0.17120000000E+03 0.  0.
        998    1    1    2    0    0 -0.54260527231E+01  0.46938422824E+01  0.14632796307E+04  0.14633313882E+04  0.10000000000E+02 0. -1.
</event>
<event>
 5    1  0.1556794E-008  0.3788888E+03  0.7957747E-01  0.3456011E+00
         13   -1    0    0    0    0  0.00000000000E+00  0.00000000000E+00  0.14999999963E+04  0.15000000000E+04  0.10566000000E+00 0.  1.
        994   -1    0    0    0    0 -0.00000000000E+00 -0.00000000000E+00  0.11368683772E-12  0.17120000000E+03  0.17120000000E+03 0.  0.
         13    1    1    2    0    0  0.85151504344E+01 -0.10387489199E+02  0.17163178859E+02  0.21794347693E+02  0.10566000000E+00 0.  1.
        994    1    1    2    0    0 -0.83780896022E+01  0.66015153172E+01  0.50769290059E+01  0.17160707327E+03  0.17120000000E+03 0.  0.
        998    1    1    2    0    0 -0.13706083226E+00  0.37859738821E+01  0.14777598884E+04  0.14777985790E+04  0.10000000000E+02 0.  1.
</event>
<event>
 5    1  0.1556794E-008  0.3853696E+03  0.7957747E-01  0.3428106E+00
         13   -1    0    0    0    0  0.00000000000E+00  0.00000000000E+00  0.14999999963E+04  0.15000000000E+04  0.10566000000E+00 0.  1.
        994   -1    0    0    0    0 -0.00000000000E+00 -0.00000000000E+00  0.11368683772E-12  0.17120000000E+03  0.17120000000E+03 0.  0.
         13    1    1    2    0    0  0.10161517712E+02  0.79313620652E+01  0.58781820819E+02  0.60178705281E+02  0.10566000000E+00 0.  1.
        994    1    1    2    0    0 -0.18804158181E+01 -0.65191149993E+01  0.15979676095E+01  0.17134184639E+03  0.17120000000E+03 0.  0.
        998    1    1    2    0    0 -0.82811018934E+01 -0.14122470658E+01  0.14396202078E+04  0.14396794483E+04  0.10000000000E+02 0.  1.
</event>
<event>
 5    1  0.1556794E-008  0.3835770E+03  0.7957747E-01  0.3435730E+00
         13   -1    0    0    0    0  0.00000000000E+00  0.00000000000E+00  0.14999999963E+04  0.15000000000E+04  0.10566000000E+00 0.  1.
        994   -1    0    0    0    0 -0.00000000000E+00 -0.00000000000E+00  0.11368683772E-12  0.17120000000E+03  0.17120000000E+03 0.  0.
         13    1    1    2    0    0 -0.13899897111E+02  0.14303865186E+02  0.82760993467E+02  0.85130493377E+02  0.10566000000E+00 0.  1.
        994    1    1    2    0    0  0.10930319401E+02 -0.11825125655E+02  0.31954842124E+01  0.17198533832E+03  0.17120000000E+03 0.  0.
        998    1    1    2    0    0  0.29695777101E+01 -0.24787395317E+01  0.14140435186E+04  0.14140841683E+04  0.10000000000E+02 0.  1.
</event>
<event>
 5    1  0.1556794E-008  0.2810712E+03  0.7957747E-01  0.4041165E+00
         13   -1    0    0    0    0  0.00000000000E+00  0.00000000000E+00  0.14999999963E+04  0.15000000000E+04  0.10566000000E+00 0.  1.
        994   -1    0    0    0    0 -0.00000000000E+00 -0.00000000000E+00  0.11368683772E-12  0.17120000000E+03  0.17120000000E+03 0.  0.
         13    1    1    2    0    0 -0.14221770651E+03  0.28198874568E+01  0.68040216679E+03  0.69511218343E+03  0.10566000000E+00 0.  1.
        994    1    1    2    0    0  0.50970801324E+02  0.26606976994E+02  0.32977828211E+02  0.18358358033E+03  0.17120000000E+03 0.  0.
        998    1    1    2    0    0  0.91246905190E+02 -0.29426864451E+02  0.78662000128E+03  0.79250423625E+03  0.10000000000E+02 0.  1.
</event>
<event>
 5    1  0.1556794E-008  0.3827224E+03  0.7957747E-01  0.3439390E+00
         13   -1    0    0    0    0  0.00000000000E+00  0.00000000000E+00  0.14999999963E+04  0.15000000000E+04  0.10566000000E+00 0. -1.
        994   -1    0    0    0    0 -0.00000000000E+00 -0.00000000000E+00  0.11368683772E-12  0.17120000000E+03  0.17120000000E+03 0.  0.
         13    1    1    2    0    0  0.13657806443E+02 -0.13509368216E+02  0.70732371805E+02  0.73294735771E+02  0.10566000000E+00 0. -1.
        994    1    1    2    0    0 -0.45231573197E+01 -0.62002493209E+01  0.29603404393E+01  0.17139750774E+03  0.17120000000E+03 0.  0.
        998    1    1    2    0    0 -0.91346491230E+01  0.19709617536E+02  0.14263072840E+04  0.14265077565E+04  0.10000000000E+02 0. -1.
</event>
<event>
 5    1  0.1556794E-008  0.3776658E+03  0.7957747E-01  0.3461385E+00
         13   -1    0    0    0    0  0.00000000000E+00  0.00000000000E+00  0.14999999963E+04  0.15000000000E+04  0.10566000000E+00 0.  1.
        994   -1    0    0    0    0 -0.00000000000E+00 -0.00000000000E+00  0.11368683772E-12  0.17120000000E+03  0.17120000000E+03 0.  0.
         13    1    1    2    0    0  0.13904502726E+02  0.32489531516E+01  0.16762412732E+02  0.22020003117E+02  0.10566000000E+00 0.  1.
        994    1    1    2    0    0 -0.11709312288E+02 -0.70036012949E+01  0.59434720666E+01  0.17184563796E+03  0.17120000000E+03 0.  0.
        998    1    1    2    0    0 -0.21951904381E+01  0.37546481433E+01  0.14772941115E+04  0.14773343589E+04  0.10000000000E+02 0.  1.
</event>
<event>
 5    1  0.1556794E-008  0.3850859E+03  0.7957747E-01  0.3429308E+00
         13   -1    0    0    0    0  0.00000000000E+00  0.00000000000E+00  0.14999999963E+04  0.15000000000E+04  0.10566000000E+00 0. -1.
        994   -1    0    0    0    0 -0.00000000000E+00 -0.00000000000E+00  0.11368683772E-12  0.17120000000E+03  0.17120000000E+03 0.  0.
         13    1    1    2    0    0 -0.15139405583E+02 -0.45901095329E+01  0.89141042333E+02  0.90534011836E+02  0.10566000000E+00 0. -1.
        994    1    1    2    0    0 -0.74260247729E+01  0.56758783278E+01  0.18747550078E+01  0.17146520389E+03  0.17120000000E+03 0.  0.
        998    1    1    2    0    0  0.22565430355E+02 -0.10857687949E+01  0.14089841989E+04  0.14092007843E+04  0.10000000000E+02 0. -1.
</event>
<event>
 5    1  0.1556794E-008  0.3740708E+03  0.7957747E-01  0.3477389E+00
         13   -1    0    0    0    0  0.00000000000E+00  0.00000000000E+00  0.14999999963E+04  0.15000000000E+04  0.10566000000E+00 0. -1.
        994   -1    0    0    0    0 -0.00000000000E+00 -0.00000000000E+00  0.11368683772E-12  0.17120000000E+03  0.17120000000E+03 0.  0.
         13    1    1    2    0    0 -0.21102513659E+02 -0.10218304127E+02  0.36622304354E+02  0.43484872797E+02  0.10566000000E+00 0. -1.
        994    1    1    2    0    0  0.71708265300E+01 -0.36763328740E+01  0.73781283622E+01  0.17154828170E+03  0.17120000000E+03 0.  0.
        998    1    1    2    0    0  0.13931687129E+02  0.13894637001E+02  0.14559995636E+04  0.14561668455E+04  0.10000000000E+02 0. -1.
</event>
<event>
 5    1  0.1556794E-008  0.3758597E+03  0.7957747E-01  0.3469387E+00
         13   -1    0    0    0    0  0.00000000000E+00  0.00000000000E+00  0.14999999963E+04  0.15000000000E+04  0.10566000000E+00 0. -1.
        994   -1    0    0    0    0 -0.00000000000E+00 -0.00000000000E+00  0.11368683772E-12  0.17120000000E+03  0.17120000000E+03 0.  0.
         13    1    1    2    0    0 -0.65678687474E+02  0.40360484245E+02  0.27274704850E+03  0.28343186537E+03  0.10566000000E+00 0. -1.
        994    1    1    2    0    0  0.95274058285E+02 -0.83106561302E+02  0.62496076448E+02  0.22180858028E+03  0.17120000000E+03 0.  0.
        998    1    1    2    0    0 -0.29595370811E+02  0.42746077057E+02  0.11647568713E+04  0.11659595543E+04  0.10000000000E+02 0. -1.
</event>
<event>
 5    1  0.1556794E-008  0.3852896E+03  0.7957747E-01  0.3428445E+00
         13   -1    0    0    0    0  0.00000000000E+00  0.00000000000E+00  0.14999999963E+04  0.15000000000E+04  0.10566000000E+00 0.  1.
        994   -1    0    0    0    0 -0.00000000000E+00 -0.00000000000E+00  0.11368683772E-12  0.17120000000E+03  0.17120000000E+03 0.  0.
         13    1    1    2    0    0 -0.10824135366E+02 -0.17600365960E+01  0.42468431333E+02  0.43861582953E+02  0.10566000000E+00 0.  1.
        994    1    1    2    0    0 -0.22450117154E+01  0.47011487503E+01  0.15756087025E+01  0.17128649515E+03  0.17120000000E+03 0.  0.
        998    1    1    2    0    0  0.13069147082E+02 -0.29411121543E+01  0.14559559562E+04  0.14560519219E+04  0.10000000000E+02 0.  1.
</event>
<event>
 5    1  0.1556794E-008  0.3714402E+03  0.7957747E-01  0.3489298E+00
         13   -1    0    0    0    0  0.00000000000E+00  0.00000000000E+00  0.14999999963E+04  0.15000000000E+04  0.10566000000E+00 0. -1.
        994   -1    0    0    0    0 -0.00000000000E+00 -0.00000000000E+00  0.11368683772E-12  0.17120000000E+03  0.17120000000E+03 0.  0.
         13    1    1    2    0    0 -0.76367445590E+01 -0.74939714433E+01  0.26983758837E+01  0.11035029311E+02  0.10566000000E+00 0. -1.
        994    1    1    2    0    0  0.10908892578E+02  0.85565350631E+01  0.91798285062E+01  0.17200560305E+03  0.17120000000E+03 0.  0.
        998    1    1    2    0    0 -0.32721480185E+01 -0.10625636198E+01  0.14881217919E+04  0.14881593676E+04  0.10000000000E+02 0. -1.
</event>
<event>
 5    1  0.1556794E-008  0.4162786E+03  0.7957747E-01  0.3306963E+00
         13   -1    0    0    0    0  0.00000000000E+00  0.00000000000E+00  0.14999999963E+04  0.15000000000E+04  0.10566000000E+00 0.  1.
        994   -1    0    0    0    0 -0.00000000000E+00 -0.00000000000E+00  0.11368683772E-12  0.17120000000E+03  0.17120000000E+03 0.  0.
         13    1    1    2    0    0 -0.55666709597E+02  0.29449166941E+02  0.40673265762E+02  0.74969071641E+02  0.10566000000E+00 0.  1.
        994    1    1    2    0    0  0.29367477815E+02 -0.32322694224E+02  0.45934576835E+02  0.18255582890E+03  0.17120000000E+03 0.  0.
        998    1    1    2    0    0  0.26299231782E+02  0.28735272829E+01  0.14133921537E+04  0.14136750995E+04  0.10000000000E+02 0.  1.
</event>
<event>
 5    1  0.1556794E-008  0.3840178E+03  0.7957747E-01  0.3433849E+00
         13   -1    0    0    0    0  0.00000000000E+00  0.00000000000E+00  0.14999999963E+04  0.15000000000E+04  0.10566000000E+00 0. -1.
        994   -1    0    0    0    0 -0.00000000000E+00 -0.00000000000E+00  0.11368683772E-12  0.17120000000E+03  0.17120000000E+03 0.  0.
         13    1    1    2    0    0  0.21801002783E+02  0.13155874483E+02  0.14715125114E+03  0.14933808166E+03  0.10566000000E+00 0. -1.
        994    1    1    2    0    0 -0.20315507972E+02 -0.45571170388E+01  0.35500104465E+01  0.17249791232E+03  0.17120000000E+03 0.  0.
        998    1    1    2    0    0 -0.14854948109E+01 -0.85987574444E+01  0.13492987347E+04  0.13493640060E+04  0.10000000000E+02 0. -1.
</event>
<event>
 5    1  0.1556794E-008  0.3809494E+03  0.7957747E-01  0.3447035E+00
         13   -1    0    0    0    0  0.00000000000E+00  0.00000000000E+00  0.14999999963E+04  0.15000000000E+04  0.10566000000E+00 0. -1.
        994   -1    0    0    0    0 -0.00000000000E+00 -0.00000000000E+00  0.11368683772E-12  0.17120000000E+03  0.17120000000E+03 0.  0.
         13    1    1    2    0    0  0.28772757889E+01 -0.40910379197E+02  0.15158260177E+03  0.15703258950E+03  0.10566000000E+00 0. -1.
        994    1    1    2    0    0 -0.36489323137E+01  0.88730184350E+02  0.30398412647E+02  0.19524308903E+03  0.17120000000E+03 0.  0.
        998    1    1    2    0    0  0.77165652483E+00 -0.47819805154E+02  0.13180189819E+04  0.13189243215E+04  0.10000000000E+02 0. -1.
</event>
<event>
 5    1  0.1556794E-008  0.2118622E+03  0.7957747E-01  0.4834324E+00
         13   -1    0    0    0    0  0.00000000000E+00  0.00000000000E+00  0.14999999963E+04  0.15000000000E+04  0.10566000000E+00 0.  1.
        994   -1    0    0    0    0 -0.00000000000E+00 -0.00000000000E+00  0.11368683772E-12  0.17120000000E+03  0.17120000000E+03 0.  0.
         13    1    1    2    0    0  0.57258159569E+02 -0.47714539109E+02  0.10841735050E+02  0.75317517634E+02  0.10566000000E+00 0.  1.
        994    1    1    2    0    0 -0.58112131237E+02  0.37074152963E+02  0.10636693246E+03  0.21301379518E+03  0.17120000000E+03 0.  0.
        998    1    1    2    0    0  0.85397166782E+00  0.10640386147E+02  0.13827913288E+04  0.13828686872E+04  0.10000000000E+02 0.  1.
</event>
<event>
 5    1  0.1556794E-008  0.3700006E+03  0.7957747E-01  0.3495888E+00
         13   -1    0    0    0    0  0.00000000000E+00  0.00000000000E+00  0.14999999963E+04  0.15000000000E+04  0.10566000000E+00 0.  1.
        994   -1    0    0    0    0 -0.00000000000E+00 -0.00000000000E+00  0.11368683772E-12  0.17120000000E+03  0.17120000000E+03 0.  0.
         13    1    1    2    0    0  0.13765822300E+02  0.11843824482E+02  0.13526855880E+02  0.22644227432E+02  0.10566000000E+00 0.  1.
        994    1    1    2    0    0 -0.14603862898E+02 -0.12808510547E+02  0.10574480436E+02  0.17262268214E+03  0.17120000000E+03 0.  0.
        998    1    1    2    0    0  0.83804059734E+00  0.96468606507E+00  0.14758986600E+04  0.14759330904E+04  0.10000000000E+02 0.  1.
</event>
<event>
 5    1  0.2085437E-008  0.3857601E+03  0.7957747E-01  0.3426455E+00
         13   -1    0    0    0    0  0.00000000000E+00  0.00000000000E+00  0.14999999963E+04  0.15000000000E+04  0.10566000000E+00 0.  1.
        994   -1    0    0    0    0 -0.00000000000E+00 -0.00000000000E+00  0.11368683772E-12  0.17120000000E+03  0.17120000000E+03 0.  0.
         13    1    1    2    0    0 -0.12681199306E+02 -0.21317221360E+01  0.70724850192E+02  0.71884439580E+02  0.10566000000E+00 0.  1.
        994    1    1    2    0    0 -0.49693554117E+00  0.58639786955E+01  0.13668580597E+01  0.17130657165E+03  0.17120000000E+03 0.  0.
        998    1    1    2    0    0  0.13178134848E+02 -0.37322565595E+01  0.14279082880E+04  0.14280089888E+04  0.10000000000E+02 0.  1.
</event>
<event>
 5    1  0.1556794E-008  0.3715244E+03  0.7957747E-01  0.3488914E+00
         13   -1    0    0    0    0  0.00000000000E+00  0.00000000000E+00  0.14999999963E+04  0.15000000000E+04  0.10566000000E+00 0. -1.
        994   -1    0    0    0    0 -0.00000000000E+00 -0.00000000000E+00  0.11368683772E-12  0.17120000000E+03  0.17120000000E+03 0.  0.
         13    1    1    2    0    0 -0.11804460093E+02 -0.52244850126E+02  0.19826560678E+03  0.20537315219E+03  0.10566000000E+00 0. -1.
        994    1    1    2    0    0  0.17805535249E+02 -0.39651807264E+01  0.96198223484E+01  0.17243764301E+03  0.17120000000E+03 0.  0.
        998    1    1    2    0    0 -0.60010751561E+01  0.56210030852E+02  0.12921145671E+04  0.12933892048E+04  0.10000000000E+02 0. -1.
</event>
<event>
 5    1  0.1556794E-008  0.3688630E+03  0.7957747E-01  0.3501133E+00
         13   -1    0    0    0    0  0.00000000000E+00  0.00000000000E+00  0.14999999963E+04  0.15000000000E+04  0.10566000000E+00 0. -1.
        994   -1    0    0    0    0 -0.00000000000E+00 -0.00000000000E+00  0.11368683772E-12  0.17120000000E+03  0.17120000000E+03 0.  0.
         13    1    1    2    0    0  0.54147120779E+02  0.41733415832E+02  0.24068674855E+03  0.25020733558E+03  0.10566000000E+00 0. -1.
        994    1    1    2    0    0 -0.35611683473E+02 -0.11058343548E+02  0.14706718096E+02  0.17583005010E+03  0.17120000000E+03 0.  0.
        998    1    1    2    0    0 -0.18535437305E+02 -0.30675072283E+02  0.12446065296E+04  0.12451626143E+04  0.10000000000E+02 0. -1.
</event>
<event>
 5    1  0.1556794E-008  0.3834832E+03  0.7957747E-01  0.3436131E+00
         13   -1    0    0    0    0  0.00000000000E+00  0.00000000000E+00  0.14999999963E+04  0.15000000000E+04  0.10566000000E+00 0. -1.
        994   -1    0    0    0    0 -0.00000000000E+00 -0.00000000000E+00  0.11368683772E-12  0.17120000000E+03  0.17120000000E+03 0.  0.
         13    1    1    2    0    0 -0.13308936642E+02  0.32225711622E+01  0.40657093867E+02  0.42901319387E+02  0.10566000000E+00 0. -1.
        994    1    1    2    0    0 -0.54669944020E+01 -0.11353150533E+02  0.29100329717E+01  0.17168776994E+03  0.17120000000E+03 0.  0.
        998    1    1    2    0    0  0.18775931044E+02  0.81305793707E+01  0.14564328694E+04  0.14566109107E+04  0.10000000000E+02 0. -1.
</event>
<event>
 5    1  0.1556794E-008  0.3718488E+03  0.7957747E-01  0.3487437E+00
         13   -1    0    0    0    0  0.00000000000E+00  0.00000000000E+00  0.14999999963E+04  0.15000000000E+04  0.10566000000E+00 0. -1.
        994   -1    0    0    0    0 -0.00000000000E+00 -0.00000000000E+00  0.11368683772E-12  0.17120000000E+03  0.17120000000E+03 0.  0.
         13    1    1    2    0    0  0.69637196399E+02  0.62594088154E+02  0.41703442079E+03  0.42741675012E+03  0.10566000000E+00 0. -1.
        994    1    1    2    0    0 -0.56541304472E+02 -0.59554752426E+02  0.31844259420E+02  0.19252839922E+03  0.17120000000E+03 0.  0.
        998    1    1    2    0    0 -0.13095891927E+02 -0.30393357283E+01  0.10511213161E+04  0.10512548507E+04  0.10000000000E+02 0. -1.
</event>
<event>
 5    1  0.1556794E-008  0.3752170E+03  0.7957747E-01  0.3472253E+00
         13   -1    0    0    0    0  0.00000000000E+00  0.00000000000E+00  0.14999999963E+04  0.15000000000E+04  0.10566000000E+00 0. -1.
        994   -1    0    0    0    0 -0.00000000000E+00 -0.00000000000E+00  0.11368683772E-12  0.17120000000E+03  0.17120000000E+03 0.  0.
         13    1    1    2    0    0 -0.41060046236E+02  0.10593513860E+03  0.59398385380E+03  0.60475202417E+03  0.10566000000E+00 0. -1.
        994    1    1    2    0    0  0.48314446122E+02 -0.10023512764E+03  0.49858831174E+02  0.21018256246E+03  0.17120000000E+03 0.  0.
        998    1    1    2    0    0 -0.72543998864E+01 -0.57000109582E+01  0.85615731130E+03  0.85626541337E+03  0.10000000000E+02 0. -1.
</event>
<event>
 5    1  0.1556794E-008  0.3794612E+03  0.7957747E-01  0.3453508E+00
         13   -1    0    0    0    0  0.00000000000E+00  0.00000000000E+00  0.14999999963E+04  0.15000000000E+04  0.10566000000E+00 0.  1.
        994   -1    0    0    0    0 -0.00000000000E+00 -0.00000000000E+00  0.11368683772E-12  0.17120000000E+03  0.17120000000E+03 0.  0.
         13    1    1    2    0    0 -0.90052958335E+01 -0.29036866416E+02  0.23025030912E+02  0.38136572694E+02  0.10566000000E+00 0.  1.
        994    1    1    2    0    0 -0.41063149652E+01  0.10122437378E+02  0.16463413891E+02  0.17233632687E+03  0.17120000000E+03 0.  0.
        998    1    1    2    0    0  0.13111610799E+02  0.18914429038E+02  0.14605115515E+04  0.14607271004E+04  0.10000000000E+02 0.  1.
</event>
<event>
 5    1  0.1556794E-008  0.3814487E+03  0.7957747E-01  0.3444875E+00
         13   -1    0    0    0    0  0.00000000000E+00  0.00000000000E+00  0.14999999963E+04  0.15000000000E+04  0.10566000000E+00 0.  1.
        994   -1    0    0    0    0 -0.00000000000E+00 -0.00000000000E+00  0.11368683772E-12  0.17120000000E+03  0.17120000000E+03 0.  0.
         13    1    1    2    0    0 -0.12883919203E+02 -0.20823200901E+01  0.24436728459E+02  0.27703723446E+02  0.10566000000E+00 0.  1.
        994    1    1    2    0    0 -0.28572518641E+01  0.98360222241E+01  0.37527349375E+01  0.17154717789E+03  0.17120000000E+03 0.  0.
        998    1    1    2    0    0  0.15741171067E+02 -0.77537021340E+01  0.14718105329E+04  0.14719490987E+04  0.10000000000E+02 0.  1.
</event>
<event>
 5    1  0.1556794E-008  0.3719903E+03  0.7957747E-01  0.3486793E+00
         13   -1    0    0    0    0  0.00000000000E+00  0.00000000000E+00  0.14999999963E+04  0.15000000000E+04  0.10566000000E+00 0. -1.
        994   -1    0    0    0    0 -0.00000000000E+00 -0.00000000000E+00  0.11368683772E-12  0.17120000000E+03  0.17120000000E+03 0.  0.
         13    1    1    2    0    0 -0.49113104910E+02  0.60586727135E+02  0.34207105860E+03  0.35084963855E+03  0.10566000000E+00 0. -1.
        994    1    1    2    0    0  0.59988878457E+02 -0.22918919098E+02  0.22530104873E+02  0.18423080094E+03  0.17120000000E+03 0.  0.
        998    1    1    2    0    0 -0.10875773547E+02 -0.37667808037E+02  0.11353988328E+04  0.11361195605E+04  0.10000000000E+02 0. -1.
</event>
<event>
 5    1  0.1556794E-008  0.3798490E+03  0.7957747E-01  0.3451816E+00
         13   -1    0    0    0    0  0.00000000000E+00  0.00000000000E+00  0.14999999963E+04  0.15000000000E+04  0.10566000000E+00 0. -1.
        994   -1    0    0    0    0 -0.00000000000E+00 -0.00000000000E+00  0.11368683772E-12  0.17120000000E+03  0.17120000000E+03 0.  0.
         13    1    1    2    0    0  0.21328488156E+02  0.11080219725E+02  0.71008581872E+02  0.74966029238E+02  0.10566000000E+00 0. -1.
        994    1    1    2    0    0 -0.13199158109E+01 -0.23033827217E+01  0.42329496630E+01  0.17127289807E+03  0.17120000000E+03 0.  0.
        998    1    1    2    0    0 -0.20008572346E+02 -0.87768370037E+01  0.14247584647E+04  0.14249610727E+04  0.10000000000E+02 0. -1.
</event>
<event>
 5    1  0.1556794E-008  0.3812397E+03  0.7957747E-01  0.3445778E+00
         13   -1    0    0    0    0  0.00000000000E+00  0.00000000000E+00  0.14999999963E+04  0.15000000000E+04  0.10566000000E+00 0. -1.
        994   -1    0    0    0    0 -0.00000000000E+00 -0.00000000000E+00  0.11368683772E-12  0.17120000000E+03  0.17120000000E+03 0.  0.
         13    1    1    2    0    0 -0.10795522165E+02 -0.32809013674E+02  0.15076580155E+03  0.15467162881E+03  0.10566000000E+00 0. -1.
        994    1    1    2    0    0  0.84782579117E+01  0.36371828670E+02  0.81662558307E+01  0.17541641460E+03  0.17120000000E+03 0.  0.
        998    1    1    2    0    0  0.23172642535E+01 -0.35628149964E+01  0.13410679389E+04  0.13411119566E+04  0.10000000000E+02 0. -1.
</event>
<event>
 5    1  0.1556794E-008  0.3824730E+03  0.7957747E-01  0.3440461E+00
         13   -1    0    0    0    0  0.00000000000E+00  0.00000000000E+00  0.14999999963E+04  0.15000000000E+04  0.10566000000E+00 0.  1.
        994   -1    0    0    0    0 -0.00000000000E+00 -0.00000000000E+00  0.11368683772E-12  0.17120000000E+03  0.17120000000E+03 0.  0.
         13    1    1    2    0    0 -0.21063179990E+02  0.53445406728E+00  0.79914817837E+02  0.82645825462E+02  0.10566000000E+00 0.  1.
        994    1    1    2    0    0  0.39295391199E+01  0.21130725602E+01  0.29559650832E+01  0.17128363635E+03  0.17120000000E+03 0.  0.
        998    1    1    2    0    0  0.17133640870E+02 -0.26475266275E+01  0.14171292134E+04  0.14172705382E+04  0.10000000000E+02 0.  1.
</event>
<event>
 5    1  0.1556794E-008  0.3703271E+03  0.7957747E-01  0.3494389E+00
         13   -1    0    0    0    0  0.00000000000E+00  0.00000000000E+00  0.14999999963E+04  0.15000000000E+04  0.10566000000E+00 0.  1.
        994   -1    0    0    0    0 -0.00000000000E+00 -0.00000000000E+00  0.11368683772E-12  0.17120000000E+03  0.17120000000E+03 0.  0.
         13    1    1    2    0    0  0.25046107919E+02 -0.29340860035E+02  0.60385964314E+02  0.71656607788E+02  0.10566000000E+00 0.  1.
        994    1    1    2    0    0 -0.18763715925E+02  0.35549148999E+02  0.16788548801E+02  0.17665535486E+03  0.17120000000E+03 0.  0.
        998    1    1    2    0    0 -0.62823919941E+01 -0.62082889638E+01  0.14228254832E+04  0.14228880374E+04  0.10000000000E+02 0.  1.
</event>
<event>
 5    1  0.1556794E-008  0.3819070E+03  0.7957747E-01  0.3442897E+00
         13   -1    0    0    0    0  0.00000000000E+00  0.00000000000E+00  0.14999999963E+04  0.15000000000E+04  0.10566000000E+00 0.  1.
        994   -1    0    0    0    0 -0.00000000000E+00 -0.00000000000E+00  0.11368683772E-12  0.17120000000E+03  0.17120000000E+03 0.  0.
         13    1    1    2    0    0  0.58266145542E+01 -0.20193142345E+02  0.69028962085E+02  0.72157613635E+02  0.10566000000E+00 0.  1.
        994    1    1    2    0    0 -0.10819762045E+02  0.93345563730E+01  0.38522579657E+01  0.17183853201E+03  0.17120000000E+03 0.  0.
        998    1    1    2    0    0  0.49931474910E+01  0.10858585972E+02  0.14271187762E+04  0.14272038544E+04  0.10000000000E+02 0.  1.
</event>
<event>
 5    1  0.1556794E-008  0.3812316E+03  0.7957747E-01  0.3445813E+00
         13   -1    0    0    0    0  0.00000000000E+00  0.00000000000E+00  0.14999999963E+04  0.15000000000E+04  0.10566000000E+00 0. -1.
        994   -1    0    0    0    0 -0.00000000000E+00 -0.00000000000E+00  0.11368683772E-12  0.17120000000E+03  0.17120000000E+03 0.  0.
         13    1    1    2    0    0  0.12401541889E+02 -0.14947492507E+02  0.54455657750E+02  0.57815703736E+02  0.10566000000E+00 0. -1.
        994    1    1    2    0    0 -0.13494906838E+02 -0.63596252153E+01  0.42540390238E+01  0.17190140835E+03  0.17120000000E+03 0.  0.
        998    1    1    2    0    0  0.10933649482E+01  0.21307117722E+02  0.14412902995E+04  0.14414828879E+04  0.10000000000E+02 0. -1.
</event>
<event>
 5    1  0.1556794E-008  0.3846325E+03  0.7957747E-01  0.3431232E+00
         13   -1    0    0    0    0  0.00000000000E+00  0.00000000000E+00  0.14999999963E+04  0.15000000000E+04  0.10566000000E+00 0. -1.
        994   -1    0    0    0    0 -0.00000000000E+00 -0.00000000000E+00  0.11368683772E-12  0.17120000000E+03  0.17120000000E+03 0.  0.
         13    1    1    2    0    0 -0.36514734947E+02  0.19808456062E+02  0.41517749674E+02  0.58731895098E+02  0.10566000000E+00 0. -1.
        994    1    1    2    0    0  0.66751007335E+01  0.13364387864E+02  0.19718690495E+02  0.17297812170E+03  0.17120000000E+03 0.  0.
        998    1    1    2    0    0  0.29839634213E+02 -0.33172843926E+02  0.14387635561E+04  0.14394899832E+04  0.10000000000E+02 0. -1.
</event>
<event>
 5    1  0.1556794E-008  0.3803740E+03  0.7957747E-01  0.3449532E+00
         13   -1    0    0    0    0  0.00000000000E+00  0.00000000000E+00  0.14999999963E+04  0.15000000000E+04  0.10566000000E+00 0.  1.
        994   -1    0    0    0    0 -0.00000000000E+00 -0.00000000000E+00  0.11368683772E-12  0.17120000000E+03  0.17120000000E+03 0.  0.
         13    1    1    2    0    0 -0.12105435728E+02 -0.15478429028E+02  0.45885354012E+02  0.49915931487E+02  0.10566000000E+00 0.  1.
        994    1    1    2    0    0  0.11702953683E+02  0.18988096509E+02  0.56073191997E+01  0.17273791987E+03  0.17120000000E+03 0.  0.
        998    1    1    2    0    0  0.40248204530E+00 -0.35096674805E+01  0.14485073231E+04  0.14485461486E+04  0.10000000000E+02 0.  1.
</event>
<event>
 5    1  0.1556794E-008  0.3736265E+03  0.7957747E-01  0.3479389E+00
         13   -1    0    0    0    0  0.00000000000E+00  0.00000000000E+00  0.14999999963E+04  0.15000000000E+04  0.10566000000E+00 0. -1.
        994   -1    0    0    0    0 -0.00000000000E+00 -0.00000000000E+00  0.11368683772E-12  0.17120000000E+03  0.17120000000E+03 0.  0.
         13    1    1    2    0    0  0.33002235881E+02  0.11794083872E+03  0.57992082723E+03  0.59271187438E+03  0.10566000000E+00 0. -1.
        994    1    1    2    0    0 -0.23270742670E+02 -0.12301373283E+03  0.62960012813E+02  0.22124038768E+03  0.17120000000E+03 0.  0.
        998    1    1    2    0    0 -0.97314932106E+01  0.50728941045E+01  0.85711915623E+03  0.85724773794E+03  0.10000000000E+02 0. -1.
</event>
<event>
 5    1  0.1556794E-008  0.3836187E+03  0.7957747E-01  0.3435551E+00
         13   -1    0    0    0    0  0.00000000000E+00  0.00000000000E+00  0.14999999963E+04  0.15000000000E+04  0.10566000000E+00 0.  1.
        994   -1    0    0    0    0 -0.00000000000E+00 -0.00000000000E+00  0.11368683772E-12  0.17120000000E+03  0.17120000000E+03 0.  0.
         13    1    1    2    0    0  0.16547581197E+02 -0.52096016853E+01  0.61765658405E+02  0.64155826824E+02  0.10566000000E+00 0.  1.
        994    1    1    2    0    0 -0.21292791330E+02 -0.35532073411E+01  0.38584075045E+01  0.17259877043E+03  0.17120000000E+03 0.  0.
        998    1    1    2    0    0  0.47452101323E+01  0.87628090264E+01  0.14343759304E+04  0.14344454027E+04  0.10000000000E+02 0.  1.
</event>
<event>
 5    1  0.1556794E-008  0.3818174E+03  0.7957747E-01  0.3443283E+00
         13   -1    0    0    0    0  0.00000000000E+00  0.00000000000E+00  0.14999999963E+04  0.15000000000E+04  0.10566000000E+00 0. -1.
        994   -1    0    0    0    0 -0.00000000000E+00 -0.00000000000E+00  0.11368683772E-12  0.17120000000E+03  0.17120000000E+03 0.  0.
         13    1    1    2    0    0  0.46038798263E+01  0.16558105255E+02  0.44424981780E+02  0.47633567253E+02  0.10566000000E+00 0. -1.
        994    1    1    2    0    0 -0.69994210977E+01 -0.11836848408E+02  0.38471568155E+01  0.17179448039E+03  0.17120000000E+03 0.  0.
        998    1    1    2    0    0  0.23955412714E+01 -0.47212568466E+01  0.14517278577E+04  0.14517719524E+04  0.10000000000E+02 0. -1.
</event>
<event>
 5    1  0.1556794E-008  0.3721781E+03  0.7957747E-01  0.3485940E+00
         13   -1    0    0    0    0  0.00000000000E+00  0.00000000000E+00  0.14999999963E+04  0.15000000000E+04  0.10566000000E+00 0.  1.
        994   -1    0    0    0    0 -0.00000000000E+00 -0.00000000000E+00  0.11368683772E-12  0.17120000000E+03  0.17120000000E+03 0.  0.
         13    1    1    2    0    0 -0.31082925696E+02  0.64497770644E+02  0.38835903713E+03  0.39490361301E+03  0.10566000000E+00 0.  1.
        994    1    1    2    0    0  0.19868857897E+02 -0.78412509557E+01  0.97023931638E+01  0.17279998022E+03  0.17120000000E+03 0.  0.
        998    1    1    2    0    0  0.11214067798E+02 -0.56656519688E+02  0.11019385660E+04  0.11034964068E+04  0.10000000000E+02 0.  1.
</event>
<event>
 5    1  0.1556794E-008  0.3843152E+03  0.7957747E-01  0.3432582E+00
         13   -1    0    0    0    0  0.00000000000E+00  0.00000000000E+00  0.14999999963E+04  0.15000000000E+04  0.10566000000E+00 0. -1.
        994   -1    0    0    0    0 -0.00000000000E+00 -0.00000000000E+00  0.11368683772E-12  0.17120000000E+03  0.17120000000E+03 0.  0.
         13    1    1    2    0    0 -0.19938401787E+03  0.49070484616E+02  0.11340716271E+04  0.11525104623E+04  0.10566000000E+00 0. -1.
        994    1    1    2    0    0  0.20558643120E+03 -0.48250581801E+02  0.16623768064E+03  0.31865075836E+03  0.17120000000E+03 0.  0.
        998    1    1    2    0    0 -0.62024133245E+01 -0.81990281539E+00  0.19969068853E+03  0.20003877938E+03  0.10000000000E+02 0. -1.
</event>
<event>
 5    1  0.1556794E-008  0.3815476E+03  0.7957747E-01  0.3444448E+00
         13   -1    0    0    0    0  0.00000000000E+00  0.00000000000E+00  0.14999999963E+04  0.15000000000E+04  0.10566000000E+00 0.  1.
        994   -1    0    0    0    0 -0.00000000000E+00 -0.00000000000E+00  0.11368683772E-12  0.17120000000E+03  0.17120000000E+03 0.  0.
         13    1    1    2    0    0  0.20471131069E+02 -0.24202198719E+02  0.15752026228E+03  0.16067811868E+03  0.10566000000E+00 0.  1.
        994    1    1    2    0    0 -0.14160293890E+02  0.21876804596E+01  0.40370845544E+01  0.17184597150E+03  0.17120000000E+03 0.  0.
        998    1    1    2    0    0 -0.63108371790E+01  0.22014518260E+02  0.13384426494E+04  0.13386759098E+04  0.10000000000E+02 0.  1.
</event>
<event>
 5    1  0.1556794E-008  0.3764993E+03  0.7957747E-01  0.3466545E+00
         13   -1    0    0    0    0  0.00000000000E+00  0.00000000000E+00  0.14999999963E+04  0.15000000000E+04  0.10566000000E+00 0. -1.
        994   -1    0    0    0    0 -0.00000000000E+00 -0.00000000000E+00  0.11368683772E-12  0.17120000000E+03  0.17120000000E+03 0.  0.
         13    1    1    2    0    0 -0.51496798594E+01  0.11733550300E+02  0.11547405044E+02  0.17249612534E+02  0.10566000000E+00 0. -1.
        994    1    1    2    0    0 -0.22281159006E+02 -0.69450930983E+01  0.77551861829E+01  0.17295741464E+03  0.17120000000E+03 0.  0.
        998    1    1    2    0    0  0.27430838865E+02 -0.47884572022E+01  0.14806974051E+04  0.14809929728E+04  0.10000000000E+02 0. -1.
</event>
<event>
 5    1  0.1556794E-008  0.3835681E+03  0.7957747E-01  0.3435768E+00
         13   -1    0    0    0    0  0.00000000000E+00  0.00000000000E+00  0.14999999963E+04  0.15000000000E+04  0.10566000000E+00 0.  1.
        994   -1    0    0    0    0 -0.00000000000E+00 -0.00000000000E+00  0.11368683772E-12  0.17120000000E+03  0.17120000000E+03 0.  0.
         13    1    1    2    0    0 -0.19427116927E+02 -0.11793325197E+02  0.11369798354E+03  0.11594713458E+03  0.10566000000E+00 0.  1.
        994    1    1    2    0    0  0.10197211827E+02  0.51786040276E+00  0.26872629177E+01  0.17152525380E+03  0.17120000000E+03 0.  0.
        998    1    1    2    0    0  0.92299051003E+01  0.11275464794E+02  0.13836147498E+04  0.13837276116E+04  0.10000000000E+02 0.  1.
</event>
<event>
 5    1  0.1556794E-008  0.3690029E+03  0.7957747E-01  0.3500486E+00
         13   -1    0    0    0    0  0.00000000000E+00  0.00000000000E+00  0.14999999963E+04  0.15000000000E+04  0.10566000000E+00 0.  1.
        994   -1    0    0    0    0 -0.00000000000E+00 -0.00000000000E+00  0.11368683772E-12  0.17120000000E+03  0.17120000000E+03 0.  0.
         13    1    1    2    0    0 -0.89300925346E+01  0.75063189366E+02  0.35431340031E+03  0.36228749047E+03  0.10566000000E+00 0.  1.
        994    1    1    2    0    0 -0.33155569148E+01 -0.16212524597E+02  0.10741837559E+02  0.17233300887E+03  0.17120000000E+03 0.  0.
        998    1    1    2    0    0  0.12245649449E+02 -0.58850664768E+02  0.11349447584E+04  0.11365795007E+04  0.10000000000E+02 0.  1.
</event>
<event>
 5    1  0.1556794E-008  0.3828838E+03  0.7957747E-01  0.3438697E+00
         13   -1    0    0    0    0  0.00000000000E+00  0.00000000000E+00  0.14999999963E+04  0.15000000000E+04  0.10566000000E+00 0. -1.
        994   -1    0    0    0    0 -0.00000000000E+00 -0.00000000000E+00  0.11368683772E-12  0.17120000000E+03  0.17120000000E+03 0.  0.
         13    1    1    2    0    0 -0.10502274464E+01 -0.12341070038E+02  0.27422048644E+02  0.30089614541E+02  0.10566000000E+00 0. -1.
        994    1    1    2    0    0 -0.53009489902E+00  0.10821462916E+02  0.30732366781E+01  0.17157001441E+03  0.17120000000E+03 0.  0.
        998    1    1    2    0    0  0.15803223455E+01  0.15196071225E+01  0.14695047110E+04  0.14695403711E+04  0.10000000000E+02 0. -1.
</event>
<event>
 5    1  0.1556794E-008  0.2443431E+03  0.7957747E-01  0.4396046E+00
         13   -1    0    0    0    0  0.00000000000E+00  0.00000000000E+00  0.14999999963E+04  0.15000000000E+04  0.10566000000E+00 0. -1.
        994   -1    0    0    0    0 -0.00000000000E+00 -0.00000000000E+00  0.11368683772E-12  0.17120000000E+03  0.17120000000E+03 0.  0.
         13    1    1    2    0    0  0.16450460560E+03  0.12618082483E+02  0.26730469072E+03  0.31412225345E+03  0.10566000000E+00 0. -1.
        994    1    1    2    0    0 -0.15994486670E+03 -0.13372962514E+02  0.15931395320E+03  0.28363986355E+03  0.17120000000E+03 0.  0.
        998    1    1    2    0    0 -0.45597389030E+01  0.75488003118E+00  0.10733813524E+04  0.10734378830E+04  0.10000000000E+02 0.  0.
</event>
<event>
 5    1  0.1556794E-008  0.3722372E+03  0.7957747E-01  0.3485672E+00
         13   -1    0    0    0    0  0.00000000000E+00  0.00000000000E+00  0.14999999963E+04  0.15000000000E+04  0.10566000000E+00 0.  1.
        994   -1    0    0    0    0 -0.00000000000E+00 -0.00000000000E+00  0.11368683772E-12  0.17120000000E+03  0.17120000000E+03 0.  0.
         13    1    1    2    0    0 -0.26688718246E+02 -0.13574493232E+02  0.59700539610E+02  0.66788622848E+02  0.10566000000E+00 0.  1.
        994    1    1    2    0    0 -0.24464915835E+02 -0.22531679664E+01  0.10178225807E+02  0.17325312451E+03  0.17120000000E+03 0.  0.
        998    1    1    2    0    0  0.51153634081E+02  0.15827661198E+02  0.14301212309E+04  0.14311582526E+04  0.10000000000E+02 0.  1.
</event>
<event>
 5    1  0.1556794E-008  0.3713624E+03  0.7957747E-01  0.3489653E+00
         13   -1    0    0    0    0  0.00000000000E+00  0.00000000000E+00  0.14999999963E+04  0.15000000000E+04  0.10566000000E+00 0.  1.
        994   -1    0    0    0    0 -0.00000000000E+00 -0.00000000000E+00  0.11368683772E-12  0.17120000000E+03  0.17120000000E+03 0.  0.
         13    1    1    2    0    0  0.74416136607E+02  0.80819493796E+02  0.57888331775E+03  0.58921596949E+03  0.10566000000E+00 0.  1.
        994    1    1    2    0    0 -0.52079168221E+02 -0.24057957139E+02  0.23312802561E+02  0.18205480446E+03  0.17120000000E+03 0.  0.
        998    1    1    2    0    0 -0.22336968387E+02 -0.56761536657E+02  0.89780387596E+03  0.89992922605E+03  0.10000000000E+02 0.  1.
</event>
<event>
 5    1  0.1556794E-008  0.3834664E+03  0.7957747E-01  0.3436202E+00
         13   -1    0    0    0    0  0.00000000000E+00  0.00000000000E+00  0.14999999963E+04  0.15000000000E+04  0.10566000000E+00 0. -1.
        994   -1    0    0    0    0 -0.00000000000E+00 -0.00000000000E+00  0.11368683772E-12  0.17120000000E+03  0.17120000000E+03 0.  0.
         13    1    1    2    0    0 -0.98157889665E+01 -0.55160701256E+01  0.25708065899E+02  0.28065861094E+02  0.10566000000E+00 0. -1.
        994    1    1    2    0    0  0.65852682085E+01  0.38042701301E+01  0.25846330600E+01  0.17138832678E+03  0.17120000000E+03 0.  0.
        998    1    1    2    0    0  0.32305207580E+01  0.17117999956E+01  0.14717072973E+04  0.14717458121E+04  0.10000000000E+02 0. -1.
</event>
<event>
 5    1  0.1556794E-008  0.3816734E+03  0.7957747E-01  0.3443904E+00
         13   -1    0    0    0    0  0.00000000000E+00  0.00000000000E+00  0.14999999963E+04  0.15000000000E+04  0.10566000000E+00 0.  1.
        994   -1    0    0    0    0 -0.00000000000E+00 -0.00000000000E+00  0.11368683772E-12  0.17120000000E+03  0.17120000000E+03 0.  0.
         13    1    1    2    0    0 -0.22281629253E+02  0.86782902076E-02  0.72534125935E+02  0.75879388945E+02  0.10566000000E+00 0.  1.
        994    1    1    2    0    0  0.19641852124E+02  0.27177296093E+02  0.70379455820E+01  0.17459490387E+03  0.17120000000E+03 0.  0.
        998    1    1    2    0    0  0.26397771286E+01 -0.27185974384E+02  0.14204279248E+04  0.14207257072E+04  0.10000000000E+02 0.  1.
</event>
<event>
 5    1  0.1556794E-008  0.3743685E+03  0.7957747E-01  0.3476052E+00
         13   -1    0    0    0    0  0.00000000000E+00  0.00000000000E+00  0.14999999963E+04  0.15000000000E+04  0.10566000000E+00 0. -1.
        994   -1    0    0    0    0 -0.00000000000E+00 -0.00000000000E+00  0.11368683772E-12  0.17120000000E+03  0.17120000000E+03 0.  0.
         13    1    1    2    0    0 -0.12117950454E+02  0.27963731899E+02  0.61389900840E+02  0.68538646866E+02  0.10566000000E+00 0. -1.
        994    1    1    2    0    0  0.79504401313E+01 -0.29705382724E+02  0.10231353497E+02  0.17424046561E+03  0.17120000000E+03 0.  0.
        998    1    1    2    0    0  0.41675103222E+01  0.17416508246E+01  0.14283787419E+04  0.14284208875E+04  0.10000000000E+02 0. -1.
</event>
<event>
 5    1  0.1556794E-008  0.3790007E+03  0.7957747E-01  0.3455521E+00
         13   -1    0    0    0    0  0.00000000000E+00  0.00000000000E+00  0.14999999963E+04  0.15000000000E+04  0.10566000000E+00 0.  1.
        994   -1    0    0    0    0 -0.00000000000E+00 -0.00000000000E+00  0.11368683772E-12  0.17120000000E+03  0.17120000000E+03 0.  0.
         13    1    1    2    0    0  0.16732587122E+02  0.18604502723E+02  0.62853765417E+02  0.67651415244E+02  0.10566000000E+00 0.  1.
        994    1    1    2    0    0 -0.16373524719E+02 -0.22174482454E+02  0.71909964327E+01  0.17355388331E+03  0.17120000000E+03 0.  0.
        998    1    1    2    0    0 -0.35906240300E+00  0.35699797310E+01  0.14299552344E+04  0.14299947014E+04  0.10000000000E+02 0.  1.
</event>
<event>
 5    1  0.1556794E-008  0.3694132E+03  0.7957747E-01  0.3498592E+00
         13   -1    0    0    0    0  0.00000000000E+00  0.00000000000E+00  0.14999999963E+04  0.15000000000E+04  0.10566000000E+00 0. -1.
        994   -1    0    0    0    0 -0.00000000000E+00 -0.00000000000E+00  0.11368683772E-12  0.17120000000E+03  0.17120000000E+03 0.  0.
         13    1    1    2    0    0  0.20480669294E+02  0.16716018448E+02  0.28293279883E+02  0.38722137571E+02  0.10566000000E+00 0. -1.
        994    1    1    2    0    0 -0.17935385838E+02 -0.12600729528E+02  0.12306839508E+02  0.17303570368E+03  0.17120000000E+03 0.  0.
        998    1    1    2    0    0 -0.25452834557E+01 -0.41152889195E+01  0.14593998769E+04  0.14594421587E+04  0.10000000000E+02 0. -1.
</event>
<event>
 5    1  0.1556794E-008  0.3831469E+03  0.7957747E-01  0.3437570E+00
         13   -1    0    0    0    0  0.00000000000E+00  0.00000000000E+00  0.14999999963E+04  0.15000000000E+04  0.10566000000E+00 0.  1.
        994   -1    0    0    0    0 -0.00000000000E+00 -0.00000000000E+00  0.11368683772E-12  0.17120000000E+03  0.17120000000E+03 0.  0.
         13    1    1    2    0    0  0.23172244888E+01  0.17472639630E+02  0.62702578566E+02  0.65132842621E+02  0.10566000000E+00 0.  1.
        994    1    1    2    0    0  0.40369295101E+01 -0.37969736990E+01  0.26546076123E+01  0.17131024707E+03  0.17120000000E+03 0.  0.
        998    1    1    2    0    0 -0.63541539988E+01 -0.13675665931E+02  0.14346428101E+04  0.14347569103E+04  0.10000000000E+02 0.  1.
</event>
<event>
 5    1  0.1556794E-008  0.3727095E+03  0.7957747E-01  0.3483530E+00
         13   -1    0    0    0    0  0.00000000000E+00  0.00000000000E+00  0.14999999963E+04  0.15000000000E+04  0.10566000000E+00 0. -1.
        994   -1    0    0    0    0 -0.00000000000E+00 -0.00000000000E+00  0.11368683772E-12  0.17120000000E+03  0.17120000000E+03 0.  0.
         13    1    1    2    0    0 -0.24466636435E+02 -0.27489560707E+02  0.81142201095E+02  0.89097475884E+02  0.10566000000E+00 0. -1.
        994    1    1    2    0    0  0.25807937920E+02  0.17787176315E+02  0.11232561204E+02  0.17440769402E+03  0.17120000000E+03 0.  0.
        998    1    1    2    0    0 -0.13413014851E+01  0.97023843920E+01  0.14076252340E+04  0.14076948301E+04  0.10000000000E+02 0. -1.
</event>
<event>
 5    1  0.1556794E-008  0.2526155E+03  0.7957747E-01  0.4305720E+00
         13   -1    0    0    0    0  0.00000000000E+00  0.00000000000E+00  0.14999999963E+04  0.15000000000E+04  0.10566000000E+00 0. -1.
        994   -1    0    0    0    0 -0.00000000000E+00 -0.00000000000E+00  0.11368683772E-12  0.17120000000E+03  0.17120000000E+03 0.  0.
         13    1    1    2    0    0 -0.13585780786E+03 -0.96438379470E+02  0.31967587762E+03  0.36048631443E+03  0.10566000000E+00 0. -1.
        994    1    1    2    0    0  0.13686541401E+03  0.98269628712E+02  0.15617147389E+03  0.28651008837E+03  0.17120000000E+03 0.  0.
        998    1    1    2    0    0 -0.10076061554E+01 -0.18312492420E+01  0.10241526448E+04  0.10242035972E+04  0.10000000000E+02 0.  0.
</event>
<event>
 5    1  0.1556794E-008  0.3772667E+03  0.7957747E-01  0.3463147E+00
         13   -1    0    0    0    0  0.00000000000E+00  0.00000000000E+00  0.14999999963E+04  0.15000000000E+04  0.10566000000E+00 0. -1.
        994   -1    0    0    0    0 -0.00000000000E+00 -0.00000000000E+00  0.11368683772E-12  0.17120000000E+03  0.17120000000E+03 0.  0.
         13    1    1    2    0    0 -0.81382307369E+02 -0.57516825140E+01  0.40667284998E+03  0.41477581883E+03  0.10566000000E+00 0. -1.
        994    1    1    2    0    0  0.89621659544E+02 -0.91844574291E+01  0.33408450853E+02  0.19632106537E+03  0.17120000000E+03 0.  0.
        998    1    1    2    0    0 -0.82393521755E+01  0.14936139943E+02  0.10599186954E+04  0.10601031158E+04  0.10000000000E+02 0. -1.
</event>
<event>
 5    1  0.1556794E-008  0.3774081E+03  0.7957747E-01  0.3462522E+00
         13   -1    0    0    0    0  0.00000000000E+00  0.00000000000E+00  0.14999999963E+04  0.15000000000E+04  0.10566000000E+00 0.  1.
        994   -1    0    0    0    0 -0.00000000000E+00 -0.00000000000E+00  0.11368683772E-12  0.17120000000E+03  0.17120000000E+03 0.  0.
         13    1    1    2    0    0 -0.10629948310E+02  0.13029310588E+01  0.80278845860E+01  0.13384749732E+02  0.10566000000E+00 0.  1.
        994    1    1    2    0    0  0.94472951224E+01 -0.95380758046E-01  0.57482867548E+01  0.17155682232E+03  0.17120000000E+03 0.  0.
        998    1    1    2    0    0  0.11826531874E+01 -0.12075503008E+01  0.14862238249E+04  0.14862584280E+04  0.10000000000E+02 0.  1.
</event>
<event>
 5    1  0.1556794E-008  0.3805492E+03  0.7957747E-01  0.3448771E+00
         13   -1    0    0    0    0  0.00000000000E+00  0.00000000000E+00  0.14999999963E+04  0.15000000000E+04  0.10566000000E+00 0.  1.
        994   -1    0    0    0    0 -0.00000000000E+00 -0.00000000000E+00  0.11368683772E-12  0.17120000000E+03  0.17120000000E+03 0.  0.
         13    1    1    2    0    0  0.76886014907E+01 -0.12122525413E+02  0.24269826913E+02  0.28197621845E+02  0.10566000000E+00 0.  1.
        994    1    1    2    0    0 -0.25642030406E+02  0.10109228298E+02  0.63953557885E+01  0.17352247922E+03  0.17120000000E+03 0.  0.
        998    1    1    2    0    0  0.17953428915E+02  0.20132971153E+01  0.14693348136E+04  0.14694798989E+04  0.10000000000E+02 0.  1.
</event>
<event>
 5    1  0.1556794E-008  0.3770319E+03  0.7957747E-01  0.3464185E+00
         13   -1    0    0    0    0  0.00000000000E+00  0.00000000000E+00  0.14999999963E+04  0.15000000000E+04  0.10566000000E+00 0.  1.
        994   -1    0    0    0    0 -0.00000000000E+00 -0.00000000000E+00  0.11368683772E-12  0.17120000000E+03  0.17120000000E+03 0.  0.
         13    1    1    2    0    0 -0.19509768118E+02  0.15793723233E+02  0.57962097679E+02  0.63163982434E+02  0.10566000000E+00 0.  1.
        994    1    1    2    0    0 -0.88470452807E+01 -0.27527999002E+01  0.59288419420E+01  0.17155302179E+03  0.17120000000E+03 0.  0.
        998    1    1    2    0    0  0.28356813398E+02 -0.13040923332E+02  0.14361090567E+04  0.14364829958E+04  0.10000000000E+02 0.  1.
</event>
<event>
 5    1  0.1556794E-008  0.3861917E+03  0.7957747E-01  0.3424634E+00
         13   -1    0    0    0    0  0.00000000000E+00  0.00000000000E+00  0.14999999963E+04  0.15000000000E+04  0.10566000000E+00 0.  1.
        994   -1    0    0    0    0 -0.00000000000E+00 -0.00000000000E+00  0.11368683772E-12  0.17120000000E+03  0.17120000000E+03 0.  0.
         13    1    1    2    0    0 -0.10080519710E+02  0.27222324819E+01  0.54801822078E+02  0.55787797003E+02  0.10566000000E+00 0.  1.
        994    1    1    2    0    0  0.10110098669E+02  0.22386610934E+02  0.30187533667E+01  0.17297955751E+03  0.17120000000E+03 0.  0.
        998    1    1    2    0    0 -0.29578959189E-01 -0.25108843416E+02  0.14421794208E+04  0.14424326455E+04  0.10000000000E+02 0.  1.
</event>
<event>
 5    1  0.1556794E-008  0.3706037E+03  0.7957747E-01  0.3493121E+00
         13   -1    0    0    0    0  0.00000000000E+00  0.00000000000E+00  0.14999999963E+04  0.15000000000E+04  0.10566000000E+00 0. -1.
        994   -1    0    0    0    0 -0.00000000000E+00 -0.00000000000E+00  0.11368683772E-12  0.17120000000E+03  0.17120000000E+03 0.  0.
         13    1    1    2    0    0  0.18509625554E+02  0.14567840381E+02  0.19396130116E+02  0.30513099466E+02  0.10566000000E+00 0. -1.
        994    1    1    2    0    0 -0.25715833624E+02 -0.11311068174E+02  0.14028342457E+02  0.17405596443E+03  0.17120000000E+03 0.  0.
        998    1    1    2    0    0  0.72062080698E+01 -0.32567722068E+01  0.14665755237E+04  0.14666309361E+04  0.10000000000E+02 0. -1.
</event>
<event>
 5    1  0.1556794E-008  0.3751825E+03  0.7957747E-01  0.3472407E+00
         13   -1    0    0    0    0  0.00000000000E+00  0.00000000000E+00  0.14999999963E+04  0.15000000000E+04  0.10566000000E+00 0.  1.
        994   -1    0    0    0    0 -0.00000000000E+00 -0.00000000000E+00  0.11368683772E-12  0.17120000000E+03  0.17120000000E+03 0.  0.
         13    1    1    2    0    0 -0.62323679381E+02  0.19840785754E+02  0.13806788361E+03  0.15277646887E+03  0.10566000000E+00 0.  1.
        994    1    1    2    0    0  0.61675518822E+02 -0.22623396793E+02  0.29236860972E+02  0.18568769950E+03  0.17120000000E+03 0.  0.
        998    1    1    2    0    0  0.64816055929E+00  0.27826110391E+01  0.13326952517E+04  0.13327358316E+04  0.10000000000E+02 0.  1.
</event>
<event>
 5    1  0.1556794E-008  0.3769975E+03  0.7957747E-01  0.3464337E+00
         13   -1    0    0    0    0  0.00000000000E+00  0.00000000000E+00  0.14999999963E+04  0.15000000000E+04  0.10566000000E+00 0.  1.
        994   -1    0    0    0    0 -0.00000000000E+00 -0.00000000000E+00  0.11368683772E-12  0.17120000000E+03  0.17120000000E+03 0.  0.
         13    1    1    2    0    0 -0.39317547937E+01  0.42490190291E+02  0.13592594987E+03  0.14246666269E+03  0.10566000000E+00 0.  1.
        994    1    1    2    0    0  0.19829984870E+02 -0.54155930517E+02  0.16970570989E+02  0.18144843176E+03  0.17120000000E+03 0.  0.
        998    1    1    2    0    0 -0.15898230076E+02  0.11665740227E+02  0.13471034754E+04  0.13472849055E+04  0.10000000000E+02 0.  1.
</event>
<event>
 5    1  0.1556794E-008  0.3843657E+03  0.7957747E-01  0.3432367E+00
         13   -1    0    0    0    0  0.00000000000E+00  0.00000000000E+00  0.14999999963E+04  0.15000000000E+04  0.10566000000E+00 0.  1.
        994   -1    0    0    0    0 -0.00000000000E+00 -0.00000000000E+00  0.11368683772E-12  0.17120000000E+03  0.17120000000E+03 0.  0.
         13    1    1    2    0    0 -0.11428969736E+02  0.28540375359E+01  0.34041418433E+02  0.36022162796E+02  0.10566000000E+00 0.  1.
        994    1    1    2    0    0  0.15507342610E+02 -0.40548854460E+01  0.27924755387E+01  0.17197138625E+03  0.17120000000E+03 0.  0.
        998    1    1    2    0    0 -0.40783728744E+01  0.12008479101E+01  0.14631661023E+04  0.14632064509E+04  0.10000000000E+02 0.  1.
</event>
<event>
 5    1  0.1793238E-008  0.3859188E+03  0.7957747E-01  0.3425785E+00
         13   -1    0    0    0    0  0.00000000000E+00  0.00000000000E+00  0.14999999963E+04  0.15000000000E+04  0.10566000000E+00 0. -1.
        994   -1    0    0    0    0 -0.00000000000E+00 -0.00000000000E+00  0.11368683772E-12  0.17120000000E+03  0.17120000000E+03 0.  0.
         13    1    1    2    0    0 -0.12365466789E+02  0.29849176087E+01  0.66977568687E+02  0.68174924813E+02  0.10566000000E+00 0. -1.
        994    1    1    2    0    0  0.13949484602E+02 -0.11551219776E+00  0.18130134328E+01  0.17177697308E+03  0.17120000000E+03 0.  0.
        998    1    1    2    0    0 -0.15840178132E+01 -0.28694054110E+01  0.14312094142E+04  0.14312481021E+04  0.10000000000E+02 0. -1.
</event>
<event>
 5    1  0.1556794E-008  0.3745219E+03  0.7957747E-01  0.3475364E+00
         13   -1    0    0    0    0  0.00000000000E+00  0.00000000000E+00  0.14999999963E+04  0.15000000000E+04  0.10566000000E+00 0.  1.
        994   -1    0    0    0    0 -0.00000000000E+00 -0.00000000000E+00  0.11368683772E-12  0.17120000000E+03  0.17120000000E+03 0.  0.
         13    1    1    2    0    0  0.10001517887E+02  0.18221786077E+02  0.27618606991E+02  0.34566782668E+02  0.10566000000E+00 0.  1.
        994    1    1    2    0    0 -0.10819825590E+02 -0.21456321275E+02  0.88929472589E+01  0.17310680766E+03  0.17120000000E+03 0.  0.
        998    1    1    2    0    0  0.81830770339E+00  0.32345351985E+01  0.14634884420E+04  0.14635264097E+04  0.10000000000E+02 0.  1.
</event>
<event>
 5    1  0.1556794E-008  0.3749917E+03  0.7957747E-01  0.3473260E+00
         13   -1    0    0    0    0  0.00000000000E+00  0.00000000000E+00  0.14999999963E+04  0.15000000000E+04  0.10566000000E+00 0. -1.
        994   -1    0    0    0    0 -0.00000000000E+00 -0.00000000000E+00  0.11368683772E-12  0.17120000000E+03  0.17120000000E+03 0.  0.
         13    1    1    2    0    0 -0.18506467924E+02 -0.24465342352E+02  0.72594759572E+02  0.78810231650E+02  0.10566000000E+00 0. -1.
        994    1    1    2    0    0 -0.31189446695E+01  0.40611623739E+01  0.67721394696E+01  0.17141039271E+03  0.17120000000E+03 0.  0.
        998    1    1    2    0    0  0.21625412594E+02  0.20404179978E+02  0.14206330972E+04  0.14209793756E+04  0.10000000000E+02 0. -1.
</event>
<event>
 5    1  0.1556794E-008  0.3978529E+03  0.7957747E-01  0.3376926E+00
         13   -1    0    0    0    0  0.00000000000E+00  0.00000000000E+00  0.14999999963E+04  0.15000000000E+04  0.10566000000E+00 0.  1.
        994   -1    0    0    0    0 -0.00000000000E+00 -0.00000000000E+00  0.11368683772E-12  0.17120000000E+03  0.17120000000E+03 0.  0.
         13    1    1    2    0    0 -0.11509394105E+03 -0.47135674678E+02  0.41854340727E+03  0.43663140293E+03  0.10566000000E+00 0.  1.
        994    1    1    2    0    0  0.26554862061E+02 -0.38086840746E+02  0.34913570051E+02  0.18078762544E+03  0.17120000000E+03 0.  0.
        998    1    1    2    0    0  0.88539078990E+02  0.85222515424E+02  0.10465430190E+04  0.10537809716E+04  0.10000000000E+02 0.  1.
</event>
<event>
 5    1  0.1556794E-008  0.3842408E+03  0.7957747E-01  0.3432899E+00
         13   -1    0    0    0    0  0.00000000000E+00  0.00000000000E+00  0.14999999963E+04  0.15000000000E+04  0.10566000000E+00 0.  1.
        994   -1    0    0    0    0 -0.00000000000E+00 -0.00000000000E+00  0.11368683772E-12  0.17120000000E+03  0.17120000000E+03 0.  0.
         13    1    1    2    0    0  0.66122234978E+01  0.82547303547E+01  0.27625828362E+02  0.29581406822E+02  0.10566000000E+00 0.  1.
        994    1    1    2    0    0 -0.26804640113E+01 -0.35331413777E+01  0.20723892772E+01  0.17126997043E+03  0.17120000000E+03 0.  0.
        998    1    1    2    0    0 -0.39317594865E+01 -0.47215889770E+01  0.14703017786E+04  0.14703486227E+04  0.10000000000E+02 0.  1.
</event>
<event>
 5    1  0.1556794E-008  0.3837892E+03  0.7957747E-01  0.3434824E+00
         13   -1    0    0    0    0  0.00000000000E+00  0.00000000000E+00  0.14999999963E+04  0.15000000000E+04  0.10566000000E+00 0. -1.
        994   -1    0    0    0    0 -0.00000000000E+00 -0.00000000000E+00  0.11368683772E-12  0.17120000000E+03  0.17120000000E+03 0.  0.
         13    1    1    2    0    0  0.15673563701E+02 -0.76651662916E+01  0.70117435360E+02  0.72255666067E+02  0.10566000000E+00 0. -1.
        994    1    1    2    0    0  0.71056140463E+01  0.27952172381E+02  0.49836502549E+01  0.17368388083E+03  0.17120000000E+03 0.  0.
        998    1    1    2    0    0 -0.22779177747E+02 -0.20287006089E+02  0.14248989107E+04  0.14252604531E+04  0.10000000000E+02 0. -1.
</event>
<event>
 5    1  0.1556794E-008  0.3818136E+03  0.7957747E-01  0.3443300E+00
         13   -1    0    0    0    0  0.00000000000E+00  0.00000000000E+00  0.14999999963E+04  0.15000000000E+04  0.10566000000E+00 0.  1.
        994   -1    0    0    0    0 -0.00000000000E+00 -0.00000000000E+00  0.11368683772E-12  0.17120000000E+03  0.17120000000E+03 0.  0.
         13    1    1    2    0    0  0.18876936329E+02 -0.15186494612E+02  0.10754195076E+03  0.11023724725E+03  0.10566000000E+00 0.  1.
        994    1    1    2    0    0 -0.11363914727E+02 -0.34320451248E+02  0.75759091532E+01  0.17513956244E+03  0.17120000000E+03 0.  0.
        998    1    1    2    0    0 -0.75130216019E+01  0.49506945860E+02  0.13848821364E+04  0.13858231903E+04  0.10000000000E+02 0.  1.
</event>
<event>
 5    1  0.1556794E-008  0.3737166E+03  0.7957747E-01  0.3478982E+00
         13   -1    0    0    0    0  0.00000000000E+00  0.00000000000E+00  0.14999999963E+04  0.15000000000E+04  0.10566000000E+00 0. -1.
        994   -1    0    0    0    0 -0.00000000000E+00 -0.00000000000E+00  0.11368683772E-12  0.17120000000E+03  0.17120000000E+03 0.  0.
         13    1    1    2    0    0 -0.14832074186E+02  0.14820746051E+02  0.26728571863E+02  0.33971644883E+02  0.10566000000E+00 0. -1.
        994    1    1    2    0    0  0.11487541065E+02 -0.12498215582E+02  0.83236558446E+01  0.17224079726E+03  0.17120000000E+03 0.  0.
        998    1    1    2    0    0  0.33445331217E+01 -0.23225304691E+01  0.14649477686E+04  0.14649875579E+04  0.10000000000E+02 0. -1.
</event>
<event>
 5    1  0.1556794E-008  0.3808270E+03  0.7957747E-01  0.3447566E+00
         13   -1    0    0    0    0  0.00000000000E+00  0.00000000000E+00  0.14999999963E+04  0.15000000000E+04  0.10566000000E+00 0. -1.
        994   -1    0    0    0    0 -0.00000000000E+00 -0.00000000000E+00  0.11368683772E-12  0.17120000000E+03  0.17120000000E+03 0.  0.
         13    1    1    2    0    0 -0.22786043965E+02  0.18905551256E+02  0.11061532017E+03  0.11450931791E+03  0.10566000000E+00 0. -1.
        994    1    1    2    0    0  0.19074537657E+02 -0.19868452774E+02  0.62494010554E+01  0.17351394300E+03  0.17120000000E+03 0.  0.
        998    1    1    2    0    0  0.37115063074E+01  0.96290151811E+00  0.13831352751E+04  0.13831767391E+04  0.10000000000E+02 0. -1.
</event>
<event>
 5    1  0.1556794E-008  0.3734592E+03  0.7957747E-01  0.3480143E+00
         13   -1    0    0    0    0  0.00000000000E+00  0.00000000000E+00  0.14999999963E+04  0.15000000000E+04  0.10566000000E+00 0.  1.
        994   -1    0    0    0    0 -0.00000000000E+00 -0.00000000000E+00  0.11368683772E-12  0.17120000000E+03  0.17120000000E+03 0.  0.
         13    1    1    2    0    0  0.13814973924E+03 -0.35617946644E+01  0.75249057631E+03  0.76507523515E+03  0.10566000000E+00 0.  1.
        994    1    1    2    0    0 -0.12797626904E+03 -0.31835754644E+02  0.69445965934E+02  0.22698815585E+03  0.17120000000E+03 0.  0.
        998    1    1    2    0    0 -0.10173470192E+02  0.35397549308E+02  0.67806345403E+03  0.67913660900E+03  0.10000000000E+02 0.  1.
</event>
<event>
 5    1  0.1556794E-008  0.3781636E+03  0.7957747E-01  0.3459194E+00
         13   -1    0    0    0    0  0.00000000000E+00  0.00000000000E+00  0.14999999963E+04  0.15000000000E+04  0.10566000000E+00 0.  1.
        994   -1    0    0    0    0 -0.00000000000E+00 -0.00000000000E+00  0.11368683772E-12  0.17120000000E+03  0.17120000000E+03 0.  0.
         13    1    1    2    0    0  0.86016147031E+01  0.19516336363E+02  0.43056593824E+02  0.48049522331E+02  0.10566000000E+00 0.  1.
        994    1    1    2    0    0 -0.91683606316E+00 -0.14161306680E+02  0.57406411890E+01  0.17188303627E+03  0.17120000000E+03 0.  0.
        998    1    1    2    0    0 -0.76847786399E+01 -0.53550296827E+01  0.14512027613E+04  0.14512674414E+04  0.10000000000E+02 0.  1.
</event>
<event>
 5    1  0.1556794E-008  0.3797818E+03  0.7957747E-01  0.3452109E+00
         13   -1    0    0    0    0  0.00000000000E+00  0.00000000000E+00  0.14999999963E+04  0.15000000000E+04  0.10566000000E+00 0. -1.
        994   -1    0    0    0    0 -0.00000000000E+00 -0.00000000000E+00  0.11368683772E-12  0.17120000000E+03  0.17120000000E+03 0.  0.
         13    1    1    2    0    0 -0.17886411489E+02 -0.27823243597E+02  0.11587485253E+03  0.12050331619E+03  0.10566000000E+00 0. -1.
        994    1    1    2    0    0  0.53128298392E+02  0.11774066672E+02  0.14214055088E+02  0.18020189815E+03  0.17120000000E+03 0.  0.
        998    1    1    2    0    0 -0.35241886903E+02  0.16049176926E+02  0.13699110887E+04  0.13704947857E+04  0.10000000000E+02 0. -1.
</event>
<event>
 5    1  0.1556794E-008  0.3824617E+03  0.7957747E-01  0.3440509E+00
         13   -1    0    0    0    0  0.00000000000E+00  0.00000000000E+00  0.14999999963E+04  0.15000000000E+04  0.10566000000E+00 0.  1.
        994   -1    0    0    0    0 -0.00000000000E+00 -0.00000000000E+00  0.11368683772E-12  0.17120000000E+03  0.17120000000E+03 0.  0.
         13    1    1    2    0    0 -0.11943137808E+02  0.15279809899E+02  0.64615516557E+02  0.67463229060E+02  0.10566000000E+00 0.  1.
        994    1    1    2    0    0  0.27916665109E+00 -0.13322495487E+02  0.34846333540E+01  0.17175316442E+03  0.17120000000E+03 0.  0.
        998    1    1    2    0    0  0.11663971157E+02 -0.19573144115E+01  0.14318998464E+04  0.14319836065E+04  0.10000000000E+02 0.  1.
</event>
<event>
 5    1  0.1556794E-008  0.3797155E+03  0.7957747E-01  0.3452398E+00
         13   -1    0    0    0    0  0.00000000000E+00  0.00000000000E+00  0.14999999963E+04  0.15000000000E+04  0.10566000000E+00 0. -1.
        994   -1    0    0    0    0 -0.00000000000E+00 -0.00000000000E+00  0.11368683772E-12  0.17120000000E+03  0.17120000000E+03 0.  0.
         13    1    1    2    0    0  0.93717385911E+00  0.11977053286E+02  0.16443619227E+02  0.20364966918E+02  0.10566000000E+00 0. -1.
        994    1    1    2    0    0  0.38011509157E+02  0.25209068927E+02  0.11269504010E+02  0.17752975442E+03  0.17120000000E+03 0.  0.
        998    1    1    2    0    0 -0.38948683016E+02 -0.37186122214E+02  0.14722868730E+04  0.14733052787E+04  0.10000000000E+02 0. -1.
</event>
<event>
 5    1  0.1556794E-008  0.3788221E+03  0.7957747E-01  0.3456303E+00
         13   -1    0    0    0    0  0.00000000000E+00  0.00000000000E+00  0.14999999963E+04  0.15000000000E+04  0.10566000000E+00 0. -1.
        994   -1    0    0    0    0 -0.00000000000E+00 -0.00000000000E+00  0.11368683772E-12  0.17120000000E+03  0.17120000000E+03 0.  0.
         13    1    1    2    0    0 -0.58485537306E+02 -0.43996641550E+02  0.17496256242E+03  0.18965276680E+03  0.10566000000E+00 0. -1.
        994    1    1    2    0    0  0.47410852310E+02 -0.82980471648E+01  0.24087442927E+02  0.17946111392E+03  0.17120000000E+03 0.  0.
        998    1    1    2    0    0  0.11074684995E+02  0.52294688715E+02  0.13009499909E+04  0.13020861193E+04  0.10000000000E+02 0. -1.
</event>
<event>
 5    1  0.1556794E-008  0.3749380E+03  0.7957747E-01  0.3473500E+00
         13   -1    0    0    0    0  0.00000000000E+00  0.00000000000E+00  0.14999999963E+04  0.15000000000E+04  0.10566000000E+00 0. -1.
        994   -1    0    0    0    0 -0.00000000000E+00 -0.00000000000E+00  0.11368683772E-12  0.17120000000E+03  0.17120000000E+03 0.  0.
         13    1    1    2    0    0  0.60611487196E+02 -0.10326057671E+02  0.31180281038E+03  0.31780714840E+03  0.10566000000E+00 0. -1.
        994    1    1    2    0    0 -0.19500081854E+02  0.12306607242E+02  0.85203956685E+01  0.17295589876E+03  0.17120000000E+03 0.  0.
        998    1    1    2    0    0 -0.41111405342E+02 -0.19805495708E+01  0.11796767902E+04  0.11804369528E+04  0.10000000000E+02 0. -1.
</event>
<event>
 5    1  0.1556794E-008  0.3787307E+03  0.7957747E-01  0.3456704E+00
         13   -1    0    0    0    0  0.00000000000E+00  0.00000000000E+00  0.14999999963E+04  0.15000000000E+04  0.10566000000E+00 0.  1.
        994   -1    0    0    0    0 -0.00000000000E+00 -0.00000000000E+00  0.11368683772E-12  0.17120000000E+03  0.17120000000E+03 0.  0.
         13    1    1    2    0    0 -0.13824405971E+02  0.20585853543E+02  0.63774295825E+02  0.68425605869E+02  0.10566000000E+00 0.  1.
        994    1    1    2    0    0 -0.84820043898E+01 -0.19239661602E+02  0.62608348278E+01  0.17259996243E+03  0.17120000000E+03 0.  0.
        998    1    1    2    0    0  0.22306410360E+02 -0.13461919405E+01  0.14299648656E+04  0.14301744317E+04  0.10000000000E+02 0.  1.
</event>
<event>
 5    1  0.1556794E-008  0.3769266E+03  0.7957747E-01  0.3464651E+00
         13   -1    0    0    0    0  0.00000000000E+00  0.00000000000E+00  0.14999999963E+04  0.15000000000E+04  0.10566000000E+00 0.  1.
        994   -1    0    0    0    0 -0.00000000000E+00 -0.00000000000E+00  0.11368683772E-12  0.17120000000E+03  0.17120000000E+03 0.  0.
         13    1    1    2    0    0 -0.21800657807E+02 -0.53658467504E+02  0.28323846606E+03  0.28909953240E+03  0.10566000000E+00 0.  1.
        994    1    1    2    0    0  0.23572206527E+02  0.30804858120E+02  0.10790952678E+02  0.17587061399E+03  0.17120000000E+03 0.  0.
        998    1    1    2    0    0 -0.17715487202E+01  0.22853609385E+02  0.12059705775E+04  0.12062298536E+04  0.10000000000E+02 0.  1.
</event>
<event>
 5    1  0.1556794E-008  0.3845519E+03  0.7957747E-01  0.3431575E+00
         13   -1    0    0    0    0  0.00000000000E+00  0.00000000000E+00  0.14999999963E+04  0.15000000000E+04  0.10566000000E+00 0. -1.
        994   -1    0    0    0    0 -0.00000000000E+00 -0.00000000000E+00  0.11368683772E-12  0.17120000000E+03  0.17120000000E+03 0.  0.
         13    1    1    2    0    0 -0.13692054335E+02 -0.62285202026E+00  0.49070888447E+02  0.50949225250E+02  0.10566000000E+00 0. -1.
        994    1    1    2    0    0  0.14307830620E+02  0.31454700225E+01  0.25598821366E+01  0.17184470022E+03  0.17120000000E+03 0.  0.
        998    1    1    2    0    0 -0.61577628547E+00 -0.25226180023E+01  0.14483692257E+04  0.14484060745E+04  0.10000000000E+02 0. -1.
</event>
<event>
 5    1  0.1556794E-008  0.3776970E+03  0.7957747E-01  0.3461248E+00
         13   -1    0    0    0    0  0.00000000000E+00  0.00000000000E+00  0.14999999963E+04  0.15000000000E+04  0.10566000000E+00 0. -1.
        994   -1    0    0    0    0 -0.00000000000E+00 -0.00000000000E+00  0.11368683772E-12  0.17120000000E+03  0.17120000000E+03 0.  0.
         13    1    1    2    0    0  0.86915797738E+01  0.10544205724E+02  0.15418491982E+02  0.20602545774E+02  0.10566000000E+00 0. -1.
        994    1    1    2    0    0  0.40797371660E+01 -0.12010614981E+02  0.58423981166E+01  0.17176866054E+03  0.17120000000E+03 0.  0.
        998    1    1    2    0    0 -0.12771316940E+02  0.14664092567E+01  0.14787391062E+04  0.14788287937E+04  0.10000000000E+02 0. -1.
</event>
<event>
 5    1  0.1556794E-008  0.3815690E+03  0.7957747E-01  0.3444355E+00
         13   -1    0    0    0    0  0.00000000000E+00  0.00000000000E+00  0.14999999963E+04  0.15000000000E+04  0.10566000000E+00 0. -1.
        994   -1    0    0    0    0 -0.00000000000E+00 -0.00000000000E+00  0.11368683772E-12  0.17120000000E+03  0.17120000000E+03 0.  0.
         13    1    1    2    0    0 -0.38528859553E+02  0.19009223767E+03  0.11222046956E+04  0.11388427994E+04  0.10566000000E+00 0. -1.
        994    1    1    2    0    0  0.31412083893E+02 -0.18871384757E+03  0.13652627866E+03  0.29077224772E+03  0.17120000000E+03 0.  0.
        998    1    1    2    0    0  0.71167756599E+01 -0.13783900973E+01  0.24126902202E+03  0.24158495285E+03  0.10000000000E+02 0. -1.
</event>
<event>
 5    1  0.1556794E-008  0.3847218E+03  0.7957747E-01  0.3430853E+00
         13   -1    0    0    0    0  0.00000000000E+00  0.00000000000E+00  0.14999999963E+04  0.15000000000E+04  0.10566000000E+00 0.  1.
        994   -1    0    0    0    0 -0.00000000000E+00 -0.00000000000E+00  0.11368683772E-12  0.17120000000E+03  0.17120000000E+03 0.  0.
         13    1    1    2    0    0 -0.97944417473E+01  0.52459053143E+01  0.35657660105E+02  0.37348768385E+02  0.10566000000E+00 0.  1.
        994    1    1    2    0    0 -0.11374912360E+01 -0.44615918045E+01  0.18381255437E+01  0.17127176765E+03  0.17120000000E+03 0.  0.
        998    1    1    2    0    0  0.10931932983E+02 -0.78431350984E+00  0.14625042106E+04  0.14625794640E+04  0.10000000000E+02 0.  1.
</event>
<event>
 5    1  0.1556794E-008  0.3860098E+03  0.7957747E-01  0.3425401E+00
         13   -1    0    0    0    0  0.00000000000E+00  0.00000000000E+00  0.14999999963E+04  0.15000000000E+04  0.10566000000E+00 0.  1.
        994   -1    0    0    0    0 -0.00000000000E+00 -0.00000000000E+00  0.11368683772E-12  0.17120000000E+03  0.17120000000E+03 0.  0.
         13    1    1    2    0    0 -0.29153479955E+01 -0.98650951082E+01  0.53683106492E+02  0.54659916228E+02  0.10566000000E+00 0.  1.
        994    1    1    2    0    0  0.11858071035E+01 -0.11549132330E+02  0.15715418563E+01  0.17160040309E+03  0.17120000000E+03 0.  0.
        998    1    1    2    0    0  0.17295408920E+01  0.21414227439E+02  0.14447453479E+04  0.14449396807E+04  0.10000000000E+02 0.  1.
</event>
<event>
 5    1  0.1556794E-008  0.3879587E+03  0.7957747E-01  0.3417220E+00
         13   -1    0    0    0    0  0.00000000000E+00  0.00000000000E+00  0.14999999963E+04  0.15000000000E+04  0.10566000000E+00 0.  1.
        994   -1    0    0    0    0 -0.00000000000E+00 -0.00000000000E+00  0.11368683772E-12  0.17120000000E+03  0.17120000000E+03 0.  0.
         13    1    1    2    0    0 -0.12417192500E+03  0.27353978936E+02  0.47115265629E+03  0.48800793417E+03  0.10566000000E+00 0.  1.
        994    1    1    2    0    0  0.48725947487E+02  0.10666324154E+02  0.30115669088E+02  0.18084352892E+03  0.17120000000E+03 0.  0.
        998    1    1    2    0    0  0.75445977513E+02 -0.38020303091E+02  0.99873167091E+03  0.10023485369E+04  0.10000000000E+02 0.  1.
</event>
<event>
 5    1  0.1556794E-008  0.3844967E+03  0.7957747E-01  0.3431810E+00
         13   -1    0    0    0    0  0.00000000000E+00  0.00000000000E+00  0.14999999963E+04  0.15000000000E+04  0.10566000000E+00 0.  1.
        994   -1    0    0    0    0 -0.00000000000E+00 -0.00000000000E+00  0.11368683772E-12  0.17120000000E+03  0.17120000000E+03 0.  0.
         13    1    1    2    0    0  0.10555485174E+02 -0.19976361546E+02  0.13094137774E+03  0.13287636680E+03  0.10566000000E+00 0.  1.
        994    1    1    2    0    0 -0.12270053824E+02  0.13912940193E+02  0.30146069238E+01  0.17222848771E+03  0.17120000000E+03 0.  0.
        998    1    1    2    0    0  0.17145686500E+01  0.60634213529E+01  0.13660440116E+04  0.13660951455E+04  0.10000000000E+02 0.  1.
</event>
<event>
 5    1  0.1556794E-008  0.3850243E+03  0.7957747E-01  0.3429569E+00
         13   -1    0    0    0    0  0.00000000000E+00  0.00000000000E+00  0.14999999963E+04  0.15000000000E+04  0.10566000000E+00 0. -1.
        994   -1    0    0    0    0 -0.00000000000E+00 -0.00000000000E+00  0.11368683772E-12  0.17120000000E+03  0.17120000000E+03 0.  0.
         13    1    1    2    0    0 -0.12122897132E+02 -0.92987241049E+01  0.72313599578E+02  0.73910072067E+02  0.10566000000E+00 0. -1.
        994    1    1    2    0    0  0.11609535645E+02  0.93707022441E+00  0.20643147061E+01  0.17160816069E+03  0.17120000000E+03 0.  0.
        998    1    1    2    0    0  0.51336148618E+00  0.83616538805E+01  0.14256220820E+04  0.14256817672E+04  0.10000000000E+02 0. -1.
</event>
<event>
 5    1  0.1556794E-008  0.4038766E+03  0.7957747E-01  0.3353358E+00
         13   -1    0    0    0    0  0.00000000000E+00  0.00000000000E+00  0.14999999963E+04  0.15000000000E+04  0.10566000000E+00 0.  1.
        994   -1    0    0    0    0 -0.00000000000E+00 -0.00000000000E+00  0.11368683772E-12  0.17120000000E+03  0.17120000000E+03 0.  0.
         13    1    1    2    0    0  0.19079223299E+02  0.13931177649E+02 -0.41018841726E+01  0.23977720704E+02  0.10566000000E+00 0.  1.
        994    1    1    2    0    0 -0.34770503347E+02 -0.24871361190E+02  0.37419143530E+02  0.18038072184E+03  0.17120000000E+03 0.  0.
        998    1    1    2    0    0  0.15691280048E+02  0.10940183541E+02  0.14666827369E+04  0.14668415575E+04  0.10000000000E+02 0.  1.
</event>
<event>
 5    1  0.1556794E-008  0.3793825E+03  0.7957747E-01  0.3453851E+00
         13   -1    0    0    0    0  0.00000000000E+00  0.00000000000E+00  0.14999999963E+04  0.15000000000E+04  0.10566000000E+00 0.  1.
        994   -1    0    0    0    0 -0.00000000000E+00 -0.00000000000E+00  0.11368683772E-12  0.17120000000E+03  0.17120000000E+03 0.  0.
         13    1    1    2    0    0 -0.26974819156E+02  0.31457597785E+02  0.18817079088E+03  0.19267973176E+03  0.10566000000E+00 0.  1.
        994    1    1    2    0    0  0.49264549893E+01 -0.31343491419E+02  0.78246565847E+01  0.17429099134E+03  0.17120000000E+03 0.  0.
        998    1    1    2    0    0  0.22048364166E+02 -0.11410636555E+00  0.13040045488E+04  0.13042292769E+04  0.10000000000E+02 0.  1.
</event>
<event>
 5    1  0.1556794E-008  0.3806855E+03  0.7957747E-01  0.3448179E+00
         13   -1    0    0    0    0  0.00000000000E+00  0.00000000000E+00  0.14999999963E+04  0.15000000000E+04  0.10566000000E+00 0.  1.
        994   -1    0    0    0    0 -0.00000000000E+00 -0.00000000000E+00  0.11368683772E-12  0.17120000000E+03  0.17120000000E+03 0.  0.
         13    1    1    2    0    0  0.12141343758E+01  0.13914260435E+02  0.24542745717E+02  0.28238950000E+02  0.10566000000E+00 0.  1.
        994    1    1    2    0    0  0.11378704457E+01 -0.54678550255E+01  0.38915716147E+01  0.17133527517E+03  0.17120000000E+03 0.  0.
        998    1    1    2    0    0 -0.23520048215E+01 -0.84464054098E+01  0.14715656789E+04  0.14716257748E+04  0.10000000000E+02 0.  1.
</event>
<event>
 5    1  0.1556794E-008  0.3809846E+03  0.7957747E-01  0.3446882E+00
         13   -1    0    0    0    0  0.00000000000E+00  0.00000000000E+00  0.14999999963E+04  0.15000000000E+04  0.10566000000E+00 0.  1.
        994   -1    0    0    0    0 -0.00000000000E+00 -0.00000000000E+00  0.11368683772E-12  0.17120000000E+03  0.17120000000E+03 0.  0.
         13    1    1    2    0    0 -0.53137964986E+01 -0.13904302479E+02  0.29789292728E+02  0.33301339101E+02  0.10566000000E+00 0.  1.
        994    1    1    2    0    0  0.34251655834E+01  0.11531989527E+01  0.36804750821E+01  0.17127769126E+03  0.17120000000E+03 0.  0.
        998    1    1    2    0    0  0.18886309152E+01  0.12751103526E+02  0.14665302285E+04  0.14666209696E+04  0.10000000000E+02 0.  1.
</event>
<event>
 5    1  0.1556794E-008  0.3329774E+03  0.7957747E-01  0.3685509E+00
         13   -1    0    0    0    0  0.00000000000E+00  0.00000000000E+00  0.14999999963E+04  0.15000000000E+04  0.10566000000E+00 0.  1.
        994   -1    0    0    0    0 -0.00000000000E+00 -0.00000000000E+00  0.11368683772E-12  0.17120000000E+03  0.17120000000E+03 0.  0.
         13    1    1    2    0    0  0.18118275595E+03 -0.12838054806E+02  0.10265554073E+04  0.10425008499E+04  0.10566000000E+00 0.  1.
        994    1    1    2    0    0 -0.11085605287E+03  0.27669570899E+02  0.67933723436E+02  0.21674662718E+03  0.17120000000E+03 0.  0.
        998    1    1    2    0    0 -0.70326703080E+02 -0.14831516092E+02  0.40551086555E+03  0.41195252289E+03  0.10000000000E+02 0.  1.
</event>
<event>
 5    1  0.1556794E-008  0.3847004E+03  0.7957747E-01  0.3430944E+00
         13   -1    0    0    0    0  0.00000000000E+00  0.00000000000E+00  0.14999999963E+04  0.15000000000E+04  0.10566000000E+00 0.  1.
        994   -1    0    0    0    0 -0.00000000000E+00 -0.00000000000E+00  0.11368683772E-12  0.17120000000E+03  0.17120000000E+03 0.  0.
         13    1    1    2    0    0  0.81292858437E+01  0.67926039217E+01  0.32021683965E+02  0.33728684592E+02  0.10566000000E+00 0.  1.
        994    1    1    2    0    0  0.75627387548E+00 -0.29911680274E+01  0.18103193306E+01  0.17123736827E+03  0.17120000000E+03 0.  0.
        998    1    1    2    0    0 -0.88855597192E+01 -0.38014358943E+01  0.14661679930E+04  0.14662339471E+04  0.10000000000E+02 0.  1.
</event>
<event>
 5    1  0.1556794E-008  0.3847335E+03  0.7957747E-01  0.3430803E+00
         13   -1    0    0    0    0  0.00000000000E+00  0.00000000000E+00  0.14999999963E+04  0.15000000000E+04  0.10566000000E+00 0.  1.
        994   -1    0    0    0    0 -0.00000000000E+00 -0.00000000000E+00  0.11368683772E-12  0.17120000000E+03  0.17120000000E+03 0.  0.
         13    1    1    2    0    0 -0.39312451457E+01 -0.11320269483E+02  0.45783007001E+02  0.47325448584E+02  0.10566000000E+00 0.  1.
        994    1    1    2    0    0 -0.43011049237E+01 -0.14599417587E+02  0.25253352540E+01  0.17189374571E+03  0.17120000000E+03 0.  0.
        998    1    1    2    0    0  0.82323500693E+01  0.25919687071E+02  0.14516916540E+04  0.14519808057E+04  0.10000000000E+02 0.  1.
</event>
<event>
 5    1  0.1556794E-008  0.3804878E+03  0.7957747E-01  0.3449037E+00
         13   -1    0    0    0    0  0.00000000000E+00  0.00000000000E+00  0.14999999963E+04  0.15000000000E+04  0.10566000000E+00 0. -1.
        994   -1    0    0    0    0 -0.00000000000E+00 -0.00000000000E+00  0.11368683772E-12  0.17120000000E+03  0.17120000000E+03 0.  0.
         13    1    1    2    0    0  0.17914596714E+02 -0.25972511449E+02  0.11712050914E+03  0.12129603849E+03  0.10566000000E+00 0. -1.
        994    1    1    2    0    0 -0.18061152485E+02  0.27430812138E+02  0.74955466578E+01  0.17448288714E+03  0.17120000000E+03 0.  0.
        998    1    1    2    0    0  0.14655577080E+00 -0.14583006890E+01  0.13753839405E+04  0.13754210744E+04  0.10000000000E+02 0. -1.
</event>
<event>
 5    1  0.1556794E-008  0.3855305E+03  0.7957747E-01  0.3427425E+00
         13   -1    0    0    0    0  0.00000000000E+00  0.00000000000E+00  0.14999999963E+04  0.15000000000E+04  0.10566000000E+00 0.  1.
        994   -1    0    0    0    0 -0.00000000000E+00 -0.00000000000E+00  0.11368683772E-12  0.17120000000E+03  0.17120000000E+03 0.  0.
         13    1    1    2    0    0 -0.61460098253E+01  0.97898739916E+01  0.49637345121E+02  0.50965598831E+02  0.10566000000E+00 0.  1.
        994    1    1    2    0    0  0.64609548089E+01 -0.30152722773E+01  0.15339030222E+01  0.17135527031E+03  0.17120000000E+03 0.  0.
        998    1    1    2    0    0 -0.31494498362E+00 -0.67746017143E+01  0.14488287481E+04  0.14488791309E+04  0.10000000000E+02 0.  1.
</event>
<event>
 5    1  0.1556794E-008  0.3841069E+03  0.7957747E-01  0.3433469E+00
         13   -1    0    0    0    0  0.00000000000E+00  0.00000000000E+00  0.14999999963E+04  0.15000000000E+04  0.10566000000E+00 0.  1.
        994   -1    0    0    0    0 -0.00000000000E+00 -0.00000000000E+00  0.11368683772E-12  0.17120000000E+03  0.17120000000E+03 0.  0.
         13    1    1    2    0    0 -0.16533465275E+02  0.15925544538E+02  0.12001883597E+03  0.12219456041E+03  0.10566000000E+00 0.  1.
        994    1    1    2    0    0  0.90392005585E+01 -0.21320152182E+02  0.38448822254E+01  0.17280184940E+03  0.17120000000E+03 0.  0.
        998    1    1    2    0    0  0.74942647161E+01  0.53946076439E+01  0.13761362781E+04  0.13762035902E+04  0.10000000000E+02 0.  1.
</event>
<event>
 5    1  0.1556794E-008  0.3731022E+03  0.7957747E-01  0.3481754E+00
         13   -1    0    0    0    0  0.00000000000E+00  0.00000000000E+00  0.14999999963E+04  0.15000000000E+04  0.10566000000E+00 0. -1.
        994   -1    0    0    0    0 -0.00000000000E+00 -0.00000000000E+00  0.11368683772E-12  0.17120000000E+03  0.17120000000E+03 0.  0.
         13    1    1    2    0    0  0.55543433076E+02 -0.33562197201E+02  0.26187253899E+03  0.26979386924E+03  0.10566000000E+00 0. -1.
        994    1    1    2    0    0 -0.29396524259E+02  0.35909606214E+02  0.15060517132E+02  0.17801661336E+03  0.17120000000E+03 0.  0.
        998    1    1    2    0    0 -0.26146908817E+02 -0.23474090130E+01  0.12230669402E+04  0.12233895174E+04  0.10000000000E+02 0. -1.
</event>
<event>
 5    1  0.1556794E-008  0.3745407E+03  0.7957747E-01  0.3475279E+00
         13   -1    0    0    0    0  0.00000000000E+00  0.00000000000E+00  0.14999999963E+04  0.15000000000E+04  0.10566000000E+00 0. -1.
        994   -1    0    0    0    0 -0.00000000000E+00 -0.00000000000E+00  0.11368683772E-12  0.17120000000E+03  0.17120000000E+03 0.  0.
         13    1    1    2    0    0  0.38241330269E+02 -0.94785580410E+02  0.49231695918E+03  0.50281478206E+03  0.10566000000E+00 0. -1.
        994    1    1    2    0    0 -0.44101507324E+02  0.93096433011E+02  0.43948580000E+02  0.20457958469E+03  0.17120000000E+03 0.  0.
        998    1    1    2    0    0  0.58601770542E+01  0.16891473991E+01  0.96373445709E+03  0.96380563325E+03  0.10000000000E+02 0.  0.
</event>
<event>
 5    1  0.1556794E-008  0.3813482E+03  0.7957747E-01  0.3445309E+00
         13   -1    0    0    0    0  0.00000000000E+00  0.00000000000E+00  0.14999999963E+04  0.15000000000E+04  0.10566000000E+00 0. -1.
        994   -1    0    0    0    0 -0.00000000000E+00 -0.00000000000E+00  0.11368683772E-12  0.17120000000E+03  0.17120000000E+03 0.  0.
         13    1    1    2    0    0  0.10111440386E+02  0.82801217163E+01  0.23341625123E+02  0.26751528362E+02  0.10566000000E+00 0. -1.
        994    1    1    2    0    0 -0.39511693449E+01 -0.98282893679E+01  0.38276396384E+01  0.17157009598E+03  0.17120000000E+03 0.  0.
        998    1    1    2    0    0 -0.61602710415E+01  0.15481676516E+01  0.14728307315E+04  0.14728783757E+04  0.10000000000E+02 0. -1.
</event>
<event>
 5    1  0.1556794E-008  0.3831717E+03  0.7957747E-01  0.3437463E+00
         13   -1    0    0    0    0  0.00000000000E+00  0.00000000000E+00  0.14999999963E+04  0.15000000000E+04  0.10566000000E+00 0. -1.
        994   -1    0    0    0    0 -0.00000000000E+00 -0.00000000000E+00  0.11368683772E-12  0.17120000000E+03  0.17120000000E+03 0.  0.
         13    1    1    2    0    0 -0.10728571393E+02 -0.18743639896E+01  0.22000509326E+02  0.24548911568E+02  0.10566000000E+00 0. -1.
        994    1    1    2    0    0  0.13423783047E+02  0.24672390387E+01  0.31570928042E+01  0.17177221095E+03  0.17120000000E+03 0.  0.
        998    1    1    2    0    0 -0.26952116542E+01 -0.59287504915E+00  0.14748423941E+04  0.14748788775E+04  0.10000000000E+02 0. -1.
</event>
<event>
 5    1  0.1556794E-008  0.3761918E+03  0.7957747E-01  0.3467910E+00
         13   -1    0    0    0    0  0.00000000000E+00  0.00000000000E+00  0.14999999963E+04  0.15000000000E+04  0.10566000000E+00 0. -1.
        994   -1    0    0    0    0 -0.00000000000E+00 -0.00000000000E+00  0.11368683772E-12  0.17120000000E+03  0.17120000000E+03 0.  0.
         13    1    1    2    0    0 -0.16685958121E+02  0.19568676310E+02  0.51672850213E+02  0.57718704976E+02  0.10566000000E+00 0. -1.
        994    1    1    2    0    0  0.21459845273E+02 -0.74326496762E+01  0.78161393552E+01  0.17287654923E+03  0.17120000000E+03 0.  0.
        998    1    1    2    0    0 -0.47738871520E+01 -0.12136026634E+02  0.14405110067E+04  0.14406047458E+04  0.10000000000E+02 0. -1.
</event>
<event>
 5    1  0.1556794E-008  0.3858796E+03  0.7957747E-01  0.3425950E+00
         13   -1    0    0    0    0  0.00000000000E+00  0.00000000000E+00  0.14999999963E+04  0.15000000000E+04  0.10566000000E+00 0.  1.
        994   -1    0    0    0    0 -0.00000000000E+00 -0.00000000000E+00  0.11368683772E-12  0.17120000000E+03  0.17120000000E+03 0.  0.
         13    1    1    2    0    0 -0.51061223251E+01  0.12834293968E+02  0.79663199201E+02  0.80851889636E+02  0.10566000000E+00 0.  1.
        994    1    1    2    0    0  0.21800303091E+01 -0.10536005709E+02  0.15737770347E+01  0.17154496997E+03  0.17120000000E+03 0.  0.
        998    1    1    2    0    0  0.29260920160E+01 -0.22982882586E+01  0.14187630200E+04  0.14188031404E+04  0.10000000000E+02 0.  1.
</event>
<event>
 5    1  0.1556794E-008  0.3833388E+03  0.7957747E-01  0.3436748E+00
         13   -1    0    0    0    0  0.00000000000E+00  0.00000000000E+00  0.14999999963E+04  0.15000000000E+04  0.10566000000E+00 0. -1.
        994   -1    0    0    0    0 -0.00000000000E+00 -0.00000000000E+00  0.11368683772E-12  0.17120000000E+03  0.17120000000E+03 0.  0.
         13    1    1    2    0    0 -0.21203076450E+02 -0.25352844986E+01  0.87800400969E+02  0.90359945179E+02  0.10566000000E+00 0. -1.
        994    1    1    2    0    0  0.21714117743E+02 -0.10660796942E+01  0.40214451163E+01  0.17262170042E+03  0.17120000000E+03 0.  0.
        998    1    1    2    0    0 -0.51104129307E+00  0.36013641928E+01  0.14081781502E+04  0.14082183544E+04  0.10000000000E+02 0. -1.
</event>
<event>
 5    1  0.1556794E-008  0.3851435E+03  0.7957747E-01  0.3429064E+00
         13   -1    0    0    0    0  0.00000000000E+00  0.00000000000E+00  0.14999999963E+04  0.15000000000E+04  0.10566000000E+00 0.  1.
        994   -1    0    0    0    0 -0.00000000000E+00 -0.00000000000E+00  0.11368683772E-12  0.17120000000E+03  0.17120000000E+03 0.  0.
         13    1    1    2    0    0 -0.14869815440E+02  0.69812688052E+01  0.84138596185E+02  0.85727265543E+02  0.10566000000E+00 0.  1.
        994    1    1    2    0    0  0.11177978520E+02 -0.10974486549E+02  0.23659523035E+01  0.17193145230E+03  0.17120000000E+03 0.  0.
        998    1    1    2    0    0  0.36918369196E+01  0.39932177435E+01  0.14134954478E+04  0.14135412822E+04  0.10000000000E+02 0.  1.
</event>
<event>
 5    1  0.1556794E-008  0.3854711E+03  0.7957747E-01  0.3427677E+00
         13   -1    0    0    0    0  0.00000000000E+00  0.00000000000E+00  0.14999999963E+04  0.15000000000E+04  0.10566000000E+00 0.  1.
        994   -1    0    0    0    0 -0.00000000000E+00 -0.00000000000E+00  0.11368683772E-12  0.17120000000E+03  0.17120000000E+03 0.  0.
         13    1    1    2    0    0 -0.62562830910E+01 -0.91289405520E+01  0.42475321093E+02  0.43893538246E+02  0.10566000000E+00 0.  1.
        994    1    1    2    0    0  0.74263928319E+01  0.11690737663E+02  0.20265673762E+01  0.17177127709E+03  0.17120000000E+03 0.  0.
        998    1    1    2    0    0 -0.11701097409E+01 -0.25617971109E+01  0.14554981078E+04  0.14555351847E+04  0.10000000000E+02 0.  1.
</event>
<event>
 5    1  0.1556794E-008  0.3808563E+03  0.7957747E-01  0.3447438E+00
         13   -1    0    0    0    0  0.00000000000E+00  0.00000000000E+00  0.14999999963E+04  0.15000000000E+04  0.10566000000E+00 0.  1.
        994   -1    0    0    0    0 -0.00000000000E+00 -0.00000000000E+00  0.11368683772E-12  0.17120000000E+03  0.17120000000E+03 0.  0.
         13    1    1    2    0    0 -0.29082860456E+02 -0.58134456683E+01  0.10969943464E+03  0.11363796041E+03  0.10566000000E+00 0.  1.
        994    1    1    2    0    0  0.29067609698E+02  0.90039790631E+01  0.67944373236E+01  0.17401609682E+03  0.17120000000E+03 0.  0.
        998    1    1    2    0    0  0.15250758264E-01 -0.31905333948E+01  0.13835061243E+04  0.13835459428E+04  0.10000000000E+02 0.  1.
</event>
<event>
 5    1  0.1556794E-008  0.3724485E+03  0.7957747E-01  0.3484713E+00
         13   -1    0    0    0    0  0.00000000000E+00  0.00000000000E+00  0.14999999963E+04  0.15000000000E+04  0.10566000000E+00 0. -1.
        994   -1    0    0    0    0 -0.00000000000E+00 -0.00000000000E+00  0.11368683772E-12  0.17120000000E+03  0.17120000000E+03 0.  0.
         13    1    1    2    0    0  0.17105683477E+02  0.35404876862E+01  0.15362351164E+02  0.23262683800E+02  0.10566000000E+00 0. -1.
        994    1    1    2    0    0 -0.18745969672E+02 -0.31027571701E+01  0.92337159671E+01  0.17249852171E+03  0.17120000000E+03 0.  0.
        998    1    1    2    0    0  0.16402861951E+01 -0.43773051614E+00  0.14754039291E+04  0.14754387945E+04  0.10000000000E+02 0. -1.
</event>
<event>
 5    1  0.1556794E-008  0.3854613E+03  0.7957747E-01  0.3427718E+00
         13   -1    0    0    0    0  0.00000000000E+00  0.00000000000E+00  0.14999999963E+04  0.15000000000E+04  0.10566000000E+00 0.  1.
        994   -1    0    0    0    0 -0.00000000000E+00 -0.00000000000E+00  0.11368683772E-12  0.17120000000E+03  0.17120000000E+03 0.  0.
         13    1    1    2    0    0 -0.11981005410E+02  0.76400276598E+01  0.72658355376E+02  0.74034872075E+02  0.10566000000E+00 0.  1.
        994    1    1    2    0    0  0.88331955596E+01 -0.25776352566E+01  0.16793757922E+01  0.17145532902E+03  0.17120000000E+03 0.  0.
        998    1    1    2    0    0  0.31478098506E+01 -0.50623924032E+01  0.14256622651E+04  0.14257097989E+04  0.10000000000E+02 0.  1.
</event>
<event>
 5    1  0.1556794E-008  0.3775393E+03  0.7957747E-01  0.3461943E+00
         13   -1    0    0    0    0  0.00000000000E+00  0.00000000000E+00  0.14999999963E+04  0.15000000000E+04  0.10566000000E+00 0. -1.
        994   -1    0    0    0    0 -0.00000000000E+00 -0.00000000000E+00  0.11368683772E-12  0.17120000000E+03  0.17120000000E+03 0.  0.
         13    1    1    2    0    0 -0.62052241216E+02  0.99965670561E+02  0.68132883676E+03  0.69141348764E+03  0.10566000000E+00 0. -1.
        994    1    1    2    0    0  0.58449579291E+02 -0.10115319817E+03  0.52855172058E+02  0.21389584389E+03  0.17120000000E+03 0.  0.
        998    1    1    2    0    0  0.36026619250E+01  0.11875276112E+01  0.76581598747E+03  0.76589066847E+03  0.10000000000E+02 0.  0.
</event>
<event>
 5    1  0.1556794E-008  0.3761834E+03  0.7957747E-01  0.3467947E+00
         13   -1    0    0    0    0  0.00000000000E+00  0.00000000000E+00  0.14999999963E+04  0.15000000000E+04  0.10566000000E+00 0. -1.
        994   -1    0    0    0    0 -0.00000000000E+00 -0.00000000000E+00  0.11368683772E-12  0.17120000000E+03  0.17120000000E+03 0.  0.
         13    1    1    2    0    0  0.37099034918E+02  0.39319905671E+02  0.25699298768E+03  0.26261721241E+03  0.10566000000E+00 0. -1.
        994    1    1    2    0    0 -0.20242432837E+02 -0.95429876516E+01  0.77697416675E+01  0.17283122862E+03  0.17120000000E+03 0.  0.
        998    1    1    2    0    0 -0.16856602081E+02 -0.29776918020E+02  0.12352372669E+04  0.12357515590E+04  0.10000000000E+02 0. -1.
</event>
<event>
 5    1  0.1556794E-008  0.3853221E+03  0.7957747E-01  0.3428307E+00
         13   -1    0    0    0    0  0.00000000000E+00  0.00000000000E+00  0.14999999963E+04  0.15000000000E+04  0.10566000000E+00 0. -1.
        994   -1    0    0    0    0 -0.00000000000E+00 -0.00000000000E+00  0.11368683772E-12  0.17120000000E+03  0.17120000000E+03 0.  0.
         13    1    1    2    0    0 -0.10224275756E+02  0.10131507479E+02  0.75060118798E+02  0.76427847389E+02  0.10566000000E+00 0. -1.
        994    1    1    2    0    0 -0.24002571258E+01 -0.40999228248E+01  0.15444831907E+01  0.17127287009E+03  0.17120000000E+03 0.  0.
        998    1    1    2    0    0  0.12624532882E+02 -0.60315846545E+01  0.14233953943E+04  0.14234992825E+04  0.10000000000E+02 0. -1.
</event>
<event>
 5    1  0.1556794E-008  0.4081524E+03  0.7957747E-01  0.3337048E+00
         13   -1    0    0    0    0  0.00000000000E+00  0.00000000000E+00  0.14999999963E+04  0.15000000000E+04  0.10566000000E+00 0. -1.
        994   -1    0    0    0    0 -0.00000000000E+00 -0.00000000000E+00  0.11368683772E-12  0.17120000000E+03  0.17120000000E+03 0.  0.
         13    1    1    2    0    0  0.31582397790E+02  0.46988668039E+02  0.31182403596E+02  0.64635410050E+02  0.10566000000E+00 0. -1.
        994    1    1    2    0    0  0.22276295411E+02 -0.12622588609E+03  0.10303967406E+03  0.23739381223E+03  0.17120000000E+03 0.  0.
        998    1    1    2    0    0 -0.53858693201E+02  0.79237218050E+02  0.13657779186E+04  0.13691707777E+04  0.10000000000E+02 0. -1.
</event>
<event>
 5    1  0.1556794E-008  0.3984101E+03  0.7957747E-01  0.3374716E+00
         13   -1    0    0    0    0  0.00000000000E+00  0.00000000000E+00  0.14999999963E+04  0.15000000000E+04  0.10566000000E+00 0. -1.
        994   -1    0    0    0    0 -0.00000000000E+00 -0.00000000000E+00  0.11368683772E-12  0.17120000000E+03  0.17120000000E+03 0.  0.
         13    1    1    2    0    0 -0.34844274735E+02 -0.44963436986E+02  0.48430336129E+02  0.74708384864E+02  0.10566000000E+00 0. -1.
        994    1    1    2    0    0  0.38202282002E+02  0.49679634102E+02  0.42271993293E+02  0.18714657841E+03  0.17120000000E+03 0.  0.
        998    1    1    2    0    0 -0.33580072671E+01 -0.47161971162E+01  0.14092976669E+04  0.14093450367E+04  0.10000000000E+02 0. -1.
</event>
<event>
 5    1  0.1556794E-008  0.3745573E+03  0.7957747E-01  0.3475205E+00
         13   -1    0    0    0    0  0.00000000000E+00  0.00000000000E+00  0.14999999963E+04  0.15000000000E+04  0.10566000000E+00 0.  1.
        994   -1    0    0    0    0 -0.00000000000E+00 -0.00000000000E+00  0.11368683772E-12  0.17120000000E+03  0.17120000000E+03 0.  0.
         13    1    1    2    0    0  0.13071444231E+02  0.58037109051E+02  0.11725693067E+03  0.13148523733E+03  0.10566000000E+00 0.  1.
        994    1    1    2    0    0 -0.15628527861E+02 -0.60202202586E+02  0.27243753357E+02  0.18417442324E+03  0.17120000000E+03 0.  0.
        998    1    1    2    0    0  0.25570836307E+01  0.21650935345E+01  0.13554993123E+04  0.13555403394E+04  0.10000000000E+02 0.  1.
</event>
<event>
 5    1  0.1556794E-008  0.3816318E+03  0.7957747E-01  0.3444084E+00
         13   -1    0    0    0    0  0.00000000000E+00  0.00000000000E+00  0.14999999963E+04  0.15000000000E+04  0.10566000000E+00 0.  1.
        994   -1    0    0    0    0 -0.00000000000E+00 -0.00000000000E+00  0.11368683772E-12  0.17120000000E+03  0.17120000000E+03 0.  0.
         13    1    1    2    0    0  0.28200201446E+02  0.25114575960E+02  0.21143182245E+03  0.21477760590E+03  0.10566000000E+00 0.  1.
        994    1    1    2    0    0 -0.97024484541E+01 -0.24598870762E+02  0.56401337469E+01  0.17332193473E+03  0.17120000000E+03 0.  0.
        998    1    1    2    0    0 -0.18497752992E+02 -0.51570519774E+00  0.12829280401E+04  0.12831004594E+04  0.10000000000E+02 0.  1.
</event>
<event>
 5    1  0.1556794E-008  0.3858269E+03  0.7957747E-01  0.3426173E+00
         13   -1    0    0    0    0  0.00000000000E+00  0.00000000000E+00  0.14999999963E+04  0.15000000000E+04  0.10566000000E+00 0. -1.
        994   -1    0    0    0    0 -0.00000000000E+00 -0.00000000000E+00  0.11368683772E-12  0.17120000000E+03  0.17120000000E+03 0.  0.
         13    1    1    2    0    0  0.44652986530E+02  0.19674057667E+02  0.52220619368E+02  0.71470007712E+02  0.10566000000E+00 0. -1.
        994    1    1    2    0    0 -0.35057116812E+02 -0.35729830717E+02  0.28902105642E+02  0.18069420011E+03  0.17120000000E+03 0.  0.
        998    1    1    2    0    0 -0.95958697177E+01  0.16055773050E+02  0.14188772713E+04  0.14190357922E+04  0.10000000000E+02 0. -1.
</event>
<event>
 5    1  0.1556794E-008  0.3739065E+03  0.7957747E-01  0.3478128E+00
         13   -1    0    0    0    0  0.00000000000E+00  0.00000000000E+00  0.14999999963E+04  0.15000000000E+04  0.10566000000E+00 0.  1.
        994   -1    0    0    0    0 -0.00000000000E+00 -0.00000000000E+00  0.11368683772E-12  0.17120000000E+03  0.17120000000E+03 0.  0.
         13    1    1    2    0    0 -0.17149925900E+01 -0.49879811876E+02  0.16850210210E+03  0.17573817573E+03  0.10566000000E+00 0.  1.
        994    1    1    2    0    0  0.92810839491E+01  0.30317834615E+02  0.10678938495E+02  0.17443849731E+03  0.17120000000E+03 0.  0.
        998    1    1    2    0    0 -0.75660913591E+01  0.19561977261E+02  0.13208189557E+04  0.13210233270E+04  0.10000000000E+02 0. -1.
</event>
<event>
 5    1  0.1556794E-008  0.3844578E+03  0.7957747E-01  0.3431975E+00
         13   -1    0    0    0    0  0.00000000000E+00  0.00000000000E+00  0.14999999963E+04  0.15000000000E+04  0.10566000000E+00 0.  1.
        994   -1    0    0    0    0 -0.00000000000E+00 -0.00000000000E+00  0.11368683772E-12  0.17120000000E+03  0.17120000000E+03 0.  0.
         13    1    1    2    0    0 -0.24655765019E+01  0.17262235470E+02  0.80200861170E+02  0.82074680245E+02  0.10566000000E+00 0.  1.
        994    1    1    2    0    0 -0.31539786745E+02 -0.16545051681E+02  0.60897673648E+01  0.17497148953E+03  0.17120000000E+03 0.  0.
        998    1    1    2    0    0  0.34005363247E+02 -0.71718378885E+00  0.14137093677E+04  0.14141538302E+04  0.10000000000E+02 0.  1.
</event>
<event>
 5    1  0.1556794E-008  0.3793130E+03  0.7957747E-01  0.3454155E+00
         13   -1    0    0    0    0  0.00000000000E+00  0.00000000000E+00  0.14999999963E+04  0.15000000000E+04  0.10566000000E+00 0. -1.
        994   -1    0    0    0    0 -0.00000000000E+00 -0.00000000000E+00  0.11368683772E-12  0.17120000000E+03  0.17120000000E+03 0.  0.
         13    1    1    2    0    0 -0.32473521431E+01  0.34898866250E+02  0.12831923344E+03  0.13301997217E+03  0.10566000000E+00 0. -1.
        994    1    1    2    0    0  0.16012083503E+02 -0.29438037058E+02  0.82520774800E+01  0.17464398537E+03  0.17120000000E+03 0.  0.
        998    1    1    2    0    0 -0.12764731359E+02 -0.54608291927E+01  0.13634286854E+04  0.13635360425E+04  0.10000000000E+02 0. -1.
</event>
<event>
 5    1  0.1556794E-008  0.3833742E+03  0.7957747E-01  0.3436597E+00
         13   -1    0    0    0    0  0.00000000000E+00  0.00000000000E+00  0.14999999963E+04  0.15000000000E+04  0.10566000000E+00 0.  1.
        994   -1    0    0    0    0 -0.00000000000E+00 -0.00000000000E+00  0.11368683772E-12  0.17120000000E+03  0.17120000000E+03 0.  0.
         13    1    1    2    0    0  0.23526114015E+01 -0.20374513000E+02  0.81539141738E+02  0.84079119642E+02  0.10566000000E+00 0.  1.
        994    1    1    2    0    0 -0.70888176346E+01  0.20620334353E+02  0.40129150052E+01  0.17262964117E+03  0.17120000000E+03 0.  0.
        998    1    1    2    0    0  0.47362062331E+01 -0.24582135356E+00  0.14144479395E+04  0.14144912392E+04  0.10000000000E+02 0.  1.
</event>
<event>
 5    1  0.1556794E-008  0.3853848E+03  0.7957747E-01  0.3428042E+00
         13   -1    0    0    0    0  0.00000000000E+00  0.00000000000E+00  0.14999999963E+04  0.15000000000E+04  0.10566000000E+00 0. -1.
        994   -1    0    0    0    0 -0.00000000000E+00 -0.00000000000E+00  0.11368683772E-12  0.17120000000E+03  0.17120000000E+03 0.  0.
         13    1    1    2    0    0 -0.74724223975E+01  0.10669620635E+02  0.57412332868E+02  0.58871597824E+02  0.10566000000E+00 0. -1.
        994    1    1    2    0    0  0.98439638976E+01 -0.95315260094E+01  0.20561499538E+01  0.17175977808E+03  0.17120000000E+03 0.  0.
        998    1    1    2    0    0 -0.23715415001E+01 -0.11380946258E+01  0.14405315135E+04  0.14405686241E+04  0.10000000000E+02 0. -1.
</event>
<event>
 5    1  0.1556794E-008  0.3844681E+03  0.7957747E-01  0.3431931E+00
         13   -1    0    0    0    0  0.00000000000E+00  0.00000000000E+00  0.14999999963E+04  0.15000000000E+04  0.10566000000E+00 0.  1.
        994   -1    0    0    0    0 -0.00000000000E+00 -0.00000000000E+00  0.11368683772E-12  0.17120000000E+03  0.17120000000E+03 0.  0.
         13    1    1    2    0    0  0.18537074428E+02  0.12444561213E+02  0.12251875103E+03  0.12453652376E+03  0.10566000000E+00 0.  1.
        994    1    1    2    0    0 -0.20009003065E+02 -0.10481151475E+02  0.35770815844E+01  0.17272072908E+03  0.17120000000E+03 0.  0.
        998    1    1    2    0    0  0.14719286376E+01 -0.19634097373E+01  0.13739041637E+04  0.13739427472E+04  0.10000000000E+02 0. -1.
</event>
<event>
 5    1  0.1556794E-008  0.3789500E+03  0.7957747E-01  0.3455743E+00
         13   -1    0    0    0    0  0.00000000000E+00  0.00000000000E+00  0.14999999963E+04  0.15000000000E+04  0.10566000000E+00 0. -1.
        994   -1    0    0    0    0 -0.00000000000E+00 -0.00000000000E+00  0.11368683772E-12  0.17120000000E+03  0.17120000000E+03 0.  0.
         13    1    1    2    0    0  0.99477401712E+01  0.29635000107E+02  0.10689089715E+03  0.11136815444E+03  0.10566000000E+00 0. -1.
        994    1    1    2    0    0 -0.36589137780E+01 -0.11277946658E+02  0.51358210458E+01  0.17168691385E+03  0.17120000000E+03 0.  0.
        998    1    1    2    0    0 -0.62888263932E+01 -0.18357053449E+02  0.13879732781E+04  0.13881449317E+04  0.10000000000E+02 0. -1.
</event>
<event>
 5    1  0.1556794E-008  0.3810390E+03  0.7957747E-01  0.3446647E+00
         13   -1    0    0    0    0  0.00000000000E+00  0.00000000000E+00  0.14999999963E+04  0.15000000000E+04  0.10566000000E+00 0.  1.
        994   -1    0    0    0    0 -0.00000000000E+00 -0.00000000000E+00  0.11368683772E-12  0.17120000000E+03  0.17120000000E+03 0.  0.
         13    1    1    2    0    0  0.15223723686E+02 -0.28350312091E+02  0.16803843128E+03  0.17109186862E+03  0.10566000000E+00 0.  1.
        994    1    1    2    0    0 -0.83126776607E+01 -0.84779103202E+01  0.40793708567E+01  0.17165971234E+03  0.17120000000E+03 0.  0.
        998    1    1    2    0    0 -0.69110460256E+01  0.36828222411E+02  0.13278821941E+04  0.13284484190E+04  0.10000000000E+02 0.  1.
</event>
<event>
 5    1  0.1556794E-008  0.2540371E+03  0.7957747E-01  0.4290887E+00
         13   -1    0    0    0    0  0.00000000000E+00  0.00000000000E+00  0.14999999963E+04  0.15000000000E+04  0.10566000000E+00 0. -1.
        994   -1    0    0    0    0 -0.00000000000E+00 -0.00000000000E+00  0.11368683772E-12  0.17120000000E+03  0.17120000000E+03 0.  0.
         13    1    1    2    0    0 -0.62668171595E+02 -0.20233571103E+03  0.51189475199E+03  0.55398852693E+03  0.10566000000E+00 0. -1.
        994    1    1    2    0    0  0.31967876015E+02  0.60407233809E+02  0.85952016435E+02  0.20339166188E+03  0.17120000000E+03 0.  0.
        998    1    1    2    0    0  0.30700295580E+02  0.14192847722E+03  0.90215322786E+03  0.91381981119E+03  0.10000000000E+02 0. -1.
</event>
<event>
 5    1  0.1556794E-008  0.3848134E+03  0.7957747E-01  0.3430464E+00
         13   -1    0    0    0    0  0.00000000000E+00  0.00000000000E+00  0.14999999963E+04  0.15000000000E+04  0.10566000000E+00 0.  1.
        994   -1    0    0    0    0 -0.00000000000E+00 -0.00000000000E+00  0.11368683772E-12  0.17120000000E+03  0.17120000000E+03 0.  0.
         13    1    1    2    0    0  0.12231007112E+02 -0.13287326592E+02  0.88561171461E+02  0.90383863812E+02  0.10566000000E+00 0.  1.
        994    1    1    2    0    0 -0.11230779419E+02  0.18044078788E+02  0.32106861301E+01  0.17254410361E+03  0.17120000000E+03 0.  0.
        998    1    1    2    0    0 -0.10002276932E+01 -0.47567521966E+01  0.14082281387E+04  0.14082720326E+04  0.10000000000E+02 0.  1.
</event>
<event>
 5    1  0.1556794E-008  0.3748177E+03  0.7957747E-01  0.3474038E+00
         13   -1    0    0    0    0  0.00000000000E+00  0.00000000000E+00  0.14999999963E+04  0.15000000000E+04  0.10566000000E+00 0. -1.
        994   -1    0    0    0    0 -0.00000000000E+00 -0.00000000000E+00  0.11368683772E-12  0.17120000000E+03  0.17120000000E+03 0.  0.
         13    1    1    2    0    0 -0.20572329180E+02 -0.63859134897E+02  0.32631611994E+03  0.33314175832E+03  0.10566000000E+00 0. -1.
        994    1    1    2    0    0 -0.43290437628E+01  0.43650904055E+02  0.13345186385E+02  0.17723339427E+03  0.17120000000E+03 0.  0.
        998    1    1    2    0    0  0.24901372943E+02  0.20208230842E+02  0.11603386900E+04  0.11608248474E+04  0.10000000000E+02 0. -1.
</event>
<event>
 5    1  0.1556794E-008  0.3809529E+03  0.7957747E-01  0.3447020E+00
         13   -1    0    0    0    0  0.00000000000E+00  0.00000000000E+00  0.14999999963E+04  0.15000000000E+04  0.10566000000E+00 0. -1.
        994   -1    0    0    0    0 -0.00000000000E+00 -0.00000000000E+00  0.11368683772E-12  0.17120000000E+03  0.17120000000E+03 0.  0.
         13    1    1    2    0    0  0.22115887471E+02  0.67914608314E+01  0.69906777126E+02  0.73635623655E+02  0.10566000000E+00 0. -1.
        994    1    1    2    0    0 -0.19973425789E+02 -0.66895087875E+01  0.51328463046E+01  0.17256730101E+03  0.17120000000E+03 0.  0.
        998    1    1    2    0    0 -0.21424616816E+01 -0.10195204394E+00  0.14249603728E+04  0.14249970753E+04  0.10000000000E+02 0. -1.
</event>
<event>
 5    1  0.1556794E-008  0.3791706E+03  0.7957747E-01  0.3454778E+00
         13   -1    0    0    0    0  0.00000000000E+00  0.00000000000E+00  0.14999999963E+04  0.15000000000E+04  0.10566000000E+00 0. -1.
        994   -1    0    0    0    0 -0.00000000000E+00 -0.00000000000E+00  0.11368683772E-12  0.17120000000E+03  0.17120000000E+03 0.  0.
         13    1    1    2    0    0  0.25642770729E+02 -0.20218103353E+02  0.10838500086E+03  0.11319736291E+03  0.10566000000E+00 0. -1.
        994    1    1    2    0    0 -0.23149144574E+02  0.22650120440E+02  0.80764461187E+01  0.17442356444E+03  0.17120000000E+03 0.  0.
        998    1    1    2    0    0 -0.24936261542E+01 -0.24320170860E+01  0.13835385493E+04  0.13835790727E+04  0.10000000000E+02 0. -1.
</event>
<event>
 5    1  0.1556794E-008  0.3804802E+03  0.7957747E-01  0.3449070E+00
         13   -1    0    0    0    0  0.00000000000E+00  0.00000000000E+00  0.14999999963E+04  0.15000000000E+04  0.10566000000E+00 0. -1.
        994   -1    0    0    0    0 -0.00000000000E+00 -0.00000000000E+00  0.11368683772E-12  0.17120000000E+03  0.17120000000E+03 0.  0.
         13    1    1    2    0    0  0.11322213909E+02 -0.73406378120E+01  0.22319502876E+02  0.26081580933E+02  0.10566000000E+00 0. -1.
        994    1    1    2    0    0 -0.93834923742E-01  0.20665962161E+01  0.39052389894E+01  0.17125703056E+03  0.17120000000E+03 0.  0.
        998    1    1    2    0    0 -0.11228378985E+02  0.52740415959E+01  0.14737752544E+04  0.14738613885E+04  0.10000000000E+02 0. -1.
</event>
<event>
 5    1  0.1556794E-008  0.3788746E+03  0.7957747E-01  0.3456074E+00
         13   -1    0    0    0    0  0.00000000000E+00  0.00000000000E+00  0.14999999963E+04  0.15000000000E+04  0.10566000000E+00 0.  1.
        994   -1    0    0    0    0 -0.00000000000E+00 -0.00000000000E+00  0.11368683772E-12  0.17120000000E+03  0.17120000000E+03 0.  0.
         13    1    1    2    0    0 -0.26603188403E+02  0.11526809827E+02  0.84862577996E+02  0.89678677990E+02  0.10566000000E+00 0.  1.
        994    1    1    2    0    0  0.22843818374E+02 -0.10708125903E+02  0.68409858326E+01  0.17318413058E+03  0.17120000000E+03 0.  0.
        998    1    1    2    0    0  0.37593700290E+01 -0.81868392383E+00  0.14082964325E+04  0.14083371914E+04  0.10000000000E+02 0.  1.
</event>
<event>
 5    1  0.1556794E-008  0.3795861E+03  0.7957747E-01  0.3452963E+00
         13   -1    0    0    0    0  0.00000000000E+00  0.00000000000E+00  0.14999999963E+04  0.15000000000E+04  0.10566000000E+00 0. -1.
        994   -1    0    0    0    0 -0.00000000000E+00 -0.00000000000E+00  0.11368683772E-12  0.17120000000E+03  0.17120000000E+03 0.  0.
         13    1    1    2    0    0 -0.10887071764E+02  0.68000694415E+01  0.16940831905E+02  0.21254934149E+02  0.10566000000E+00 0. -1.
        994    1    1    2    0    0  0.10266460417E+02 -0.86921598792E+01  0.49482147913E+01  0.17179894843E+03  0.17120000000E+03 0.  0.
        998    1    1    2    0    0  0.62061134661E+00  0.18920904377E+01  0.14781109496E+04  0.14781461174E+04  0.10000000000E+02 0. -1.
</event>
<event>
 5    1  0.1556794E-008  0.3835643E+03  0.7957747E-01  0.3435784E+00
         13   -1    0    0    0    0  0.00000000000E+00  0.00000000000E+00  0.14999999963E+04  0.15000000000E+04  0.10566000000E+00 0.  1.
        994   -1    0    0    0    0 -0.00000000000E+00 -0.00000000000E+00  0.11368683772E-12  0.17120000000E+03  0.17120000000E+03 0.  0.
         13    1    1    2    0    0  0.54939549390E+01  0.20135947614E+02  0.10053865090E+03  0.10268238123E+03  0.10566000000E+00 0.  1.
        994    1    1    2    0    0  0.25049928933E+01 -0.11684888050E+01  0.23698686151E+01  0.17123871242E+03  0.17120000000E+03 0.  0.
        998    1    1    2    0    0 -0.79989478323E+01 -0.18967458809E+02  0.13970914768E+04  0.13972789063E+04  0.10000000000E+02 0.  1.
</event>
<event>
 5    1  0.1556794E-008  0.3748259E+03  0.7957747E-01  0.3474002E+00
         13   -1    0    0    0    0  0.00000000000E+00  0.00000000000E+00  0.14999999963E+04  0.15000000000E+04  0.10566000000E+00 0. -1.
        994   -1    0    0    0    0 -0.00000000000E+00 -0.00000000000E+00  0.11368683772E-12  0.17120000000E+03  0.17120000000E+03 0.  0.
         13    1    1    2    0    0 -0.66341496862E+02  0.36715775648E+02  0.33311421003E+03  0.34163479108E+03  0.10566000000E+00 0. -1.
        994    1    1    2    0    0  0.65392520382E+02 -0.34647770884E+02  0.25629692394E+02  0.18826303642E+03  0.17120000000E+03 0.  0.
        998    1    1    2    0    0  0.94897648041E+00 -0.20680047642E+01  0.11412560939E+04  0.11413021725E+04  0.10000000000E+02 0. -1.
</event>
<event>
 5    1  0.1556794E-008  0.3794553E+03  0.7957747E-01  0.3453534E+00
         13   -1    0    0    0    0  0.00000000000E+00  0.00000000000E+00  0.14999999963E+04  0.15000000000E+04  0.10566000000E+00 0.  1.
        994   -1    0    0    0    0 -0.00000000000E+00 -0.00000000000E+00  0.11368683772E-12  0.17120000000E+03  0.17120000000E+03 0.  0.
         13    1    1    2    0    0 -0.95846021878E+01  0.36855025277E+01  0.99445935757E+01  0.14295231142E+02  0.10566000000E+00 0.  1.
        994    1    1    2    0    0  0.88709744956E+01 -0.41554689161E+01  0.47297926245E+01  0.17154525073E+03  0.17120000000E+03 0.  0.
        998    1    1    2    0    0  0.71362769219E+00  0.46996638836E+00  0.14853256101E+04  0.14853595181E+04  0.10000000000E+02 0.  1.
</event>
<event>
 5    1  0.1556794E-008  0.3815046E+03  0.7957747E-01  0.3444633E+00
         13   -1    0    0    0    0  0.00000000000E+00  0.00000000000E+00  0.14999999963E+04  0.15000000000E+04  0.10566000000E+00 0.  1.
        994   -1    0    0    0    0 -0.00000000000E+00 -0.00000000000E+00  0.11368683772E-12  0.17120000000E+03  0.17120000000E+03 0.  0.
         13    1    1    2    0    0  0.19104861601E+02  0.23051914522E+01  0.53248467042E+02  0.56619078506E+02  0.10566000000E+00 0.  1.
        994    1    1    2    0    0 -0.14346151677E+02 -0.15795416269E+01  0.40687635238E+01  0.17185546793E+03  0.17120000000E+03 0.  0.
        998    1    1    2    0    0 -0.47587099242E+01 -0.72564982535E+00  0.14426827657E+04  0.14427254536E+04  0.10000000000E+02 0.  1.
</event>
<event>
 5    1  0.1556794E-008  0.3820481E+03  0.7957747E-01  0.3442289E+00
         13   -1    0    0    0    0  0.00000000000E+00  0.00000000000E+00  0.14999999963E+04  0.15000000000E+04  0.10566000000E+00 0.  1.
        994   -1    0    0    0    0 -0.00000000000E+00 -0.00000000000E+00  0.11368683772E-12  0.17120000000E+03  0.17120000000E+03 0.  0.
         13    1    1    2    0    0 -0.18301548419E+02  0.46973981974E+00  0.54174336130E+02  0.57184238993E+02  0.10566000000E+00 0.  1.
        994    1    1    2    0    0  0.69266688744E+01  0.43586621366E+01  0.33252391452E+01  0.17142775123E+03  0.17120000000E+03 0.  0.
        998    1    1    2    0    0  0.11374879545E+02 -0.48284019564E+01  0.14425004210E+04  0.14425880098E+04  0.10000000000E+02 0.  1.
</event>
<event>
 5    1  0.1556794E-008  0.3830869E+03  0.7957747E-01  0.3437827E+00
         13   -1    0    0    0    0  0.00000000000E+00  0.00000000000E+00  0.14999999963E+04  0.15000000000E+04  0.10566000000E+00 0. -1.
        994   -1    0    0    0    0 -0.00000000000E+00 -0.00000000000E+00  0.11368683772E-12  0.17120000000E+03  0.17120000000E+03 0.  0.
         13    1    1    2    0    0  0.59513801729E+01 -0.30031450308E+02  0.16776064659E+03  0.17053138316E+03  0.10566000000E+00 0. -1.
        994    1    1    2    0    0 -0.19469454073E+01  0.27272867183E+02  0.50608259953E+01  0.17344351196E+03  0.17120000000E+03 0.  0.
        998    1    1    2    0    0 -0.40044347655E+01  0.27585831245E+01  0.13271785237E+04  0.13272251049E+04  0.10000000000E+02 0. -1.
</event>
<event>
 5    1  0.1556794E-008  0.3805438E+03  0.7957747E-01  0.3448794E+00
         13   -1    0    0    0    0  0.00000000000E+00  0.00000000000E+00  0.14999999963E+04  0.15000000000E+04  0.10566000000E+00 0.  1.
        994   -1    0    0    0    0 -0.00000000000E+00 -0.00000000000E+00  0.11368683772E-12  0.17120000000E+03  0.17120000000E+03 0.  0.
         13    1    1    2    0    0  0.19032790132E+01 -0.38890077132E+02  0.17875728518E+03  0.18294873254E+03  0.10566000000E+00 0.  1.
        994    1    1    2    0    0  0.13808056117E+02  0.36056132827E+02  0.88493109451E+01  0.17572267194E+03  0.17120000000E+03 0.  0.
        998    1    1    2    0    0 -0.15711335131E+02  0.28339443048E+01  0.13123934002E+04  0.13125285955E+04  0.10000000000E+02 0.  1.
</event>
<event>
 5    1  0.2192538E-008  0.3861771E+03  0.7957747E-01  0.3424695E+00
         13   -1    0    0    0    0  0.00000000000E+00  0.00000000000E+00  0.14999999963E+04  0.15000000000E+04  0.10566000000E+00 0. -1.
        994   -1    0    0    0    0 -0.00000000000E+00 -0.00000000000E+00  0.11368683772E-12  0.17120000000E+03  0.17120000000E+03 0.  0.
         13    1    1    2    0    0 -0.50984766854E+01 -0.91383843600E+01  0.54485593033E+02  0.55481488313E+02  0.10566000000E+00 0. -1.
        994    1    1    2    0    0 -0.16811047129E+01  0.48953971892E+01  0.11346354432E+01  0.17128198511E+03  0.17120000000E+03 0.  0.
        998    1    1    2    0    0  0.67795813983E+01  0.42429871708E+01  0.14443797678E+04  0.14444365266E+04  0.10000000000E+02 0. -1.
</event>
<event>
 5    1  0.1556794E-008  0.3774317E+03  0.7957747E-01  0.3462418E+00
         13   -1    0    0    0    0  0.00000000000E+00  0.00000000000E+00  0.14999999963E+04  0.15000000000E+04  0.10566000000E+00 0. -1.
        994   -1    0    0    0    0 -0.00000000000E+00 -0.00000000000E+00  0.11368683772E-12  0.17120000000E+03  0.17120000000E+03 0.  0.
         13    1    1    2    0    0  0.77647064178E+01  0.24084508736E+02  0.56144942173E+02  0.61584250604E+02  0.10566000000E+00 0. -1.
        994    1    1    2    0    0  0.48991801939E+00 -0.20973272866E+02  0.69205635895E+01  0.17261938592E+03  0.17120000000E+03 0.  0.
        998    1    1    2    0    0 -0.82546244372E+01 -0.31112358699E+01  0.14369344905E+04  0.14369963635E+04  0.10000000000E+02 0. -1.
</event>
<event>
 5    1  0.1556794E-008  0.3844908E+03  0.7957747E-01  0.3431834E+00
         13   -1    0    0    0    0  0.00000000000E+00  0.00000000000E+00  0.14999999963E+04  0.15000000000E+04  0.10566000000E+00 0.  1.
        994   -1    0    0    0    0 -0.00000000000E+00 -0.00000000000E+00  0.11368683772E-12  0.17120000000E+03  0.17120000000E+03 0.  0.
         13    1    1    2    0    0  0.18907629519E+02  0.56254852278E+01  0.99796733333E+02  0.10172779210E+03  0.10566000000E+00 0.  1.
        994    1    1    2    0    0 -0.18632931720E+02  0.28966592782E+01  0.30553090575E+01  0.17226245004E+03  0.17120000000E+03 0.  0.
        998    1    1    2    0    0 -0.27469779943E+00 -0.85221445061E+01  0.13971479539E+04  0.13972097579E+04  0.10000000000E+02 0.  1.
</event>
<event>
 5    1  0.1556794E-008  0.3827083E+03  0.7957747E-01  0.3439450E+00
         13   -1    0    0    0    0  0.00000000000E+00  0.00000000000E+00  0.14999999963E+04  0.15000000000E+04  0.10566000000E+00 0.  1.
        994   -1    0    0    0    0 -0.00000000000E+00 -0.00000000000E+00  0.11368683772E-12  0.17120000000E+03  0.17120000000E+03 0.  0.
         13    1    1    2    0    0  0.22596693747E+02 -0.17824340669E+00  0.93483725358E+02  0.96176194611E+02  0.10566000000E+00 0.  1.
        994    1    1    2    0    0 -0.10049701398E+02  0.14819099204E+01  0.31141703727E+01  0.17152938702E+03  0.17120000000E+03 0.  0.
        998    1    1    2    0    0 -0.12546992350E+02 -0.13036665137E+01  0.14034021005E+04  0.14034944184E+04  0.10000000000E+02 0.  1.
</event>
<event>
 5    1  0.1556794E-008  0.3769289E+03  0.7957747E-01  0.3464641E+00
         13   -1    0    0    0    0  0.00000000000E+00  0.00000000000E+00  0.14999999963E+04  0.15000000000E+04  0.10566000000E+00 0. -1.
        994   -1    0    0    0    0 -0.00000000000E+00 -0.00000000000E+00  0.11368683772E-12  0.17120000000E+03  0.17120000000E+03 0.  0.
         13    1    1    2    0    0 -0.14508541165E+02  0.87880846960E+00  0.16469130246E+02  0.21966189614E+02  0.10566000000E+00 0. -1.
        994    1    1    2    0    0  0.86010732680E+00  0.54880976974E+01  0.57957581984E+01  0.17138812623E+03  0.17120000000E+03 0.  0.
        998    1    1    2    0    0  0.13648433838E+02 -0.63669061670E+01  0.14777351078E+04  0.14778456842E+04  0.10000000000E+02 0. -1.
</event>
<event>
 5    1  0.1556794E-008  0.3832803E+03  0.7957747E-01  0.3436999E+00
         13   -1    0    0    0    0  0.00000000000E+00  0.00000000000E+00  0.14999999963E+04  0.15000000000E+04  0.10566000000E+00 0.  1.
        994   -1    0    0    0    0 -0.00000000000E+00 -0.00000000000E+00  0.11368683772E-12  0.17120000000E+03  0.17120000000E+03 0.  0.
         13    1    1    2    0    0 -0.32702432079E+02  0.89280128129E+01  0.19590206991E+03  0.19881345687E+03  0.10566000000E+00 0.  1.
        994    1    1    2    0    0  0.36405423952E+02 -0.10501241953E+02  0.72486687928E+01  0.17549249037E+03  0.17120000000E+03 0.  0.
        998    1    1    2    0    0 -0.37029918734E+01  0.15732291398E+01  0.12968492576E+04  0.12968940528E+04  0.10000000000E+02 0.  1.
</event>
<event>
 5    1  0.1556794E-008  0.3864470E+03  0.7957747E-01  0.3423558E+00
         13   -1    0    0    0    0  0.00000000000E+00  0.00000000000E+00  0.14999999963E+04  0.15000000000E+04  0.10566000000E+00 0. -1.
        994   -1    0    0    0    0 -0.00000000000E+00 -0.00000000000E+00  0.11368683772E-12  0.17120000000E+03  0.17120000000E+03 0.  0.
         13    1    1    2    0    0 -0.24598871614E+01  0.10082927252E+02  0.55734772044E+02  0.56692966457E+02  0.10566000000E+00 0. -1.
        994    1    1    2    0    0  0.52759191315E+01 -0.16233097462E+02  0.18676492796E+01  0.17205893435E+03  0.17120000000E+03 0.  0.
        998    1    1    2    0    0 -0.28160319701E+01  0.61501702102E+01  0.14423975750E+04  0.14424480992E+04  0.10000000000E+02 0. -1.
</event>
<event>
 5    1  0.1556794E-008  0.3851553E+03  0.7957747E-01  0.3429014E+00
         13   -1    0    0    0    0  0.00000000000E+00  0.00000000000E+00  0.14999999963E+04  0.15000000000E+04  0.10566000000E+00 0. -1.
        994   -1    0    0    0    0 -0.00000000000E+00 -0.00000000000E+00  0.11368683772E-12  0.17120000000E+03  0.17120000000E+03 0.  0.
         13    1    1    2    0    0 -0.11517763304E+02  0.77694008486E+01  0.62206375904E+02  0.63739052614E+02  0.10566000000E+00 0. -1.
        994    1    1    2    0    0  0.45177492467E+01 -0.99493833649E+01  0.19456066675E+01  0.17155939401E+03  0.17120000000E+03 0.  0.
        998    1    1    2    0    0  0.70000140568E+01  0.21799825164E+01  0.14358480137E+04  0.14359015534E+04  0.10000000000E+02 0. -1.
</event>
<event>
 5    1  0.1556794E-008  0.3848635E+03  0.7957747E-01  0.3430251E+00
         13   -1    0    0    0    0  0.00000000000E+00  0.00000000000E+00  0.14999999963E+04  0.15000000000E+04  0.10566000000E+00 0.  1.
        994   -1    0    0    0    0 -0.00000000000E+00 -0.00000000000E+00  0.11368683772E-12  0.17120000000E+03  0.17120000000E+03 0.  0.
         13    1    1    2    0    0 -0.70117293401E+01  0.12868403917E+02  0.63467763754E+02  0.65137764528E+02  0.10566000000E+00 0.  1.
        994    1    1    2    0    0  0.18922538297E+01 -0.91342786908E+01  0.19842733480E+01  0.17146542804E+03  0.17120000000E+03 0.  0.
        998    1    1    2    0    0  0.51194755105E+01 -0.37341252258E+01  0.14345479592E+04  0.14345968074E+04  0.10000000000E+02 0.  1.
</event>
<event>
 5    1  0.1556794E-008  0.3748903E+03  0.7957747E-01  0.3473714E+00
         13   -1    0    0    0    0  0.00000000000E+00  0.00000000000E+00  0.14999999963E+04  0.15000000000E+04  0.10566000000E+00 0.  1.
        994   -1    0    0    0    0 -0.00000000000E+00 -0.00000000000E+00  0.11368683772E-12  0.17120000000E+03  0.17120000000E+03 0.  0.
         13    1    1    2    0    0  0.24934175462E+02 -0.96948412077E+02  0.46990948219E+03  0.48045357770E+03  0.10566000000E+00 0.  1.
        994    1    1    2    0    0 -0.29929282553E+02  0.10166249028E+03  0.45939895908E+02  0.20652103506E+03  0.17120000000E+03 0.  0.
        998    1    1    2    0    0  0.49951070908E+01 -0.47140782043E+01  0.98415061818E+03  0.98422538724E+03  0.10000000000E+02 0.  1.
</event>
<event>
 5    1  0.1556794E-008  0.3859989E+03  0.7957747E-01  0.3425447E+00
         13   -1    0    0    0    0  0.00000000000E+00  0.00000000000E+00  0.14999999963E+04  0.15000000000E+04  0.10566000000E+00 0.  1.
        994   -1    0    0    0    0 -0.00000000000E+00 -0.00000000000E+00  0.11368683772E-12  0.17120000000E+03  0.17120000000E+03 0.  0.
         13    1    1    2    0    0  0.96879292420E+01  0.40640321518E+01  0.47262839080E+02  0.48416520448E+02  0.10566000000E+00 0.  1.
        994    1    1    2    0    0 -0.78706154038E+01 -0.16129380838E+02  0.21915646017E+01  0.17215210271E+03  0.17120000000E+03 0.  0.
        998    1    1    2    0    0 -0.18173138382E+01  0.12065348686E+02  0.14505455926E+04  0.14506313768E+04  0.10000000000E+02 0.  1.
</event>
<event>
 5    1  0.1556794E-008  0.3847299E+03  0.7957747E-01  0.3430818E+00
         13   -1    0    0    0    0  0.00000000000E+00  0.00000000000E+00  0.14999999963E+04  0.15000000000E+04  0.10566000000E+00 0. -1.
        994   -1    0    0    0    0 -0.00000000000E+00 -0.00000000000E+00  0.11368683772E-12  0.17120000000E+03  0.17120000000E+03 0.  0.
         13    1    1    2    0    0  0.10549073477E+02  0.10303744241E+02  0.66416956986E+02  0.68034354821E+02  0.10566000000E+00 0. -1.
        994    1    1    2    0    0  0.47787519713E+01 -0.11895984676E+01  0.18441077825E+01  0.17128074132E+03  0.17120000000E+03 0.  0.
        998    1    1    2    0    0 -0.15327825449E+02 -0.91141457734E+01  0.14317389315E+04  0.14318849039E+04  0.10000000000E+02 0. -1.
</event>
<event>
 5    1  0.1556794E-008  0.3759542E+03  0.7957747E-01  0.3468966E+00
         13   -1    0    0    0    0  0.00000000000E+00  0.00000000000E+00  0.14999999963E+04  0.15000000000E+04  0.10566000000E+00 0.  1.
        994   -1    0    0    0    0 -0.00000000000E+00 -0.00000000000E+00  0.11368683772E-12  0.17120000000E+03  0.17120000000E+03 0.  0.
         13    1    1    2    0    0  0.14820870117E+02  0.12879153539E+02  0.28873599173E+02  0.34917426597E+02  0.10566000000E+00 0.  1.
        994    1    1    2    0    0 -0.60414422620E+01 -0.79775110673E+01  0.65289293746E+01  0.17161645208E+03  0.17120000000E+03 0.  0.
        998    1    1    2    0    0 -0.87794278555E+01 -0.49016424718E+01  0.14645974677E+04  0.14646661213E+04  0.10000000000E+02 0.  1.
</event>
<event>
 5    1  0.1556794E-008  0.3834873E+03  0.7957747E-01  0.3436113E+00
         13   -1    0    0    0    0  0.00000000000E+00  0.00000000000E+00  0.14999999963E+04  0.15000000000E+04  0.10566000000E+00 0. -1.
        994   -1    0    0    0    0 -0.00000000000E+00 -0.00000000000E+00  0.11368683772E-12  0.17120000000E+03  0.17120000000E+03 0.  0.
         13    1    1    2    0    0 -0.18791897701E+02  0.90428741189E+01  0.84598392560E+02  0.87130982890E+02  0.10566000000E+00 0. -1.
        994    1    1    2    0    0  0.18170588939E+02 -0.19428680377E+02  0.47252119034E+01  0.17331881476E+03  0.17120000000E+03 0.  0.
        998    1    1    2    0    0  0.62130876293E+00  0.10385806258E+02  0.14106763918E+04  0.14107502023E+04  0.10000000000E+02 0. -1.
</event>
<event>
 5    1  0.1556794E-008  0.3685139E+03  0.7957747E-01  0.3502749E+00
         13   -1    0    0    0    0  0.00000000000E+00  0.00000000000E+00  0.14999999963E+04  0.15000000000E+04  0.10566000000E+00 0.  1.
        994   -1    0    0    0    0 -0.00000000000E+00 -0.00000000000E+00  0.11368683772E-12  0.17120000000E+03  0.17120000000E+03 0.  0.
         13    1    1    2    0    0 -0.33474342708E+02 -0.64717370756E+02  0.21836810796E+03  0.23020319597E+03  0.10566000000E+00 0.  1.
        994    1    1    2    0    0  0.28178790861E+02  0.69717645828E+02  0.30088244516E+02  0.18939201898E+03  0.17120000000E+03 0.  0.
        998    1    1    2    0    0  0.52955518468E+01 -0.50002750723E+01  0.12515436438E+04  0.12516047851E+04  0.10000000000E+02 0.  1.
</event>
<event>
 5    1  0.1556794E-008  0.3861962E+03  0.7957747E-01  0.3424615E+00
         13   -1    0    0    0    0  0.00000000000E+00  0.00000000000E+00  0.14999999963E+04  0.15000000000E+04  0.10566000000E+00 0. -1.
        994   -1    0    0    0    0 -0.00000000000E+00 -0.00000000000E+00  0.11368683772E-12  0.17120000000E+03  0.17120000000E+03 0.  0.
         13    1    1    2    0    0  0.46312631476E+01  0.92162368841E+01  0.48082856700E+02  0.49176822722E+02  0.10566000000E+00 0. -1.
        994    1    1    2    0    0 -0.11465261096E+02 -0.15348999358E+02  0.22407431305E+01  0.17228321138E+03  0.17120000000E+03 0.  0.
        998    1    1    2    0    0  0.68339979483E+01  0.61327624740E+01  0.14496763964E+04  0.14497399659E+04  0.10000000000E+02 0. -1.
</event>
<event>
 5    1  0.1556794E-008  0.3842141E+03  0.7957747E-01  0.3433012E+00
         13   -1    0    0    0    0  0.00000000000E+00  0.00000000000E+00  0.14999999963E+04  0.15000000000E+04  0.10566000000E+00 0.  1.
        994   -1    0    0    0    0 -0.00000000000E+00 -0.00000000000E+00  0.11368683772E-12  0.17120000000E+03  0.17120000000E+03 0.  0.
         13    1    1    2    0    0 -0.87928243760E+01 -0.19699591493E+02  0.11170313834E+03  0.11376726218E+03  0.10566000000E+00 0.  1.
        994    1    1    2    0    0  0.85292162033E+01  0.14903627123E+02  0.29935977684E+01  0.17208505821E+03  0.17120000000E+03 0.  0.
        998    1    1    2    0    0  0.26360817269E+00  0.47959643703E+01  0.13853032602E+04  0.13853476796E+04  0.10000000000E+02 0.  0.
</event>
<event>
 5    1  0.1556794E-008  0.3796349E+03  0.7957747E-01  0.3452750E+00
         13   -1    0    0    0    0  0.00000000000E+00  0.00000000000E+00  0.14999999963E+04  0.15000000000E+04  0.10566000000E+00 0.  1.
        994   -1    0    0    0    0 -0.00000000000E+00 -0.00000000000E+00  0.11368683772E-12  0.17120000000E+03  0.17120000000E+03 0.  0.
         13    1    1    2    0    0 -0.11696815424E+00  0.16973751318E+02  0.30557538532E+02  0.34955632458E+02  0.10566000000E+00 0.  1.
        994    1    1    2    0    0 -0.12216581596E+00 -0.22998847883E+02  0.60899569554E+01  0.17284527620E+03  0.17120000000E+03 0.  0.
        998    1    1    2    0    0  0.23913397020E+00  0.60250965654E+01  0.14633525008E+04  0.14633990913E+04  0.10000000000E+02 0.  1.
</event>
<event>
 5    1  0.1556794E-008  0.3829358E+03  0.7957747E-01  0.3438474E+00
         13   -1    0    0    0    0  0.00000000000E+00  0.00000000000E+00  0.14999999963E+04  0.15000000000E+04  0.10566000000E+00 0. -1.
        994   -1    0    0    0    0 -0.00000000000E+00 -0.00000000000E+00  0.11368683772E-12  0.17120000000E+03  0.17120000000E+03 0.  0.
         13    1    1    2    0    0  0.54957441628E+01  0.92230543228E+01  0.22078876555E+02  0.24551087326E+02  0.10566000000E+00 0. -1.
        994    1    1    2    0    0  0.17346547836E+02  0.44789441960E+01  0.37218148554E+01  0.17217507244E+03  0.17120000000E+03 0.  0.
        998    1    1    2    0    0 -0.22842291999E+02 -0.13701998519E+02  0.14741993049E+04  0.14744738402E+04  0.10000000000E+02 0. -1.
</event>
<event>
 5    1  0.1556794E-008  0.3824298E+03  0.7957747E-01  0.3440646E+00
         13   -1    0    0    0    0  0.00000000000E+00  0.00000000000E+00  0.14999999963E+04  0.15000000000E+04  0.10566000000E+00 0. -1.
        994   -1    0    0    0    0 -0.00000000000E+00 -0.00000000000E+00  0.11368683772E-12  0.17120000000E+03  0.17120000000E+03 0.  0.
         13    1    1    2    0    0  0.13587747805E+02 -0.54092125718E+01  0.36620929319E+02  0.39433362769E+02  0.10566000000E+00 0. -1.
        994    1    1    2    0    0 -0.29430876675E+01  0.15359529912E+01  0.29481552229E+01  0.17125756198E+03  0.17120000000E+03 0.  0.
        998    1    1    2    0    0 -0.10644660138E+02  0.38732595805E+01  0.14604309117E+04  0.14605090752E+04  0.10000000000E+02 0. -1.
</event>
<event>
 5    1  0.1556794E-008  0.3777050E+03  0.7957747E-01  0.3461213E+00
         13   -1    0    0    0    0  0.00000000000E+00  0.00000000000E+00  0.14999999963E+04  0.15000000000E+04  0.10566000000E+00 0. -1.
        994   -1    0    0    0    0 -0.00000000000E+00 -0.00000000000E+00  0.11368683772E-12  0.17120000000E+03  0.17120000000E+03 0.  0.
         13    1    1    2    0    0 -0.13014715043E+02  0.93714142516E+01  0.21892656712E+02  0.27138640251E+02  0.10566000000E+00 0. -1.
        994    1    1    2    0    0  0.12388254992E+02 -0.66623945413E+01  0.59629133970E+01  0.17188034413E+03  0.17120000000E+03 0.  0.
        998    1    1    2    0    0  0.62646005139E+00 -0.27090197104E+01  0.14721444262E+04  0.14721810156E+04  0.10000000000E+02 0. -1.
</event>
<event>
 5    1  0.1556794E-008  0.3818264E+03  0.7957747E-01  0.3443244E+00
         13   -1    0    0    0    0  0.00000000000E+00  0.00000000000E+00  0.14999999963E+04  0.15000000000E+04  0.10566000000E+00 0.  1.
        994   -1    0    0    0    0 -0.00000000000E+00 -0.00000000000E+00  0.11368683772E-12  0.17120000000E+03  0.17120000000E+03 0.  0.
         13    1    1    2    0    0  0.11201219657E+01 -0.42834316564E+02  0.23858402026E+03  0.24240127730E+03  0.10566000000E+00 0.  1.
        994    1    1    2    0    0 -0.93283651073E+01  0.44313784644E+02  0.10058458400E+02  0.17737345486E+03  0.17120000000E+03 0.  0.
        998    1    1    2    0    0  0.82082431416E+01 -0.14794680800E+01  0.12513575176E+04  0.12514252678E+04  0.10000000000E+02 0.  1.
</event>
<event>
 5    1  0.1556794E-008  0.3820019E+03  0.7957747E-01  0.3442488E+00
         13   -1    0    0    0    0  0.00000000000E+00  0.00000000000E+00  0.14999999963E+04  0.15000000000E+04  0.10566000000E+00 0. -1.
        994   -1    0    0    0    0 -0.00000000000E+00 -0.00000000000E+00  0.11368683772E-12  0.17120000000E+03  0.17120000000E+03 0.  0.
         13    1    1    2    0    0  0.86126541729E+01  0.61805568119E+01  0.16473075435E+02  0.19589550090E+02  0.10566000000E+00 0. -1.
        994    1    1    2    0    0 -0.10556202815E+02 -0.69275001198E+01  0.36556159614E+01  0.17170389397E+03  0.17120000000E+03 0.  0.
        998    1    1    2    0    0  0.19435486418E+01  0.74694330784E+00  0.14798713049E+04  0.14799065559E+04  0.10000000000E+02 0. -1.
</event>
<event>
 5    1  0.1556794E-008  0.3697501E+03  0.7957747E-01  0.3497040E+00
         13   -1    0    0    0    0  0.00000000000E+00  0.00000000000E+00  0.14999999963E+04  0.15000000000E+04  0.10566000000E+00 0.  1.
        994   -1    0    0    0    0 -0.00000000000E+00 -0.00000000000E+00  0.11368683772E-12  0.17120000000E+03  0.17120000000E+03 0.  0.
         13    1    1    2    0    0  0.85690969485E+01 -0.64093712446E+01  0.20259341322E+01  0.10891512081E+02  0.10566000000E+00 0.  1.
        994    1    1    2    0    0  0.29067681206E+02 -0.12826903666E+02  0.12901124432E+02  0.17460051134E+03  0.17120000000E+03 0.  0.
        998    1    1    2    0    0 -0.37636778154E+02  0.19236274911E+02  0.14850729377E+04  0.14857079766E+04  0.10000000000E+02 0.  1.
</event>
<event>
 5    1  0.1556794E-008  0.3777246E+03  0.7957747E-01  0.3461126E+00
         13   -1    0    0    0    0  0.00000000000E+00  0.00000000000E+00  0.14999999963E+04  0.15000000000E+04  0.10566000000E+00 0.  1.
        994   -1    0    0    0    0 -0.00000000000E+00 -0.00000000000E+00  0.11368683772E-12  0.17120000000E+03  0.17120000000E+03 0.  0.
         13    1    1    2    0    0 -0.11099572721E+02  0.76893700953E+01  0.14899325275E+02  0.20107908512E+02  0.10566000000E+00 0.  1.
        994    1    1    2    0    0  0.56039590074E+01 -0.10826510458E+02  0.57869418478E+01  0.17173102917E+03  0.17120000000E+03 0.  0.
        998    1    1    2    0    0  0.54956137139E+01  0.31371403630E+01  0.14793137292E+04  0.14793610623E+04  0.10000000000E+02 0.  1.
</event>
<event>
 5    1  0.1556794E-008  0.3203863E+03  0.7957747E-01  0.3760435E+00
         13   -1    0    0    0    0  0.00000000000E+00  0.00000000000E+00  0.14999999963E+04  0.15000000000E+04  0.10566000000E+00 0.  1.
        994   -1    0    0    0    0 -0.00000000000E+00 -0.00000000000E+00  0.11368683772E-12  0.17120000000E+03  0.17120000000E+03 0.  0.
         13    1    1    2    0    0  0.19346835628E+03  0.12505665234E+03  0.70693812979E+03  0.74352585811E+03  0.10566000000E+00 0.  1.
        994    1    1    2    0    0 -0.18353899172E+03 -0.12987025502E+03  0.22986488996E+03  0.36428032099E+03  0.17120000000E+03 0.  0.
        998    1    1    2    0    0 -0.99293645544E+01  0.48136026847E+01  0.56319697654E+03  0.56339382090E+03  0.10000000000E+02 0.  1.
</event>
<event>
 5    1  0.1556794E-008  0.3750302E+03  0.7957747E-01  0.3473088E+00
         13   -1    0    0    0    0  0.00000000000E+00  0.00000000000E+00  0.14999999963E+04  0.15000000000E+04  0.10566000000E+00 0.  1.
        994   -1    0    0    0    0 -0.00000000000E+00 -0.00000000000E+00  0.11368683772E-12  0.17120000000E+03  0.17120000000E+03 0.  0.
         13    1    1    2    0    0 -0.33393462744E+02 -0.73225740410E+02  0.34901601607E+03  0.35817498943E+03  0.10566000000E+00 0.  1.
        994    1    1    2    0    0  0.63103027403E+02  0.68405702024E+02  0.36696388251E+02  0.19828614941E+03  0.17120000000E+03 0.  0.
        998    1    1    2    0    0 -0.29709564659E+02  0.48200383862E+01  0.11142875920E+04  0.11147388612E+04  0.10000000000E+02 0.  1.
</event>
<event>
 5    1  0.1556794E-008  0.3686442E+03  0.7957747E-01  0.3502145E+00
         13   -1    0    0    0    0  0.00000000000E+00  0.00000000000E+00  0.14999999963E+04  0.15000000000E+04  0.10566000000E+00 0. -1.
        994   -1    0    0    0    0 -0.00000000000E+00 -0.00000000000E+00  0.11368683772E-12  0.17120000000E+03  0.17120000000E+03 0.  0.
         13    1    1    2    0    0  0.80883478392E+02 -0.73492926045E+02  0.48794519515E+03  0.50003387074E+03  0.10566000000E+00 0. -1.
        994    1    1    2    0    0 -0.62458207442E+02  0.60007999851E+02  0.36513701887E+02  0.19530662597E+03  0.17120000000E+03 0.  0.
        998    1    1    2    0    0 -0.18425270950E+02  0.13484926194E+02  0.97554109924E+03  0.97585950328E+03  0.10000000000E+02 0. -1.
</event>
<event>
 5    1  0.2163466E-008  0.3859257E+03  0.7957747E-01  0.3425756E+00
         13   -1    0    0    0    0  0.00000000000E+00  0.00000000000E+00  0.14999999963E+04  0.15000000000E+04  0.10566000000E+00 0. -1.
        994   -1    0    0    0    0 -0.00000000000E+00 -0.00000000000E+00  0.11368683772E-12  0.17120000000E+03  0.17120000000E+03 0.  0.
         13    1    1    2    0    0  0.20760534249E+01  0.10572505703E+02  0.50530147587E+02  0.51666186756E+02  0.10566000000E+00 0. -1.
        994    1    1    2    0    0  0.37781042995E+00 -0.60671733168E+01  0.12924136714E+01  0.17131276562E+03  0.17120000000E+03 0.  0.
        998    1    1    2    0    0 -0.24538638549E+01 -0.45053323866E+01  0.14481774350E+04  0.14482210476E+04  0.10000000000E+02 0. -1.
</event>
<event>
 5    1  0.1556794E-008  0.3832107E+03  0.7957747E-01  0.3437296E+00
         13   -1    0    0    0    0  0.00000000000E+00  0.00000000000E+00  0.14999999963E+04  0.15000000000E+04  0.10566000000E+00 0. -1.
        994   -1    0    0    0    0 -0.00000000000E+00 -0.00000000000E+00  0.11368683772E-12  0.17120000000E+03  0.17120000000E+03 0.  0.
         13    1    1    2    0    0  0.11036392702E+02 -0.39002194322E+01  0.26923057516E+02  0.29357722418E+02  0.10566000000E+00 0. -1.
        994    1    1    2    0    0  0.97403539884E-01  0.50858544530E+01  0.26066788255E+01  0.17129538866E+03  0.17120000000E+03 0.  0.
        998    1    1    2    0    0 -0.11133796242E+02 -0.11856350208E+01  0.14704702599E+04  0.14705468889E+04  0.10000000000E+02 0. -1.
</event>
<event>
 5    1  0.3067734E-008  0.3859953E+03  0.7957747E-01  0.3425462E+00
         13   -1    0    0    0    0  0.00000000000E+00  0.00000000000E+00  0.14999999963E+04  0.15000000000E+04  0.10566000000E+00 0. -1.
        994   -1    0    0    0    0 -0.00000000000E+00 -0.00000000000E+00  0.11368683772E-12  0.17120000000E+03  0.17120000000E+03 0.  0.
         13    1    1    2    0    0  0.11621950318E+02  0.16553087032E+01  0.63307428756E+02  0.64386733694E+02  0.10566000000E+00 0. -1.
        994    1    1    2    0    0 -0.39116341165E+01  0.19857740256E+01  0.11998534918E+01  0.17126039772E+03  0.17120000000E+03 0.  0.
        998    1    1    2    0    0 -0.77103162012E+01 -0.36410827287E+01  0.14354927140E+04  0.14355528686E+04  0.10000000000E+02 0. -1.
</event>
<event>
 5    1  0.1556794E-008  0.3804762E+03  0.7957747E-01  0.3449088E+00
         13   -1    0    0    0    0  0.00000000000E+00  0.00000000000E+00  0.14999999963E+04  0.15000000000E+04  0.10566000000E+00 0. -1.
        994   -1    0    0    0    0 -0.00000000000E+00 -0.00000000000E+00  0.11368683772E-12  0.17120000000E+03  0.17120000000E+03 0.  0.
         13    1    1    2    0    0  0.18519987138E+01  0.28208049888E+02  0.10317068450E+03  0.10697347934E+03  0.10566000000E+00 0. -1.
        994    1    1    2    0    0  0.17392297191E+02 -0.15266291880E+02  0.56824812107E+01  0.17285046214E+03  0.17120000000E+03 0.  0.
        998    1    1    2    0    0 -0.19244295905E+02 -0.12941758009E+02  0.13911468306E+04  0.13913760585E+04  0.10000000000E+02 0. -1.
</event>
<event>
 5    1  0.1556794E-008  0.3835450E+03  0.7957747E-01  0.3435867E+00
         13   -1    0    0    0    0  0.00000000000E+00  0.00000000000E+00  0.14999999963E+04  0.15000000000E+04  0.10566000000E+00 0. -1.
        994   -1    0    0    0    0 -0.00000000000E+00 -0.00000000000E+00  0.11368683772E-12  0.17120000000E+03  0.17120000000E+03 0.  0.
         13    1    1    2    0    0  0.10062308556E+02  0.10175337383E+02  0.41674202293E+02  0.44062885121E+02  0.10566000000E+00 0. -1.
        994    1    1    2    0    0 -0.10985582451E+02 -0.11531362797E+02  0.31928265200E+01  0.17196886198E+03  0.17120000000E+03 0.  0.
        998    1    1    2    0    0  0.92327389527E+00  0.13560254142E+01  0.14551329675E+04  0.14551682529E+04  0.10000000000E+02 0. -1.
</event>
<event>
 5    1  0.1556794E-008  0.3771349E+03  0.7957747E-01  0.3463729E+00
         13   -1    0    0    0    0  0.00000000000E+00  0.00000000000E+00  0.14999999963E+04  0.15000000000E+04  0.10566000000E+00 0.  1.
        994   -1    0    0    0    0 -0.00000000000E+00 -0.00000000000E+00  0.11368683772E-12  0.17120000000E+03  0.17120000000E+03 0.  0.
         13    1    1    2    0    0  0.38136627118E+01  0.45429702533E+02  0.20889947267E+03  0.21381628269E+03  0.10566000000E+00 0.  1.
        994    1    1    2    0    0  0.14773952740E+01 -0.78044138585E+01  0.57994287705E+01  0.17148225840E+03  0.17120000000E+03 0.  0.
        998    1    1    2    0    0 -0.52910579858E+01 -0.37625288675E+02  0.12853010948E+04  0.12859014589E+04  0.10000000000E+02 0.  1.
</event>
<event>
 5    1  0.2982381E-008  0.3864139E+03  0.7957747E-01  0.3423698E+00
         13   -1    0    0    0    0  0.00000000000E+00  0.00000000000E+00  0.14999999963E+04  0.15000000000E+04  0.10566000000E+00 0. -1.
        994   -1    0    0    0    0 -0.00000000000E+00 -0.00000000000E+00  0.11368683772E-12  0.17120000000E+03  0.17120000000E+03 0.  0.
         13    1    1    2    0    0 -0.33716537226E+01  0.97534879076E+01  0.55654462081E+02  0.56603258641E+02  0.10566000000E+00 0. -1.
        994    1    1    2    0    0  0.12823845770E+01 -0.13638594142E+02  0.15443191389E+01  0.17175412857E+03  0.17120000000E+03 0.  0.
        998    1    1    2    0    0  0.20892691456E+01  0.38851062340E+01  0.14428012151E+04  0.14428426128E+04  0.10000000000E+02 0. -1.
</event>
<event>
 5    1  0.1556794E-008  0.4182466E+03  0.7957747E-01  0.3299850E+00
         13   -1    0    0    0    0  0.00000000000E+00  0.00000000000E+00  0.14999999963E+04  0.15000000000E+04  0.10566000000E+00 0.  1.
        994   -1    0    0    0    0 -0.00000000000E+00 -0.00000000000E+00  0.11368683772E-12  0.17120000000E+03  0.17120000000E+03 0.  0.
         13    1    1    2    0    0 -0.72571316341E+02 -0.33793740388E+02  0.90375855962E+02  0.12073284288E+03  0.10566000000E+00 0.  1.
        994    1    1    2    0    0  0.46798760308E+01 -0.13981778337E+03  0.12830861242E+03  0.25562365658E+03  0.17120000000E+03 0.  0.
        998    1    1    2    0    0  0.67891440310E+02  0.17361152375E+03  0.12813155279E+04  0.12948435005E+04  0.10000000000E+02 0.  1.
</event>
<event>
 5    1  0.1556794E-008  0.3813788E+03  0.7957747E-01  0.3445177E+00
         13   -1    0    0    0    0  0.00000000000E+00  0.00000000000E+00  0.14999999963E+04  0.15000000000E+04  0.10566000000E+00 0.  1.
        994   -1    0    0    0    0 -0.00000000000E+00 -0.00000000000E+00  0.11368683772E-12  0.17120000000E+03  0.17120000000E+03 0.  0.
         13    1    1    2    0    0  0.15812483252E+02  0.93285300085E+00  0.36775203904E+02  0.40041623688E+02  0.10566000000E+00 0.  1.
        994    1    1    2    0    0  0.21808361242E+01 -0.97020397943E+01  0.37678744322E+01  0.17152994637E+03  0.17120000000E+03 0.  0.
        998    1    1    2    0    0 -0.17993319377E+02  0.87691867934E+01  0.14594569179E+04  0.14596284299E+04  0.10000000000E+02 0.  1.
</event>
<event>
 5    1  0.1556794E-008  0.3827417E+03  0.7957747E-01  0.3439307E+00
         13   -1    0    0    0    0  0.00000000000E+00  0.00000000000E+00  0.14999999963E+04  0.15000000000E+04  0.10566000000E+00 0.  1.
        994   -1    0    0    0    0 -0.00000000000E+00 -0.00000000000E+00  0.11368683772E-12  0.17120000000E+03  0.17120000000E+03 0.  0.
         13    1    1    2    0    0 -0.30628594390E+01  0.19537921149E+02  0.71944298825E+02  0.74613033501E+02  0.10566000000E+00 0.  1.
        994    1    1    2    0    0  0.52398812089E+01 -0.70991684612E+01  0.30134773304E+01  0.17145371269E+03  0.17120000000E+03 0.  0.
        998    1    1    2    0    0 -0.21770217699E+01 -0.12438752687E+02  0.14250422201E+04  0.14251332538E+04  0.10000000000E+02 0.  1.
</event>
<event>
 5    1  0.1556794E-008  0.3849336E+03  0.7957747E-01  0.3429954E+00
         13   -1    0    0    0    0  0.00000000000E+00  0.00000000000E+00  0.14999999963E+04  0.15000000000E+04  0.10566000000E+00 0.  1.
        994   -1    0    0    0    0 -0.00000000000E+00 -0.00000000000E+00  0.11368683772E-12  0.17120000000E+03  0.17120000000E+03 0.  0.
         13    1    1    2    0    0  0.10529510830E+02  0.10149849015E+01  0.33958502943E+02  0.35568130101E+02  0.10566000000E+00 0.  1.
        994    1    1    2    0    0 -0.33910643912E+01 -0.38543939246E+01  0.17498157271E+01  0.17128589412E+03  0.17120000000E+03 0.  0.
        998    1    1    2    0    0 -0.71384464392E+01  0.28394090231E+01  0.14642916776E+04  0.14643459758E+04  0.10000000000E+02 0.  1.
</event>
<event>
 5    1  0.1556794E-008  0.3792495E+03  0.7957747E-01  0.3454433E+00
         13   -1    0    0    0    0  0.00000000000E+00  0.00000000000E+00  0.14999999963E+04  0.15000000000E+04  0.10566000000E+00 0.  1.
        994   -1    0    0    0    0 -0.00000000000E+00 -0.00000000000E+00  0.11368683772E-12  0.17120000000E+03  0.17120000000E+03 0.  0.
         13    1    1    2    0    0 -0.17547286652E+02  0.45795739393E+02  0.22422468904E+03  0.22952533488E+03  0.10566000000E+00 0.  1.
        994    1    1    2    0    0  0.31504816773E+02 -0.42561145212E+02  0.13967344338E+02  0.17974574062E+03  0.17120000000E+03 0.  0.
        998    1    1    2    0    0 -0.13957530121E+02 -0.32345941810E+01  0.12618079629E+04  0.12619289245E+04  0.10000000000E+02 0.  1.
</event>
<event>
 5    1  0.1556794E-008  0.3781832E+03  0.7957747E-01  0.3459108E+00
         13   -1    0    0    0    0  0.00000000000E+00  0.00000000000E+00  0.14999999963E+04  0.15000000000E+04  0.10566000000E+00 0.  1.
        994   -1    0    0    0    0 -0.00000000000E+00 -0.00000000000E+00  0.11368683772E-12  0.17120000000E+03  0.17120000000E+03 0.  0.
         13    1    1    2    0    0 -0.64361903938E+01  0.39721651552E+02  0.45470177763E+02  0.60718879919E+02  0.10566000000E+00 0.  1.
        994    1    1    2    0    0  0.60107805521E+01 -0.41022064183E+02  0.21545789306E+02  0.17746154589E+03  0.17120000000E+03 0.  0.
        998    1    1    2    0    0  0.42540984168E+00  0.13004126314E+01  0.14329840292E+04  0.14330195742E+04  0.10000000000E+02 0.  0.
</event>
<event>
 5    1  0.1556794E-008  0.3800890E+03  0.7957747E-01  0.3450771E+00
         13   -1    0    0    0    0  0.00000000000E+00  0.00000000000E+00  0.14999999963E+04  0.15000000000E+04  0.10566000000E+00 0. -1.
        994   -1    0    0    0    0 -0.00000000000E+00 -0.00000000000E+00  0.11368683772E-12  0.17120000000E+03  0.17120000000E+03 0.  0.
         13    1    1    2    0    0 -0.42075857840E+02  0.51844164597E+02  0.11842560053E+03  0.13595156947E+03  0.10566000000E+00 0. -1.
        994    1    1    2    0    0  0.22495656911E+02 -0.74951004588E+02  0.38923959640E+02  0.19221920378E+03  0.17120000000E+03 0.  0.
        998    1    1    2    0    0  0.19580200929E+02  0.23106839991E+02  0.13426504361E+04  0.13430292267E+04  0.10000000000E+02 0. -1.
</event>
<event>
 5    1  0.1556794E-008  0.3817029E+03  0.7957747E-01  0.3443777E+00
         13   -1    0    0    0    0  0.00000000000E+00  0.00000000000E+00  0.14999999963E+04  0.15000000000E+04  0.10566000000E+00 0.  1.
        994   -1    0    0    0    0 -0.00000000000E+00 -0.00000000000E+00  0.11368683772E-12  0.17120000000E+03  0.17120000000E+03 0.  0.
         13    1    1    2    0    0 -0.20449961720E+02 -0.25805494514E+02  0.16752254989E+03  0.17072767897E+03  0.10566000000E+00 0.  1.
        994    1    1    2    0    0  0.43274586317E+01  0.18116741925E+02  0.44301476552E+01  0.17226726167E+03  0.17120000000E+03 0.  0.
        998    1    1    2    0    0  0.16122503088E+02  0.76887525887E+01  0.13280472987E+04  0.13282050594E+04  0.10000000000E+02 0.  1.
</event>
<event>
 5    1  0.1556794E-008  0.3722970E+03  0.7957747E-01  0.3485401E+00
         13   -1    0    0    0    0  0.00000000000E+00  0.00000000000E+00  0.14999999963E+04  0.15000000000E+04  0.10566000000E+00 0. -1.
        994   -1    0    0    0    0 -0.00000000000E+00 -0.00000000000E+00  0.11368683772E-12  0.17120000000E+03  0.17120000000E+03 0.  0.
         13    1    1    2    0    0 -0.52926163296E+02 -0.67853932250E+01  0.15489821141E+03  0.16383127719E+03  0.10566000000E+00 0. -1.
        994    1    1    2    0    0  0.53652983158E+02  0.18334598689E+02  0.19183460413E+02  0.18136219359E+03  0.17120000000E+03 0.  0.
        998    1    1    2    0    0 -0.72681986131E+00 -0.11549205464E+02  0.13259183245E+04  0.13260065292E+04  0.10000000000E+02 0. -1.
</event>
<event>
 5    1  0.1556794E-008  0.3756827E+03  0.7957747E-01  0.3470175E+00
         13   -1    0    0    0    0  0.00000000000E+00  0.00000000000E+00  0.14999999963E+04  0.15000000000E+04  0.10566000000E+00 0. -1.
        994   -1    0    0    0    0 -0.00000000000E+00 -0.00000000000E+00  0.11368683772E-12  0.17120000000E+03  0.17120000000E+03 0.  0.
         13    1    1    2    0    0 -0.11847679481E+02 -0.12729863663E+02  0.21259884981E+02  0.27466539851E+02  0.10566000000E+00 0. -1.
        994    1    1    2    0    0  0.15109234855E+02  0.95715782202E+00  0.71062821095E+01  0.17201495393E+03  0.17120000000E+03 0.  0.
        998    1    1    2    0    0 -0.32615553742E+01  0.11772705841E+02  0.14716338292E+04  0.14717185062E+04  0.10000000000E+02 0. -1.
</event>
<event>
 5    1  0.1556794E-008  0.3763818E+03  0.7957747E-01  0.3467066E+00
         13   -1    0    0    0    0  0.00000000000E+00  0.00000000000E+00  0.14999999963E+04  0.15000000000E+04  0.10566000000E+00 0. -1.
        994   -1    0    0    0    0 -0.00000000000E+00 -0.00000000000E+00  0.11368683772E-12  0.17120000000E+03  0.17120000000E+03 0.  0.
         13    1    1    2    0    0 -0.32509060040E+02 -0.29629483729E+02  0.16421945353E+03  0.17000819208E+03  0.10566000000E+00 0. -1.
        994    1    1    2    0    0  0.52966362425E+01  0.25954857359E+02  0.83486933083E+01  0.17343831657E+03  0.17120000000E+03 0.  0.
        998    1    1    2    0    0  0.27212423798E+02  0.36746263696E+01  0.13274318494E+04  0.13277534913E+04  0.10000000000E+02 0. -1.
</event>
<event>
 5    1  0.1556794E-008  0.2933964E+03  0.7957747E-01  0.3944320E+00
         13   -1    0    0    0    0  0.00000000000E+00  0.00000000000E+00  0.14999999963E+04  0.15000000000E+04  0.10566000000E+00 0. -1.
        994   -1    0    0    0    0 -0.00000000000E+00 -0.00000000000E+00  0.11368683772E-12  0.17120000000E+03  0.17120000000E+03 0.  0.
         13    1    1    2    0    0  0.16593684019E+03  0.65829248432E+02  0.63344682693E+03  0.65812112760E+03  0.10566000000E+00 0. -1.
        994    1    1    2    0    0 -0.14670242765E+03 -0.52584327851E+02  0.11037445723E+03  0.25647353591E+03  0.17120000000E+03 0.  0.
        998    1    1    2    0    0 -0.19234412540E+02 -0.13244920581E+02  0.75617871212E+03  0.75660533650E+03  0.10000000000E+02 0. -1.
</event>
<event>
 5    1  0.1556794E-008  0.3827549E+03  0.7957747E-01  0.3439250E+00
         13   -1    0    0    0    0  0.00000000000E+00  0.00000000000E+00  0.14999999963E+04  0.15000000000E+04  0.10566000000E+00 0. -1.
        994   -1    0    0    0    0 -0.00000000000E+00 -0.00000000000E+00  0.11368683772E-12  0.17120000000E+03  0.17120000000E+03 0.  0.
         13    1    1    2    0    0  0.84940300800E+01  0.11136006800E+02  0.35013504841E+02  0.37710951722E+02  0.10566000000E+00 0. -1.
        994    1    1    2    0    0 -0.58455879127E+01 -0.49969106185E+01  0.29448641969E+01  0.17139793534E+03  0.17120000000E+03 0.  0.
        998    1    1    2    0    0 -0.26484421674E+01 -0.61390961820E+01  0.14620416272E+04  0.14620911129E+04  0.10000000000E+02 0. -1.
</event>
<event>
 5    1  0.1556794E-008  0.3788681E+03  0.7957747E-01  0.3456102E+00
         13   -1    0    0    0    0  0.00000000000E+00  0.00000000000E+00  0.14999999963E+04  0.15000000000E+04  0.10566000000E+00 0. -1.
        994   -1    0    0    0    0 -0.00000000000E+00 -0.00000000000E+00  0.11368683772E-12  0.17120000000E+03  0.17120000000E+03 0.  0.
         13    1    1    2    0    0 -0.34637822635E+02  0.20511502047E+02  0.16409311908E+03  0.16895876233E+03  0.10566000000E+00 0. -1.
        994    1    1    2    0    0  0.46403601783E+02  0.16852613788E+02  0.12927775613E+02  0.17864454157E+03  0.17120000000E+03 0.  0.
        998    1    1    2    0    0 -0.11765779149E+02 -0.37364115835E+02  0.13229791016E+04  0.13235966961E+04  0.10000000000E+02 0. -1.
</event>
<event>
 5    1  0.1556794E-008  0.3776876E+03  0.7957747E-01  0.3461290E+00
         13   -1    0    0    0    0  0.00000000000E+00  0.00000000000E+00  0.14999999963E+04  0.15000000000E+04  0.10566000000E+00 0. -1.
        994   -1    0    0    0    0 -0.00000000000E+00 -0.00000000000E+00  0.11368683772E-12  0.17120000000E+03  0.17120000000E+03 0.  0.
         13    1    1    2    0    0  0.12850615507E+02  0.89206005604E+01  0.20588610374E+02  0.25857638609E+02  0.10566000000E+00 0. -1.
        994    1    1    2    0    0 -0.11064491080E+02 -0.10775309238E+02  0.61089604852E+01  0.17200374894E+03  0.17120000000E+03 0.  0.
        998    1    1    2    0    0 -0.17861244278E+01  0.18547086772E+01  0.14733024254E+04  0.14733386124E+04  0.10000000000E+02 0. -1.
</event>
<event>
 5    1  0.1556794E-008  0.3810815E+03  0.7957747E-01  0.3446463E+00
         13   -1    0    0    0    0  0.00000000000E+00  0.00000000000E+00  0.14999999963E+04  0.15000000000E+04  0.10566000000E+00 0.  1.
        994   -1    0    0    0    0 -0.00000000000E+00 -0.00000000000E+00  0.11368683772E-12  0.17120000000E+03  0.17120000000E+03 0.  0.
         13    1    1    2    0    0  0.13633691288E+02  0.95354696451E+00  0.22784791039E+02  0.26569619054E+02  0.10566000000E+00 0.  1.
        994    1    1    2    0    0 -0.35305257158E+02 -0.28576087946E+01  0.77786650401E+01  0.17499878497E+03  0.17120000000E+03 0.  0.
        998    1    1    2    0    0  0.21671565871E+02  0.19040618301E+01  0.14694365402E+04  0.14696315960E+04  0.10000000000E+02 0.  1.
</event>
<event>
 5    1  0.1556794E-008  0.3839804E+03  0.7957747E-01  0.3434008E+00
         13   -1    0    0    0    0  0.00000000000E+00  0.00000000000E+00  0.14999999963E+04  0.15000000000E+04  0.10566000000E+00 0. -1.
        994   -1    0    0    0    0 -0.00000000000E+00 -0.00000000000E+00  0.11368683772E-12  0.17120000000E+03  0.17120000000E+03 0.  0.
         13    1    1    2    0    0  0.39655328368E+01  0.15080829752E+02  0.61961267227E+02  0.63893400889E+02  0.10566000000E+00 0. -1.
        994    1    1    2    0    0 -0.62877139210E+00  0.69948589670E+01  0.22999606598E+01  0.17135942701E+03  0.17120000000E+03 0.  0.
        998    1    1    2    0    0 -0.33367614447E+01 -0.22075688719E+02  0.14357387684E+04  0.14359471721E+04  0.10000000000E+02 0. -1.
</event>
<event>
 5    1  0.1556794E-008  0.3801673E+03  0.7957747E-01  0.3450430E+00
         13   -1    0    0    0    0  0.00000000000E+00  0.00000000000E+00  0.14999999963E+04  0.15000000000E+04  0.10566000000E+00 0.  1.
        994   -1    0    0    0    0 -0.00000000000E+00 -0.00000000000E+00  0.11368683772E-12  0.17120000000E+03  0.17120000000E+03 0.  0.
         13    1    1    2    0    0 -0.77041309644E+01 -0.10411412838E+02  0.19356763507E+02  0.23290483222E+02  0.10566000000E+00 0.  1.
        994    1    1    2    0    0  0.32424856677E+01  0.93375311677E+00  0.40867454698E+01  0.17128201043E+03  0.17120000000E+03 0.  0.
        998    1    1    2    0    0  0.44616452967E+01  0.94776597217E+01  0.14765564873E+04  0.14766275063E+04  0.10000000000E+02 0.  1.
</event>
<event>
 5    1  0.1556794E-008  0.3834974E+03  0.7957747E-01  0.3436070E+00
         13   -1    0    0    0    0  0.00000000000E+00  0.00000000000E+00  0.14999999963E+04  0.15000000000E+04  0.10566000000E+00 0.  1.
        994   -1    0    0    0    0 -0.00000000000E+00 -0.00000000000E+00  0.11368683772E-12  0.17120000000E+03  0.17120000000E+03 0.  0.
         13    1    1    2    0    0 -0.16515699290E+02 -0.38697138502E+01  0.63238165006E+02  0.65473809158E+02  0.10566000000E+00 0.  1.
        994    1    1    2    0    0  0.23335551786E+01 -0.63399773445E+01  0.25288599461E+01  0.17135190669E+03  0.17120000000E+03 0.  0.
        998    1    1    2    0    0  0.14182144111E+02  0.10209691195E+02  0.14342329713E+04  0.14343742842E+04  0.10000000000E+02 0.  1.
</event>
<event>
 5    1  0.1556794E-008  0.3836733E+03  0.7957747E-01  0.3435318E+00
         13   -1    0    0    0    0  0.00000000000E+00  0.00000000000E+00  0.14999999963E+04  0.15000000000E+04  0.10566000000E+00 0. -1.
        994   -1    0    0    0    0 -0.00000000000E+00 -0.00000000000E+00  0.11368683772E-12  0.17120000000E+03  0.17120000000E+03 0.  0.
         13    1    1    2    0    0  0.30739510964E+02  0.75151614934E+01  0.14207085285E+03  0.14555251142E+03  0.10566000000E+00 0. -1.
        994    1    1    2    0    0 -0.72766986218E+02 -0.22789907946E+02  0.21737059815E+02  0.18866996040E+03  0.17120000000E+03 0.  0.
        998    1    1    2    0    0  0.42027475253E+02  0.15274746452E+02  0.13361920836E+04  0.13369775282E+04  0.10000000000E+02 0. -1.
</event>
<event>
 5    1  0.1556794E-008  0.3843398E+03  0.7957747E-01  0.3432477E+00
         13   -1    0    0    0    0  0.00000000000E+00  0.00000000000E+00  0.14999999963E+04  0.15000000000E+04  0.10566000000E+00 0. -1.
        994   -1    0    0    0    0 -0.00000000000E+00 -0.00000000000E+00  0.11368683772E-12  0.17120000000E+03  0.17120000000E+03 0.  0.
         13    1    1    2    0    0  0.49607889433E+01 -0.14948966144E+02  0.63448572281E+02  0.65374410163E+02  0.10566000000E+00 0. -1.
        994    1    1    2    0    0 -0.62799756692E+01  0.76213973256E+01  0.22797594611E+01  0.17149974080E+03  0.17120000000E+03 0.  0.
        998    1    1    2    0    0  0.13191867260E+01  0.73275688185E+01  0.14342716645E+04  0.14343258490E+04  0.10000000000E+02 0. -1.
</event>
<event>
 5    1  0.1556794E-008  0.3780912E+03  0.7957747E-01  0.3459512E+00
         13   -1    0    0    0    0  0.00000000000E+00  0.00000000000E+00  0.14999999963E+04  0.15000000000E+04  0.10566000000E+00 0.  1.
        994   -1    0    0    0    0 -0.00000000000E+00 -0.00000000000E+00  0.11368683772E-12  0.17120000000E+03  0.17120000000E+03 0.  0.
         13    1    1    2    0    0 -0.62692911019E+02  0.19902676619E+02  0.30742717048E+03  0.31438510451E+03  0.10566000000E+00 0.  1.
        994    1    1    2    0    0  0.76296213112E+02 -0.11968014643E+02  0.25434587573E+02  0.18952758046E+03  0.17120000000E+03 0.  0.
        998    1    1    2    0    0 -0.13603302093E+02 -0.79346619762E+01  0.11671382382E+04  0.11672873150E+04  0.10000000000E+02 0.  1.
</event>
<event>
 5    1  0.1556794E-008  0.3852277E+03  0.7957747E-01  0.3428707E+00
         13   -1    0    0    0    0  0.00000000000E+00  0.00000000000E+00  0.14999999963E+04  0.15000000000E+04  0.10566000000E+00 0. -1.
        994   -1    0    0    0    0 -0.00000000000E+00 -0.00000000000E+00  0.11368683772E-12  0.17120000000E+03  0.17120000000E+03 0.  0.
         13    1    1    2    0    0  0.62983324833E+01 -0.86055918820E+01  0.38257127465E+02  0.39715792446E+02  0.10566000000E+00 0. -1.
        994    1    1    2    0    0  0.27311091938E+01  0.56716905462E+01  0.16473860844E+01  0.17132361458E+03  0.17120000000E+03 0.  0.
        998    1    1    2    0    0 -0.90294416771E+01  0.29339013359E+01  0.14600954827E+04  0.14601605930E+04  0.10000000000E+02 0. -1.
</event>
<event>
 5    1  0.1556794E-008  0.3847828E+03  0.7957747E-01  0.3430594E+00
         13   -1    0    0    0    0  0.00000000000E+00  0.00000000000E+00  0.14999999963E+04  0.15000000000E+04  0.10566000000E+00 0.  1.
        994   -1    0    0    0    0 -0.00000000000E+00 -0.00000000000E+00  0.11368683772E-12  0.17120000000E+03  0.17120000000E+03 0.  0.
         13    1    1    2    0    0 -0.11005568603E+02  0.57416364060E+01  0.43430989232E+02  0.45170243730E+02  0.10566000000E+00 0.  1.
        994    1    1    2    0    0  0.12100985303E+02 -0.17278043458E+01  0.22298993310E+01  0.17165031781E+03  0.17120000000E+03 0.  0.
        998    1    1    2    0    0 -0.10954166996E+01 -0.40138320603E+01  0.14543391077E+04  0.14543794385E+04  0.10000000000E+02 0.  1.
</event>
<event>
 5    1  0.1556794E-008  0.3819625E+03  0.7957747E-01  0.3442658E+00
         13   -1    0    0    0    0  0.00000000000E+00  0.00000000000E+00  0.14999999963E+04  0.15000000000E+04  0.10566000000E+00 0.  1.
        994   -1    0    0    0    0 -0.00000000000E+00 -0.00000000000E+00  0.11368683772E-12  0.17120000000E+03  0.17120000000E+03 0.  0.
         13    1    1    2    0    0 -0.15525231391E+02  0.14296826514E+02  0.69540724354E+02  0.72672935580E+02  0.10566000000E+00 0.  1.
        994    1    1    2    0    0  0.13834686312E+02 -0.58081636278E+01  0.38938779604E+01  0.17190036532E+03  0.17120000000E+03 0.  0.
        998    1    1    2    0    0  0.16905450787E+01 -0.84886628867E+01  0.14265653940E+04  0.14266266991E+04  0.10000000000E+02 0.  1.
</event>
<event>
 5    1  0.1556794E-008  0.3771424E+03  0.7957747E-01  0.3463696E+00
         13   -1    0    0    0    0  0.00000000000E+00  0.00000000000E+00  0.14999999963E+04  0.15000000000E+04  0.10566000000E+00 0. -1.
        994   -1    0    0    0    0 -0.00000000000E+00 -0.00000000000E+00  0.11368683772E-12  0.17120000000E+03  0.17120000000E+03 0.  0.
         13    1    1    2    0    0  0.12932772556E+02 -0.39015378951E+00  0.12383683427E+02  0.17910209525E+02  0.10566000000E+00 0. -1.
        994    1    1    2    0    0 -0.14151857785E+02 -0.36389670587E+00  0.62592695494E+01  0.17189830120E+03  0.17120000000E+03 0.  0.
        998    1    1    2    0    0  0.12190852291E+01  0.75405049538E+00  0.14813570433E+04  0.14813914893E+04  0.10000000000E+02 0. -1.
</event>
<event>
 5    1  0.1556794E-008  0.3853920E+03  0.7957747E-01  0.3428011E+00
         13   -1    0    0    0    0  0.00000000000E+00  0.00000000000E+00  0.14999999963E+04  0.15000000000E+04  0.10566000000E+00 0. -1.
        994   -1    0    0    0    0 -0.00000000000E+00 -0.00000000000E+00  0.11368683772E-12  0.17120000000E+03  0.17120000000E+03 0.  0.
         13    1    1    2    0    0  0.12031156153E+02 -0.41732425419E+01  0.57598995898E+02  0.58990000544E+02  0.10566000000E+00 0. -1.
        994    1    1    2    0    0 -0.88902710622E+01 -0.70826591828E+01  0.18601138968E+01  0.17158700710E+03  0.17120000000E+03 0.  0.
        998    1    1    2    0    0 -0.31408850909E+01  0.11255901725E+02  0.14405408865E+04  0.14406229924E+04  0.10000000000E+02 0. -1.
</event>
<event>
 5    1  0.1556794E-008  0.3836258E+03  0.7957747E-01  0.3435521E+00
         13   -1    0    0    0    0  0.00000000000E+00  0.00000000000E+00  0.14999999963E+04  0.15000000000E+04  0.10566000000E+00 0.  1.
        994   -1    0    0    0    0 -0.00000000000E+00 -0.00000000000E+00  0.11368683772E-12  0.17120000000E+03  0.17120000000E+03 0.  0.
         13    1    1    2    0    0  0.27232582001E+02  0.32175789227E+02  0.24932294253E+03  0.25286129749E+03  0.10566000000E+00 0.  1.
        994    1    1    2    0    0 -0.57167148874E+02 -0.40202995739E+02  0.18619364378E+02  0.18585070489E+03  0.17120000000E+03 0.  0.
        998    1    1    2    0    0  0.29934566873E+02  0.80272065118E+01  0.12320576894E+04  0.12324879976E+04  0.10000000000E+02 0.  1.
</event>
<event>
 5    1  0.1556794E-008  0.3800283E+03  0.7957747E-01  0.3451035E+00
         13   -1    0    0    0    0  0.00000000000E+00  0.00000000000E+00  0.14999999963E+04  0.15000000000E+04  0.10566000000E+00 0. -1.
        994   -1    0    0    0    0 -0.00000000000E+00 -0.00000000000E+00  0.11368683772E-12  0.17120000000E+03  0.17120000000E+03 0.  0.
         13    1    1    2    0    0  0.74889970131E+01 -0.19907687284E+02  0.58013400544E+02  0.61789698947E+02  0.10566000000E+00 0. -1.
        994    1    1    2    0    0  0.29948949230E+01 -0.61454941590E+01  0.42750911140E+01  0.17138976894E+03  0.17120000000E+03 0.  0.
        998    1    1    2    0    0 -0.10483891936E+02  0.26053181443E+02  0.14377115046E+04  0.14380205321E+04  0.10000000000E+02 0. -1.
</event>
<event>
 5    1  0.1556794E-008  0.3832556E+03  0.7957747E-01  0.3437104E+00
         13   -1    0    0    0    0  0.00000000000E+00  0.00000000000E+00  0.14999999963E+04  0.15000000000E+04  0.10566000000E+00 0. -1.
        994   -1    0    0    0    0 -0.00000000000E+00 -0.00000000000E+00  0.11368683772E-12  0.17120000000E+03  0.17120000000E+03 0.  0.
         13    1    1    2    0    0  0.35777151176E+01  0.22391645822E+02  0.10765618876E+03  0.11001841659E+03  0.10566000000E+00 0. -1.
        994    1    1    2    0    0 -0.39594626661E+00 -0.63671351481E+01  0.26332806269E+01  0.17133905378E+03  0.17120000000E+03 0.  0.
        998    1    1    2    0    0 -0.31817688510E+01 -0.16024510674E+02  0.13897105269E+04  0.13898425296E+04  0.10000000000E+02 0. -1.
</event>
<event>
 5    1  0.1556794E-008  0.3810453E+03  0.7957747E-01  0.3446620E+00
         13   -1    0    0    0    0  0.00000000000E+00  0.00000000000E+00  0.14999999963E+04  0.15000000000E+04  0.10566000000E+00 0. -1.
        994   -1    0    0    0    0 -0.00000000000E+00 -0.00000000000E+00  0.11368683772E-12  0.17120000000E+03  0.17120000000E+03 0.  0.
         13    1    1    2    0    0 -0.42879797297E+01  0.16703925660E+02  0.39353889635E+02  0.42966820874E+02  0.10566000000E+00 0. -1.
        994    1    1    2    0    0 -0.27425386028E+01 -0.16523631550E+02  0.45416096215E+01  0.17207736090E+03  0.17120000000E+03 0.  0.
        998    1    1    2    0    0  0.70305183325E+01 -0.18029410988E+00  0.14561044970E+04  0.14561558182E+04  0.10000000000E+02 0. -1.
</event>
<event>
 5    1  0.1556794E-008  0.3731185E+03  0.7957747E-01  0.3481681E+00
         13   -1    0    0    0    0  0.00000000000E+00  0.00000000000E+00  0.14999999963E+04  0.15000000000E+04  0.10566000000E+00 0. -1.
        994   -1    0    0    0    0 -0.00000000000E+00 -0.00000000000E+00  0.11368683772E-12  0.17120000000E+03  0.17120000000E+03 0.  0.
         13    1    1    2    0    0  0.58851083245E+02  0.24886443242E+02  0.27893258609E+03  0.28615762056E+03  0.10566000000E+00 0. -1.
        994    1    1    2    0    0 -0.34304341941E+02  0.57080338148E+01  0.11796508579E+02  0.17509416650E+03  0.17120000000E+03 0.  0.
        998    1    1    2    0    0 -0.24546741304E+02 -0.30594477056E+02  0.12092709016E+04  0.12099482129E+04  0.10000000000E+02 0. -1.
</event>
<event>
 5    1  0.1556794E-008  0.3811359E+03  0.7957747E-01  0.3446227E+00
         13   -1    0    0    0    0  0.00000000000E+00  0.00000000000E+00  0.14999999963E+04  0.15000000000E+04  0.10566000000E+00 0. -1.
        994   -1    0    0    0    0 -0.00000000000E+00 -0.00000000000E+00  0.11368683772E-12  0.17120000000E+03  0.17120000000E+03 0.  0.
         13    1    1    2    0    0 -0.16757006831E+01  0.13404989783E+02  0.23322158724E+02  0.26952476239E+02  0.10566000000E+00 0. -1.
        994    1    1    2    0    0 -0.13388270256E+01 -0.22301002709E+02  0.52248905503E+01  0.17273061877E+03  0.17120000000E+03 0.  0.
        998    1    1    2    0    0  0.30145277088E+01  0.88960129264E+01  0.14714529470E+04  0.14715169050E+04  0.10000000000E+02 0. -1.
</event>
<event>
 5    1  0.1556794E-008  0.3857909E+03  0.7957747E-01  0.3426325E+00
         13   -1    0    0    0    0  0.00000000000E+00  0.00000000000E+00  0.14999999963E+04  0.15000000000E+04  0.10566000000E+00 0.  1.
        994   -1    0    0    0    0 -0.00000000000E+00 -0.00000000000E+00  0.11368683772E-12  0.17120000000E+03  0.17120000000E+03 0.  0.
         13    1    1    2    0    0 -0.10612855336E+02 -0.23358353172E+01  0.48674234264E+02  0.49872648518E+02  0.10566000000E+00 0.  1.
        994    1    1    2    0    0  0.46327803293E+01  0.40612668698E+01  0.13624883691E+01  0.17131623658E+03  0.17120000000E+03 0.  0.
        998    1    1    2    0    0  0.59800750062E+01 -0.17254315526E+01  0.14499632736E+04  0.14500111149E+04  0.10000000000E+02 0.  1.
</event>
<event>
 5    1  0.1556794E-008  0.3848399E+03  0.7957747E-01  0.3430352E+00
         13   -1    0    0    0    0  0.00000000000E+00  0.00000000000E+00  0.14999999963E+04  0.15000000000E+04  0.10566000000E+00 0. -1.
        994   -1    0    0    0    0 -0.00000000000E+00 -0.00000000000E+00  0.11368683772E-12  0.17120000000E+03  0.17120000000E+03 0.  0.
         13    1    1    2    0    0  0.42580539970E+01  0.19310874167E+02  0.10219078004E+03  0.10408653887E+03  0.10566000000E+00 0. -1.
        994    1    1    2    0    0 -0.25720048870E+01 -0.27345195720E+02  0.41957701674E+01  0.17343995914E+03  0.17120000000E+03 0.  0.
        998    1    1    2    0    0 -0.16860491100E+01  0.80343215528E+01  0.13936134461E+04  0.13936735020E+04  0.10000000000E+02 0. -1.
</event>
<event>
 5    1  0.1556794E-008  0.3849326E+03  0.7957747E-01  0.3429958E+00
         13   -1    0    0    0    0  0.00000000000E+00  0.00000000000E+00  0.14999999963E+04  0.15000000000E+04  0.10566000000E+00 0. -1.
        994   -1    0    0    0    0 -0.00000000000E+00 -0.00000000000E+00  0.11368683772E-12  0.17120000000E+03  0.17120000000E+03 0.  0.
         13    1    1    2    0    0  0.17363390832E+01 -0.12360896413E+02  0.46198597348E+02  0.47855283873E+02  0.10566000000E+00 0. -1.
        994    1    1    2    0    0 -0.96534528882E+00  0.10442679331E+02  0.20254603812E+01  0.17153286546E+03  0.17120000000E+03 0.  0.
        998    1    1    2    0    0 -0.77099379440E+00  0.19182170821E+01  0.14517759385E+04  0.14518118507E+04  0.10000000000E+02 0. -1.
</event>
<event>
 5    1  0.1556794E-008  0.3854874E+03  0.7957747E-01  0.3427608E+00
         13   -1    0    0    0    0  0.00000000000E+00  0.00000000000E+00  0.14999999963E+04  0.15000000000E+04  0.10566000000E+00 0.  1.
        994   -1    0    0    0    0 -0.00000000000E+00 -0.00000000000E+00  0.11368683772E-12  0.17120000000E+03  0.17120000000E+03 0.  0.
         13    1    1    2    0    0  0.10949784050E+02 -0.31787491009E+02  0.20764061729E+02  0.39515816820E+02  0.10566000000E+00 0.  1.
        994    1    1    2    0    0 -0.23403500264E+02  0.30329223010E+02  0.24821208178E+02  0.17718103163E+03  0.17120000000E+03 0.  0.
        998    1    1    2    0    0  0.12453716213E+02  0.14582679996E+01  0.14544147264E+04  0.14545031516E+04  0.10000000000E+02 0.  1.
</event>
<event>
 5    1  0.1556794E-008  0.3748076E+03  0.7957747E-01  0.3474083E+00
         13   -1    0    0    0    0  0.00000000000E+00  0.00000000000E+00  0.14999999963E+04  0.15000000000E+04  0.10566000000E+00 0.  1.
        994   -1    0    0    0    0 -0.00000000000E+00 -0.00000000000E+00  0.11368683772E-12  0.17120000000E+03  0.17120000000E+03 0.  0.
         13    1    1    2    0    0  0.82316758803E+02 -0.80486612192E+02  0.43047076446E+03  0.44559985832E+03  0.10566000000E+00 0.  1.
        994    1    1    2    0    0  0.13831575588E+02  0.16548190413E+03  0.11927493773E+03  0.26666744055E+03  0.17120000000E+03 0.  0.
        998    1    1    2    0    0 -0.96148334392E+02 -0.84995291935E+02  0.95025429409E+03  0.95893270113E+03  0.10000000000E+02 0.  1.
</event>
<event>
 5    1  0.1556794E-008  0.3753916E+03  0.7957747E-01  0.3471473E+00
         13   -1    0    0    0    0  0.00000000000E+00  0.00000000000E+00  0.14999999963E+04  0.15000000000E+04  0.10566000000E+00 0.  1.
        994   -1    0    0    0    0 -0.00000000000E+00 -0.00000000000E+00  0.11368683772E-12  0.17120000000E+03  0.17120000000E+03 0.  0.
         13    1    1    2    0    0 -0.10716130647E+02 -0.21346234597E+02  0.35297683832E+02  0.42619653160E+02  0.10566000000E+00 0.  1.
        994    1    1    2    0    0 -0.20592782716E+02  0.88133452971E+02  0.34814479809E+02  0.19675633722E+03  0.17120000000E+03 0.  0.
        998    1    1    2    0    0  0.31308913364E+02 -0.66787218374E+02  0.14298878326E+04  0.14318240096E+04  0.10000000000E+02 0.  1.
</event>
<event>
 5    1  0.1556794E-008  0.3857845E+03  0.7957747E-01  0.3426352E+00
         13   -1    0    0    0    0  0.00000000000E+00  0.00000000000E+00  0.14999999963E+04  0.15000000000E+04  0.10566000000E+00 0.  1.
        994   -1    0    0    0    0 -0.00000000000E+00 -0.00000000000E+00  0.11368683772E-12  0.17120000000E+03  0.17120000000E+03 0.  0.
         13    1    1    2    0    0  0.22024224987E+01 -0.13053998336E+02  0.71623213732E+02  0.72836484311E+02  0.10566000000E+00 0.  1.
        994    1    1    2    0    0  0.85694335080E+01  0.96970165552E+01  0.17906708340E+01  0.17169773971E+03  0.17120000000E+03 0.  0.
        998    1    1    2    0    0 -0.10771856007E+02  0.33569817813E+01  0.14265861117E+04  0.14266657760E+04  0.10000000000E+02 0.  1.
</event>
<event>
 5    1  0.1556794E-008  0.3779833E+03  0.7957747E-01  0.3459987E+00
         13   -1    0    0    0    0  0.00000000000E+00  0.00000000000E+00  0.14999999963E+04  0.15000000000E+04  0.10566000000E+00 0. -1.
        994   -1    0    0    0    0 -0.00000000000E+00 -0.00000000000E+00  0.11368683772E-12  0.17120000000E+03  0.17120000000E+03 0.  0.
         13    1    1    2    0    0 -0.30076659686E+02 -0.13425844936E+02  0.97241659579E+02  0.10266844838E+03  0.10566000000E+00 0. -1.
        994    1    1    2    0    0  0.24957844948E+02  0.26299667146E+02  0.95913653723E+01  0.17525980944E+03  0.17120000000E+03 0.  0.
        998    1    1    2    0    0  0.51188147384E+01 -0.12873822210E+02  0.13931669713E+04  0.13932717422E+04  0.10000000000E+02 0. -1.
</event>
<event>
 5    1  0.1556794E-008  0.3869597E+03  0.7957747E-01  0.3421403E+00
         13   -1    0    0    0    0  0.00000000000E+00  0.00000000000E+00  0.14999999963E+04  0.15000000000E+04  0.10566000000E+00 0. -1.
        994   -1    0    0    0    0 -0.00000000000E+00 -0.00000000000E+00  0.11368683772E-12  0.17120000000E+03  0.17120000000E+03 0.  0.
         13    1    1    2    0    0  0.42837748858E+02 -0.76591333887E+02  0.17940891687E+03  0.19972199621E+03  0.10566000000E+00 0. -1.
        994    1    1    2    0    0 -0.29039776419E+02  0.56720511446E+02  0.35464912526E+02  0.18608526286E+03  0.17120000000E+03 0.  0.
        998    1    1    2    0    0 -0.13797972439E+02  0.19870822441E+02  0.12851261669E+04  0.12853927409E+04  0.10000000000E+02 0. -1.
</event>
<event>
 5    1  0.1556794E-008  0.3826114E+03  0.7957747E-01  0.3439866E+00
         13   -1    0    0    0    0  0.00000000000E+00  0.00000000000E+00  0.14999999963E+04  0.15000000000E+04  0.10566000000E+00 0.  1.
        994   -1    0    0    0    0 -0.00000000000E+00 -0.00000000000E+00  0.11368683772E-12  0.17120000000E+03  0.17120000000E+03 0.  0.
         13    1    1    2    0    0 -0.16545451831E+02  0.26073768186E+02  0.14854990572E+03  0.15172567026E+03  0.10566000000E+00 0.  1.
        994    1    1    2    0    0  0.33617408883E+02 -0.20906766205E+02  0.80324416056E+01  0.17590106075E+03  0.17120000000E+03 0.  0.
        998    1    1    2    0    0 -0.17071957052E+02 -0.51670019809E+01  0.13434176490E+04  0.13435732690E+04  0.10000000000E+02 0.  1.
</event>
<event>
 5    1  0.1556794E-008  0.3836630E+03  0.7957747E-01  0.3435362E+00
         13   -1    0    0    0    0  0.00000000000E+00  0.00000000000E+00  0.14999999963E+04  0.15000000000E+04  0.10566000000E+00 0. -1.
        994   -1    0    0    0    0 -0.00000000000E+00 -0.00000000000E+00  0.11368683772E-12  0.17120000000E+03  0.17120000000E+03 0.  0.
         13    1    1    2    0    0 -0.22052236931E+02  0.34246454520E+01  0.10109762158E+03  0.10353149088E+03  0.10566000000E+00 0. -1.
        994    1    1    2    0    0  0.22874112646E+02 -0.73142457025E+01  0.42026057810E+01  0.17292722491E+03  0.17120000000E+03 0.  0.
        998    1    1    2    0    0 -0.82187571569E+00  0.38896002506E+01  0.13946997689E+04  0.13947412842E+04  0.10000000000E+02 0. -1.
</event>
<event>
 5    1  0.1556794E-008  0.3857562E+03  0.7957747E-01  0.3426471E+00
         13   -1    0    0    0    0  0.00000000000E+00  0.00000000000E+00  0.14999999963E+04  0.15000000000E+04  0.10566000000E+00 0. -1.
        994   -1    0    0    0    0 -0.00000000000E+00 -0.00000000000E+00  0.11368683772E-12  0.17120000000E+03  0.17120000000E+03 0.  0.
         13    1    1    2    0    0 -0.88541265690E+01 -0.12029923468E+02  0.82569436432E+02  0.83909699157E+02  0.10566000000E+00 0. -1.
        994    1    1    2    0    0 -0.34229834994E+01  0.28094517581E+02  0.38874140212E+01  0.17356719368E+03  0.17120000000E+03 0.  0.
        998    1    1    2    0    0  0.12277110068E+02 -0.16064594114E+02  0.14135431458E+04  0.14137231072E+04  0.10000000000E+02 0. -1.
</event>
<event>
 5    1  0.1556794E-008  0.3731194E+03  0.7957747E-01  0.3481677E+00
         13   -1    0    0    0    0  0.00000000000E+00  0.00000000000E+00  0.14999999963E+04  0.15000000000E+04  0.10566000000E+00 0. -1.
        994   -1    0    0    0    0 -0.00000000000E+00 -0.00000000000E+00  0.11368683772E-12  0.17120000000E+03  0.17120000000E+03 0.  0.
         13    1    1    2    0    0  0.55845675104E+02  0.22534792671E+03  0.83586772794E+03  0.86751097819E+03  0.10566000000E+00 0. -1.
        994    1    1    2    0    0 -0.41498509174E+02 -0.24010869836E+03  0.24971502579E+03  0.38864038313E+03  0.17120000000E+03 0.  0.
        998    1    1    2    0    0 -0.14347165929E+02  0.14760771651E+02  0.41441724255E+03  0.41504863868E+03  0.10000000000E+02 0. -1.
</event>
<event>
 5    1  0.1556794E-008  0.3761323E+03  0.7957747E-01  0.3468174E+00
         13   -1    0    0    0    0  0.00000000000E+00  0.00000000000E+00  0.14999999963E+04  0.15000000000E+04  0.10566000000E+00 0.  1.
        994   -1    0    0    0    0 -0.00000000000E+00 -0.00000000000E+00  0.11368683772E-12  0.17120000000E+03  0.17120000000E+03 0.  0.
         13    1    1    2    0    0  0.21313566050E+02  0.11364603133E+01  0.34694807482E+02  0.40734512026E+02  0.10566000000E+00 0.  1.
        994    1    1    2    0    0 -0.16432832675E+02  0.12482516965E+01  0.70186372812E+01  0.17213453283E+03  0.17120000000E+03 0.  0.
        998    1    1    2    0    0 -0.48807333746E+01 -0.23847120099E+01  0.14582865515E+04  0.14583309551E+04  0.10000000000E+02 0.  1.
</event>
<event>
 5    1  0.1556794E-008  0.3794682E+03  0.7957747E-01  0.3453477E+00
         13   -1    0    0    0    0  0.00000000000E+00  0.00000000000E+00  0.14999999963E+04  0.15000000000E+04  0.10566000000E+00 0. -1.
        994   -1    0    0    0    0 -0.00000000000E+00 -0.00000000000E+00  0.11368683772E-12  0.17120000000E+03  0.17120000000E+03 0.  0.
         13    1    1    2    0    0  0.20222358770E+02 -0.15756450158E+02  0.79291772342E+02  0.83333101712E+02  0.10566000000E+00 0. -1.
        994    1    1    2    0    0  0.11154566758E+02  0.11260734693E+02  0.52436092524E+01  0.17201210406E+03  0.17120000000E+03 0.  0.
        998    1    1    2    0    0 -0.31376925527E+02  0.44957154651E+01  0.14154646147E+04  0.14158547942E+04  0.10000000000E+02 0. -1.
</event>
<event>
 5    1  0.1556794E-008  0.3791579E+03  0.7957747E-01  0.3454834E+00
         13   -1    0    0    0    0  0.00000000000E+00  0.00000000000E+00  0.14999999963E+04  0.15000000000E+04  0.10566000000E+00 0. -1.
        994   -1    0    0    0    0 -0.00000000000E+00 -0.00000000000E+00  0.11368683772E-12  0.17120000000E+03  0.17120000000E+03 0.  0.
         13    1    1    2    0    0  0.43126598089E+02 -0.32706814124E+02  0.25944293842E+03  0.26502884487E+03  0.10566000000E+00 0. -1.
        994    1    1    2    0    0 -0.46662460110E+02  0.33171378668E+02  0.15626120332E+02  0.18119420847E+03  0.17120000000E+03 0.  0.
        998    1    1    2    0    0  0.35358620215E+01 -0.46456454359E+00  0.12249309375E+04  0.12249769467E+04  0.10000000000E+02 0. -1.
</event>
<event>
 5    1  0.1556794E-008  0.4640343E+03  0.7957747E-01  0.3150990E+00
         13   -1    0    0    0    0  0.00000000000E+00  0.00000000000E+00  0.14999999963E+04  0.15000000000E+04  0.10566000000E+00 0.  1.
        994   -1    0    0    0    0 -0.00000000000E+00 -0.00000000000E+00  0.11368683772E-12  0.17120000000E+03  0.17120000000E+03 0.  0.
         13    1    1    2    0    0  0.48307119360E+02 -0.21065697234E+02 -0.67170859459E+01  0.53126940327E+02  0.10566000000E+00 0.  1.
        994    1    1    2    0    0 -0.44477542044E+02  0.23922213594E+02  0.87453830371E+02  0.19876653767E+03  0.17120000000E+03 0.  0.
        998    1    1    2    0    0 -0.38295773159E+01 -0.28565163599E+01  0.14192632519E+04  0.14193065220E+04  0.10000000000E+02 0.  1.
</event>
<event>
 5    1  0.1556794E-008  0.3844660E+03  0.7957747E-01  0.3431940E+00
         13   -1    0    0    0    0  0.00000000000E+00  0.00000000000E+00  0.14999999963E+04  0.15000000000E+04  0.10566000000E+00 0.  1.
        994   -1    0    0    0    0 -0.00000000000E+00 -0.00000000000E+00  0.11368683772E-12  0.17120000000E+03  0.17120000000E+03 0.  0.
         13    1    1    2    0    0  0.12266127198E+02 -0.35255859717E+00  0.40939985008E+02  0.42739626934E+02  0.10566000000E+00 0.  1.
        994    1    1    2    0    0  0.13143162491E+00  0.90942720543E+01  0.21680644685E+01  0.17145513571E+03  0.17120000000E+03 0.  0.
        998    1    1    2    0    0 -0.12397558823E+02 -0.87417134571E+01  0.14568919468E+04  0.14570052374E+04  0.10000000000E+02 0.  1.
</event>
<event>
 5    1  0.1556794E-008  0.3696634E+03  0.7957747E-01  0.3497439E+00
         13   -1    0    0    0    0  0.00000000000E+00  0.00000000000E+00  0.14999999963E+04  0.15000000000E+04  0.10566000000E+00 0.  1.
        994   -1    0    0    0    0 -0.00000000000E+00 -0.00000000000E+00  0.11368683772E-12  0.17120000000E+03  0.17120000000E+03 0.  0.
         13    1    1    2    0    0  0.75938920747E+00 -0.30252617672E+02  0.43578629903E+02  0.53055684862E+02  0.10566000000E+00 0.  1.
        994    1    1    2    0    0  0.14544586776E+01  0.30374792354E+02  0.12652939604E+02  0.17433955472E+03  0.17120000000E+03 0.  0.
        998    1    1    2    0    0 -0.22138478851E+01 -0.12217468178E+00  0.14437684268E+04  0.14438047604E+04  0.10000000000E+02 0.  1.
</event>
<event>
 5    1  0.1556794E-008  0.3789790E+03  0.7957747E-01  0.3455616E+00
         13   -1    0    0    0    0  0.00000000000E+00  0.00000000000E+00  0.14999999963E+04  0.15000000000E+04  0.10566000000E+00 0.  1.
        994   -1    0    0    0    0 -0.00000000000E+00 -0.00000000000E+00  0.11368683772E-12  0.17120000000E+03  0.17120000000E+03 0.  0.
         13    1    1    2    0    0  0.13496295922E+02 -0.93332403266E+01  0.27120166861E+02  0.31698170187E+02  0.10566000000E+00 0.  1.
        994    1    1    2    0    0 -0.67538879212E+01  0.86540975642E+01  0.50537187798E+01  0.17162601341E+03  0.17120000000E+03 0.  0.
        998    1    1    2    0    0 -0.67424080003E+01  0.67914276243E+00  0.14678261106E+04  0.14678758164E+04  0.10000000000E+02 0.  1.
</event>
<event>
 5    1  0.1556794E-008  0.3818729E+03  0.7957747E-01  0.3443044E+00
         13   -1    0    0    0    0  0.00000000000E+00  0.00000000000E+00  0.14999999963E+04  0.15000000000E+04  0.10566000000E+00 0. -1.
        994   -1    0    0    0    0 -0.00000000000E+00 -0.00000000000E+00  0.11368683772E-12  0.17120000000E+03  0.17120000000E+03 0.  0.
         13    1    1    2    0    0 -0.11440875252E+02 -0.32161291722E+02  0.16919446081E+03  0.17260364725E+03  0.10566000000E+00 0. -1.
        994    1    1    2    0    0  0.61122577892E+01  0.29041557901E+02  0.61224583131E+01  0.17386114079E+03  0.17120000000E+03 0.  0.
        998    1    1    2    0    0  0.53286174629E+01  0.31197338206E+01  0.13246830772E+04  0.13247352120E+04  0.10000000000E+02 0. -1.
</event>
<event>
 5    1  0.1556794E-008  0.3806073E+03  0.7957747E-01  0.3448518E+00
         13   -1    0    0    0    0  0.00000000000E+00  0.00000000000E+00  0.14999999963E+04  0.15000000000E+04  0.10566000000E+00 0. -1.
        994   -1    0    0    0    0 -0.00000000000E+00 -0.00000000000E+00  0.11368683772E-12  0.17120000000E+03  0.17120000000E+03 0.  0.
         13    1    1    2    0    0  0.12414959929E+02  0.29832830970E+02  0.13529658873E+03  0.13910178690E+03  0.10566000000E+00 0. -1.
        994    1    1    2    0    0 -0.52005665139E+01 -0.18399791873E+02  0.50475497874E+01  0.17233837643E+03  0.17120000000E+03 0.  0.
        998    1    1    2    0    0 -0.72143934154E+01 -0.11433039097E+02  0.13596558578E+04  0.13597598367E+04  0.10000000000E+02 0. -1.
</event>
<event>
 5    1  0.2047862E-008  0.3861496E+03  0.7957747E-01  0.3424811E+00
         13   -1    0    0    0    0  0.00000000000E+00  0.00000000000E+00  0.14999999963E+04  0.15000000000E+04  0.10566000000E+00 0.  1.
        994   -1    0    0    0    0 -0.00000000000E+00 -0.00000000000E+00  0.11368683772E-12  0.17120000000E+03  0.17120000000E+03 0.  0.
         13    1    1    2    0    0  0.99438588761E+01 -0.48693369969E+01  0.59414141922E+02  0.60437092886E+02  0.10566000000E+00 0.  1.
        994    1    1    2    0    0 -0.53527606430E+01  0.19162635565E+01  0.11663833115E+01  0.17129834956E+03  0.17120000000E+03 0.  0.
        998    1    1    2    0    0 -0.45910982331E+01  0.29530734404E+01  0.14394194710E+04  0.14394645576E+04  0.10000000000E+02 0.  1.
</event>
<event>
 5    1  0.1556794E-008  0.3808182E+03  0.7957747E-01  0.3447604E+00
         13   -1    0    0    0    0  0.00000000000E+00  0.00000000000E+00  0.14999999963E+04  0.15000000000E+04  0.10566000000E+00 0. -1.
        994   -1    0    0    0    0 -0.00000000000E+00 -0.00000000000E+00  0.11368683772E-12  0.17120000000E+03  0.17120000000E+03 0.  0.
         13    1    1    2    0    0 -0.12963198488E+02 -0.24777382864E+02  0.11280433946E+03  0.11621873077E+03  0.10566000000E+00 0. -1.
        994    1    1    2    0    0  0.94817731998E+01 -0.19041353253E+01  0.40325850976E+01  0.17152035301E+03  0.17120000000E+03 0.  0.
        998    1    1    2    0    0  0.34814252886E+01  0.26681518190E+02  0.13831630717E+04  0.13834609162E+04  0.10000000000E+02 0. -1.
</event>
<event>
 5    1  0.1556794E-008  0.3752101E+03  0.7957747E-01  0.3472284E+00
         13   -1    0    0    0    0  0.00000000000E+00  0.00000000000E+00  0.14999999963E+04  0.15000000000E+04  0.10566000000E+00 0.  1.
        994   -1    0    0    0    0 -0.00000000000E+00 -0.00000000000E+00  0.11368683772E-12  0.17120000000E+03  0.17120000000E+03 0.  0.
         13    1    1    2    0    0 -0.21612013359E+01 -0.26004703015E+02  0.18756641506E+02  0.32136243320E+02  0.10566000000E+00 0.  1.
        994    1    1    2    0    0 -0.40887634945E+01  0.26113453234E+02  0.16212445751E+02  0.17398538394E+03  0.17120000000E+03 0.  0.
        998    1    1    2    0    0  0.62499648303E+01 -0.10875021832E+00  0.14650309090E+04  0.14650783727E+04  0.10000000000E+02 0.  1.
</event>
<event>
 5    1  0.1556794E-008  0.3839187E+03  0.7957747E-01  0.3434271E+00
         13   -1    0    0    0    0  0.00000000000E+00  0.00000000000E+00  0.14999999963E+04  0.15000000000E+04  0.10566000000E+00 0.  1.
        994   -1    0    0    0    0 -0.00000000000E+00 -0.00000000000E+00  0.11368683772E-12  0.17120000000E+03  0.17120000000E+03 0.  0.
         13    1    1    2    0    0 -0.85225214921E+01 -0.16189494246E+02  0.76920174936E+02  0.79066159467E+02  0.10566000000E+00 0.  1.
        994    1    1    2    0    0 -0.32497616875E+02  0.32378395265E+02  0.91442467273E+01  0.17747538655E+03  0.17120000000E+03 0.  0.
        998    1    1    2    0    0  0.41020138367E+02 -0.16188901019E+02  0.14139355746E+04  0.14146584540E+04  0.10000000000E+02 0.  1.
</event>
<event>
 5    1  0.1556794E-008  0.3839299E+03  0.7957747E-01  0.3434223E+00
         13   -1    0    0    0    0  0.00000000000E+00  0.00000000000E+00  0.14999999963E+04  0.15000000000E+04  0.10566000000E+00 0. -1.
        994   -1    0    0    0    0 -0.00000000000E+00 -0.00000000000E+00  0.11368683772E-12  0.17120000000E+03  0.17120000000E+03 0.  0.
         13    1    1    2    0    0 -0.81273072159E+01 -0.62003064548E+01  0.23493814095E+02  0.25621619533E+02  0.10566000000E+00 0. -1.
        994    1    1    2    0    0  0.54486672387E+01  0.43872543372E+01  0.23238861883E+01  0.17135861934E+03  0.17120000000E+03 0.  0.
        998    1    1    2    0    0  0.26786399772E+01  0.18130521176E+01  0.14741822960E+04  0.14742197611E+04  0.10000000000E+02 0. -1.
</event>
<event>
 5    1  0.1556794E-008  0.3762546E+03  0.7957747E-01  0.3467631E+00
         13   -1    0    0    0    0  0.00000000000E+00  0.00000000000E+00  0.14999999963E+04  0.15000000000E+04  0.10566000000E+00 0.  1.
        994   -1    0    0    0    0 -0.00000000000E+00 -0.00000000000E+00  0.11368683772E-12  0.17120000000E+03  0.17120000000E+03 0.  0.
         13    1    1    2    0    0  0.53695720652E+01  0.94369528046E+01  0.70260496451E+01  0.12933093986E+02  0.10566000000E+00 0.  1.
        994    1    1    2    0    0  0.73796124034E+01 -0.11880329861E+02  0.66982328580E+01  0.17190086457E+03  0.17120000000E+03 0.  0.
        998    1    1    2    0    0 -0.12749184469E+02  0.24433770567E+01  0.14862757138E+04  0.14863660414E+04  0.10000000000E+02 0.  1.
</event>
<event>
 5    1  0.1556794E-008  0.3793286E+03  0.7957747E-01  0.3454087E+00
         13   -1    0    0    0    0  0.00000000000E+00  0.00000000000E+00  0.14999999963E+04  0.15000000000E+04  0.10566000000E+00 0.  1.
        994   -1    0    0    0    0 -0.00000000000E+00 -0.00000000000E+00  0.11368683772E-12  0.17120000000E+03  0.17120000000E+03 0.  0.
         13    1    1    2    0    0 -0.10451746751E+02  0.56912625778E+01  0.13999896140E+02  0.18374921383E+02  0.10566000000E+00 0.  1.
        994    1    1    2    0    0  0.48429807115E+01 -0.21301183799E+01  0.45662578745E+01  0.17134258834E+03  0.17120000000E+03 0.  0.
        998    1    1    2    0    0  0.56087660396E+01 -0.35611441979E+01  0.14814338423E+04  0.14814824903E+04  0.10000000000E+02 0.  1.
</event>
<event>
 5    1  0.1556794E-008  0.3841957E+03  0.7957747E-01  0.3433090E+00
         13   -1    0    0    0    0  0.00000000000E+00  0.00000000000E+00  0.14999999963E+04  0.15000000000E+04  0.10566000000E+00 0. -1.
        994   -1    0    0    0    0 -0.00000000000E+00 -0.00000000000E+00  0.11368683772E-12  0.17120000000E+03  0.17120000000E+03 0.  0.
         13    1    1    2    0    0 -0.10376693528E+02 -0.10766395182E+02  0.51202332728E+02  0.53341176165E+02  0.10566000000E+00 0. -1.
        994    1    1    2    0    0  0.13925197360E+02  0.18395761095E+02  0.37871083070E+01  0.17278917020E+03  0.17120000000E+03 0.  0.
        998    1    1    2    0    0 -0.35485038325E+01 -0.76293659129E+01  0.14450105552E+04  0.14450696536E+04  0.10000000000E+02 0. -1.
</event>
<event>
 5    1  0.1556794E-008  0.4435798E+03  0.7957747E-01  0.3213808E+00
         13   -1    0    0    0    0  0.00000000000E+00  0.00000000000E+00  0.14999999963E+04  0.15000000000E+04  0.10566000000E+00 0. -1.
        994   -1    0    0    0    0 -0.00000000000E+00 -0.00000000000E+00  0.11368683772E-12  0.17120000000E+03  0.17120000000E+03 0.  0.
         13    1    1    2    0    0  0.12688481335E+02 -0.62394417920E+02  0.14165045383E+02  0.65228219514E+02  0.10566000000E+00 0. -1.
        994    1    1    2    0    0 -0.19647100355E+02  0.80894386341E+02  0.91065981947E+02  0.21102692568E+03  0.17120000000E+03 0.  0.
        998    1    1    2    0    0  0.69586190195E+01 -0.18499968421E+02  0.13947689689E+04  0.13949448548E+04  0.10000000000E+02 0. -1.
</event>
<event>
 5    1  0.1556794E-008  0.3591223E+03  0.7957747E-01  0.3547427E+00
         13   -1    0    0    0    0  0.00000000000E+00  0.00000000000E+00  0.14999999963E+04  0.15000000000E+04  0.10566000000E+00 0.  1.
        994   -1    0    0    0    0 -0.00000000000E+00 -0.00000000000E+00  0.11368683772E-12  0.17120000000E+03  0.17120000000E+03 0.  0.
         13    1    1    2    0    0 -0.98310729999E+02 -0.18539278260E+03  0.11123788459E+04  0.11319992012E+04  0.10566000000E+00 0.  1.
        994    1    1    2    0    0  0.10268848694E+03  0.16206419689E+03  0.14497130843E+03  0.29518782077E+03  0.17120000000E+03 0.  0.
        998    1    1    2    0    0 -0.43777569375E+01  0.23328585709E+02  0.24264984194E+03  0.24401297806E+03  0.10000000000E+02 0.  0.
</event>
<event>
 5    1  0.1556794E-008  0.3814395E+03  0.7957747E-01  0.3444915E+00
         13   -1    0    0    0    0  0.00000000000E+00  0.00000000000E+00  0.14999999963E+04  0.15000000000E+04  0.10566000000E+00 0. -1.
        994   -1    0    0    0    0 -0.00000000000E+00 -0.00000000000E+00  0.11368683772E-12  0.17120000000E+03  0.17120000000E+03 0.  0.
         13    1    1    2    0    0 -0.29284653587E+02 -0.39225590270E+01  0.11893936585E+03  0.12255431987E+03  0.10566000000E+00 0. -1.
        994    1    1    2    0    0  0.29623840560E+02 -0.57319725684E+01  0.64432602500E+01  0.17395799218E+03  0.17120000000E+03 0.  0.
        998    1    1    2    0    0 -0.33918697330E+00  0.96545315954E+01  0.13746173702E+04  0.13746876880E+04  0.10000000000E+02 0.  1.
</event>
<event>
 5    1  0.1556794E-008  0.2704550E+03  0.7957747E-01  0.4132489E+00
         13   -1    0    0    0    0  0.00000000000E+00  0.00000000000E+00  0.14999999963E+04  0.15000000000E+04  0.10566000000E+00 0. -1.
        994   -1    0    0    0    0 -0.00000000000E+00 -0.00000000000E+00  0.11368683772E-12  0.17120000000E+03  0.17120000000E+03 0.  0.
         13    1    1    2    0    0 -0.10485756835E+03  0.90625969278E+02  0.59169271959E+03  0.60770754605E+03  0.10566000000E+00 0. -1.
        994    1    1    2    0    0  0.12812828213E+02 -0.79015191483E+02  0.43845113607E+02  0.19400877052E+03  0.17120000000E+03 0.  0.
        998    1    1    2    0    0  0.92044740136E+02 -0.11610777795E+02  0.86446216308E+03  0.86948368342E+03  0.10000000000E+02 0. -1.
</event>
<event>
 5    1  0.1556794E-008  0.3758787E+03  0.7957747E-01  0.3469302E+00
         13   -1    0    0    0    0  0.00000000000E+00  0.00000000000E+00  0.14999999963E+04  0.15000000000E+04  0.10566000000E+00 0.  1.
        994   -1    0    0    0    0 -0.00000000000E+00 -0.00000000000E+00  0.11368683772E-12  0.17120000000E+03  0.17120000000E+03 0.  0.
         13    1    1    2    0    0 -0.16608141273E+02 -0.15694602796E+02  0.37727755700E+02  0.44108339661E+02  0.10566000000E+00 0.  1.
        994    1    1    2    0    0  0.16707550259E+02  0.26389249679E+02  0.95415293370E+01  0.17428716395E+03  0.17120000000E+03 0.  0.
        998    1    1    2    0    0 -0.99408985497E-01 -0.10694646884E+02  0.14527307112E+04  0.14528044964E+04  0.10000000000E+02 0.  1.
</event>
<event>
 5    1  0.1556794E-008  0.3786579E+03  0.7957747E-01  0.3457023E+00
         13   -1    0    0    0    0  0.00000000000E+00  0.00000000000E+00  0.14999999963E+04  0.15000000000E+04  0.10566000000E+00 0.  1.
        994   -1    0    0    0    0 -0.00000000000E+00 -0.00000000000E+00  0.11368683772E-12  0.17120000000E+03  0.17120000000E+03 0.  0.
         13    1    1    2    0    0 -0.30269802290E+02 -0.96261942495E+01  0.11974912503E+03  0.12389022825E+03  0.10566000000E+00 0.  1.
        994    1    1    2    0    0 -0.93896125423E+01  0.11475546846E+01  0.51126931655E+01  0.17153734677E+03  0.17120000000E+03 0.  0.
        998    1    1    2    0    0  0.39659414832E+02  0.84786395649E+01  0.13751381781E+04  0.13757724250E+04  0.10000000000E+02 0.  1.
</event>
<event>
 5    1  0.1556794E-008  0.3824325E+03  0.7957747E-01  0.3440635E+00
         13   -1    0    0    0    0  0.00000000000E+00  0.00000000000E+00  0.14999999963E+04  0.15000000000E+04  0.10566000000E+00 0. -1.
        994   -1    0    0    0    0 -0.00000000000E+00 -0.00000000000E+00  0.11368683772E-12  0.17120000000E+03  0.17120000000E+03 0.  0.
         13    1    1    2    0    0 -0.26075510967E+01 -0.13346247708E+02  0.32888273409E+02  0.35588921626E+02  0.10566000000E+00 0. -1.
        994    1    1    2    0    0  0.17458993505E+02 -0.12907673571E+02  0.44751611584E+01  0.17262934733E+03  0.17120000000E+03 0.  0.
        998    1    1    2    0    0 -0.14851442408E+02  0.26253921278E+02  0.14626365617E+04  0.14629817310E+04  0.10000000000E+02 0. -1.
</event>
<event>
 5    1  0.1556794E-008  0.3806012E+03  0.7957747E-01  0.3448545E+00
         13   -1    0    0    0    0  0.00000000000E+00  0.00000000000E+00  0.14999999963E+04  0.15000000000E+04  0.10566000000E+00 0.  1.
        994   -1    0    0    0    0 -0.00000000000E+00 -0.00000000000E+00  0.11368683772E-12  0.17120000000E+03  0.17120000000E+03 0.  0.
         13    1    1    2    0    0  0.23217713895E+02 -0.41960726225E+02  0.26178990303E+03  0.26614606756E+03  0.10566000000E+00 0.  1.
        994    1    1    2    0    0 -0.24356591852E+02  0.35204270124E+02  0.99683249913E+01  0.17675234568E+03  0.17120000000E+03 0.  0.
        998    1    1    2    0    0  0.11388779565E+01  0.67564561005E+01  0.12282417683E+04  0.12283015868E+04  0.10000000000E+02 0.  1.
</event>
<event>
 5    1  0.1556794E-008  0.3784410E+03  0.7957747E-01  0.3457975E+00
         13   -1    0    0    0    0  0.00000000000E+00  0.00000000000E+00  0.14999999963E+04  0.15000000000E+04  0.10566000000E+00 0. -1.
        994   -1    0    0    0    0 -0.00000000000E+00 -0.00000000000E+00  0.11368683772E-12  0.17120000000E+03  0.17120000000E+03 0.  0.
         13    1    1    2    0    0  0.50751939085E+01 -0.98577194028E+01  0.10342741957E+02  0.15162971353E+02  0.10566000000E+00 0. -1.
        994    1    1    2    0    0 -0.27815452191E+01  0.51375688255E+01  0.50368691098E+01  0.17137369010E+03  0.17120000000E+03 0.  0.
        998    1    1    2    0    0 -0.22936486894E+01  0.47201505773E+01  0.14846203852E+04  0.14846633385E+04  0.10000000000E+02 0. -1.
</event>
<event>
 5    1  0.1556794E-008  0.3751525E+03  0.7957747E-01  0.3472541E+00
         13   -1    0    0    0    0  0.00000000000E+00  0.00000000000E+00  0.14999999963E+04  0.15000000000E+04  0.10566000000E+00 0.  1.
        994   -1    0    0    0    0 -0.00000000000E+00 -0.00000000000E+00  0.11368683772E-12  0.17120000000E+03  0.17120000000E+03 0.  0.
         13    1    1    2    0    0 -0.26641415400E+02  0.52951011368E+02  0.26386211053E+03  0.27043816143E+03  0.10566000000E+00 0.  1.
        994    1    1    2    0    0 -0.25748409684E+02 -0.54416975270E+02  0.19014665663E+02  0.18246968326E+03  0.17120000000E+03 0.  0.
        998    1    1    2    0    0  0.52389825085E+02  0.14659639013E+01  0.12171232201E+04  0.12182921553E+04  0.10000000000E+02 0.  1.
</event>
<event>
 5    1  0.1556794E-008  0.3889098E+03  0.7957747E-01  0.3413258E+00
         13   -1    0    0    0    0  0.00000000000E+00  0.00000000000E+00  0.14999999963E+04  0.15000000000E+04  0.10566000000E+00 0.  1.
        994   -1    0    0    0    0 -0.00000000000E+00 -0.00000000000E+00  0.11368683772E-12  0.17120000000E+03  0.17120000000E+03 0.  0.
         13    1    1    2    0    0  0.45991325705E+02  0.27958306781E+02  0.57582204063E+02  0.78819986976E+02  0.10566000000E+00 0.  1.
        994    1    1    2    0    0 -0.47077284677E+02 -0.33620557378E+02  0.33957823521E+02  0.18387274510E+03  0.17120000000E+03 0.  0.
        998    1    1    2    0    0  0.10859589721E+01  0.56622505972E+01  0.14084599687E+04  0.14085072679E+04  0.10000000000E+02 0.  1.
</event>
<event>
 5    1  0.1588708E-008  0.3856653E+03  0.7957747E-01  0.3426856E+00
         13   -1    0    0    0    0  0.00000000000E+00  0.00000000000E+00  0.14999999963E+04  0.15000000000E+04  0.10566000000E+00 0. -1.
        994   -1    0    0    0    0 -0.00000000000E+00 -0.00000000000E+00  0.11368683772E-12  0.17120000000E+03  0.17120000000E+03 0.  0.
         13    1    1    2    0    0  0.94438395881E+01  0.93956102708E+01  0.71986640435E+02  0.73208955488E+02  0.10566000000E+00 0. -1.
        994    1    1    2    0    0 -0.64036549252E+01  0.26445819825E+01  0.14577397742E+01  0.17134633237E+03  0.17120000000E+03 0.  0.
        998    1    1    2    0    0 -0.30401846630E+01 -0.12040192253E+02  0.14265556161E+04  0.14266447121E+04  0.10000000000E+02 0. -1.
</event>
<event>
 5    1  0.1556794E-008  0.3842099E+03  0.7957747E-01  0.3433030E+00
         13   -1    0    0    0    0  0.00000000000E+00  0.00000000000E+00  0.14999999963E+04  0.15000000000E+04  0.10566000000E+00 0.  1.
        994   -1    0    0    0    0 -0.00000000000E+00 -0.00000000000E+00  0.11368683772E-12  0.17120000000E+03  0.17120000000E+03 0.  0.
         13    1    1    2    0    0 -0.40005314618E+00  0.20380216390E+02  0.93757532498E+02  0.95947899023E+02  0.10566000000E+00 0.  1.
        994    1    1    2    0    0 -0.37671731014E+01 -0.25929178126E+02  0.42897179391E+01  0.17324651671E+03  0.17120000000E+03 0.  0.
        998    1    1    2    0    0  0.41672262475E+01  0.55489617365E+01  0.14019527458E+04  0.14020055843E+04  0.10000000000E+02 0.  1.
</event>
<event>
 5    1  0.1556794E-008  0.3783940E+03  0.7957747E-01  0.3458181E+00
         13   -1    0    0    0    0  0.00000000000E+00  0.00000000000E+00  0.14999999963E+04  0.15000000000E+04  0.10566000000E+00 0.  1.
        994   -1    0    0    0    0 -0.00000000000E+00 -0.00000000000E+00  0.11368683772E-12  0.17120000000E+03  0.17120000000E+03 0.  0.
         13    1    1    2    0    0  0.49750059265E+02 -0.19861101054E+02  0.26677579290E+03  0.27210083898E+03  0.10566000000E+00 0.  1.
        994    1    1    2    0    0 -0.32295056905E+02  0.28910695844E+02  0.11286324549E+02  0.17696219980E+03  0.17120000000E+03 0.  0.
        998    1    1    2    0    0 -0.17455002360E+02 -0.90495947902E+01  0.12219378788E+04  0.12221369612E+04  0.10000000000E+02 0.  1.
</event>
<event>
 5    1  0.1556794E-008  0.3704952E+03  0.7957747E-01  0.3493618E+00
         13   -1    0    0    0    0  0.00000000000E+00  0.00000000000E+00  0.14999999963E+04  0.15000000000E+04  0.10566000000E+00 0. -1.
        994   -1    0    0    0    0 -0.00000000000E+00 -0.00000000000E+00  0.11368683772E-12  0.17120000000E+03  0.17120000000E+03 0.  0.
         13    1    1    2    0    0 -0.20749249241E+02 -0.21522846629E+02  0.34596531285E+02  0.45724122869E+02  0.10566000000E+00 0. -1.
        994    1    1    2    0    0  0.25881839729E+02  0.16903552473E+02  0.14554771993E+02  0.17457629020E+03  0.17120000000E+03 0.  0.
        998    1    1    2    0    0 -0.51325904873E+01  0.46192941561E+01  0.14508486930E+04  0.14508995869E+04  0.10000000000E+02 0. -1.
</event>
<event>
 5    1  0.1556794E-008  0.3793912E+03  0.7957747E-01  0.3453813E+00
         13   -1    0    0    0    0  0.00000000000E+00  0.00000000000E+00  0.14999999963E+04  0.15000000000E+04  0.10566000000E+00 0. -1.
        994   -1    0    0    0    0 -0.00000000000E+00 -0.00000000000E+00  0.11368683772E-12  0.17120000000E+03  0.17120000000E+03 0.  0.
         13    1    1    2    0    0 -0.69443099688E+01 -0.15801589866E+02  0.31657468459E+02  0.36057178987E+02  0.10566000000E+00 0. -1.
        994    1    1    2    0    0  0.15607217225E+02  0.72190696163E+01  0.54318700989E+01  0.17214716207E+03  0.17120000000E+03 0.  0.
        998    1    1    2    0    0 -0.86629072564E+01  0.85825202495E+01  0.14629106577E+04  0.14629956589E+04  0.10000000000E+02 0. -1.
</event>
<event>
 5    1  0.1556794E-008  0.3834994E+03  0.7957747E-01  0.3436061E+00
         13   -1    0    0    0    0  0.00000000000E+00  0.00000000000E+00  0.14999999963E+04  0.15000000000E+04  0.10566000000E+00 0. -1.
        994   -1    0    0    0    0 -0.00000000000E+00 -0.00000000000E+00  0.11368683772E-12  0.17120000000E+03  0.17120000000E+03 0.  0.
         13    1    1    2    0    0 -0.85746417401E+01  0.10808013154E+02  0.39119640111E+02  0.41481261260E+02  0.10566000000E+00 0. -1.
        994    1    1    2    0    0  0.24398438146E+01 -0.11731454119E+02  0.28516193536E+01  0.17164251101E+03  0.17120000000E+03 0.  0.
        998    1    1    2    0    0  0.61347979255E+01  0.92344096499E+00  0.14580287368E+04  0.14580762277E+04  0.10000000000E+02 0. -1.
</event>
<event>
 5    1  0.1556794E-008  0.3848797E+03  0.7957747E-01  0.3430183E+00
         13   -1    0    0    0    0  0.00000000000E+00  0.00000000000E+00  0.14999999963E+04  0.15000000000E+04  0.10566000000E+00 0.  1.
        994   -1    0    0    0    0 -0.00000000000E+00 -0.00000000000E+00  0.11368683772E-12  0.17120000000E+03  0.17120000000E+03 0.  0.
         13    1    1    2    0    0  0.11629780090E+02 -0.27805897067E+01  0.43069567455E+02  0.44698794938E+02  0.10566000000E+00 0.  1.
        994    1    1    2    0    0 -0.40642321231E+01 -0.62545998171E+00  0.17455081395E+01  0.17125827274E+03  0.17120000000E+03 0.  0.
        998    1    1    2    0    0 -0.75655479671E+01  0.34060496885E+01  0.14551849207E+04  0.14552429323E+04  0.10000000000E+02 0.  1.
</event>
<event>
 5    1  0.1556794E-008  0.3797257E+03  0.7957747E-01  0.3452354E+00
         13   -1    0    0    0    0  0.00000000000E+00  0.00000000000E+00  0.14999999963E+04  0.15000000000E+04  0.10566000000E+00 0. -1.
        994   -1    0    0    0    0 -0.00000000000E+00 -0.00000000000E+00  0.11368683772E-12  0.17120000000E+03  0.17120000000E+03 0.  0.
         13    1    1    2    0    0 -0.16599633599E+02 -0.10868370067E+02  0.45681968427E+02  0.49804846220E+02  0.10566000000E+00 0. -1.
        994    1    1    2    0    0 -0.16257845194E+00  0.10249390313E+02  0.46233090611E+01  0.17156891158E+03  0.17120000000E+03 0.  0.
        998    1    1    2    0    0  0.16762212051E+02  0.61897975433E+00  0.14496947188E+04  0.14498262422E+04  0.10000000000E+02 0. -1.
</event>
<event>
 5    1  0.1556794E-008  0.3775025E+03  0.7957747E-01  0.3462106E+00
         13   -1    0    0    0    0  0.00000000000E+00  0.00000000000E+00  0.14999999963E+04  0.15000000000E+04  0.10566000000E+00 0.  1.
        994   -1    0    0    0    0 -0.00000000000E+00 -0.00000000000E+00  0.11368683772E-12  0.17120000000E+03  0.17120000000E+03 0.  0.
         13    1    1    2    0    0 -0.10578344139E+02 -0.21699780895E+02  0.50461637915E+02  0.55938983908E+02  0.10566000000E+00 0.  1.
        994    1    1    2    0    0 -0.39489244530E+01  0.28552626943E+02  0.82048847764E+01  0.17380335625E+03  0.17120000000E+03 0.  0.
        998    1    1    2    0    0  0.14527268592E+02 -0.68528460485E+01  0.14413334736E+04  0.14414576598E+04  0.10000000000E+02 0.  1.
</event>
<event>
 5    1  0.1556794E-008  0.3766027E+03  0.7957747E-01  0.3466086E+00
         13   -1    0    0    0    0  0.00000000000E+00  0.00000000000E+00  0.14999999963E+04  0.15000000000E+04  0.10566000000E+00 0.  1.
        994   -1    0    0    0    0 -0.00000000000E+00 -0.00000000000E+00  0.11368683772E-12  0.17120000000E+03  0.17120000000E+03 0.  0.
         13    1    1    2    0    0 -0.57928413991E+02  0.43127617199E+02  0.41248535198E+03  0.41875991842E+03  0.10566000000E+00 0.  1.
        994    1    1    2    0    0  0.21446899049E+02 -0.56276213091E+02  0.18220524593E+02  0.18239629699E+03  0.17120000000E+03 0.  0.
        998    1    1    2    0    0  0.36481514943E+02  0.13148595892E+02  0.10692941197E+04  0.10700437846E+04  0.10000000000E+02 0.  1.
</event>
<event>
 5    1  0.1556794E-008  0.3785209E+03  0.7957747E-01  0.3457624E+00
         13   -1    0    0    0    0  0.00000000000E+00  0.00000000000E+00  0.14999999963E+04  0.15000000000E+04  0.10566000000E+00 0. -1.
        994   -1    0    0    0    0 -0.00000000000E+00 -0.00000000000E+00  0.11368683772E-12  0.17120000000E+03  0.17120000000E+03 0.  0.
         13    1    1    2    0    0  0.80337537733E+01 -0.18036036649E+02  0.37983734947E+02  0.42809053975E+02  0.10566000000E+00 0. -1.
        994    1    1    2    0    0 -0.46613984351E+01  0.12557601091E+02  0.54846267244E+01  0.17181077705E+03  0.17120000000E+03 0.  0.
        998    1    1    2    0    0 -0.33723553382E+01  0.54784355573E+01  0.14565316346E+04  0.14565801690E+04  0.10000000000E+02 0. -1.
</event>
<event>
 5    1  0.1556794E-008  0.3813567E+03  0.7957747E-01  0.3445272E+00
         13   -1    0    0    0    0  0.00000000000E+00  0.00000000000E+00  0.14999999963E+04  0.15000000000E+04  0.10566000000E+00 0.  1.
        994   -1    0    0    0    0 -0.00000000000E+00 -0.00000000000E+00  0.11368683772E-12  0.17120000000E+03  0.17120000000E+03 0.  0.
         13    1    1    2    0    0  0.12442466756E+01 -0.13985278265E+02  0.28784826780E+02  0.32026763413E+02  0.10566000000E+00 0.  1.
        994    1    1    2    0    0  0.59392512751E+01 -0.70216022494E+01  0.37313645632E+01  0.17148743594E+03  0.17120000000E+03 0.  0.
        998    1    1    2    0    0 -0.71834979506E+01  0.21006880514E+02  0.14674838049E+04  0.14676858006E+04  0.10000000000E+02 0.  1.
</event>
<event>
 5    1  0.1556794E-008  0.3759440E+03  0.7957747E-01  0.3469012E+00
         13   -1    0    0    0    0  0.00000000000E+00  0.00000000000E+00  0.14999999963E+04  0.15000000000E+04  0.10566000000E+00 0.  1.
        994   -1    0    0    0    0 -0.00000000000E+00 -0.00000000000E+00  0.11368683772E-12  0.17120000000E+03  0.17120000000E+03 0.  0.
         13    1    1    2    0    0 -0.45860513554E+02  0.29979294098E+02  0.27981151054E+03  0.28512530118E+03  0.10566000000E+00 0.  1.
        994    1    1    2    0    0  0.77803951962E+01 -0.90709446638E+01  0.66788242081E+01  0.17174650878E+03  0.17120000000E+03 0.  0.
        998    1    1    2    0    0  0.38080118358E+02 -0.20908349434E+02  0.12135096615E+04  0.12143281900E+04  0.10000000000E+02 0.  1.
</event>
<event>
 5    1  0.1556794E-008  0.3730448E+03  0.7957747E-01  0.3482013E+00
         13   -1    0    0    0    0  0.00000000000E+00  0.00000000000E+00  0.14999999963E+04  0.15000000000E+04  0.10566000000E+00 0.  1.
        994   -1    0    0    0    0 -0.00000000000E+00 -0.00000000000E+00  0.11368683772E-12  0.17120000000E+03  0.17120000000E+03 0.  0.
         13    1    1    2    0    0  0.16154060928E+02  0.18554804090E+02  0.35600943175E+02  0.43274389173E+02  0.10566000000E+00 0.  1.
        994    1    1    2    0    0 -0.22587348855E+02 -0.11491139420E+02  0.98868963586E+01  0.17334770069E+03  0.17120000000E+03 0.  0.
        998    1    1    2    0    0  0.64332879272E+01 -0.70636646704E+01  0.14545121567E+04  0.14545779101E+04  0.10000000000E+02 0.  1.
</event>
<event>
 5    1  0.1556794E-008  0.3785703E+03  0.7957747E-01  0.3457407E+00
         13   -1    0    0    0    0  0.00000000000E+00  0.00000000000E+00  0.14999999963E+04  0.15000000000E+04  0.10566000000E+00 0. -1.
        994   -1    0    0    0    0 -0.00000000000E+00 -0.00000000000E+00  0.11368683772E-12  0.17120000000E+03  0.17120000000E+03 0.  0.
         13    1    1    2    0    0  0.92954012498E+01  0.44763361025E+01  0.87648551735E+01  0.13537943697E+02  0.10566000000E+00 0. -1.
        994    1    1    2    0    0 -0.48397552777E+01 -0.79347099251E+01  0.51467660876E+01  0.17152933293E+03  0.17120000000E+03 0.  0.
        998    1    1    2    0    0 -0.44556459721E+01  0.34583738226E+01  0.14860883750E+04  0.14861327234E+04  0.10000000000E+02 0. -1.
</event>
<event>
 5    1  0.1556794E-008  0.3802984E+03  0.7957747E-01  0.3449860E+00
         13   -1    0    0    0    0  0.00000000000E+00  0.00000000000E+00  0.14999999963E+04  0.15000000000E+04  0.10566000000E+00 0.  1.
        994   -1    0    0    0    0 -0.00000000000E+00 -0.00000000000E+00  0.11368683772E-12  0.17120000000E+03  0.17120000000E+03 0.  0.
         13    1    1    2    0    0  0.47035709693E+02  0.10102347935E+02  0.61804789189E+02  0.78321507588E+02  0.10566000000E+00 0.  1.
        994    1    1    2    0    0 -0.44981632283E+02 -0.17909918733E+02  0.25043550527E+02  0.17966839415E+03  0.17120000000E+03 0.  0.
        998    1    1    2    0    0 -0.20540774092E+01  0.78075707978E+01  0.14131516566E+04  0.14132100983E+04  0.10000000000E+02 0.  1.
</event>
<event>
 5    1  0.1556794E-008  0.3805323E+03  0.7957747E-01  0.3448844E+00
         13   -1    0    0    0    0  0.00000000000E+00  0.00000000000E+00  0.14999999963E+04  0.15000000000E+04  0.10566000000E+00 0. -1.
        994   -1    0    0    0    0 -0.00000000000E+00 -0.00000000000E+00  0.11368683772E-12  0.17120000000E+03  0.17120000000E+03 0.  0.
         13    1    1    2    0    0 -0.16198608821E+02 -0.16731962658E+02  0.61713116627E+02  0.65961150915E+02  0.10566000000E+00 0. -1.
        994    1    1    2    0    0  0.21151056661E+02  0.36198424842E+02  0.97525521373E+01  0.17652831340E+03  0.17120000000E+03 0.  0.
        998    1    1    2    0    0 -0.49524478401E+01 -0.19466462184E+02  0.14285343275E+04  0.14287105357E+04  0.10000000000E+02 0. -1.
</event>
<event>
 5    1  0.1556794E-008  0.3846382E+03  0.7957747E-01  0.3431208E+00
         13   -1    0    0    0    0  0.00000000000E+00  0.00000000000E+00  0.14999999963E+04  0.15000000000E+04  0.10566000000E+00 0.  1.
        994   -1    0    0    0    0 -0.00000000000E+00 -0.00000000000E+00  0.11368683772E-12  0.17120000000E+03  0.17120000000E+03 0.  0.
         13    1    1    2    0    0 -0.16757754620E+02 -0.11795942314E+02  0.10957525579E+03  0.11147517410E+03  0.10566000000E+00 0.  1.
        994    1    1    2    0    0  0.25286427534E+02 -0.45664332399E+00  0.39186447249E+01  0.17310230419E+03  0.17120000000E+03 0.  0.
        998    1    1    2    0    0 -0.85286729137E+01  0.12252585638E+02  0.13865060958E+04  0.13866225217E+04  0.10000000000E+02 0.  1.
</event>
<event>
 5    1  0.1556794E-008  0.3757686E+03  0.7957747E-01  0.3469793E+00
         13   -1    0    0    0    0  0.00000000000E+00  0.00000000000E+00  0.14999999963E+04  0.15000000000E+04  0.10566000000E+00 0. -1.
        994   -1    0    0    0    0 -0.00000000000E+00 -0.00000000000E+00  0.11368683772E-12  0.17120000000E+03  0.17120000000E+03 0.  0.
         13    1    1    2    0    0 -0.26179524967E+02  0.66234205031E+01  0.56428708444E+02  0.62557553720E+02  0.10566000000E+00 0. -1.
        994    1    1    2    0    0  0.15210861821E+02  0.62591246343E+01  0.72023712885E+01  0.17213907491E+03  0.17120000000E+03 0.  0.
        998    1    1    2    0    0  0.10968663146E+02 -0.12882545137E+02  0.14363689165E+04  0.14365033714E+04  0.10000000000E+02 0. -1.
</event>
<event>
 5    1  0.1556794E-008  0.3659176E+03  0.7957747E-01  0.3514866E+00
         13   -1    0    0    0    0  0.00000000000E+00  0.00000000000E+00  0.14999999963E+04  0.15000000000E+04  0.10566000000E+00 0.  1.
        994   -1    0    0    0    0 -0.00000000000E+00 -0.00000000000E+00  0.11368683772E-12  0.17120000000E+03  0.17120000000E+03 0.  0.
         13    1    1    2    0    0  0.94517526493E+02  0.28350478253E+03  0.94169285734E+03  0.98797468250E+03  0.10566000000E+00 0.  1.
        994    1    1    2    0    0 -0.78006832930E+02 -0.26916890626E+03  0.37550667895E+03  0.49885035032E+03  0.17120000000E+03 0.  0.
        998    1    1    2    0    0 -0.16510693563E+02 -0.14335876270E+02  0.18280045999E+03  0.18437496718E+03  0.10000000000E+02 0. -1.
</event>
<event>
 5    1  0.1556794E-008  0.3844796E+03  0.7957747E-01  0.3431882E+00
         13   -1    0    0    0    0  0.00000000000E+00  0.00000000000E+00  0.14999999963E+04  0.15000000000E+04  0.10566000000E+00 0.  1.
        994   -1    0    0    0    0 -0.00000000000E+00 -0.00000000000E+00  0.11368683772E-12  0.17120000000E+03  0.17120000000E+03 0.  0.
         13    1    1    2    0    0  0.11834731842E+02  0.12241887388E+02  0.77261410566E+02  0.79115494129E+02  0.10566000000E+00 0.  1.
        994    1    1    2    0    0 -0.93476334279E+01 -0.42540028040E+01  0.22362611289E+01  0.17152234739E+03  0.17120000000E+03 0.  0.
        998    1    1    2    0    0 -0.24870984143E+01 -0.79878845838E+01  0.14205023246E+04  0.14205621585E+04  0.10000000000E+02 0.  1.
</event>
<event>
 5    1  0.1556794E-008  0.3814348E+03  0.7957747E-01  0.3444935E+00
         13   -1    0    0    0    0  0.00000000000E+00  0.00000000000E+00  0.14999999963E+04  0.15000000000E+04  0.10566000000E+00 0.  1.
        994   -1    0    0    0    0 -0.00000000000E+00 -0.00000000000E+00  0.11368683772E-12  0.17120000000E+03  0.17120000000E+03 0.  0.
         13    1    1    2    0    0  0.90119870654E+01  0.15145089470E+02  0.43131011215E+02  0.46592756287E+02  0.10566000000E+00 0.  1.
        994    1    1    2    0    0 -0.11412891837E+02 -0.15032482552E+02  0.45967355837E+01  0.17229857692E+03  0.17120000000E+03 0.  0.
        998    1    1    2    0    0  0.24009047719E+01 -0.11260691864E+00  0.14522722495E+04  0.14523086668E+04  0.10000000000E+02 0.  1.
</event>
<event>
 5    1  0.1556794E-008  0.3818327E+03  0.7957747E-01  0.3443217E+00
         13   -1    0    0    0    0  0.00000000000E+00  0.00000000000E+00  0.14999999963E+04  0.15000000000E+04  0.10566000000E+00 0.  1.
        994   -1    0    0    0    0 -0.00000000000E+00 -0.00000000000E+00  0.11368683772E-12  0.17120000000E+03  0.17120000000E+03 0.  0.
         13    1    1    2    0    0  0.12350792429E+02 -0.81877154703E+01  0.32912083895E+02  0.36094281937E+02  0.10566000000E+00 0.  1.
        994    1    1    2    0    0 -0.10472325445E+02  0.40042417818E+01  0.36286452177E+01  0.17160510079E+03  0.17120000000E+03 0.  0.
        998    1    1    2    0    0 -0.18784669845E+01  0.41834736885E+01  0.14634592672E+04  0.14635006173E+04  0.10000000000E+02 0.  1.
</event>
<event>
 5    1  0.1556794E-008  0.3816166E+03  0.7957747E-01  0.3444149E+00
         13   -1    0    0    0    0  0.00000000000E+00  0.00000000000E+00  0.14999999963E+04  0.15000000000E+04  0.10566000000E+00 0. -1.
        994   -1    0    0    0    0 -0.00000000000E+00 -0.00000000000E+00  0.11368683772E-12  0.17120000000E+03  0.17120000000E+03 0.  0.
         13    1    1    2    0    0 -0.11263016167E+03 -0.47037505659E+02  0.68716181258E+03  0.69791793793E+03  0.10566000000E+00 0. -1.
        994    1    1    2    0    0  0.12973078873E+03  0.91931482850E+02  0.92526292258E+02  0.25130067617E+03  0.17120000000E+03 0.  0.
        998    1    1    2    0    0 -0.17100627058E+02 -0.44893977190E+02  0.72031189145E+03  0.72198138590E+03  0.10000000000E+02 0. -1.
</event>
<event>
 5    1  0.1556794E-008  0.3832604E+03  0.7957747E-01  0.3437084E+00
         13   -1    0    0    0    0  0.00000000000E+00  0.00000000000E+00  0.14999999963E+04  0.15000000000E+04  0.10566000000E+00 0.  1.
        994   -1    0    0    0    0 -0.00000000000E+00 -0.00000000000E+00  0.11368683772E-12  0.17120000000E+03  0.17120000000E+03 0.  0.
         13    1    1    2    0    0 -0.50484515571E+01 -0.96802037160E+01  0.23243491055E+02  0.25680035973E+02  0.10566000000E+00 0.  1.
        994    1    1    2    0    0  0.71253123449E+00  0.46239906595E+01  0.25686829664E+01  0.17128317817E+03  0.17120000000E+03 0.  0.
        998    1    1    2    0    0  0.43359203226E+01  0.50562130564E+01  0.14741878223E+04  0.14742367859E+04  0.10000000000E+02 0.  1.
</event>
<event>
 5    1  0.1556794E-008  0.3908089E+03  0.7957747E-01  0.3405403E+00
         13   -1    0    0    0    0  0.00000000000E+00  0.00000000000E+00  0.14999999963E+04  0.15000000000E+04  0.10566000000E+00 0. -1.
        994   -1    0    0    0    0 -0.00000000000E+00 -0.00000000000E+00  0.11368683772E-12  0.17120000000E+03  0.17120000000E+03 0.  0.
         13    1    1    2    0    0 -0.11556981319E+03  0.45607682609E+02  0.36689198581E+03  0.38735795183E+03  0.10566000000E+00 0. -1.
        994    1    1    2    0    0  0.46221851978E+02 -0.49005041923E+02  0.39731875612E+02  0.18821800040E+03  0.17120000000E+03 0.  0.
        998    1    1    2    0    0  0.69347961209E+02  0.33973593145E+01  0.10933761349E+04  0.10956240478E+04  0.10000000000E+02 0. -1.
</event>
<event>
 5    1  0.1556794E-008  0.3821701E+03  0.7957747E-01  0.3441763E+00
         13   -1    0    0    0    0  0.00000000000E+00  0.00000000000E+00  0.14999999963E+04  0.15000000000E+04  0.10566000000E+00 0.  1.
        994   -1    0    0    0    0 -0.00000000000E+00 -0.00000000000E+00  0.11368683772E-12  0.17120000000E+03  0.17120000000E+03 0.  0.
         13    1    1    2    0    0  0.71295248376E+01  0.16633254611E+02  0.52250011380E+02  0.55295299408E+02  0.10566000000E+00 0.  1.
        994    1    1    2    0    0 -0.38446843961E+01 -0.13973012851E+02  0.37390780246E+01  0.17185298191E+03  0.17120000000E+03 0.  0.
        998    1    1    2    0    0 -0.32848404415E+01 -0.26602417593E+01  0.14440109069E+04  0.14440517187E+04  0.10000000000E+02 0.  1.
</event>
<event>
 5    1  0.1556794E-008  0.3823053E+03  0.7957747E-01  0.3441182E+00
         13   -1    0    0    0    0  0.00000000000E+00  0.00000000000E+00  0.14999999963E+04  0.15000000000E+04  0.10566000000E+00 0.  1.
        994   -1    0    0    0    0 -0.00000000000E+00 -0.00000000000E+00  0.11368683772E-12  0.17120000000E+03  0.17120000000E+03 0.  0.
         13    1    1    2    0    0  0.33619609118E+02  0.18060960078E+01  0.20323376470E+03  0.20600367564E+03  0.10566000000E+00 0.  1.
        994    1    1    2    0    0 -0.11332390370E+02 -0.12227938199E+02  0.38966292296E+01  0.17205397195E+03  0.17120000000E+03 0.  0.
        998    1    1    2    0    0 -0.22287218748E+02  0.10421842191E+02  0.12928696023E+04  0.12931423524E+04  0.10000000000E+02 0.  1.
</event>
<event>
 5    1  0.1556794E-008  0.3763180E+03  0.7957747E-01  0.3467349E+00
         13   -1    0    0    0    0  0.00000000000E+00  0.00000000000E+00  0.14999999963E+04  0.15000000000E+04  0.10566000000E+00 0. -1.
        994   -1    0    0    0    0 -0.00000000000E+00 -0.00000000000E+00  0.11368683772E-12  0.17120000000E+03  0.17120000000E+03 0.  0.
         13    1    1    2    0    0 -0.39724504634E+02 -0.21794052162E+02  0.20384287615E+03  0.20881797408E+03  0.10566000000E+00 0. -1.
        994    1    1    2    0    0 -0.11231125278E+01 -0.31971055746E+01  0.60423395366E+01  0.17134010836E+03  0.17120000000E+03 0.  0.
        998    1    1    2    0    0  0.40847617162E+02  0.24991157736E+02  0.12901147806E+04  0.12910419176E+04  0.10000000000E+02 0. -1.
</event>
<event>
 5    1  0.1556794E-008  0.3697409E+03  0.7957747E-01  0.3497082E+00
         13   -1    0    0    0    0  0.00000000000E+00  0.00000000000E+00  0.14999999963E+04  0.15000000000E+04  0.10566000000E+00 0.  1.
        994   -1    0    0    0    0 -0.00000000000E+00 -0.00000000000E+00  0.11368683772E-12  0.17120000000E+03  0.17120000000E+03 0.  0.
         13    1    1    2    0    0  0.15753848940E+02 -0.54263934502E+02  0.22817349290E+03  0.23506576180E+03  0.10566000000E+00 0.  1.
        994    1    1    2    0    0 -0.26568870222E+01 -0.22363948379E+02  0.11161819537E+02  0.17303534740E+03  0.17120000000E+03 0.  0.
        998    1    1    2    0    0 -0.13096961918E+02  0.76627882881E+02  0.12606646838E+04  0.12630988908E+04  0.10000000000E+02 0. -1.
</event>
<event>
 5    1  0.1556794E-008  0.3753194E+03  0.7957747E-01  0.3471796E+00
         13   -1    0    0    0    0  0.00000000000E+00  0.00000000000E+00  0.14999999963E+04  0.15000000000E+04  0.10566000000E+00 0. -1.
        994   -1    0    0    0    0 -0.00000000000E+00 -0.00000000000E+00  0.11368683772E-12  0.17120000000E+03  0.17120000000E+03 0.  0.
         13    1    1    2    0    0  0.48332711906E+02  0.11084294447E+02  0.20394814553E+03  0.20988989936E+03  0.10566000000E+00 0. -1.
        994    1    1    2    0    0 -0.11394592185E+02 -0.15200165359E+02  0.77411607445E+01  0.17242461346E+03  0.17120000000E+03 0.  0.
        998    1    1    2    0    0 -0.36938119722E+02  0.41158709120E+01  0.12883106900E+04  0.12888854872E+04  0.10000000000E+02 0. -1.
</event>
<event>
 5    1  0.1556794E-008  0.3862034E+03  0.7957747E-01  0.3424584E+00
         13   -1    0    0    0    0  0.00000000000E+00  0.00000000000E+00  0.14999999963E+04  0.15000000000E+04  0.10566000000E+00 0.  1.
        994   -1    0    0    0    0 -0.00000000000E+00 -0.00000000000E+00  0.11368683772E-12  0.17120000000E+03  0.17120000000E+03 0.  0.
         13    1    1    2    0    0 -0.44290974140E+02  0.38336739747E+02  0.82630741030E+02  0.10128793873E+03  0.10566000000E+00 0.  1.
        994    1    1    2    0    0  0.12569610039E+02 -0.31278154734E+02  0.24002229705E+02  0.17613025036E+03  0.17120000000E+03 0.  0.
        998    1    1    2    0    0  0.31721364100E+02 -0.70585850133E+01  0.13933670255E+04  0.13937818109E+04  0.10000000000E+02 0.  1.
</event>
<event>
 5    1  0.1556794E-008  0.3822040E+03  0.7957747E-01  0.3441618E+00
         13   -1    0    0    0    0  0.00000000000E+00  0.00000000000E+00  0.14999999963E+04  0.15000000000E+04  0.10566000000E+00 0.  1.
        994   -1    0    0    0    0 -0.00000000000E+00 -0.00000000000E+00  0.11368683772E-12  0.17120000000E+03  0.17120000000E+03 0.  0.
         13    1    1    2    0    0 -0.15521681147E+02 -0.36961511321E+01  0.40067119702E+02  0.43127362128E+02  0.10566000000E+00 0.  1.
        994    1    1    2    0    0  0.16346546548E+02  0.41989494870E+01  0.39706000134E+01  0.17207569969E+03  0.17120000000E+03 0.  0.
        998    1    1    2    0    0 -0.82486540070E+00 -0.50279835485E+00  0.14559622766E+04  0.14559969382E+04  0.10000000000E+02 0.  1.
</event>
<event>
 5    1  0.1556794E-008  0.3829526E+03  0.7957747E-01  0.3438402E+00
         13   -1    0    0    0    0  0.00000000000E+00  0.00000000000E+00  0.14999999963E+04  0.15000000000E+04  0.10566000000E+00 0.  1.
        994   -1    0    0    0    0 -0.00000000000E+00 -0.00000000000E+00  0.11368683772E-12  0.17120000000E+03  0.17120000000E+03 0.  0.
         13    1    1    2    0    0  0.10936033714E+02 -0.57041341056E+01  0.29047088116E+02  0.31557542226E+02  0.10566000000E+00 0.  1.
        994    1    1    2    0    0  0.12873699489E+02  0.16303385349E+02  0.40800096036E+01  0.17250396804E+03  0.17120000000E+03 0.  0.
        998    1    1    2    0    0 -0.23809733203E+02 -0.10599251243E+02  0.14668728986E+04  0.14671384897E+04  0.10000000000E+02 0.  1.
</event>
<event>
 5    1  0.1556794E-008  0.3737414E+03  0.7957747E-01  0.3478871E+00
         13   -1    0    0    0    0  0.00000000000E+00  0.00000000000E+00  0.14999999963E+04  0.15000000000E+04  0.10566000000E+00 0. -1.
        994   -1    0    0    0    0 -0.00000000000E+00 -0.00000000000E+00  0.11368683772E-12  0.17120000000E+03  0.17120000000E+03 0.  0.
         13    1    1    2    0    0  0.22841611373E+02 -0.33806789301E+01  0.34011440983E+02  0.41109092448E+02  0.10566000000E+00 0. -1.
        994    1    1    2    0    0 -0.11798730079E+02 -0.18611389461E+02  0.89858837006E+01  0.17284611640E+03  0.17120000000E+03 0.  0.
        998    1    1    2    0    0 -0.11042881295E+02  0.21992068391E+02  0.14570026716E+04  0.14572447912E+04  0.10000000000E+02 0. -1.
</event>
<event>
 5    1  0.1556794E-008  0.3784413E+03  0.7957747E-01  0.3457974E+00
         13   -1    0    0    0    0  0.00000000000E+00  0.00000000000E+00  0.14999999963E+04  0.15000000000E+04  0.10566000000E+00 0.  1.
        994   -1    0    0    0    0 -0.00000000000E+00 -0.00000000000E+00  0.11368683772E-12  0.17120000000E+03  0.17120000000E+03 0.  0.
         13    1    1    2    0    0 -0.51904001115E+02  0.94027843433E+01  0.80673459956E+02  0.96388049003E+02  0.10566000000E+00 0.  1.
        994    1    1    2    0    0  0.50652169358E+02 -0.78346195642E+01  0.24999814979E+02  0.18044792676E+03  0.17120000000E+03 0.  0.
        998    1    1    2    0    0  0.12518317573E+01 -0.15681647791E+01  0.13943267213E+04  0.13943640242E+04  0.10000000000E+02 0.  1.
</event>
<event>
 5    1  0.1628599E-008  0.3856165E+03  0.7957747E-01  0.3427062E+00
         13   -1    0    0    0    0  0.00000000000E+00  0.00000000000E+00  0.14999999963E+04  0.15000000000E+04  0.10566000000E+00 0.  1.
        994   -1    0    0    0    0 -0.00000000000E+00 -0.00000000000E+00  0.11368683772E-12  0.17120000000E+03  0.17120000000E+03 0.  0.
         13    1    1    2    0    0  0.74393037395E+01 -0.68693195715E+01  0.38128629536E+02  0.39450403621E+02  0.10566000000E+00 0.  1.
        994    1    1    2    0    0 -0.66733658967E+01  0.82001226864E+01  0.16912951806E+01  0.17153447555E+03  0.17120000000E+03 0.  0.
        998    1    1    2    0    0 -0.76593784273E+00 -0.13308031149E+01  0.14601800716E+04  0.14602151208E+04  0.10000000000E+02 0.  1.
</event>
<event>
 5    1  0.1556794E-008  0.3821272E+03  0.7957747E-01  0.3441948E+00
         13   -1    0    0    0    0  0.00000000000E+00  0.00000000000E+00  0.14999999963E+04  0.15000000000E+04  0.10566000000E+00 0.  1.
        994   -1    0    0    0    0 -0.00000000000E+00 -0.00000000000E+00  0.11368683772E-12  0.17120000000E+03  0.17120000000E+03 0.  0.
         13    1    1    2    0    0  0.19002140768E+02 -0.12790667823E+02  0.84066576484E+02  0.87131412148E+02  0.10566000000E+00 0.  1.
        994    1    1    2    0    0 -0.73043747595E+01  0.17311056896E+02  0.42359844753E+01  0.17228003409E+03  0.17120000000E+03 0.  0.
        998    1    1    2    0    0 -0.11697766009E+02 -0.45203890722E+01  0.14116974353E+04  0.14117885538E+04  0.10000000000E+02 0.  1.
</event>
<event>
 5    1  0.1556794E-008  0.3852994E+03  0.7957747E-01  0.3428403E+00
         13   -1    0    0    0    0  0.00000000000E+00  0.00000000000E+00  0.14999999963E+04  0.15000000000E+04  0.10566000000E+00 0. -1.
        994   -1    0    0    0    0 -0.00000000000E+00 -0.00000000000E+00  0.11368683772E-12  0.17120000000E+03  0.17120000000E+03 0.  0.
         13    1    1    2    0    0 -0.11049782148E+02 -0.21818091030E+00  0.38827011799E+02  0.40369459963E+02  0.10566000000E+00 0. -1.
        994    1    1    2    0    0  0.19306919371E+02 -0.34014745208E+01  0.27452544424E+01  0.17234066144E+03  0.17120000000E+03 0.  0.
        998    1    1    2    0    0 -0.82571372229E+01  0.36196554311E+01  0.14584277300E+04  0.14584898786E+04  0.10000000000E+02 0. -1.
</event>
<event>
 5    1  0.1556794E-008  0.3793619E+03  0.7957747E-01  0.3453942E+00
         13   -1    0    0    0    0  0.00000000000E+00  0.00000000000E+00  0.14999999963E+04  0.15000000000E+04  0.10566000000E+00 0. -1.
        994   -1    0    0    0    0 -0.00000000000E+00 -0.00000000000E+00  0.11368683772E-12  0.17120000000E+03  0.17120000000E+03 0.  0.
         13    1    1    2    0    0  0.12147162909E+02 -0.34185786153E+02  0.14771477712E+03  0.15210485885E+03  0.10566000000E+00 0. -1.
        994    1    1    2    0    0 -0.14768550402E+02  0.15677281199E+02  0.60111527082E+01  0.17265416642E+03  0.17120000000E+03 0.  0.
        998    1    1    2    0    0  0.26213874926E+01  0.18508504954E+02  0.13462740664E+04  0.13464409747E+04  0.10000000000E+02 0. -1.
</event>
<event>
 5    1  0.1556794E-008  0.3819002E+03  0.7957747E-01  0.3442926E+00
         13   -1    0    0    0    0  0.00000000000E+00  0.00000000000E+00  0.14999999963E+04  0.15000000000E+04  0.10566000000E+00 0.  1.
        994   -1    0    0    0    0 -0.00000000000E+00 -0.00000000000E+00  0.11368683772E-12  0.17120000000E+03  0.17120000000E+03 0.  0.
         13    1    1    2    0    0 -0.78483409921E+01 -0.20112153679E+02  0.74867516486E+02  0.77918235162E+02  0.10566000000E+00 0.  1.
        994    1    1    2    0    0  0.82887307433E+00  0.69433897043E+01  0.33394795153E+01  0.17137528939E+03  0.17120000000E+03 0.  0.
        998    1    1    2    0    0  0.70194679178E+01  0.13168763975E+02  0.14217930003E+04  0.14219064754E+04  0.10000000000E+02 0.  1.
</event>
<event>
 5    1  0.1556794E-008  0.3840891E+03  0.7957747E-01  0.3433545E+00
         13   -1    0    0    0    0  0.00000000000E+00  0.00000000000E+00  0.14999999963E+04  0.15000000000E+04  0.10566000000E+00 0.  1.
        994   -1    0    0    0    0 -0.00000000000E+00 -0.00000000000E+00  0.11368683772E-12  0.17120000000E+03  0.17120000000E+03 0.  0.
         13    1    1    2    0    0 -0.46343473277E+02 -0.30979438487E+01  0.49523284933E+02  0.67896109506E+02  0.10566000000E+00 0.  1.
        994    1    1    2    0    0  0.46714289252E+02 -0.47001818871E+00  0.26663993515E+02  0.17945153743E+03  0.17120000000E+03 0.  0.
        998    1    1    2    0    0 -0.37081597566E+00  0.35679620374E+01  0.14238127178E+04  0.14238523531E+04  0.10000000000E+02 0.  1.
</event>
<event>
 5    1  0.1556794E-008  0.3845856E+03  0.7957747E-01  0.3431432E+00
         13   -1    0    0    0    0  0.00000000000E+00  0.00000000000E+00  0.14999999963E+04  0.15000000000E+04  0.10566000000E+00 0.  1.
        994   -1    0    0    0    0 -0.00000000000E+00 -0.00000000000E+00  0.11368683772E-12  0.17120000000E+03  0.17120000000E+03 0.  0.
         13    1    1    2    0    0  0.64731582110E+01 -0.93206528310E+01  0.37559208467E+02  0.39236228809E+02  0.10566000000E+00 0.  1.
        994    1    1    2    0    0  0.36318241005E+01 -0.85127459438E+01  0.21181645881E+01  0.17146306778E+03  0.17120000000E+03 0.  0.
        998    1    1    2    0    0 -0.10104982312E+02  0.17833398775E+02  0.14603226232E+04  0.14605007034E+04  0.10000000000E+02 0.  1.
</event>
<event>
 5    1  0.1556794E-008  0.3836155E+03  0.7957747E-01  0.3435565E+00
         13   -1    0    0    0    0  0.00000000000E+00  0.00000000000E+00  0.14999999963E+04  0.15000000000E+04  0.10566000000E+00 0.  1.
        994   -1    0    0    0    0 -0.00000000000E+00 -0.00000000000E+00  0.11368683772E-12  0.17120000000E+03  0.17120000000E+03 0.  0.
         13    1    1    2    0    0 -0.14582483070E+02  0.69731680074E+00  0.39702584264E+02  0.42301789850E+02  0.10566000000E+00 0.  1.
        994    1    1    2    0    0  0.41225412061E+02  0.48965621225E+01  0.80335700841E+01  0.17634480193E+03  0.17120000000E+03 0.  0.
        998    1    1    2    0    0 -0.26642928991E+02 -0.55938789232E+01  0.14522638419E+04  0.14525534082E+04  0.10000000000E+02 0.  1.
</event>
<event>
 5    1  0.1556794E-008  0.3830757E+03  0.7957747E-01  0.3437874E+00
         13   -1    0    0    0    0  0.00000000000E+00  0.00000000000E+00  0.14999999963E+04  0.15000000000E+04  0.10566000000E+00 0.  1.
        994   -1    0    0    0    0 -0.00000000000E+00 -0.00000000000E+00  0.11368683772E-12  0.17120000000E+03  0.17120000000E+03 0.  0.
         13    1    1    2    0    0 -0.98704757808E+01 -0.66296634767E+01  0.26075884886E+02  0.28659059066E+02  0.10566000000E+00 0.  1.
        994    1    1    2    0    0  0.89308355556E+01  0.80864490187E+01  0.30690210666E+01  0.17165083563E+03  0.17120000000E+03 0.  0.
        998    1    1    2    0    0  0.93964022513E+00 -0.14567855420E+01  0.14708550903E+04  0.14708901053E+04  0.10000000000E+02 0.  1.
</event>
<event>
 5    1  0.1556794E-008  0.3826566E+03  0.7957747E-01  0.3439672E+00
         13   -1    0    0    0    0  0.00000000000E+00  0.00000000000E+00  0.14999999963E+04  0.15000000000E+04  0.10566000000E+00 0. -1.
        994   -1    0    0    0    0 -0.00000000000E+00 -0.00000000000E+00  0.11368683772E-12  0.17120000000E+03  0.17120000000E+03 0.  0.
         13    1    1    2    0    0  0.16447395922E+02  0.81545792391E+01  0.58011623375E+02  0.60847133094E+02  0.10566000000E+00 0. -1.
        994    1    1    2    0    0 -0.12622256123E+02 -0.12412300865E+02  0.38372632731E+01  0.17215560157E+03  0.17120000000E+03 0.  0.
        998    1    1    2    0    0 -0.38251397985E+01  0.42577216263E+01  0.14381511096E+04  0.14381972653E+04  0.10000000000E+02 0. -1.
</event>
<event>
 5    1  0.1556794E-008  0.3846669E+03  0.7957747E-01  0.3431086E+00
         13   -1    0    0    0    0  0.00000000000E+00  0.00000000000E+00  0.14999999963E+04  0.15000000000E+04  0.10566000000E+00 0. -1.
        994   -1    0    0    0    0 -0.00000000000E+00 -0.00000000000E+00  0.11368683772E-12  0.17120000000E+03  0.17120000000E+03 0.  0.
         13    1    1    2    0    0  0.49885716702E+01 -0.21325196686E+02  0.12310644296E+03  0.12503942307E+03  0.10566000000E+00 0. -1.
        994    1    1    2    0    0 -0.60586000284E+01  0.22553602508E+02  0.35931571524E+01  0.17282280636E+03  0.17120000000E+03 0.  0.
        998    1    1    2    0    0  0.10700283582E+01 -0.12284058221E+01  0.13733003962E+04  0.13733377706E+04  0.10000000000E+02 0.  0.
</event>
<event>
 5    1  0.1556794E-008  0.3358467E+03  0.7957747E-01  0.3669262E+00
         13   -1    0    0    0    0  0.00000000000E+00  0.00000000000E+00  0.14999999963E+04  0.15000000000E+04  0.10566000000E+00 0. -1.
        994   -1    0    0    0    0 -0.00000000000E+00 -0.00000000000E+00  0.11368683772E-12  0.17120000000E+03  0.17120000000E+03 0.  0.
         13    1    1    2    0    0  0.80770694466E+01 -0.21951494042E+03  0.91608751771E+03  0.94205541206E+03  0.10566000000E+00 0. -1.
        994    1    1    2    0    0  0.24994019747E+02  0.19108853329E+03  0.16111240267E+03  0.30398383982E+03  0.17120000000E+03 0.  0.
        998    1    1    2    0    0 -0.33071089194E+02  0.28426407135E+02  0.42280007589E+03  0.42516074812E+03  0.10000000000E+02 0.  1.
</event>
<event>
 5    1  0.1556794E-008  0.3850914E+03  0.7957747E-01  0.3429285E+00
         13   -1    0    0    0    0  0.00000000000E+00  0.00000000000E+00  0.14999999963E+04  0.15000000000E+04  0.10566000000E+00 0. -1.
        994   -1    0    0    0    0 -0.00000000000E+00 -0.00000000000E+00  0.11368683772E-12  0.17120000000E+03  0.17120000000E+03 0.  0.
         13    1    1    2    0    0  0.24228908333E+00  0.10434234919E+02  0.35130492888E+02  0.36648255851E+02  0.10566000000E+00 0. -1.
        994    1    1    2    0    0 -0.12648240070E+02 -0.14648630330E+01  0.21179489291E+01  0.17168590364E+03  0.17120000000E+03 0.  0.
        998    1    1    2    0    0  0.12405950986E+02 -0.89693718858E+01  0.14627515545E+04  0.14628658405E+04  0.10000000000E+02 0. -1.
</event>
<event>
 5    1  0.1556794E-008  0.3809340E+03  0.7957747E-01  0.3447102E+00
         13   -1    0    0    0    0  0.00000000000E+00  0.00000000000E+00  0.14999999963E+04  0.15000000000E+04  0.10566000000E+00 0.  1.
        994   -1    0    0    0    0 -0.00000000000E+00 -0.00000000000E+00  0.11368683772E-12  0.17120000000E+03  0.17120000000E+03 0.  0.
         13    1    1    2    0    0  0.14910124920E+02  0.36197027134E+01  0.30649386192E+02  0.34275503073E+02  0.10566000000E+00 0.  1.
        994    1    1    2    0    0 -0.95251523996E+01 -0.82359153911E+01  0.41910148779E+01  0.17171360877E+03  0.17120000000E+03 0.  0.
        998    1    1    2    0    0 -0.53849725207E+01  0.46162126777E+01  0.14651595952E+04  0.14652108882E+04  0.10000000000E+02 0.  1.
</event>
<event>
 5    1  0.1556794E-008  0.3741274E+03  0.7957747E-01  0.3477135E+00
         13   -1    0    0    0    0  0.00000000000E+00  0.00000000000E+00  0.14999999963E+04  0.15000000000E+04  0.10566000000E+00 0.  1.
        994   -1    0    0    0    0 -0.00000000000E+00 -0.00000000000E+00  0.11368683772E-12  0.17120000000E+03  0.17120000000E+03 0.  0.
         13    1    1    2    0    0 -0.31881600669E+01 -0.41045940873E+02  0.62066724818E+02  0.74479682601E+02  0.10566000000E+00 0.  1.
        994    1    1    2    0    0  0.17591888059E+01  0.13946276875E+02  0.13839296062E+02  0.17233270003E+03  0.17120000000E+03 0.  0.
        998    1    1    2    0    0  0.14289712610E+01  0.27099663998E+02  0.14240939754E+04  0.14243876174E+04  0.10000000000E+02 0.  1.
</event>
<event>
 5    1  0.1556794E-008  0.3849460E+03  0.7957747E-01  0.3429901E+00
         13   -1    0    0    0    0  0.00000000000E+00  0.00000000000E+00  0.14999999963E+04  0.15000000000E+04  0.10566000000E+00 0. -1.
        994   -1    0    0    0    0 -0.00000000000E+00 -0.00000000000E+00  0.11368683772E-12  0.17120000000E+03  0.17120000000E+03 0.  0.
         13    1    1    2    0    0  0.20262552294E+01 -0.10226567496E+02  0.44282512033E+02  0.45493300924E+02  0.10566000000E+00 0. -1.
        994    1    1    2    0    0  0.19040281730E+02 -0.45604510629E+02  0.97318632383E+01  0.17845574488E+03  0.17120000000E+03 0.  0.
        998    1    1    2    0    0 -0.21066536959E+02  0.55831078125E+02  0.14459856210E+04  0.14472509542E+04  0.10000000000E+02 0. -1.
</event>
<event>
 5    1  0.1556794E-008  0.3834862E+03  0.7957747E-01  0.3436118E+00
         13   -1    0    0    0    0  0.00000000000E+00  0.00000000000E+00  0.14999999963E+04  0.15000000000E+04  0.10566000000E+00 0. -1.
        994   -1    0    0    0    0 -0.00000000000E+00 -0.00000000000E+00  0.11368683772E-12  0.17120000000E+03  0.17120000000E+03 0.  0.
         13    1    1    2    0    0  0.13231845401E+02  0.81154495920E+02  0.17112923476E+03  0.18985878988E+03  0.10566000000E+00 0. -1.
        994    1    1    2    0    0 -0.10234820121E+02 -0.64052886450E+02  0.33867096210E+02  0.18618255560E+03  0.17120000000E+03 0.  0.
        998    1    1    2    0    0 -0.29970252808E+01 -0.17101609470E+02  0.12950036653E+04  0.12951586545E+04  0.10000000000E+02 0. -1.
</event>
<event>
 5    1  0.1556794E-008  0.3812580E+03  0.7957747E-01  0.3445699E+00
         13   -1    0    0    0    0  0.00000000000E+00  0.00000000000E+00  0.14999999963E+04  0.15000000000E+04  0.10566000000E+00 0. -1.
        994   -1    0    0    0    0 -0.00000000000E+00 -0.00000000000E+00  0.11368683772E-12  0.17120000000E+03  0.17120000000E+03 0.  0.
         13    1    1    2    0    0  0.37109997807E+02  0.11948606224E+02  0.20753927986E+03  0.21116932774E+03  0.10566000000E+00 0. -1.
        994    1    1    2    0    0 -0.24826204954E+02 -0.12505453704E+02  0.60761937837E+01  0.17354851470E+03  0.17120000000E+03 0.  0.
        998    1    1    2    0    0 -0.12283792853E+02  0.55684748030E+00  0.12863845226E+04  0.12864821576E+04  0.10000000000E+02 0. -1.
</event>
<event>
 5    1  0.1556794E-008  0.3813861E+03  0.7957747E-01  0.3445145E+00
         13   -1    0    0    0    0  0.00000000000E+00  0.00000000000E+00  0.14999999963E+04  0.15000000000E+04  0.10566000000E+00 0.  1.
        994   -1    0    0    0    0 -0.00000000000E+00 -0.00000000000E+00  0.11368683772E-12  0.17120000000E+03  0.17120000000E+03 0.  0.
         13    1    1    2    0    0  0.13500968269E+02 -0.55728158417E+01  0.32935978289E+02  0.36029463644E+02  0.10566000000E+00 0.  1.
        994    1    1    2    0    0  0.18145720726E+02 -0.84558357243E+01  0.47698237076E+01  0.17243247825E+03  0.17120000000E+03 0.  0.
        998    1    1    2    0    0 -0.31646688995E+02  0.14028651566E+02  0.14622941943E+04  0.14627380581E+04  0.10000000000E+02 0.  1.
</event>
<event>
 5    1  0.1556794E-008  0.4091914E+03  0.7957747E-01  0.3333135E+00
         13   -1    0    0    0    0  0.00000000000E+00  0.00000000000E+00  0.14999999963E+04  0.15000000000E+04  0.10566000000E+00 0. -1.
        994   -1    0    0    0    0 -0.00000000000E+00 -0.00000000000E+00  0.11368683772E-12  0.17120000000E+03  0.17120000000E+03 0.  0.
         13    1    1    2    0    0  0.11947588647E+03  0.81127089833E+02  0.24451046024E+03  0.28397441519E+03  0.10566000000E+00 0. -1.
        994    1    1    2    0    0 -0.12342576353E+03 -0.75179301140E+02  0.12477657179E+03  0.25644586035E+03  0.17120000000E+03 0.  0.
        998    1    1    2    0    0  0.39498770653E+01 -0.59477886935E+01  0.11307129643E+04  0.11307797245E+04  0.10000000000E+02 0. -1.
</event>
<event>
 5    1  0.1556794E-008  0.3827671E+03  0.7957747E-01  0.3439198E+00
         13   -1    0    0    0    0  0.00000000000E+00  0.00000000000E+00  0.14999999963E+04  0.15000000000E+04  0.10566000000E+00 0. -1.
        994   -1    0    0    0    0 -0.00000000000E+00 -0.00000000000E+00  0.11368683772E-12  0.17120000000E+03  0.17120000000E+03 0.  0.
         13    1    1    2    0    0  0.14040317473E+02  0.21891717396E+02  0.11534023776E+03  0.11823603264E+03  0.10566000000E+00 0. -1.
        994    1    1    2    0    0 -0.11747528191E+02 -0.22117898675E+02  0.48232616227E+01  0.17308931138E+03  0.17120000000E+03 0.  0.
        998    1    1    2    0    0 -0.22927892828E+01  0.22618127894E+00  0.13798364969E+04  0.13798746560E+04  0.10000000000E+02 0. -1.
</event>
<event>
 5    1  0.1556794E-008  0.3771517E+03  0.7957747E-01  0.3463655E+00
         13   -1    0    0    0    0  0.00000000000E+00  0.00000000000E+00  0.14999999963E+04  0.15000000000E+04  0.10566000000E+00 0. -1.
        994   -1    0    0    0    0 -0.00000000000E+00 -0.00000000000E+00  0.11368683772E-12  0.17120000000E+03  0.17120000000E+03 0.  0.
         13    1    1    2    0    0 -0.64503823745E+02 -0.19228480209E+02  0.38408528306E+03  0.38993844842E+03  0.10566000000E+00 0. -1.
        994    1    1    2    0    0  0.38894415569E+02  0.23473188464E+02  0.12574406070E+02  0.17757061082E+03  0.17120000000E+03 0.  0.
        998    1    1    2    0    0  0.25609408176E+02 -0.42447082545E+01  0.11033403072E+04  0.11036909408E+04  0.10000000000E+02 0.  0.
</event>
<event>
 5    1  0.1556794E-008  0.3810605E+03  0.7957747E-01  0.3446554E+00
         13   -1    0    0    0    0  0.00000000000E+00  0.00000000000E+00  0.14999999963E+04  0.15000000000E+04  0.10566000000E+00 0. -1.
        994   -1    0    0    0    0 -0.00000000000E+00 -0.00000000000E+00  0.11368683772E-12  0.17120000000E+03  0.17120000000E+03 0.  0.
         13    1    1    2    0    0  0.59619593383E+02  0.44512351090E+01  0.35336979095E+03  0.35839158713E+03  0.10566000000E+00 0. -1.
        994    1    1    2    0    0 -0.71867503372E+02  0.29671199281E+02  0.24006469859E+02  0.18955492265E+03  0.17120000000E+03 0.  0.
        998    1    1    2    0    0  0.12247909989E+02 -0.34122434389E+02  0.11226237355E+04  0.11232534902E+04  0.10000000000E+02 0. -1.
</event>
<event>
 5    1  0.1556794E-008  0.3687900E+03  0.7957747E-01  0.3501470E+00
         13   -1    0    0    0    0  0.00000000000E+00  0.00000000000E+00  0.14999999963E+04  0.15000000000E+04  0.10566000000E+00 0. -1.
        994   -1    0    0    0    0 -0.00000000000E+00 -0.00000000000E+00  0.11368683772E-12  0.17120000000E+03  0.17120000000E+03 0.  0.
         13    1    1    2    0    0  0.12083701699E+02  0.10464915322E+02  0.77519663657E+01  0.17766103850E+02  0.10566000000E+00 0. -1.
        994    1    1    2    0    0 -0.14895320818E+02 -0.24618619478E+01  0.11094288238E+02  0.17222210827E+03  0.17120000000E+03 0.  0.
        998    1    1    2    0    0  0.28116191187E+01 -0.80030533742E+01  0.14811537417E+04  0.14812117879E+04  0.10000000000E+02 0. -1.
</event>
<event>
 5    1  0.1556794E-008  0.3794764E+03  0.7957747E-01  0.3453442E+00
         13   -1    0    0    0    0  0.00000000000E+00  0.00000000000E+00  0.14999999963E+04  0.15000000000E+04  0.10566000000E+00 0. -1.
        994   -1    0    0    0    0 -0.00000000000E+00 -0.00000000000E+00  0.11368683772E-12  0.17120000000E+03  0.17120000000E+03 0.  0.
         13    1    1    2    0    0 -0.34050830861E+02  0.13949848241E+02  0.14275111193E+03  0.14741759892E+03  0.10566000000E+00 0. -1.
        994    1    1    2    0    0  0.32768968885E+02 -0.64703381033E+01  0.81427996402E+01  0.17461791369E+03  0.17120000000E+03 0.  0.
        998    1    1    2    0    0  0.12818619758E+01 -0.74795101372E+01  0.13491060847E+04  0.13491644874E+04  0.10000000000E+02 0. -1.
</event>
<event>
 5    1  0.1556794E-008  0.3796432E+03  0.7957747E-01  0.3452714E+00
         13   -1    0    0    0    0  0.00000000000E+00  0.00000000000E+00  0.14999999963E+04  0.15000000000E+04  0.10566000000E+00 0.  1.
        994   -1    0    0    0    0 -0.00000000000E+00 -0.00000000000E+00  0.11368683772E-12  0.17120000000E+03  0.17120000000E+03 0.  0.
         13    1    1    2    0    0  0.55394457707E+02  0.69977219611E+02  0.26803675147E+03  0.28250498847E+03  0.10566000000E+00 0.  1.
        994    1    1    2    0    0 -0.40477501632E+02 -0.11180066220E+02  0.22539991236E+02  0.17771019449E+03  0.17120000000E+03 0.  0.
        998    1    1    2    0    0 -0.14916956076E+02 -0.58797153391E+02  0.12094232536E+04  0.12109848170E+04  0.10000000000E+02 0.  1.
</event>
<event>
 5    1  0.1556794E-008  0.3833084E+03  0.7957747E-01  0.3436878E+00
         13   -1    0    0    0    0  0.00000000000E+00  0.00000000000E+00  0.14999999963E+04  0.15000000000E+04  0.10566000000E+00 0.  1.
        994   -1    0    0    0    0 -0.00000000000E+00 -0.00000000000E+00  0.11368683772E-12  0.17120000000E+03  0.17120000000E+03 0.  0.
         13    1    1    2    0    0 -0.32002104478E+02 -0.86903563713E+01  0.19472241399E+03  0.19752591389E+03  0.10566000000E+00 0.  1.
        994    1    1    2    0    0  0.35319452986E+02 -0.42398163623E+00  0.66089492465E+01  0.17493073409E+03  0.17120000000E+03 0.  0.
        998    1    1    2    0    0 -0.33173485081E+01  0.91143380075E+01  0.12986686330E+04  0.12987433520E+04  0.10000000000E+02 0.  1.
</event>
<event>
 5    1  0.1818978E-008  0.3862122E+03  0.7957747E-01  0.3424548E+00
         13   -1    0    0    0    0  0.00000000000E+00  0.00000000000E+00  0.14999999963E+04  0.15000000000E+04  0.10566000000E+00 0. -1.
        994   -1    0    0    0    0 -0.00000000000E+00 -0.00000000000E+00  0.11368683772E-12  0.17120000000E+03  0.17120000000E+03 0.  0.
         13    1    1    2    0    0  0.69353803228E+01  0.75202998241E+01  0.56548555111E+02  0.57466552523E+02  0.10566000000E+00 0. -1.
        994    1    1    2    0    0  0.52921656767E+01  0.22380720076E+01  0.11376736163E+01  0.17130017596E+03  0.17120000000E+03 0.  0.
        998    1    1    2    0    0 -0.12227546000E+02 -0.97583718317E+01  0.14423137676E+04  0.14424332715E+04  0.10000000000E+02 0. -1.
</event>
<event>
 5    1  0.1556794E-008  0.3856676E+03  0.7957747E-01  0.3426846E+00
         13   -1    0    0    0    0  0.00000000000E+00  0.00000000000E+00  0.14999999963E+04  0.15000000000E+04  0.10566000000E+00 0.  1.
        994   -1    0    0    0    0 -0.00000000000E+00 -0.00000000000E+00  0.11368683772E-12  0.17120000000E+03  0.17120000000E+03 0.  0.
         13    1    1    2    0    0  0.21015091268E+01 -0.10296290826E+02  0.43863884578E+02  0.45105226745E+02  0.10566000000E+00 0.  1.
        994    1    1    2    0    0 -0.44459020817E+01  0.18810769645E+01  0.13755076210E+01  0.17127357215E+03  0.17120000000E+03 0.  0.
        998    1    1    2    0    0  0.23443929549E+01  0.84152138617E+01  0.14547606041E+04  0.14548212011E+04  0.10000000000E+02 0.  1.
</event>
<event>
 5    1  0.1556794E-008  0.3746781E+03  0.7957747E-01  0.3474664E+00
         13   -1    0    0    0    0  0.00000000000E+00  0.00000000000E+00  0.14999999963E+04  0.15000000000E+04  0.10566000000E+00 0. -1.
        994   -1    0    0    0    0 -0.00000000000E+00 -0.00000000000E+00  0.11368683772E-12  0.17120000000E+03  0.17120000000E+03 0.  0.
         13    1    1    2    0    0  0.77888204287E+02 -0.68557426342E+02  0.36981330255E+03  0.38409449746E+03  0.10566000000E+00 0. -1.
        994    1    1    2    0    0 -0.43923541763E+02  0.58801204464E+02  0.32837294502E+02  0.18914171163E+03  0.17120000000E+03 0.  0.
        998    1    1    2    0    0 -0.33964662524E+02  0.97562218776E+01  0.10973493992E+04  0.10979637909E+04  0.10000000000E+02 0. -1.
</event>
<event>
 5    1  0.1556794E-008  0.3852567E+03  0.7957747E-01  0.3428584E+00
         13   -1    0    0    0    0  0.00000000000E+00  0.00000000000E+00  0.14999999963E+04  0.15000000000E+04  0.10566000000E+00 0. -1.
        994   -1    0    0    0    0 -0.00000000000E+00 -0.00000000000E+00  0.11368683772E-12  0.17120000000E+03  0.17120000000E+03 0.  0.
         13    1    1    2    0    0 -0.11032505259E+02 -0.48004034068E+01  0.46181537210E+02  0.47723218545E+02  0.10566000000E+00 0. -1.
        994    1    1    2    0    0  0.16170228368E+02  0.27220000942E+01  0.23867715985E+01  0.17200006468E+03  0.17120000000E+03 0.  0.
        998    1    1    2    0    0 -0.51377231096E+01  0.20784033126E+01  0.14514316875E+04  0.14514767168E+04  0.10000000000E+02 0. -1.
</event>
<event>
 5    1  0.1556794E-008  0.4077642E+03  0.7957747E-01  0.3338515E+00
         13   -1    0    0    0    0  0.00000000000E+00  0.00000000000E+00  0.14999999963E+04  0.15000000000E+04  0.10566000000E+00 0. -1.
        994   -1    0    0    0    0 -0.00000000000E+00 -0.00000000000E+00  0.11368683772E-12  0.17120000000E+03  0.17120000000E+03 0.  0.
         13    1    1    2    0    0 -0.12239135198E+03 -0.23502545479E+02  0.25870165303E+03  0.28715600138E+03  0.10566000000E+00 0. -1.
        994    1    1    2    0    0  0.57548752792E+02 -0.17722295478E+02  0.47313066866E+02  0.18754707409E+03  0.17120000000E+03 0.  0.
        998    1    1    2    0    0  0.64842599191E+02  0.41224840957E+02  0.11939852764E+04  0.11964969245E+04  0.10000000000E+02 0. -1.
</event>
<event>
 5    1  0.1556794E-008  0.3848034E+03  0.7957747E-01  0.3430506E+00
         13   -1    0    0    0    0  0.00000000000E+00  0.00000000000E+00  0.14999999963E+04  0.15000000000E+04  0.10566000000E+00 0. -1.
        994   -1    0    0    0    0 -0.00000000000E+00 -0.00000000000E+00  0.11368683772E-12  0.17120000000E+03  0.17120000000E+03 0.  0.
         13    1    1    2    0    0  0.30449164369E+01  0.14924476264E+02  0.63930481917E+02  0.65720082091E+02  0.10566000000E+00 0. -1.
        994    1    1    2    0    0 -0.10558220096E+02 -0.16153346094E+02  0.29542360025E+01  0.17230952995E+03  0.17120000000E+03 0.  0.
        998    1    1    2    0    0  0.75133036587E+01  0.12288698296E+01  0.14331152784E+04  0.14331703880E+04  0.10000000000E+02 0. -1.
</event>
<event>
 5    1  0.1556794E-008  0.3818836E+03  0.7957747E-01  0.3442998E+00
         13   -1    0    0    0    0  0.00000000000E+00  0.00000000000E+00  0.14999999963E+04  0.15000000000E+04  0.10566000000E+00 0. -1.
        994   -1    0    0    0    0 -0.00000000000E+00 -0.00000000000E+00  0.11368683772E-12  0.17120000000E+03  0.17120000000E+03 0.  0.
         13    1    1    2    0    0  0.18480538064E+02  0.51502229255E+01  0.64136617882E+02  0.66944544219E+02  0.10566000000E+00 0. -1.
        994    1    1    2    0    0  0.12350197984E+02  0.64923945690E+01  0.38323664467E+01  0.17181037690E+03  0.17120000000E+03 0.  0.
        998    1    1    2    0    0 -0.30830736049E+02 -0.11642617494E+02  0.14320310119E+04  0.14324450789E+04  0.10000000000E+02 0. -1.
</event>
<event>
 5    1  0.1556794E-008  0.3839124E+03  0.7957747E-01  0.3434298E+00
         13   -1    0    0    0    0  0.00000000000E+00  0.00000000000E+00  0.14999999963E+04  0.15000000000E+04  0.10566000000E+00 0. -1.
        994   -1    0    0    0    0 -0.00000000000E+00 -0.00000000000E+00  0.11368683772E-12  0.17120000000E+03  0.17120000000E+03 0.  0.
         13    1    1    2    0    0  0.18142332725E+02  0.28592538084E+01  0.80961778322E+02  0.83018915207E+02  0.10566000000E+00 0. -1.
        994    1    1    2    0    0 -0.42587303073E+01  0.64871104285E-01  0.22309663429E+01  0.17126750481E+03  0.17120000000E+03 0.  0.
        998    1    1    2    0    0 -0.13883602418E+02 -0.29241249127E+01  0.14168072516E+04  0.14169135800E+04  0.10000000000E+02 0. -1.
</event>
<event>
 5    1  0.1556794E-008  0.3854724E+03  0.7957747E-01  0.3427671E+00
         13   -1    0    0    0    0  0.00000000000E+00  0.00000000000E+00  0.14999999963E+04  0.15000000000E+04  0.10566000000E+00 0.  1.
        994   -1    0    0    0    0 -0.00000000000E+00 -0.00000000000E+00  0.11368683772E-12  0.17120000000E+03  0.17120000000E+03 0.  0.
         13    1    1    2    0    0  0.54230342758E+00 -0.14200714065E+02  0.71878644272E+02  0.73270082840E+02  0.10566000000E+00 0.  1.
        994    1    1    2    0    0 -0.89854904189E+01  0.10697041242E+02  0.20369171086E+01  0.17178112458E+03  0.17120000000E+03 0.  0.
        998    1    1    2    0    0  0.84431869913E+01  0.35036728230E+01  0.14260844349E+04  0.14261487926E+04  0.10000000000E+02 0.  1.
</event>
<event>
 5    1  0.1556794E-008  0.3731837E+03  0.7957747E-01  0.3481386E+00
         13   -1    0    0    0    0  0.00000000000E+00  0.00000000000E+00  0.14999999963E+04  0.15000000000E+04  0.10566000000E+00 0.  1.
        994   -1    0    0    0    0 -0.00000000000E+00 -0.00000000000E+00  0.11368683772E-12  0.17120000000E+03  0.17120000000E+03 0.  0.
         13    1    1    2    0    0  0.19510012126E+02  0.38048987969E+02  0.64362999155E+02  0.77272070523E+02  0.10566000000E+00 0.  1.
        994    1    1    2    0    0 -0.24793101787E+02 -0.39367472201E+02  0.20324209491E+02  0.17856934019E+03  0.17120000000E+03 0.  0.
        998    1    1    2    0    0  0.52830896603E+01  0.13184842320E+01  0.14153127876E+04  0.14153585893E+04  0.10000000000E+02 0.  1.
</event>
<event>
 5    1  0.1556794E-008  0.3853222E+03  0.7957747E-01  0.3428307E+00
         13   -1    0    0    0    0  0.00000000000E+00  0.00000000000E+00  0.14999999963E+04  0.15000000000E+04  0.10566000000E+00 0. -1.
        994   -1    0    0    0    0 -0.00000000000E+00 -0.00000000000E+00  0.11368683772E-12  0.17120000000E+03  0.17120000000E+03 0.  0.
         13    1    1    2    0    0 -0.19929159804E+02 -0.13024854940E+02  0.59785014655E+01  0.24547339989E+02  0.10566000000E+00 0. -1.
        994    1    1    2    0    0  0.26533196519E+02  0.21446496824E+02  0.23595561002E+02  0.17615377726E+03  0.17120000000E+03 0.  0.
        998    1    1    2    0    0 -0.66040367145E+01 -0.84216418834E+01  0.14704259338E+04  0.14704988828E+04  0.10000000000E+02 0. -1.
</event>
<event>
 5    1  0.1556794E-008  0.3845113E+03  0.7957747E-01  0.3431748E+00
         13   -1    0    0    0    0  0.00000000000E+00  0.00000000000E+00  0.14999999963E+04  0.15000000000E+04  0.10566000000E+00 0.  1.
        994   -1    0    0    0    0 -0.00000000000E+00 -0.00000000000E+00  0.11368683772E-12  0.17120000000E+03  0.17120000000E+03 0.  0.
         13    1    1    2    0    0 -0.84934119844E+01 -0.15235987733E+02  0.83790340704E+02  0.85586831514E+02  0.10566000000E+00 0.  1.
        994    1    1    2    0    0  0.57476462204E+01  0.39876853375E+01  0.20341793792E+01  0.17135493853E+03  0.17120000000E+03 0.  0.
        998    1    1    2    0    0  0.27457657640E+01  0.11248302396E+02  0.14141754762E+04  0.14142582300E+04  0.10000000000E+02 0.  1.
</event>
<event>
 5    1  0.1556794E-008  0.3825062E+03  0.7957747E-01  0.3440318E+00
         13   -1    0    0    0    0  0.00000000000E+00  0.00000000000E+00  0.14999999963E+04  0.15000000000E+04  0.10566000000E+00 0.  1.
        994   -1    0    0    0    0 -0.00000000000E+00 -0.00000000000E+00  0.11368683772E-12  0.17120000000E+03  0.17120000000E+03 0.  0.
         13    1    1    2    0    0 -0.99240287519E+01  0.50826882906E+01  0.20426922874E+02  0.23272095072E+02  0.10566000000E+00 0.  1.
        994    1    1    2    0    0  0.74297926196E+01 -0.63529269147E+01  0.31902272169E+01  0.17150853929E+03  0.17120000000E+03 0.  0.
        998    1    1    2    0    0  0.24942361323E+01  0.12702386242E+01  0.14763828462E+04  0.14764193656E+04  0.10000000000E+02 0.  1.
</event>
<event>
 5    1  0.1556794E-008  0.3704671E+03  0.7957747E-01  0.3493747E+00
         13   -1    0    0    0    0  0.00000000000E+00  0.00000000000E+00  0.14999999963E+04  0.15000000000E+04  0.10566000000E+00 0. -1.
        994   -1    0    0    0    0 -0.00000000000E+00 -0.00000000000E+00  0.11368683772E-12  0.17120000000E+03  0.17120000000E+03 0.  0.
         13    1    1    2    0    0  0.37672485726E+02  0.22479336591E+02  0.10565107271E+03  0.11439710260E+03  0.10566000000E+00 0. -1.
        994    1    1    2    0    0 -0.14969160459E+02 -0.17636952687E+02  0.10874672711E+02  0.17309776536E+03  0.17120000000E+03 0.  0.
        998    1    1    2    0    0 -0.22703325266E+02 -0.48423839036E+01  0.13834742509E+04  0.13837051320E+04  0.10000000000E+02 0. -1.
</event>
<event>
 5    1  0.1556794E-008  0.3819720E+03  0.7957747E-01  0.3442617E+00
         13   -1    0    0    0    0  0.00000000000E+00  0.00000000000E+00  0.14999999963E+04  0.15000000000E+04  0.10566000000E+00 0.  1.
        994   -1    0    0    0    0 -0.00000000000E+00 -0.00000000000E+00  0.11368683772E-12  0.17120000000E+03  0.17120000000E+03 0.  0.
         13    1    1    2    0    0 -0.15149301135E+03 -0.19573178498E+03  0.90364402906E+03  0.93692774885E+03  0.10566000000E+00 0.  1.
        994    1    1    2    0    0  0.18242147201E+03  0.20545086472E+03  0.31775665360E+03  0.45361479492E+03  0.17120000000E+03 0.  0.
        998    1    1    2    0    0 -0.30928460662E+02 -0.97190797311E+01  0.27859931362E+03  0.28065745624E+03  0.10000000000E+02 0. -1.
</event>
<event>
 5    1  0.1556794E-008  0.3849625E+03  0.7957747E-01  0.3429831E+00
         13   -1    0    0    0    0  0.00000000000E+00  0.00000000000E+00  0.14999999963E+04  0.15000000000E+04  0.10566000000E+00 0.  1.
        994   -1    0    0    0    0 -0.00000000000E+00 -0.00000000000E+00  0.11368683772E-12  0.17120000000E+03  0.17120000000E+03 0.  0.
         13    1    1    2    0    0  0.99470427596E+01  0.81898495242E+01  0.48626273247E+02  0.50304501874E+02  0.10566000000E+00 0.  1.
        994    1    1    2    0    0 -0.14882928853E+02 -0.51301854417E+01  0.24642819690E+01  0.17193991119E+03  0.17120000000E+03 0.  0.
        998    1    1    2    0    0  0.49358860939E+01 -0.30596640825E+01  0.14489094411E+04  0.14489555869E+04  0.10000000000E+02 0.  1.
</event>
<event>
 5    1  0.1556794E-008  0.3712757E+03  0.7957747E-01  0.3490048E+00
         13   -1    0    0    0    0  0.00000000000E+00  0.00000000000E+00  0.14999999963E+04  0.15000000000E+04  0.10566000000E+00 0. -1.
        994   -1    0    0    0    0 -0.00000000000E+00 -0.00000000000E+00  0.11368683772E-12  0.17120000000E+03  0.17120000000E+03 0.  0.
         13    1    1    2    0    0  0.42215674667E+01  0.56809387462E+02  0.14625400131E+03  0.15695659336E+03  0.10566000000E+00 0. -1.
        994    1    1    2    0    0 -0.12205452095E+02 -0.16413131873E+02  0.13085460145E+02  0.17291336914E+03  0.17120000000E+03 0.  0.
        998    1    1    2    0    0  0.79838846285E+01 -0.40396255589E+02  0.13406605348E+04  0.13413300375E+04  0.10000000000E+02 0. -1.
</event>
<event>
 5    1  0.1556794E-008  0.3788773E+03  0.7957747E-01  0.3456062E+00
         13   -1    0    0    0    0  0.00000000000E+00  0.00000000000E+00  0.14999999963E+04  0.15000000000E+04  0.10566000000E+00 0.  1.
        994   -1    0    0    0    0 -0.00000000000E+00 -0.00000000000E+00  0.11368683772E-12  0.17120000000E+03  0.17120000000E+03 0.  0.
         13    1    1    2    0    0 -0.34849464643E+02  0.13842766140E+02  0.15492573073E+03  0.15939918621E+03  0.10566000000E+00 0.  1.
        994    1    1    2    0    0  0.10262676497E+02 -0.13619274180E+02  0.56773095143E+01  0.17214086964E+03  0.17120000000E+03 0.  0.
        998    1    1    2    0    0  0.24586788146E+02 -0.22349196023E+00  0.13393969560E+04  0.13396599441E+04  0.10000000000E+02 0.  1.
</event>
<event>
 5    1  0.1556794E-008  0.3738550E+03  0.7957747E-01  0.3478360E+00
         13   -1    0    0    0    0  0.00000000000E+00  0.00000000000E+00  0.14999999963E+04  0.15000000000E+04  0.10566000000E+00 0.  1.
        994   -1    0    0    0    0 -0.00000000000E+00 -0.00000000000E+00  0.11368683772E-12  0.17120000000E+03  0.17120000000E+03 0.  0.
         13    1    1    2    0    0  0.44016612991E+02  0.40065216849E+02  0.30231988848E+03  0.30812336807E+03  0.10566000000E+00 0.  1.
        994    1    1    2    0    0  0.56007900463E+01 -0.13107975354E+02  0.79615402963E+01  0.17197678329E+03  0.17120000000E+03 0.  0.
        998    1    1    2    0    0 -0.49617403038E+02 -0.26957241495E+02  0.11897185675E+04  0.11910998486E+04  0.10000000000E+02 0.  1.
</event>
<event>
 5    1  0.1556794E-008  0.3851157E+03  0.7957747E-01  0.3429182E+00
         13   -1    0    0    0    0  0.00000000000E+00  0.00000000000E+00  0.14999999963E+04  0.15000000000E+04  0.10566000000E+00 0.  1.
        994   -1    0    0    0    0 -0.00000000000E+00 -0.00000000000E+00  0.11368683772E-12  0.17120000000E+03  0.17120000000E+03 0.  0.
         13    1    1    2    0    0 -0.10525033663E+02  0.39842399716E+00  0.35796395467E+02  0.37313913862E+02  0.10566000000E+00 0.  1.
        994    1    1    2    0    0  0.34123741479E+01  0.13589879290E+01  0.16170826428E+01  0.17124703239E+03  0.17120000000E+03 0.  0.
        998    1    1    2    0    0  0.71126595156E+01 -0.17574119262E+01  0.14625865182E+04  0.14626390537E+04  0.10000000000E+02 0.  1.
</event>
<event>
 5    1  0.1556794E-008  0.3858946E+03  0.7957747E-01  0.3425887E+00
         13   -1    0    0    0    0  0.00000000000E+00  0.00000000000E+00  0.14999999963E+04  0.15000000000E+04  0.10566000000E+00 0.  1.
        994   -1    0    0    0    0 -0.00000000000E+00 -0.00000000000E+00  0.11368683772E-12  0.17120000000E+03  0.17120000000E+03 0.  0.
         13    1    1    2    0    0  0.10802890386E+02 -0.63029899069E+01  0.66751059781E+02  0.67912776915E+02  0.10566000000E+00 0.  1.
        994    1    1    2    0    0 -0.88641412048E+01  0.66141840232E+00  0.14457564999E+01  0.17143669585E+03  0.17120000000E+03 0.  0.
        998    1    1    2    0    0 -0.19387491815E+01  0.56415715046E+01  0.14318031800E+04  0.14318505272E+04  0.10000000000E+02 0.  1.
</event>
<event>
 5    1  0.1556794E-008  0.3807722E+03  0.7957747E-01  0.3447803E+00
         13   -1    0    0    0    0  0.00000000000E+00  0.00000000000E+00  0.14999999963E+04  0.15000000000E+04  0.10566000000E+00 0. -1.
        994   -1    0    0    0    0 -0.00000000000E+00 -0.00000000000E+00  0.11368683772E-12  0.17120000000E+03  0.17120000000E+03 0.  0.
         13    1    1    2    0    0  0.95318618802E+01 -0.43047841647E+01  0.13760295916E+02  0.17284225911E+02  0.10566000000E+00 0. -1.
        994    1    1    2    0    0  0.20325894324E+02  0.70565746146E+01  0.52889707998E+01  0.17262778003E+03  0.17120000000E+03 0.  0.
        998    1    1    2    0    0 -0.29857756204E+02 -0.27517904499E+01  0.14809507296E+04  0.14812879941E+04  0.10000000000E+02 0. -1.
</event>
<event>
 5    1  0.1556794E-008  0.3835880E+03  0.7957747E-01  0.3435683E+00
         13   -1    0    0    0    0  0.00000000000E+00  0.00000000000E+00  0.14999999963E+04  0.15000000000E+04  0.10566000000E+00 0.  1.
        994   -1    0    0    0    0 -0.00000000000E+00 -0.00000000000E+00  0.11368683772E-12  0.17120000000E+03  0.17120000000E+03 0.  0.
         13    1    1    2    0    0 -0.62867362849E+01 -0.90637691864E+01  0.25876729310E+02  0.28129899552E+02  0.10566000000E+00 0.  1.
        994    1    1    2    0    0  0.44720308364E+01 -0.12195030644E+01  0.24037924018E+01  0.17127960902E+03  0.17120000000E+03 0.  0.
        998    1    1    2    0    0  0.18147054485E+01  0.10283272251E+02  0.14717194746E+04  0.14717904914E+04  0.10000000000E+02 0.  1.
</event>
<event>
 5    1  0.1556794E-008  0.3826574E+03  0.7957747E-01  0.3439669E+00
         13   -1    0    0    0    0  0.00000000000E+00  0.00000000000E+00  0.14999999963E+04  0.15000000000E+04  0.10566000000E+00 0.  1.
        994   -1    0    0    0    0 -0.00000000000E+00 -0.00000000000E+00  0.11368683772E-12  0.17120000000E+03  0.17120000000E+03 0.  0.
         13    1    1    2    0    0  0.67367306595E+01  0.10086608515E+02  0.24663470395E+02  0.27484925820E+02  0.10566000000E+00 0.  1.
        994    1    1    2    0    0 -0.91668874037E+01 -0.12931955090E+02  0.36307900569E+01  0.17197060773E+03  0.17120000000E+03 0.  0.
        998    1    1    2    0    0  0.24301567442E+01  0.28453465750E+01  0.14717057358E+04  0.14717444664E+04  0.10000000000E+02 0.  1.
</event>
<event>
 5    1  0.1556794E-008  0.3835992E+03  0.7957747E-01  0.3435635E+00
         13   -1    0    0    0    0  0.00000000000E+00  0.00000000000E+00  0.14999999963E+04  0.15000000000E+04  0.10566000000E+00 0.  1.
        994   -1    0    0    0    0 -0.00000000000E+00 -0.00000000000E+00  0.11368683772E-12  0.17120000000E+03  0.17120000000E+03 0.  0.
         13    1    1    2    0    0 -0.18676617125E+02  0.22878550874E+01  0.77005882343E+02  0.79271479030E+02  0.10566000000E+00 0.  1.
        994    1    1    2    0    0  0.79092618120E+01 -0.71770848032E+01  0.27041537960E+01  0.17155412970E+03  0.17120000000E+03 0.  0.
        998    1    1    2    0    0  0.10767355313E+02  0.48892297158E+01  0.14202899601E+04  0.14203743913E+04  0.10000000000E+02 0.  1.
</event>
<event>
 5    1  0.1556794E-008  0.3752145E+03  0.7957747E-01  0.3472264E+00
         13   -1    0    0    0    0  0.00000000000E+00  0.00000000000E+00  0.14999999963E+04  0.15000000000E+04  0.10566000000E+00 0.  1.
        994   -1    0    0    0    0 -0.00000000000E+00 -0.00000000000E+00  0.11368683772E-12  0.17120000000E+03  0.17120000000E+03 0.  0.
         13    1    1    2    0    0  0.24014196465E+01  0.20883728914E+02  0.99689256974E+01  0.23265588178E+02  0.10566000000E+00 0.  1.
        994    1    1    2    0    0 -0.32191196059E+01 -0.20474395515E+02  0.15254194538E+02  0.17312334924E+03  0.17120000000E+03 0.  0.
        998    1    1    2    0    0  0.81769995942E+00 -0.40933339868E+00  0.14747768760E+04  0.14748110626E+04  0.10000000000E+02 0.  1.
</event>
<event>
 5    1  0.1556794E-008  0.3770985E+03  0.7957747E-01  0.3463891E+00
         13   -1    0    0    0    0  0.00000000000E+00  0.00000000000E+00  0.14999999963E+04  0.15000000000E+04  0.10566000000E+00 0.  1.
        994   -1    0    0    0    0 -0.00000000000E+00 -0.00000000000E+00  0.11368683772E-12  0.17120000000E+03  0.17120000000E+03 0.  0.
         13    1    1    2    0    0 -0.28946926362E+02  0.27668274457E+02  0.15957203212E+03  0.16451961147E+03  0.10566000000E+00 0.  1.
        994    1    1    2    0    0  0.11009722373E+02  0.77707926135E+01  0.62182359878E+01  0.17184209514E+03  0.17120000000E+03 0.  0.
        998    1    1    2    0    0  0.17937203989E+02 -0.35439067071E+02  0.13342097282E+04  0.13348382934E+04  0.10000000000E+02 0.  1.
</event>
<event>
 5    1  0.1613548E-008  0.3855333E+03  0.7957747E-01  0.3427414E+00
         13   -1    0    0    0    0  0.00000000000E+00  0.00000000000E+00  0.14999999963E+04  0.15000000000E+04  0.10566000000E+00 0.  1.
        994   -1    0    0    0    0 -0.00000000000E+00 -0.00000000000E+00  0.11368683772E-12  0.17120000000E+03  0.17120000000E+03 0.  0.
         13    1    1    2    0    0 -0.74961093368E+01 -0.81804758686E+01  0.44373953276E+02  0.45740252885E+02  0.10566000000E+00 0.  1.
        994    1    1    2    0    0  0.58675613332E+01  0.95184595234E+01  0.17761758462E+01  0.17157396116E+03  0.17120000000E+03 0.  0.
        998    1    1    2    0    0  0.16285480036E+01 -0.13379836547E+01  0.14538498672E+04  0.14538857860E+04  0.10000000000E+02 0.  1.
</event>
<event>
 5    1  0.1556794E-008  0.3813728E+03  0.7957747E-01  0.3445203E+00
         13   -1    0    0    0    0  0.00000000000E+00  0.00000000000E+00  0.14999999963E+04  0.15000000000E+04  0.10566000000E+00 0.  1.
        994   -1    0    0    0    0 -0.00000000000E+00 -0.00000000000E+00  0.11368683772E-12  0.17120000000E+03  0.17120000000E+03 0.  0.
         13    1    1    2    0    0  0.24765110183E+01  0.12244573050E+02  0.21001754949E+02  0.24436602689E+02  0.10566000000E+00 0.  1.
        994    1    1    2    0    0  0.15997709427E+02 -0.16887884959E+02  0.52446197137E+01  0.17285275063E+03  0.17120000000E+03 0.  0.
        998    1    1    2    0    0 -0.18474220446E+02  0.46433119091E+01  0.14737536216E+04  0.14739106467E+04  0.10000000000E+02 0.  1.
</event>
<event>
 5    1  0.1556794E-008  0.3783623E+03  0.7957747E-01  0.3458321E+00
         13   -1    0    0    0    0  0.00000000000E+00  0.00000000000E+00  0.14999999963E+04  0.15000000000E+04  0.10566000000E+00 0. -1.
        994   -1    0    0    0    0 -0.00000000000E+00 -0.00000000000E+00  0.11368683772E-12  0.17120000000E+03  0.17120000000E+03 0.  0.
         13    1    1    2    0    0 -0.54319940478E+02 -0.39063434101E+02  0.36475124693E+03  0.37083701423E+03  0.10566000000E+00 0. -1.
        994    1    1    2    0    0  0.61405368074E+02  0.19236111177E+02  0.19007833600E+02  0.18387872346E+03  0.17120000000E+03 0.  0.
        998    1    1    2    0    0 -0.70854275951E+01  0.19827322924E+02  0.11162409157E+04  0.11164842623E+04  0.10000000000E+02 0. -1.
</event>
<event>
 5    1  0.1556794E-008  0.3777937E+03  0.7957747E-01  0.3460822E+00
         13   -1    0    0    0    0  0.00000000000E+00  0.00000000000E+00  0.14999999963E+04  0.15000000000E+04  0.10566000000E+00 0.  1.
        994   -1    0    0    0    0 -0.00000000000E+00 -0.00000000000E+00  0.11368683772E-12  0.17120000000E+03  0.17120000000E+03 0.  0.
         13    1    1    2    0    0  0.76148422513E+01 -0.67735525732E+02  0.33647564154E+03  0.34331029082E+03  0.10566000000E+00 0.  1.
        994    1    1    2    0    0 -0.23312565965E+01  0.70242744116E+02  0.22069320814E+02  0.18637589109E+03  0.17120000000E+03 0.  0.
        998    1    1    2    0    0 -0.52835856548E+01 -0.25072183839E+01  0.11414550339E+04  0.11415138181E+04  0.10000000000E+02 0.  1.
</event>
<event>
 5    1  0.1556794E-008  0.3847851E+03  0.7957747E-01  0.3430584E+00
         13   -1    0    0    0    0  0.00000000000E+00  0.00000000000E+00  0.14999999963E+04  0.15000000000E+04  0.10566000000E+00 0.  1.
        994   -1    0    0    0    0 -0.00000000000E+00 -0.00000000000E+00  0.11368683772E-12  0.17120000000E+03  0.17120000000E+03 0.  0.
         13    1    1    2    0    0  0.27347891232E+02  0.30975808849E+02  0.41187326512E+02  0.58342222429E+02  0.10566000000E+00 0.  1.
        994    1    1    2    0    0 -0.45841372140E+01  0.11214263438E+02  0.19522676464E+02  0.17273490937E+03  0.17120000000E+03 0.  0.
        998    1    1    2    0    0 -0.22763754018E+02 -0.42190072287E+02  0.14392899933E+04  0.14401228682E+04  0.10000000000E+02 0.  1.
</event>
<event>
 5    1  0.1556794E-008  0.3847419E+03  0.7957747E-01  0.3430767E+00
         13   -1    0    0    0    0  0.00000000000E+00  0.00000000000E+00  0.14999999963E+04  0.15000000000E+04  0.10566000000E+00 0. -1.
        994   -1    0    0    0    0 -0.00000000000E+00 -0.00000000000E+00  0.11368683772E-12  0.17120000000E+03  0.17120000000E+03 0.  0.
         13    1    1    2    0    0 -0.11124903621E+02 -0.28687954205E+01  0.36326497364E+02  0.38100118668E+02  0.10566000000E+00 0. -1.
        994    1    1    2    0    0  0.11422478167E+02  0.90560036961E+01  0.24579975683E+01  0.17183703315E+03  0.17120000000E+03 0.  0.
        998    1    1    2    0    0 -0.29757454647E+00 -0.61872082756E+01  0.14612155013E+04  0.14612628482E+04  0.10000000000E+02 0. -1.
</event>
<event>
 5    1  0.1556794E-008  0.3941131E+03  0.7957747E-01  0.3391919E+00
         13   -1    0    0    0    0  0.00000000000E+00  0.00000000000E+00  0.14999999963E+04  0.15000000000E+04  0.10566000000E+00 0. -1.
        994   -1    0    0    0    0 -0.00000000000E+00 -0.00000000000E+00  0.11368683772E-12  0.17120000000E+03  0.17120000000E+03 0.  0.
         13    1    1    2    0    0 -0.17974069066E+01 -0.26060692390E+02  0.31327664105E+01  0.26309993327E+02  0.10566000000E+00 0. -1.
        994    1    1    2    0    0 -0.21640343639E+02  0.42715215224E+02  0.33123833510E+02  0.18083009271E+03  0.17120000000E+03 0.  0.
        998    1    1    2    0    0  0.23437750546E+02 -0.16654522834E+02  0.14637433964E+04  0.14640599140E+04  0.10000000000E+02 0. -1.
</event>
<event>
 5    1  0.1556794E-008  0.3803795E+03  0.7957747E-01  0.3449508E+00
         13   -1    0    0    0    0  0.00000000000E+00  0.00000000000E+00  0.14999999963E+04  0.15000000000E+04  0.10566000000E+00 0. -1.
        994   -1    0    0    0    0 -0.00000000000E+00 -0.00000000000E+00  0.11368683772E-12  0.17120000000E+03  0.17120000000E+03 0.  0.
         13    1    1    2    0    0  0.78165652699E+01  0.66076023572E+01  0.11679886156E+02  0.15530293178E+02  0.10566000000E+00 0. -1.
        994    1    1    2    0    0 -0.31242116619E+01 -0.14616849401E+01  0.39814481876E+01  0.17128102391E+03  0.17120000000E+03 0.  0.
        998    1    1    2    0    0 -0.46923536080E+01 -0.51459174172E+01  0.14843386619E+04  0.14843886829E+04  0.10000000000E+02 0. -1.
</event>
<event>
 5    1  0.1556794E-008  0.3827247E+03  0.7957747E-01  0.3439380E+00
         13   -1    0    0    0    0  0.00000000000E+00  0.00000000000E+00  0.14999999963E+04  0.15000000000E+04  0.10566000000E+00 0. -1.
        994   -1    0    0    0    0 -0.00000000000E+00 -0.00000000000E+00  0.11368683772E-12  0.17120000000E+03  0.17120000000E+03 0.  0.
         13    1    1    2    0    0  0.22725947906E+02  0.20096773188E+02  0.17094776935E+03  0.17361883541E+03  0.10566000000E+00 0. -1.
        994    1    1    2    0    0 -0.97049217228E+01 -0.10246414520E+02  0.34241608544E+01  0.17181484044E+03  0.17120000000E+03 0.  0.
        998    1    1    2    0    0 -0.13021026183E+02 -0.98503586675E+01  0.13256280661E+04  0.13257663242E+04  0.10000000000E+02 0. -1.
</event>
<event>
 5    1  0.1556794E-008  0.3862090E+03  0.7957747E-01  0.3424561E+00
         13   -1    0    0    0    0  0.00000000000E+00  0.00000000000E+00  0.14999999963E+04  0.15000000000E+04  0.10566000000E+00 0. -1.
        994   -1    0    0    0    0 -0.00000000000E+00 -0.00000000000E+00  0.11368683772E-12  0.17120000000E+03  0.17120000000E+03 0.  0.
         13    1    1    2    0    0 -0.11294528395E+02 -0.41623340512E+00  0.62126205583E+02  0.63145991211E+02  0.10566000000E+00 0. -1.
        994    1    1    2    0    0  0.91643782817E+01  0.23113020657E+02  0.30588126479E+01  0.17302310218E+03  0.17120000000E+03 0.  0.
        998    1    1    2    0    0  0.21301501132E+01 -0.22696787252E+02  0.14348149780E+04  0.14350309066E+04  0.10000000000E+02 0. -1.
</event>
<event>
 5    1  0.1556794E-008  0.3826137E+03  0.7957747E-01  0.3439856E+00
         13   -1    0    0    0    0  0.00000000000E+00  0.00000000000E+00  0.14999999963E+04  0.15000000000E+04  0.10566000000E+00 0.  1.
        994   -1    0    0    0    0 -0.00000000000E+00 -0.00000000000E+00  0.11368683772E-12  0.17120000000E+03  0.17120000000E+03 0.  0.
         13    1    1    2    0    0 -0.20473070107E+01 -0.11277237245E+02  0.23742297639E+02  0.26364282791E+02  0.10566000000E+00 0.  1.
        994    1    1    2    0    0 -0.12961124248E+02 -0.10163701398E+02  0.37191991628E+01  0.17203070659E+03  0.17120000000E+03 0.  0.
        998    1    1    2    0    0  0.15008431259E+02  0.21440938643E+02  0.14725384995E+04  0.14728050106E+04  0.10000000000E+02 0.  1.
</event>
<event>
 5    1  0.1556794E-008  0.3833903E+03  0.7957747E-01  0.3436528E+00
         13   -1    0    0    0    0  0.00000000000E+00  0.00000000000E+00  0.14999999963E+04  0.15000000000E+04  0.10566000000E+00 0. -1.
        994   -1    0    0    0    0 -0.00000000000E+00 -0.00000000000E+00  0.11368683772E-12  0.17120000000E+03  0.17120000000E+03 0.  0.
         13    1    1    2    0    0 -0.13386297790E+02  0.62374604593E+00  0.37583863664E+02  0.39901629034E+02  0.10566000000E+00 0. -1.
        994    1    1    2    0    0  0.31198231146E+00  0.77208810880E+01  0.26288658453E+01  0.17139445812E+03  0.17120000000E+03 0.  0.
        998    1    1    2    0    0  0.13074315478E+02 -0.83446271339E+01  0.14597872668E+04  0.14599039128E+04  0.10000000000E+02 0. -1.
</event>
<event>
 5    1  0.1556794E-008  0.3842008E+03  0.7957747E-01  0.3433069E+00
         13   -1    0    0    0    0  0.00000000000E+00  0.00000000000E+00  0.14999999963E+04  0.15000000000E+04  0.10566000000E+00 0.  1.
        994   -1    0    0    0    0 -0.00000000000E+00 -0.00000000000E+00  0.11368683772E-12  0.17120000000E+03  0.17120000000E+03 0.  0.
         13    1    1    2    0    0 -0.24339847661E+02  0.74529956145E-01  0.13816904129E+03  0.14029657470E+03  0.10566000000E+00 0.  1.
        994    1    1    2    0    0  0.21553946411E+02  0.12497794544E+02  0.40769384008E+01  0.17305152094E+03  0.17120000000E+03 0.  0.
        998    1    1    2    0    0  0.27859012500E+01 -0.12572324500E+02  0.13577540166E+04  0.13578519044E+04  0.10000000000E+02 0.  1.
</event>
<event>
 5    1  0.1556794E-008  0.3824736E+03  0.7957747E-01  0.3440458E+00
         13   -1    0    0    0    0  0.00000000000E+00  0.00000000000E+00  0.14999999963E+04  0.15000000000E+04  0.10566000000E+00 0.  1.
        994   -1    0    0    0    0 -0.00000000000E+00 -0.00000000000E+00  0.11368683772E-12  0.17120000000E+03  0.17120000000E+03 0.  0.
         13    1    1    2    0    0  0.58879492571E+01  0.17151910137E+02  0.55562555569E+02  0.58447110392E+02  0.10566000000E+00 0.  1.
        994    1    1    2    0    0 -0.14642375958E+02 -0.92764002495E+01  0.38865189418E+01  0.17211913259E+03  0.17120000000E+03 0.  0.
        998    1    1    2    0    0  0.87544267005E+01 -0.78755098877E+01  0.14405509218E+04  0.14406337570E+04  0.10000000000E+02 0.  1.
</event>
<event>
 5    1  0.1556794E-008  0.3833558E+03  0.7957747E-01  0.3436676E+00
         13   -1    0    0    0    0  0.00000000000E+00  0.00000000000E+00  0.14999999963E+04  0.15000000000E+04  0.10566000000E+00 0.  1.
        994   -1    0    0    0    0 -0.00000000000E+00 -0.00000000000E+00  0.11368683772E-12  0.17120000000E+03  0.17120000000E+03 0.  0.
         13    1    1    2    0    0  0.13334982785E+02  0.21366757617E+02  0.13529799699E+03  0.13762237918E+03  0.10566000000E+00 0.  1.
        994    1    1    2    0    0 -0.15909757047E+02 -0.91016275384E+00  0.32887390694E+01  0.17197152256E+03  0.17120000000E+03 0.  0.
        998    1    1    2    0    0  0.25747742620E+01 -0.20456594863E+02  0.13614132602E+04  0.13616060983E+04  0.10000000000E+02 0.  1.
</event>
<event>
 5    1  0.1556794E-008  0.3791262E+03  0.7957747E-01  0.3454972E+00
         13   -1    0    0    0    0  0.00000000000E+00  0.00000000000E+00  0.14999999963E+04  0.15000000000E+04  0.10566000000E+00 0.  1.
        994   -1    0    0    0    0 -0.00000000000E+00 -0.00000000000E+00  0.11368683772E-12  0.17120000000E+03  0.17120000000E+03 0.  0.
         13    1    1    2    0    0 -0.20579980603E+02  0.19996364457E+02  0.92629848022E+02  0.96972625528E+02  0.10566000000E+00 0.  1.
        994    1    1    2    0    0  0.10547153740E+02 -0.34172277204E+00  0.49483105854E+01  0.17159628494E+03  0.17120000000E+03 0.  0.
        998    1    1    2    0    0  0.10032826862E+02 -0.19654641685E+02  0.14024218377E+04  0.14026310895E+04  0.10000000000E+02 0.  1.
</event>
<event>
 5    1  0.1556794E-008  0.3842425E+03  0.7957747E-01  0.3432891E+00
         13   -1    0    0    0    0  0.00000000000E+00  0.00000000000E+00  0.14999999963E+04  0.15000000000E+04  0.10566000000E+00 0. -1.
        994   -1    0    0    0    0 -0.00000000000E+00 -0.00000000000E+00  0.11368683772E-12  0.17120000000E+03  0.17120000000E+03 0.  0.
         13    1    1    2    0    0 -0.54933914833E+01 -0.19792436294E+02  0.98056333630E+02  0.10018469750E+03  0.10566000000E+00 0. -1.
        994    1    1    2    0    0  0.16220534225E+01  0.22883867738E+02  0.37437216057E+01  0.17277082483E+03  0.17120000000E+03 0.  0.
        998    1    1    2    0    0  0.38713380608E+01 -0.30914314443E+01  0.13981999410E+04  0.13982444777E+04  0.10000000000E+02 0. -1.
</event>
<event>
 5    1  0.1556794E-008  0.3725004E+03  0.7957747E-01  0.3484478E+00
         13   -1    0    0    0    0  0.00000000000E+00  0.00000000000E+00  0.14999999963E+04  0.15000000000E+04  0.10566000000E+00 0.  1.
        994   -1    0    0    0    0 -0.00000000000E+00 -0.00000000000E+00  0.11368683772E-12  0.17120000000E+03  0.17120000000E+03 0.  0.
         13    1    1    2    0    0 -0.16988212289E+02 -0.17207171791E+02  0.35253095050E+02  0.42749011596E+02  0.10566000000E+00 0.  1.
        994    1    1    2    0    0 -0.40567135883E+01 -0.38667310752E+00  0.80248867329E+01  0.17143641751E+03  0.17120000000E+03 0.  0.
        998    1    1    2    0    0  0.21044925877E+02  0.17593844898E+02  0.14567220145E+04  0.14570145709E+04  0.10000000000E+02 0.  1.
</event>
<event>
 5    1  0.1556794E-008  0.3811579E+03  0.7957747E-01  0.3446132E+00
         13   -1    0    0    0    0  0.00000000000E+00  0.00000000000E+00  0.14999999963E+04  0.15000000000E+04  0.10566000000E+00 0.  1.
        994   -1    0    0    0    0 -0.00000000000E+00 -0.00000000000E+00  0.11368683772E-12  0.17120000000E+03  0.17120000000E+03 0.  0.
         13    1    1    2    0    0  0.36200509260E+02  0.26483866431E+02  0.20125968834E+03  0.20619734568E+03  0.10566000000E+00 0.  1.
        994    1    1    2    0    0 -0.69908819086E+02 -0.25337765721E+02  0.22187652335E+02  0.18796536190E+03  0.17120000000E+03 0.  0.
        998    1    1    2    0    0  0.33708309825E+02 -0.11461007106E+01  0.12765526556E+04  0.12770372924E+04  0.10000000000E+02 0.  1.
</event>
<event>
 5    1  0.1556794E-008  0.3954290E+03  0.7957747E-01  0.3386611E+00
         13   -1    0    0    0    0  0.00000000000E+00  0.00000000000E+00  0.14999999963E+04  0.15000000000E+04  0.10566000000E+00 0. -1.
        994   -1    0    0    0    0 -0.00000000000E+00 -0.00000000000E+00  0.11368683772E-12  0.17120000000E+03  0.17120000000E+03 0.  0.
         13    1    1    2    0    0  0.68275885594E+01  0.31348216541E+02  0.12114900822E+02  0.34294440246E+02  0.10566000000E+00 0. -1.
        994    1    1    2    0    0 -0.48218224635E+01  0.36014670828E+02  0.30164916811E+02  0.17759411221E+03  0.17120000000E+03 0.  0.
        998    1    1    2    0    0 -0.20057660958E+01 -0.67362887369E+02  0.14577201786E+04  0.14593114475E+04  0.10000000000E+02 0. -1.
</event>
<event>
 5    1  0.1556794E-008  0.3717613E+03  0.7957747E-01  0.3487835E+00
         13   -1    0    0    0    0  0.00000000000E+00  0.00000000000E+00  0.14999999963E+04  0.15000000000E+04  0.10566000000E+00 0.  1.
        994   -1    0    0    0    0 -0.00000000000E+00 -0.00000000000E+00  0.11368683772E-12  0.17120000000E+03  0.17120000000E+03 0.  0.
         13    1    1    2    0    0 -0.14200995351E+02  0.59220188059E+01  0.10515323490E+02  0.18636570710E+02  0.10566000000E+00 0.  1.
        994    1    1    2    0    0  0.86419575316E+01 -0.80280541941E+00  0.86102533890E+01  0.17163596473E+03  0.17120000000E+03 0.  0.
        998    1    1    2    0    0  0.55590378189E+01 -0.51192133864E+01  0.14808744194E+04  0.14809274646E+04  0.10000000000E+02 0.  1.
</event>
<event>
 5    1  0.1556794E-008  0.3837317E+03  0.7957747E-01  0.3435069E+00
         13   -1    0    0    0    0  0.00000000000E+00  0.00000000000E+00  0.14999999963E+04  0.15000000000E+04  0.10566000000E+00 0. -1.
        994   -1    0    0    0    0 -0.00000000000E+00 -0.00000000000E+00  0.11368683772E-12  0.17120000000E+03  0.17120000000E+03 0.  0.
         13    1    1    2    0    0  0.68133453184E+01 -0.20235804479E+02  0.10925755977E+03  0.11132445818E+03  0.10566000000E+00 0. -1.
        994    1    1    2    0    0  0.32932397239E+01  0.25679523636E+01  0.23187142049E+01  0.17126662326E+03  0.17120000000E+03 0.  0.
        998    1    1    2    0    0 -0.10106585042E+02  0.17667852115E+02  0.13884237223E+04  0.13886089186E+04  0.10000000000E+02 0. -1.
</event>
<event>
 5    1  0.1556794E-008  0.3835497E+03  0.7957747E-01  0.3435846E+00
         13   -1    0    0    0    0  0.00000000000E+00  0.00000000000E+00  0.14999999963E+04  0.15000000000E+04  0.10566000000E+00 0. -1.
        994   -1    0    0    0    0 -0.00000000000E+00 -0.00000000000E+00  0.11368683772E-12  0.17120000000E+03  0.17120000000E+03 0.  0.
         13    1    1    2    0    0 -0.48523792492E+00 -0.10888397637E+02  0.23809875012E+02  0.26186140821E+02  0.10566000000E+00 0. -1.
        994    1    1    2    0    0  0.10644305088E+01  0.15509155214E+02  0.31507927797E+01  0.17193322658E+03  0.17120000000E+03 0.  0.
        998    1    1    2    0    0 -0.57919258390E+00 -0.46207575774E+01  0.14730393285E+04  0.14730806326E+04  0.10000000000E+02 0. -1.
</event>
<event>
 5    1  0.1556794E-008  0.3816781E+03  0.7957747E-01  0.3443884E+00
         13   -1    0    0    0    0  0.00000000000E+00  0.00000000000E+00  0.14999999963E+04  0.15000000000E+04  0.10566000000E+00 0. -1.
        994   -1    0    0    0    0 -0.00000000000E+00 -0.00000000000E+00  0.11368683772E-12  0.17120000000E+03  0.17120000000E+03 0.  0.
         13    1    1    2    0    0 -0.89039903602E+01 -0.10591563308E+02  0.27090768238E+02  0.30420110871E+02  0.10566000000E+00 0. -1.
        994    1    1    2    0    0  0.15649525707E+02  0.10633740658E+02  0.44794615920E+01  0.17230057943E+03  0.17120000000E+03 0.  0.
        998    1    1    2    0    0 -0.67455353464E+01 -0.42177349538E-01  0.14684297664E+04  0.14684793097E+04  0.10000000000E+02 0. -1.
</event>
<event>
 5    1  0.1556794E-008  0.3853228E+03  0.7957747E-01  0.3428304E+00
         13   -1    0    0    0    0  0.00000000000E+00  0.00000000000E+00  0.14999999963E+04  0.15000000000E+04  0.10566000000E+00 0. -1.
        994   -1    0    0    0    0 -0.00000000000E+00 -0.00000000000E+00  0.11368683772E-12  0.17120000000E+03  0.17120000000E+03 0.  0.
         13    1    1    2    0    0 -0.10131082443E+02 -0.61683483707E+01  0.44644922297E+02  0.46193804823E+02  0.10566000000E+00 0. -1.
        994    1    1    2    0    0  0.15557813284E+02  0.14828084624E+02  0.29889299549E+01  0.17256967100E+03  0.17120000000E+03 0.  0.
        998    1    1    2    0    0 -0.54267308415E+01 -0.86597362531E+01  0.14523661440E+04  0.14524365242E+04  0.10000000000E+02 0. -1.
</event>
<event>
 5    1  0.1556794E-008  0.3806838E+03  0.7957747E-01  0.3448186E+00
         13   -1    0    0    0    0  0.00000000000E+00  0.00000000000E+00  0.14999999963E+04  0.15000000000E+04  0.10566000000E+00 0. -1.
        994   -1    0    0    0    0 -0.00000000000E+00 -0.00000000000E+00  0.11368683772E-12  0.17120000000E+03  0.17120000000E+03 0.  0.
         13    1    1    2    0    0  0.29115128645E+02 -0.28045341569E+01  0.10989729227E+03  0.11372327000E+03  0.10566000000E+00 0. -1.
        994    1    1    2    0    0 -0.20196245604E+02  0.39417103582E+01  0.52019150419E+01  0.17251065282E+03  0.17120000000E+03 0.  0.
        998    1    1    2    0    0 -0.89188830407E+01 -0.11371762013E+01  0.13849007890E+04  0.13849660772E+04  0.10000000000E+02 0. -1.
</event>
<event>
 5    1  0.1556794E-008  0.3757277E+03  0.7957747E-01  0.3469975E+00
         13   -1    0    0    0    0  0.00000000000E+00  0.00000000000E+00  0.14999999963E+04  0.15000000000E+04  0.10566000000E+00 0. -1.
        994   -1    0    0    0    0 -0.00000000000E+00 -0.00000000000E+00  0.11368683772E-12  0.17120000000E+03  0.17120000000E+03 0.  0.
         13    1    1    2    0    0 -0.16977477324E+01 -0.26212708289E+02  0.50231237292E+02  0.56684890290E+02  0.10566000000E+00 0. -1.
        994    1    1    2    0    0  0.33735462666E+01  0.29325181480E+02  0.92658038513E+01  0.17397310770E+03  0.17120000000E+03 0.  0.
        998    1    1    2    0    0 -0.16757985342E+01 -0.31124731908E+01  0.14405029551E+04  0.14405420020E+04  0.10000000000E+02 0. -1.
</event>
<event>
 5    1  0.1556794E-008  0.3819986E+03  0.7957747E-01  0.3442502E+00
         13   -1    0    0    0    0  0.00000000000E+00  0.00000000000E+00  0.14999999963E+04  0.15000000000E+04  0.10566000000E+00 0.  1.
        994   -1    0    0    0    0 -0.00000000000E+00 -0.00000000000E+00  0.11368683772E-12  0.17120000000E+03  0.17120000000E+03 0.  0.
         13    1    1    2    0    0  0.10267502900E+01 -0.16759305077E+02  0.44755476983E+02  0.47801594187E+02  0.10566000000E+00 0.  1.
        994    1    1    2    0    0  0.28298578129E+01  0.70002770281E+01  0.33169930571E+01  0.17139852513E+03  0.17120000000E+03 0.  0.
        998    1    1    2    0    0 -0.38566081028E+01  0.97590280489E+01  0.14519275262E+04  0.14519998807E+04  0.10000000000E+02 0.  1.
</event>
<event>
 5    1  0.1556794E-008  0.3807766E+03  0.7957747E-01  0.3447784E+00
         13   -1    0    0    0    0  0.00000000000E+00  0.00000000000E+00  0.14999999963E+04  0.15000000000E+04  0.10566000000E+00 0. -1.
        994   -1    0    0    0    0 -0.00000000000E+00 -0.00000000000E+00  0.11368683772E-12  0.17120000000E+03  0.17120000000E+03 0.  0.
         13    1    1    2    0    0 -0.16307998115E+02 -0.19604412582E+02  0.81542837627E+02  0.85437283007E+02  0.10566000000E+00 0. -1.
        994    1    1    2    0    0  0.26356588859E+02  0.11878151490E+02  0.65333602470E+01  0.17374661164E+03  0.17120000000E+03 0.  0.
        998    1    1    2    0    0 -0.10048590744E+02  0.77262610921E+01  0.14119237984E+04  0.14120161054E+04  0.10000000000E+02 0. -1.
</event>
<event>
 5    1  0.1556794E-008  0.2645277E+03  0.7957747E-01  0.4187086E+00
         13   -1    0    0    0    0  0.00000000000E+00  0.00000000000E+00  0.14999999963E+04  0.15000000000E+04  0.10566000000E+00 0.  1.
        994   -1    0    0    0    0 -0.00000000000E+00 -0.00000000000E+00  0.11368683772E-12  0.17120000000E+03  0.17120000000E+03 0.  0.
         13    1    1    2    0    0  0.15901499543E+03 -0.23753481056E+02  0.56083394221E+03  0.58342498963E+03  0.10566000000E+00 0.  1.
        994    1    1    2    0    0 -0.56003915556E+02  0.37086584025E+02  0.47388608143E+02  0.18991306815E+03  0.17120000000E+03 0.  0.
        998    1    1    2    0    0 -0.10301107988E+03 -0.13333102969E+02  0.89177744593E+03  0.89786194222E+03  0.10000000000E+02 0.  1.
</event>
<event>
 5    1  0.1556794E-008  0.3838625E+03  0.7957747E-01  0.3434511E+00
         13   -1    0    0    0    0  0.00000000000E+00  0.00000000000E+00  0.14999999963E+04  0.15000000000E+04  0.10566000000E+00 0.  1.
        994   -1    0    0    0    0 -0.00000000000E+00 -0.00000000000E+00  0.11368683772E-12  0.17120000000E+03  0.17120000000E+03 0.  0.
         13    1    1    2    0    0  0.11357309516E+02 -0.85924913593E+01  0.40946877614E+02  0.43352939203E+02  0.10566000000E+00 0.  1.
        994    1    1    2    0    0 -0.24079269311E+02  0.24734286191E+02  0.61391524441E+01  0.17475332705E+03  0.17120000000E+03 0.  0.
        998    1    1    2    0    0  0.12721959795E+02 -0.16141794832E+02  0.14529139662E+04  0.14530937337E+04  0.10000000000E+02 0.  1.
</event>
<event>
 5    1  0.1556794E-008  0.3779645E+03  0.7957747E-01  0.3460069E+00
         13   -1    0    0    0    0  0.00000000000E+00  0.00000000000E+00  0.14999999963E+04  0.15000000000E+04  0.10566000000E+00 0. -1.
        994   -1    0    0    0    0 -0.00000000000E+00 -0.00000000000E+00  0.11368683772E-12  0.17120000000E+03  0.17120000000E+03 0.  0.
         13    1    1    2    0    0  0.21689397875E+02 -0.12057839193E+03  0.46744653355E+03  0.48323477883E+03  0.10566000000E+00 0. -1.
        994    1    1    2    0    0 -0.97524942322E+02  0.70826047304E+02  0.69511384349E+02  0.22060987264E+03  0.17120000000E+03 0.  0.
        998    1    1    2    0    0  0.75835544447E+02  0.49752344628E+02  0.96304207838E+03  0.96735534853E+03  0.10000000000E+02 0. -1.
</event>
<event>
 5    1  0.1556794E-008  0.3826630E+03  0.7957747E-01  0.3439644E+00
         13   -1    0    0    0    0  0.00000000000E+00  0.00000000000E+00  0.14999999963E+04  0.15000000000E+04  0.10566000000E+00 0.  1.
        994   -1    0    0    0    0 -0.00000000000E+00 -0.00000000000E+00  0.11368683772E-12  0.17120000000E+03  0.17120000000E+03 0.  0.
         13    1    1    2    0    0  0.14431937107E+02 -0.11487434770E+02  0.66543918259E+02  0.69053212724E+02  0.10566000000E+00 0.  1.
        994    1    1    2    0    0  0.18277018331E+02  0.99678627238E+01  0.42323835599E+01  0.17251307416E+03  0.17120000000E+03 0.  0.
        998    1    1    2    0    0 -0.32708955438E+02  0.15195720462E+01  0.14292236945E+04  0.14296337131E+04  0.10000000000E+02 0.  1.
</event>
<event>
 5    1  0.1556794E-008  0.3845763E+03  0.7957747E-01  0.3431471E+00
         13   -1    0    0    0    0  0.00000000000E+00  0.00000000000E+00  0.14999999963E+04  0.15000000000E+04  0.10566000000E+00 0.  1.
        994   -1    0    0    0    0 -0.00000000000E+00 -0.00000000000E+00  0.11368683772E-12  0.17120000000E+03  0.17120000000E+03 0.  0.
         13    1    1    2    0    0  0.19484809468E+02 -0.44311245740E+01  0.11991444130E+03  0.12156799357E+03  0.10566000000E+00 0.  1.
        994    1    1    2    0    0 -0.26007420050E+01 -0.94404757023E+01  0.21564559880E+01  0.17149337230E+03  0.17120000000E+03 0.  0.
        998    1    1    2    0    0 -0.16884067463E+02  0.13871600276E+02  0.13779290990E+04  0.13781386341E+04  0.10000000000E+02 0.  1.
</event>
<event>
 5    1  0.1556794E-008  0.3772686E+03  0.7957747E-01  0.3463138E+00
         13   -1    0    0    0    0  0.00000000000E+00  0.00000000000E+00  0.14999999963E+04  0.15000000000E+04  0.10566000000E+00 0.  1.
        994   -1    0    0    0    0 -0.00000000000E+00 -0.00000000000E+00  0.11368683772E-12  0.17120000000E+03  0.17120000000E+03 0.  0.
         13    1    1    2    0    0  0.57036840209E+02 -0.12251402296E+03  0.81306134753E+03  0.82421578059E+03  0.10566000000E+00 0.  1.
        994    1    1    2    0    0 -0.49111909615E+02  0.11806741911E+03  0.62831861275E+02  0.22273117858E+03  0.17120000000E+03 0.  0.
        998    1    1    2    0    0 -0.79249305935E+01  0.44466038538E+01  0.62410678747E+03  0.62425304082E+03  0.10000000000E+02 0. -1.
</event>
<event>
 5    1  0.1556794E-008  0.3739246E+03  0.7957747E-01  0.3478046E+00
         13   -1    0    0    0    0  0.00000000000E+00  0.00000000000E+00  0.14999999963E+04  0.15000000000E+04  0.10566000000E+00 0.  1.
        994   -1    0    0    0    0 -0.00000000000E+00 -0.00000000000E+00  0.11368683772E-12  0.17120000000E+03  0.17120000000E+03 0.  0.
         13    1    1    2    0    0  0.95228116759E+01 -0.27277966164E+02  0.26188981039E+02  0.38995451942E+02  0.10566000000E+00 0.  1.
        994    1    1    2    0    0 -0.12738648948E+02  0.26286648961E+02  0.16059717298E+02  0.17441506704E+03  0.17120000000E+03 0.  0.
        998    1    1    2    0    0  0.32158372722E+01  0.99131720281E+00  0.14577512979E+04  0.14577894810E+04  0.10000000000E+02 0.  1.
</event>
<event>
 5    1  0.1556794E-008  0.3828978E+03  0.7957747E-01  0.3438637E+00
         13   -1    0    0    0    0  0.00000000000E+00  0.00000000000E+00  0.14999999963E+04  0.15000000000E+04  0.10566000000E+00 0. -1.
        994   -1    0    0    0    0 -0.00000000000E+00 -0.00000000000E+00  0.11368683772E-12  0.17120000000E+03  0.17120000000E+03 0.  0.
         13    1    1    2    0    0  0.25351759904E+02 -0.12336442753E+02  0.16024829412E+03  0.16270963857E+03  0.10566000000E+00 0. -1.
        994    1    1    2    0    0 -0.51347521430E+00  0.14905792282E+02  0.34143877292E+01  0.17188235612E+03  0.17120000000E+03 0.  0.
        998    1    1    2    0    0 -0.24838284689E+02 -0.25693495289E+01  0.13363373144E+04  0.13366080053E+04  0.10000000000E+02 0. -1.
</event>
<event>
 5    1  0.1556794E-008  0.3734360E+03  0.7957747E-01  0.3480247E+00
         13   -1    0    0    0    0  0.00000000000E+00  0.00000000000E+00  0.14999999963E+04  0.15000000000E+04  0.10566000000E+00 0.  1.
        994   -1    0    0    0    0 -0.00000000000E+00 -0.00000000000E+00  0.11368683772E-12  0.17120000000E+03  0.17120000000E+03 0.  0.
         13    1    1    2    0    0  0.11523553093E+01  0.20066350835E+02  0.24029673610E+02  0.31327667267E+02  0.10566000000E+00 0.  1.
        994    1    1    2    0    0  0.10268057690E+01 -0.10881121800E+02  0.78923683803E+01  0.17172997007E+03  0.17120000000E+03 0.  0.
        998    1    1    2    0    0 -0.21791610783E+01 -0.91852290344E+01  0.14680779543E+04  0.14681423627E+04  0.10000000000E+02 0.  1.
</event>
<event>
 5    1  0.1556794E-008  0.3795175E+03  0.7957747E-01  0.3453262E+00
         13   -1    0    0    0    0  0.00000000000E+00  0.00000000000E+00  0.14999999963E+04  0.15000000000E+04  0.10566000000E+00 0.  1.
        994   -1    0    0    0    0 -0.00000000000E+00 -0.00000000000E+00  0.11368683772E-12  0.17120000000E+03  0.17120000000E+03 0.  0.
         13    1    1    2    0    0 -0.32578575654E+02  0.14448450221E+02  0.12069914161E+03  0.12585076580E+03  0.10566000000E+00 0.  1.
        994    1    1    2    0    0  0.62915243553E+02  0.81438860131E+01  0.17972435018E+02  0.18345871244E+03  0.17120000000E+03 0.  0.
        998    1    1    2    0    0 -0.30336667900E+02 -0.22592336234E+02  0.13613284197E+04  0.13618905218E+04  0.10000000000E+02 0.  1.
</event>
<event>
 5    1  0.1556794E-008  0.3731660E+03  0.7957747E-01  0.3481466E+00
         13   -1    0    0    0    0  0.00000000000E+00  0.00000000000E+00  0.14999999963E+04  0.15000000000E+04  0.10566000000E+00 0.  1.
        994   -1    0    0    0    0 -0.00000000000E+00 -0.00000000000E+00  0.11368683772E-12  0.17120000000E+03  0.17120000000E+03 0.  0.
         13    1    1    2    0    0  0.65195995998E-02 -0.61019479307E+02  0.20642502838E+03  0.21525491958E+03  0.10566000000E+00 0.  1.
        994    1    1    2    0    0  0.14061761470E+02 -0.37400710229E+02  0.18288148811E+02  0.17674966096E+03  0.17120000000E+03 0.  0.
        998    1    1    2    0    0 -0.14068281070E+02  0.98420189536E+02  0.12752868191E+04  0.12791954195E+04  0.10000000000E+02 0.  1.
</event>
<event>
 5    1  0.1556794E-008  0.3853093E+03  0.7957747E-01  0.3428361E+00
         13   -1    0    0    0    0  0.00000000000E+00  0.00000000000E+00  0.14999999963E+04  0.15000000000E+04  0.10566000000E+00 0. -1.
        994   -1    0    0    0    0 -0.00000000000E+00 -0.00000000000E+00  0.11368683772E-12  0.17120000000E+03  0.17120000000E+03 0.  0.
         13    1    1    2    0    0  0.96352508863E+01  0.66224578459E+01  0.48776565616E+02  0.50158344519E+02  0.10566000000E+00 0. -1.
        994    1    1    2    0    0 -0.11178787254E+01  0.31087429146E+01  0.15124946672E+01  0.17123855166E+03  0.17120000000E+03 0.  0.
        998    1    1    2    0    0 -0.85173721609E+01 -0.97312007606E+01  0.14497109360E+04  0.14498031038E+04  0.10000000000E+02 0. -1.
</event>
<event>
 5    1  0.1556794E-008  0.3716305E+03  0.7957747E-01  0.3488431E+00
         13   -1    0    0    0    0  0.00000000000E+00  0.00000000000E+00  0.14999999963E+04  0.15000000000E+04  0.10566000000E+00 0. -1.
        994   -1    0    0    0    0 -0.00000000000E+00 -0.00000000000E+00  0.11368683772E-12  0.17120000000E+03  0.17120000000E+03 0.  0.
         13    1    1    2    0    0  0.97399585421E+01 -0.65342727840E+01 -0.20837055343E+00  0.11731073930E+02  0.10566000000E+00 0. -1.
        994    1    1    2    0    0 -0.62666498306E+02  0.22396988179E+02  0.27542498778E+02  0.18573299203E+03  0.17120000000E+03 0.  0.
        998    1    1    2    0    0  0.52926539764E+02 -0.15862715395E+02  0.14726658681E+04  0.14737359340E+04  0.10000000000E+02 0. -1.
</event>
<event>
 5    1  0.1556794E-008  0.3821814E+03  0.7957747E-01  0.3441715E+00
         13   -1    0    0    0    0  0.00000000000E+00  0.00000000000E+00  0.14999999963E+04  0.15000000000E+04  0.10566000000E+00 0.  1.
        994   -1    0    0    0    0 -0.00000000000E+00 -0.00000000000E+00  0.11368683772E-12  0.17120000000E+03  0.17120000000E+03 0.  0.
         13    1    1    2    0    0  0.28705458708E+01 -0.16966812073E+02  0.49189166924E+02  0.52112359879E+02  0.10566000000E+00 0.  1.
        994    1    1    2    0    0 -0.39459334006E+01  0.36858106840E+01  0.31328204113E+01  0.17131377690E+03  0.17120000000E+03 0.  0.
        998    1    1    2    0    0  0.10753875298E+01  0.13281001389E+02  0.14476780089E+04  0.14477738632E+04  0.10000000000E+02 0.  1.
</event>
<event>
 5    1  0.1556794E-008  0.3805690E+03  0.7957747E-01  0.3448685E+00
         13   -1    0    0    0    0  0.00000000000E+00  0.00000000000E+00  0.14999999963E+04  0.15000000000E+04  0.10566000000E+00 0. -1.
        994   -1    0    0    0    0 -0.00000000000E+00 -0.00000000000E+00  0.11368683772E-12  0.17120000000E+03  0.17120000000E+03 0.  0.
         13    1    1    2    0    0 -0.10414011473E+02  0.19651719349E+02  0.61773969152E+02  0.65655739560E+02  0.10566000000E+00 0. -1.
        994    1    1    2    0    0  0.92340249137E+01 -0.16153427456E+02  0.50021732128E+01  0.17228076553E+03  0.17120000000E+03 0.  0.
        998    1    1    2    0    0  0.11799865593E+01 -0.34982918934E+01  0.14332238539E+04  0.14332634949E+04  0.10000000000E+02 0. -1.
</event>
<event>
 5    1  0.1556794E-008  0.4156229E+03  0.7957747E-01  0.3309347E+00
         13   -1    0    0    0    0  0.00000000000E+00  0.00000000000E+00  0.14999999963E+04  0.15000000000E+04  0.10566000000E+00 0.  1.
        994   -1    0    0    0    0 -0.00000000000E+00 -0.00000000000E+00  0.11368683772E-12  0.17120000000E+03  0.17120000000E+03 0.  0.
         13    1    1    2    0    0 -0.18850532302E+02 -0.55135827552E+00 -0.11446163991E+02  0.22060652714E+02  0.10566000000E+00 0.  1.
        994    1    1    2    0    0  0.16708077796E+02 -0.11966344539E+01  0.38649353404E+02  0.17630599626E+03  0.17120000000E+03 0.  0.
        998    1    1    2    0    0  0.21424545058E+01  0.17479927294E+01  0.14727968069E+04  0.14728333510E+04  0.10000000000E+02 0.  1.
</event>
<event>
 5    1  0.1556794E-008  0.3785508E+03  0.7957747E-01  0.3457493E+00
         13   -1    0    0    0    0  0.00000000000E+00  0.00000000000E+00  0.14999999963E+04  0.15000000000E+04  0.10566000000E+00 0. -1.
        994   -1    0    0    0    0 -0.00000000000E+00 -0.00000000000E+00  0.11368683772E-12  0.17120000000E+03  0.17120000000E+03 0.  0.
         13    1    1    2    0    0  0.77212910944E+01  0.65678187414E+01  0.84119348435E+01  0.13172941624E+02  0.10566000000E+00 0. -1.
        994    1    1    2    0    0  0.77526247925E+00 -0.80079485589E+01  0.50839427454E+01  0.17146432499E+03  0.17120000000E+03 0.  0.
        998    1    1    2    0    0 -0.84965535736E+01  0.14401298174E+01  0.14865041187E+04  0.14865627334E+04  0.10000000000E+02 0. -1.
</event>
<event>
 5    1  0.1556794E-008  0.3813853E+03  0.7957747E-01  0.3445149E+00
         13   -1    0    0    0    0  0.00000000000E+00  0.00000000000E+00  0.14999999963E+04  0.15000000000E+04  0.10566000000E+00 0.  1.
        994   -1    0    0    0    0 -0.00000000000E+00 -0.00000000000E+00  0.11368683772E-12  0.17120000000E+03  0.17120000000E+03 0.  0.
         13    1    1    2    0    0  0.28810842358E+01 -0.11807583699E+02  0.19885982035E+02  0.23306289381E+02  0.10566000000E+00 0.  1.
        994    1    1    2    0    0 -0.47346143957E+01  0.11696148503E+02  0.39655108816E+01  0.17171016784E+03  0.17120000000E+03 0.  0.
        998    1    1    2    0    0  0.18535301599E+01  0.11143519637E+00  0.14761485034E+04  0.14761835428E+04  0.10000000000E+02 0.  1.
</event>
<event>
 5    1  0.1556794E-008  0.3745436E+03  0.7957747E-01  0.3475266E+00
         13   -1    0    0    0    0  0.00000000000E+00  0.00000000000E+00  0.14999999963E+04  0.15000000000E+04  0.10566000000E+00 0.  1.
        994   -1    0    0    0    0 -0.00000000000E+00 -0.00000000000E+00  0.11368683772E-12  0.17120000000E+03  0.17120000000E+03 0.  0.
         13    1    1    2    0    0 -0.15960114954E+02  0.44892212013E+01  0.16939618079E+02  0.23703168586E+02  0.10566000000E+00 0.  1.
        994    1    1    2    0    0  0.10430322925E+02 -0.95215651997E+00  0.72868227440E+01  0.17167479729E+03  0.17120000000E+03 0.  0.
        998    1    1    2    0    0  0.55297920292E+01 -0.35370646813E+01  0.14757735555E+04  0.14758220341E+04  0.10000000000E+02 0.  1.
</event>
<event>
 5    1  0.1556794E-008  0.3846340E+03  0.7957747E-01  0.3431226E+00
         13   -1    0    0    0    0  0.00000000000E+00  0.00000000000E+00  0.14999999963E+04  0.15000000000E+04  0.10566000000E+00 0.  1.
        994   -1    0    0    0    0 -0.00000000000E+00 -0.00000000000E+00  0.11368683772E-12  0.17120000000E+03  0.17120000000E+03 0.  0.
         13    1    1    2    0    0 -0.13970631338E+02  0.73780079516E+01  0.67532236765E+02  0.69355805149E+02  0.10566000000E+00 0.  1.
        994    1    1    2    0    0  0.17168220958E+02  0.39764514525E+01  0.28351723595E+01  0.17212797036E+03  0.17120000000E+03 0.  0.
        998    1    1    2    0    0 -0.31975896202E+01 -0.11354459404E+02  0.14296325872E+04  0.14297162245E+04  0.10000000000E+02 0.  1.
</event>
<event>
 5    1  0.1556794E-008  0.3788549E+03  0.7957747E-01  0.3456160E+00
         13   -1    0    0    0    0  0.00000000000E+00  0.00000000000E+00  0.14999999963E+04  0.15000000000E+04  0.10566000000E+00 0. -1.
        994   -1    0    0    0    0 -0.00000000000E+00 -0.00000000000E+00  0.11368683772E-12  0.17120000000E+03  0.17120000000E+03 0.  0.
         13    1    1    2    0    0  0.11962606591E+02  0.47563070715E+01  0.16105543115E+02  0.20618586190E+02  0.10566000000E+00 0. -1.
        994    1    1    2    0    0  0.98245259942E+01 -0.10484211007E+02  0.54053420112E+01  0.17188687476E+03  0.17120000000E+03 0.  0.
        998    1    1    2    0    0 -0.21787132585E+02  0.57279039359E+01  0.14784891112E+04  0.14786945391E+04  0.10000000000E+02 0. -1.
</event>
<event>
 5    1  0.1556794E-008  0.3905687E+03  0.7957747E-01  0.3406393E+00
         13   -1    0    0    0    0  0.00000000000E+00  0.00000000000E+00  0.14999999963E+04  0.15000000000E+04  0.10566000000E+00 0.  1.
        994   -1    0    0    0    0 -0.00000000000E+00 -0.00000000000E+00  0.11368683772E-12  0.17120000000E+03  0.17120000000E+03 0.  0.
         13    1    1    2    0    0 -0.11931561838E+02 -0.15496689961E+02 -0.93483224797E+00  0.19580465853E+02  0.10566000000E+00 0.  1.
        994    1    1    2    0    0 -0.11802060333E+02 -0.49705684454E+01  0.22877179873E+02  0.17319584446E+03  0.17120000000E+03 0.  0.
        998    1    1    2    0    0  0.23733622172E+02  0.20467258406E+02  0.14780576487E+04  0.14784236897E+04  0.10000000000E+02 0.  1.
</event>
<event>
 5    1  0.1556794E-008  0.4027482E+03  0.7957747E-01  0.3357720E+00
         13   -1    0    0    0    0  0.00000000000E+00  0.00000000000E+00  0.14999999963E+04  0.15000000000E+04  0.10566000000E+00 0. -1.
        994   -1    0    0    0    0 -0.00000000000E+00 -0.00000000000E+00  0.11368683772E-12  0.17120000000E+03  0.17120000000E+03 0.  0.
         13    1    1    2    0    0 -0.57225126436E+02 -0.11750506405E+03  0.23733802683E+03  0.27094557630E+03  0.10566000000E+00 0. -1.
        994    1    1    2    0    0  0.51560533540E+02  0.11468834634E+03  0.95272624394E+02  0.23280510812E+03  0.17120000000E+03 0.  0.
        998    1    1    2    0    0  0.56645928966E+01  0.28167177049E+01  0.11673893451E+04  0.11674493156E+04  0.10000000000E+02 0. -1.
</event>
<event>
 5    1  0.1556794E-008  0.3803562E+03  0.7957747E-01  0.3449609E+00
         13   -1    0    0    0    0  0.00000000000E+00  0.00000000000E+00  0.14999999963E+04  0.15000000000E+04  0.10566000000E+00 0. -1.
        994   -1    0    0    0    0 -0.00000000000E+00 -0.00000000000E+00  0.11368683772E-12  0.17120000000E+03  0.17120000000E+03 0.  0.
         13    1    1    2    0    0  0.10908082556E+02 -0.20841888866E+02  0.68197996150E+02  0.72141170212E+02  0.10566000000E+00 0. -1.
        994    1    1    2    0    0  0.54081540327E+01  0.21191532738E+02  0.55522121188E+01  0.17268061921E+03  0.17120000000E+03 0.  0.
        998    1    1    2    0    0 -0.16316236589E+02 -0.34964387227E+00  0.14262497880E+04  0.14263782106E+04  0.10000000000E+02 0. -1.
</event>
<event>
 5    1  0.1556794E-008  0.3830663E+03  0.7957747E-01  0.3437915E+00
         13   -1    0    0    0    0  0.00000000000E+00  0.00000000000E+00  0.14999999963E+04  0.15000000000E+04  0.10566000000E+00 0. -1.
        994   -1    0    0    0    0 -0.00000000000E+00 -0.00000000000E+00  0.11368683772E-12  0.17120000000E+03  0.17120000000E+03 0.  0.
         13    1    1    2    0    0  0.10656379819E+02  0.78041516399E+01  0.32575602388E+02  0.35151731801E+02  0.10566000000E+00 0. -1.
        994    1    1    2    0    0 -0.91745053535E+01 -0.55854227568E+01  0.29751060164E+01  0.17156240775E+03  0.17120000000E+03 0.  0.
        998    1    1    2    0    0 -0.14818744653E+01 -0.22187288830E+01  0.14644492879E+04  0.14644858605E+04  0.10000000000E+02 0. -1.
</event>
<event>
 5    1  0.1556794E-008  0.3804129E+03  0.7957747E-01  0.3449363E+00
         13   -1    0    0    0    0  0.00000000000E+00  0.00000000000E+00  0.14999999963E+04  0.15000000000E+04  0.10566000000E+00 0. -1.
        994   -1    0    0    0    0 -0.00000000000E+00 -0.00000000000E+00  0.11368683772E-12  0.17120000000E+03  0.17120000000E+03 0.  0.
         13    1    1    2    0    0 -0.85483498809E+02  0.16479511663E+03  0.10790136727E+04  0.10948677436E+04  0.10566000000E+00 0. -1.
        994    1    1    2    0    0  0.74692240157E+02 -0.16641119272E+03  0.12441613081E+03  0.27939296593E+03  0.17120000000E+03 0.  0.
        998    1    1    2    0    0  0.10791258652E+02  0.16160760916E+01  0.29657019279E+03  0.29693929045E+03  0.10000000000E+02 0. -1.
</event>
<event>
 5    1  0.1556794E-008  0.3763506E+03  0.7957747E-01  0.3467204E+00
         13   -1    0    0    0    0  0.00000000000E+00  0.00000000000E+00  0.14999999963E+04  0.15000000000E+04  0.10566000000E+00 0.  1.
        994   -1    0    0    0    0 -0.00000000000E+00 -0.00000000000E+00  0.11368683772E-12  0.17120000000E+03  0.17120000000E+03 0.  0.
         13    1    1    2    0    0  0.27398522074E+02  0.31111093469E+01  0.55403672823E+02  0.61886477840E+02  0.10566000000E+00 0.  1.
        994    1    1    2    0    0 -0.45958390516E+02 -0.10875923628E+02  0.13571734498E+02  0.17811258055E+03  0.17120000000E+03 0.  0.
        998    1    1    2    0    0  0.18559868442E+02  0.77648142814E+01  0.14310245890E+04  0.14312009416E+04  0.10000000000E+02 0.  1.
</event>
<event>
 5    1  0.1556794E-008  0.3738591E+03  0.7957747E-01  0.3478341E+00
         13   -1    0    0    0    0  0.00000000000E+00  0.00000000000E+00  0.14999999963E+04  0.15000000000E+04  0.10566000000E+00 0.  1.
        994   -1    0    0    0    0 -0.00000000000E+00 -0.00000000000E+00  0.11368683772E-12  0.17120000000E+03  0.17120000000E+03 0.  0.
         13    1    1    2    0    0  0.46468386518E+02  0.12826239026E+02  0.16092758924E+03  0.16799262929E+03  0.10566000000E+00 0.  1.
        994    1    1    2    0    0 -0.32948449473E+02  0.25078237936E+02  0.13138862140E+02  0.17662555885E+03  0.17120000000E+03 0.  0.
        998    1    1    2    0    0 -0.13519937045E+02 -0.37904476962E+02  0.13259335449E+04  0.13265818119E+04  0.10000000000E+02 0.  1.
</event>
<event>
 5    1  0.1556794E-008  0.3753216E+03  0.7957747E-01  0.3471786E+00
         13   -1    0    0    0    0  0.00000000000E+00  0.00000000000E+00  0.14999999963E+04  0.15000000000E+04  0.10566000000E+00 0.  1.
        994   -1    0    0    0    0 -0.00000000000E+00 -0.00000000000E+00  0.11368683772E-12  0.17120000000E+03  0.17120000000E+03 0.  0.
         13    1    1    2    0    0  0.90954554816E+01 -0.49630327738E+01  0.51885532875E+01  0.11588410330E+02  0.10566000000E+00 0.  1.
        994    1    1    2    0    0 -0.91093595160E+01  0.67503436762E+01  0.69502671838E+01  0.17171573540E+03  0.17120000000E+03 0.  0.
        998    1    1    2    0    0  0.13904034405E-01 -0.17873109024E+01  0.14878611758E+04  0.14878958543E+04  0.10000000000E+02 0.  1.
</event>
<event>
 5    1  0.1556794E-008  0.3803224E+03  0.7957747E-01  0.3449756E+00
         13   -1    0    0    0    0  0.00000000000E+00  0.00000000000E+00  0.14999999963E+04  0.15000000000E+04  0.10566000000E+00 0.  1.
        994   -1    0    0    0    0 -0.00000000000E+00 -0.00000000000E+00  0.11368683772E-12  0.17120000000E+03  0.17120000000E+03 0.  0.
         13    1    1    2    0    0  0.13250412116E+02  0.13761502617E+01  0.20355705094E+02  0.24327620202E+02  0.10566000000E+00 0.  1.
        994    1    1    2    0    0 -0.15491426282E+02 -0.16602514258E+01  0.47815040623E+01  0.17197396170E+03  0.17120000000E+03 0.  0.
        998    1    1    2    0    0  0.22410141664E+01  0.28410116413E+00  0.14748627871E+04  0.14748984181E+04  0.10000000000E+02 0.  1.
</event>
<event>
 5    1  0.1556794E-008  0.3838294E+03  0.7957747E-01  0.3434652E+00
         13   -1    0    0    0    0  0.00000000000E+00  0.00000000000E+00  0.14999999963E+04  0.15000000000E+04  0.10566000000E+00 0. -1.
        994   -1    0    0    0    0 -0.00000000000E+00 -0.00000000000E+00  0.11368683772E-12  0.17120000000E+03  0.17120000000E+03 0.  0.
         13    1    1    2    0    0  0.53034125749E+01  0.12254919047E+02  0.38024103105E+02  0.40300779232E+02  0.10566000000E+00 0. -1.
        994    1    1    2    0    0  0.93088957152E-01 -0.20969803677E+02  0.36654353794E+01  0.17251845336E+03  0.17120000000E+03 0.  0.
        998    1    1    2    0    0 -0.53965015320E+01  0.87148846301E+01  0.14583104578E+04  0.14583807674E+04  0.10000000000E+02 0. -1.
</event>
<event>
 5    1  0.1556794E-008  0.3756422E+03  0.7957747E-01  0.3470355E+00
         13   -1    0    0    0    0  0.00000000000E+00  0.00000000000E+00  0.14999999963E+04  0.15000000000E+04  0.10566000000E+00 0. -1.
        994   -1    0    0    0    0 -0.00000000000E+00 -0.00000000000E+00  0.11368683772E-12  0.17120000000E+03  0.17120000000E+03 0.  0.
         13    1    1    2    0    0 -0.11376517081E+03  0.61429545458E+02  0.76025777940E+03  0.77117313585E+03  0.10566000000E+00 0. -1.
        994    1    1    2    0    0  0.11331399441E+03 -0.38418444842E+02  0.56567843538E+02  0.21639177238E+03  0.17120000000E+03 0.  0.
        998    1    1    2    0    0  0.45117640328E+00 -0.23011100617E+02  0.68317437334E+03  0.68363509177E+03  0.10000000000E+02 0.  1.
</event>
<event>
 5    1  0.1556794E-008  0.3826297E+03  0.7957747E-01  0.3439787E+00
         13   -1    0    0    0    0  0.00000000000E+00  0.00000000000E+00  0.14999999963E+04  0.15000000000E+04  0.10566000000E+00 0.  1.
        994   -1    0    0    0    0 -0.00000000000E+00 -0.00000000000E+00  0.11368683772E-12  0.17120000000E+03  0.17120000000E+03 0.  0.
         13    1    1    2    0    0  0.84835546142E+01 -0.98163223855E+01  0.29679576021E+02  0.32391654495E+02  0.10566000000E+00 0.  1.
        994    1    1    2    0    0 -0.98470209770E+01 -0.62307479616E+01  0.32616572751E+01  0.17162710873E+03  0.17120000000E+03 0.  0.
        998    1    1    2    0    0  0.13634663628E+01  0.16047070347E+02  0.14670587630E+04  0.14671812368E+04  0.10000000000E+02 0.  1.
</event>
<event>
 5    1  0.1556794E-008  0.3750755E+03  0.7957747E-01  0.3472885E+00
         13   -1    0    0    0    0  0.00000000000E+00  0.00000000000E+00  0.14999999963E+04  0.15000000000E+04  0.10566000000E+00 0.  1.
        994   -1    0    0    0    0 -0.00000000000E+00 -0.00000000000E+00  0.11368683772E-12  0.17120000000E+03  0.17120000000E+03 0.  0.
         13    1    1    2    0    0  0.54054691912E+02 -0.46221694731E+02  0.39338913719E+03  0.39976665595E+03  0.10566000000E+00 0.  1.
        994    1    1    2    0    0 -0.41240966494E+02  0.89322006619E+01  0.12715135696E+02  0.17678154938E+03  0.17120000000E+03 0.  0.
        998    1    1    2    0    0 -0.12813725418E+02  0.37289494069E+02  0.10938957234E+04  0.10946517947E+04  0.10000000000E+02 0.  1.
</event>
<event>
 5    1  0.1556794E-008  0.3860905E+03  0.7957747E-01  0.3425060E+00
         13   -1    0    0    0    0  0.00000000000E+00  0.00000000000E+00  0.14999999963E+04  0.15000000000E+04  0.10566000000E+00 0.  1.
        994   -1    0    0    0    0 -0.00000000000E+00 -0.00000000000E+00  0.11368683772E-12  0.17120000000E+03  0.17120000000E+03 0.  0.
         13    1    1    2    0    0 -0.95385412462E+01 -0.91401783267E+01  0.71606597097E+02  0.72815125770E+02  0.10566000000E+00 0.  1.
        994    1    1    2    0    0  0.16043579672E+02  0.18737631037E+02  0.30863105596E+01  0.17299555075E+03  0.17120000000E+03 0.  0.
        998    1    1    2    0    0 -0.65050384263E+01 -0.95974527106E+01  0.14253070886E+04  0.14253893235E+04  0.10000000000E+02 0.  1.
</event>
<event>
 5    1  0.1556794E-008  0.3816008E+03  0.7957747E-01  0.3444218E+00
         13   -1    0    0    0    0  0.00000000000E+00  0.00000000000E+00  0.14999999963E+04  0.15000000000E+04  0.10566000000E+00 0.  1.
        994   -1    0    0    0    0 -0.00000000000E+00 -0.00000000000E+00  0.11368683772E-12  0.17120000000E+03  0.17120000000E+03 0.  0.
         13    1    1    2    0    0 -0.72539158476E+01 -0.14407568346E+02  0.38325684545E+02  0.41582046374E+02  0.10566000000E+00 0.  1.
        994    1    1    2    0    0  0.12236901020E+02  0.24726121847E+01  0.38456787206E+01  0.17169765520E+03  0.17120000000E+03 0.  0.
        998    1    1    2    0    0 -0.49829851729E+01  0.11934956161E+02  0.14578286330E+04  0.14579202984E+04  0.10000000000E+02 0.  1.
</event>
<event>
 5    1  0.1556794E-008  0.3844412E+03  0.7957747E-01  0.3432046E+00
         13   -1    0    0    0    0  0.00000000000E+00  0.00000000000E+00  0.14999999963E+04  0.15000000000E+04  0.10566000000E+00 0.  1.
        994   -1    0    0    0    0 -0.00000000000E+00 -0.00000000000E+00  0.11368683772E-12  0.17120000000E+03  0.17120000000E+03 0.  0.
         13    1    1    2    0    0  0.59398385765E+01  0.15770993844E+02  0.71421650026E+02  0.73383030638E+02  0.10566000000E+00 0.  1.
        994    1    1    2    0    0  0.95511102828E+01 -0.22258074626E+02  0.38429962969E+01  0.17294754758E+03  0.17120000000E+03 0.  0.
        998    1    1    2    0    0 -0.15490948859E+02  0.64870807821E+01  0.14247353500E+04  0.14248694218E+04  0.10000000000E+02 0.  1.
</event>
<event>
 5    1  0.1556794E-008  0.3711425E+03  0.7957747E-01  0.3490657E+00
         13   -1    0    0    0    0  0.00000000000E+00  0.00000000000E+00  0.14999999963E+04  0.15000000000E+04  0.10566000000E+00 0.  1.
        994   -1    0    0    0    0 -0.00000000000E+00 -0.00000000000E+00  0.11368683772E-12  0.17120000000E+03  0.17120000000E+03 0.  0.
         13    1    1    2    0    0  0.11962005360E+02 -0.50967438152E+02  0.15395012563E+03  0.16260818451E+03  0.10566000000E+00 0.  1.
        994    1    1    2    0    0 -0.37417691174E+02  0.25566582076E+02  0.15779729404E+02  0.17779812595E+03  0.17120000000E+03 0.  0.
        998    1    1    2    0    0  0.25455685815E+02  0.25400856076E+02  0.13302701412E+04  0.13307936895E+04  0.10000000000E+02 0.  1.
</event>
<event>
 5    1  0.1556794E-008  0.3840189E+03  0.7957747E-01  0.3433844E+00
         13   -1    0    0    0    0  0.00000000000E+00  0.00000000000E+00  0.14999999963E+04  0.15000000000E+04  0.10566000000E+00 0.  1.
        994   -1    0    0    0    0 -0.00000000000E+00 -0.00000000000E+00  0.11368683772E-12  0.17120000000E+03  0.17120000000E+03 0.  0.
         13    1    1    2    0    0 -0.10734051572E+01  0.12972247646E+02  0.36319795461E+02  0.38581992095E+02  0.10566000000E+00 0.  1.
        994    1    1    2    0    0 -0.23976524735E+02 -0.30741713626E+02  0.71486772746E+01  0.17572839919E+03  0.17120000000E+03 0.  0.
        998    1    1    2    0    0  0.25049929893E+02  0.17769465980E+02  0.14565315235E+04  0.14568896087E+04  0.10000000000E+02 0.  1.
</event>
<event>
 5    1  0.1556794E-008  0.3753318E+03  0.7957747E-01  0.3471740E+00
         13   -1    0    0    0    0  0.00000000000E+00  0.00000000000E+00  0.14999999963E+04  0.15000000000E+04  0.10566000000E+00 0. -1.
        994   -1    0    0    0    0 -0.00000000000E+00 -0.00000000000E+00  0.11368683772E-12  0.17120000000E+03  0.17120000000E+03 0.  0.
         13    1    1    2    0    0  0.12452348400E+03  0.13574604083E+03  0.92781462128E+03  0.94592445169E+03  0.10566000000E+00 0. -1.
        994    1    1    2    0    0 -0.13393836333E+03 -0.12003985868E+03  0.12572119979E+03  0.27832411487E+03  0.17120000000E+03 0.  0.
        998    1    1    2    0    0  0.94148793271E+01 -0.15706182155E+02  0.44646417521E+03  0.44695143344E+03  0.10000000000E+02 0.  0.
</event>
<event>
 5    1  0.1556794E-008  0.3818845E+03  0.7957747E-01  0.3442994E+00
         13   -1    0    0    0    0  0.00000000000E+00  0.00000000000E+00  0.14999999963E+04  0.15000000000E+04  0.10566000000E+00 0.  1.
        994   -1    0    0    0    0 -0.00000000000E+00 -0.00000000000E+00  0.11368683772E-12  0.17120000000E+03  0.17120000000E+03 0.  0.
         13    1    1    2    0    0  0.22391374569E+01  0.18957009542E+02  0.55672346458E+02  0.58854084578E+02  0.10566000000E+00 0.  1.
        994    1    1    2    0    0 -0.31008773259E+00 -0.14326830833E+02  0.38674053503E+01  0.17184222723E+03  0.17120000000E+03 0.  0.
        998    1    1    2    0    0 -0.19290497243E+01 -0.46301787088E+01  0.14404602445E+04  0.14405036882E+04  0.10000000000E+02 0.  1.
</event>
<event>
 5    1  0.1556794E-008  0.3808120E+03  0.7957747E-01  0.3447631E+00
         13   -1    0    0    0    0  0.00000000000E+00  0.00000000000E+00  0.14999999963E+04  0.15000000000E+04  0.10566000000E+00 0. -1.
        994   -1    0    0    0    0 -0.00000000000E+00 -0.00000000000E+00  0.11368683772E-12  0.17120000000E+03  0.17120000000E+03 0.  0.
         13    1    1    2    0    0  0.18875156079E+02  0.13238587799E+02  0.67755739953E+02  0.71570826350E+02  0.10566000000E+00 0. -1.
        994    1    1    2    0    0 -0.16358850878E+02 -0.15185496318E+02  0.53866062139E+01  0.17273293498E+03  0.17120000000E+03 0.  0.
        998    1    1    2    0    0 -0.25163052010E+01  0.19469085190E+01  0.14268576501E+04  0.14268962387E+04  0.10000000000E+02 0. -1.
</event>
<event>
 5    1  0.1556794E-008  0.3855646E+03  0.7957747E-01  0.3427281E+00
         13   -1    0    0    0    0  0.00000000000E+00  0.00000000000E+00  0.14999999963E+04  0.15000000000E+04  0.10566000000E+00 0.  1.
        994   -1    0    0    0    0 -0.00000000000E+00 -0.00000000000E+00  0.11368683772E-12  0.17120000000E+03  0.17120000000E+03 0.  0.
         13    1    1    2    0    0 -0.80668447359E+01 -0.81130348558E+01  0.47537835670E+02  0.48895319846E+02  0.10566000000E+00 0.  1.
        994    1    1    2    0    0  0.12850971906E+02  0.39992246525E+01  0.19449056259E+01  0.17173923237E+03  0.17120000000E+03 0.  0.
        998    1    1    2    0    0 -0.47841271697E+01  0.41138102034E+01  0.14505172550E+04  0.14505654478E+04  0.10000000000E+02 0.  1.
</event>
<event>
 5    1  0.1556794E-008  0.3744138E+03  0.7957747E-01  0.3475849E+00
         13   -1    0    0    0    0  0.00000000000E+00  0.00000000000E+00  0.14999999963E+04  0.15000000000E+04  0.10566000000E+00 0. -1.
        994   -1    0    0    0    0 -0.00000000000E+00 -0.00000000000E+00  0.11368683772E-12  0.17120000000E+03  0.17120000000E+03 0.  0.
         13    1    1    2    0    0 -0.40895804153E+02 -0.45601530726E+02  0.33548334632E+03  0.34102940228E+03  0.10566000000E+00 0. -1.
        994    1    1    2    0    0  0.17098681846E+02 -0.52057833436E+01  0.80688703643E+01  0.17231950490E+03  0.17120000000E+03 0.  0.
        998    1    1    2    0    0  0.23797122306E+02  0.50807314070E+02  0.11564477796E+04  0.11578510928E+04  0.10000000000E+02 0. -1.
</event>
<event>
 5    1  0.1556794E-008  0.3839847E+03  0.7957747E-01  0.3433989E+00
         13   -1    0    0    0    0  0.00000000000E+00  0.00000000000E+00  0.14999999963E+04  0.15000000000E+04  0.10566000000E+00 0. -1.
        994   -1    0    0    0    0 -0.00000000000E+00 -0.00000000000E+00  0.11368683772E-12  0.17120000000E+03  0.17120000000E+03 0.  0.
         13    1    1    2    0    0  0.40730298532E+01  0.11197727177E+02  0.32492265282E+02  0.34608339072E+02  0.10566000000E+00 0. -1.
        994    1    1    2    0    0 -0.79231234014E+01 -0.72315430888E+01  0.25148033243E+01  0.17155417610E+03  0.17120000000E+03 0.  0.
        998    1    1    2    0    0  0.38500935482E+01 -0.39661840879E+01  0.14649929277E+04  0.14650374848E+04  0.10000000000E+02 0. -1.
</event>
<event>
 5    1  0.1556794E-008  0.3758755E+03  0.7957747E-01  0.3469317E+00
         13   -1    0    0    0    0  0.00000000000E+00  0.00000000000E+00  0.14999999963E+04  0.15000000000E+04  0.10566000000E+00 0. -1.
        994   -1    0    0    0    0 -0.00000000000E+00 -0.00000000000E+00  0.11368683772E-12  0.17120000000E+03  0.17120000000E+03 0.  0.
         13    1    1    2    0    0  0.20000560632E+02  0.22477736821E+02  0.84547301135E+02  0.89741452916E+02  0.10566000000E+00 0. -1.
        994    1    1    2    0    0 -0.58034693472E+00  0.35250779973E+02  0.10454042705E+02  0.17510477235E+03  0.17120000000E+03 0.  0.
        998    1    1    2    0    0 -0.19420213697E+02 -0.57728516794E+02  0.14049986524E+04  0.14063537747E+04  0.10000000000E+02 0. -1.
</event>
<event>
 5    1  0.1556794E-008  0.3846754E+03  0.7957747E-01  0.3431050E+00
         13   -1    0    0    0    0  0.00000000000E+00  0.00000000000E+00  0.14999999963E+04  0.15000000000E+04  0.10566000000E+00 0.  1.
        994   -1    0    0    0    0 -0.00000000000E+00 -0.00000000000E+00  0.11368683772E-12  0.17120000000E+03  0.17120000000E+03 0.  0.
         13    1    1    2    0    0  0.83550733940E+01 -0.11643923221E+02  0.56008797937E+02  0.57813361862E+02  0.10566000000E+00 0.  1.
        994    1    1    2    0    0  0.10459069167E+02  0.24224127750E+02  0.40867031916E+01  0.17326956350E+03  0.17120000000E+03 0.  0.
        998    1    1    2    0    0 -0.18814142561E+02 -0.12580204529E+02  0.14399044951E+04  0.14401170746E+04  0.10000000000E+02 0.  1.
</event>
<event>
 5    1  0.1556794E-008  0.3788639E+03  0.7957747E-01  0.3456120E+00
         13   -1    0    0    0    0  0.00000000000E+00  0.00000000000E+00  0.14999999963E+04  0.15000000000E+04  0.10566000000E+00 0. -1.
        994   -1    0    0    0    0 -0.00000000000E+00 -0.00000000000E+00  0.11368683772E-12  0.17120000000E+03  0.17120000000E+03 0.  0.
         13    1    1    2    0    0  0.12950246414E+02  0.13513344135E+02  0.35636339439E+02  0.40252691892E+02  0.10566000000E+00 0. -1.
        994    1    1    2    0    0 -0.14656701753E+01 -0.12355770835E+02  0.52273928321E+01  0.17173112385E+03  0.17120000000E+03 0.  0.
        998    1    1    2    0    0 -0.11484576239E+02 -0.11575733001E+01  0.14591362640E+04  0.14592161843E+04  0.10000000000E+02 0. -1.
</event>
<event>
 5    1  0.1556794E-008  0.3824449E+03  0.7957747E-01  0.3440581E+00
         13   -1    0    0    0    0  0.00000000000E+00  0.00000000000E+00  0.14999999963E+04  0.15000000000E+04  0.10566000000E+00 0. -1.
        994   -1    0    0    0    0 -0.00000000000E+00 -0.00000000000E+00  0.11368683772E-12  0.17120000000E+03  0.17120000000E+03 0.  0.
         13    1    1    2    0    0  0.35991309647E+02  0.18485410108E+02  0.22165788117E+03  0.22532046557E+03  0.10566000000E+00 0. -1.
        994    1    1    2    0    0 -0.39923881207E+02 -0.32576996411E+02  0.11759365847E+02  0.17917282068E+03  0.17120000000E+03 0.  0.
        998    1    1    2    0    0  0.39325715603E+01  0.14091586303E+02  0.12665827493E+04  0.12667067137E+04  0.10000000000E+02 0. -1.
</event>
<event>
 5    1  0.1556794E-008  0.3838141E+03  0.7957747E-01  0.3434717E+00
         13   -1    0    0    0    0  0.00000000000E+00  0.00000000000E+00  0.14999999963E+04  0.15000000000E+04  0.10566000000E+00 0.  1.
        994   -1    0    0    0    0 -0.00000000000E+00 -0.00000000000E+00  0.11368683772E-12  0.17120000000E+03  0.17120000000E+03 0.  0.
         13    1    1    2    0    0 -0.14221348042E+01 -0.12174037291E+02  0.33739753563E+02  0.35897239252E+02  0.10566000000E+00 0.  1.
        994    1    1    2    0    0 -0.66104539101E+01  0.52823727544E+01  0.24564906778E+01  0.17142659044E+03  0.17120000000E+03 0.  0.
        998    1    1    2    0    0  0.80325887143E+01  0.68916645370E+01  0.14638037520E+04  0.14638761703E+04  0.10000000000E+02 0.  1.
</event>
<event>
 5    1  0.1556794E-008  0.3882174E+03  0.7957747E-01  0.3416140E+00
         13   -1    0    0    0    0  0.00000000000E+00  0.00000000000E+00  0.14999999963E+04  0.15000000000E+04  0.10566000000E+00 0.  1.
        994   -1    0    0    0    0 -0.00000000000E+00 -0.00000000000E+00  0.11368683772E-12  0.17120000000E+03  0.17120000000E+03 0.  0.
         13    1    1    2    0    0  0.50099031409E+02  0.14251392402E+03  0.36911555152E+03  0.39883133406E+03  0.10566000000E+00 0.  1.
        994    1    1    2    0    0 -0.67980053758E+02 -0.14244976100E+03  0.12126460686E+03  0.26254098155E+03  0.17120000000E+03 0.  0.
        998    1    1    2    0    0  0.17881022349E+02 -0.64163022438E-01  0.10096198379E+04  0.10098276844E+04  0.10000000000E+02 0.  1.
</event>
<event>
 5    1  0.1556794E-008  0.3783941E+03  0.7957747E-01  0.3458181E+00
         13   -1    0    0    0    0  0.00000000000E+00  0.00000000000E+00  0.14999999963E+04  0.15000000000E+04  0.10566000000E+00 0.  1.
        994   -1    0    0    0    0 -0.00000000000E+00 -0.00000000000E+00  0.11368683772E-12  0.17120000000E+03  0.17120000000E+03 0.  0.
         13    1    1    2    0    0  0.20936276575E+02  0.10395175466E+03  0.42915272040E+03  0.44205923083E+03  0.10566000000E+00 0.  1.
        994    1    1    2    0    0 -0.11893066377E+02 -0.34944466492E+02  0.20372123213E+02  0.17631512746E+03  0.17120000000E+03 0.  0.
        998    1    1    2    0    0 -0.90432101977E+01 -0.69007288170E+02  0.10504751527E+04  0.10528256417E+04  0.10000000000E+02 0.  1.
</event>
<event>
 5    1  0.4040287E-008  0.3865704E+03  0.7957747E-01  0.3423039E+00
         13   -1    0    0    0    0  0.00000000000E+00  0.00000000000E+00  0.14999999963E+04  0.15000000000E+04  0.10566000000E+00 0.  1.
        994   -1    0    0    0    0 -0.00000000000E+00 -0.00000000000E+00  0.11368683772E-12  0.17120000000E+03  0.17120000000E+03 0.  0.
         13    1    1    2    0    0  0.76783843606E+01 -0.67438887788E+01  0.61139587251E+02  0.61987885231E+02  0.10566000000E+00 0.  1.
        994    1    1    2    0    0 -0.58694917579E+01  0.83141814284E+01  0.11914411584E+01  0.17150637329E+03  0.17120000000E+03 0.  0.
        998    1    1    2    0    0 -0.18088926027E+01 -0.15702926496E+01  0.14376689679E+04  0.14377057415E+04  0.10000000000E+02 0.  1.
</event>
<event>
 5    1  0.1556794E-008  0.3842382E+03  0.7957747E-01  0.3432909E+00
         13   -1    0    0    0    0  0.00000000000E+00  0.00000000000E+00  0.14999999963E+04  0.15000000000E+04  0.10566000000E+00 0.  1.
        994   -1    0    0    0    0 -0.00000000000E+00 -0.00000000000E+00  0.11368683772E-12  0.17120000000E+03  0.17120000000E+03 0.  0.
         13    1    1    2    0    0 -0.10462346149E+02  0.15563772489E+02  0.97490862131E+02  0.99278250710E+02  0.10566000000E+00 0.  1.
        994    1    1    2    0    0 -0.46977868237E+01  0.11553492261E+01  0.20859721903E+01  0.17128104190E+03  0.17120000000E+03 0.  0.
        998    1    1    2    0    0  0.15160132973E+02 -0.16719121715E+02  0.14004231620E+04  0.14006407074E+04  0.10000000000E+02 0.  1.
</event>
<event>
 5    1  0.1556794E-008  0.3724364E+03  0.7957747E-01  0.3484768E+00
         13   -1    0    0    0    0  0.00000000000E+00  0.00000000000E+00  0.14999999963E+04  0.15000000000E+04  0.10566000000E+00 0.  1.
        994   -1    0    0    0    0 -0.00000000000E+00 -0.00000000000E+00  0.11368683772E-12  0.17120000000E+03  0.17120000000E+03 0.  0.
         13    1    1    2    0    0 -0.25786147119E+02 -0.67767012496E+02  0.29617856114E+03  0.30492465399E+03  0.10566000000E+00 0.  1.
        994    1    1    2    0    0  0.13700449510E+02  0.54352025233E+02  0.18851988532E+02  0.18112615061E+03  0.17120000000E+03 0.  0.
        998    1    1    2    0    0  0.12085697609E+02  0.13414987263E+02  0.11849694466E+04  0.11851491954E+04  0.10000000000E+02 0.  1.
</event>
<event>
 5    1  0.1556794E-008  0.3854771E+03  0.7957747E-01  0.3427651E+00
         13   -1    0    0    0    0  0.00000000000E+00  0.00000000000E+00  0.14999999963E+04  0.15000000000E+04  0.10566000000E+00 0. -1.
        994   -1    0    0    0    0 -0.00000000000E+00 -0.00000000000E+00  0.11368683772E-12  0.17120000000E+03  0.17120000000E+03 0.  0.
         13    1    1    2    0    0  0.83094167158E+01 -0.65838461649E+01  0.41176148378E+02  0.42519169744E+02  0.10566000000E+00 0. -1.
        994    1    1    2    0    0 -0.36450857159E+01  0.16445566154E+01  0.14459605752E+01  0.17125280149E+03  0.17120000000E+03 0.  0.
        998    1    1    2    0    0 -0.46643309998E+01  0.49392895495E+01  0.14573778873E+04  0.14574280288E+04  0.10000000000E+02 0. -1.
</event>
<event>
 5    1  0.1556794E-008  0.2794462E+03  0.7957747E-01  0.4054641E+00
         13   -1    0    0    0    0  0.00000000000E+00  0.00000000000E+00  0.14999999963E+04  0.15000000000E+04  0.10566000000E+00 0. -1.
        994   -1    0    0    0    0 -0.00000000000E+00 -0.00000000000E+00  0.11368683772E-12  0.17120000000E+03  0.17120000000E+03 0.  0.
         13    1    1    2    0    0  0.16907786131E+03  0.56168034949E+02  0.49308204808E+03  0.52428245120E+03  0.10566000000E+00 0. -1.
        994    1    1    2    0    0 -0.17303629097E+03 -0.55450603476E+02  0.15273504320E+03  0.29266663773E+03  0.17120000000E+03 0.  0.
        998    1    1    2    0    0  0.39584296616E+01 -0.71743147289E+00  0.85418290500E+03  0.85425091108E+03  0.10000000000E+02 0.  0.
</event>
<event>
 5    1  0.1556794E-008  0.3743680E+03  0.7957747E-01  0.3476054E+00
         13   -1    0    0    0    0  0.00000000000E+00  0.00000000000E+00  0.14999999963E+04  0.15000000000E+04  0.10566000000E+00 0. -1.
        994   -1    0    0    0    0 -0.00000000000E+00 -0.00000000000E+00  0.11368683772E-12  0.17120000000E+03  0.17120000000E+03 0.  0.
         13    1    1    2    0    0 -0.18442472529E+02 -0.93924506262E+02  0.32165578746E+03  0.33559558168E+03  0.10566000000E+00 0. -1.
        994    1    1    2    0    0 -0.83242791976E+01  0.69467882000E+02  0.30857169546E+02  0.18750116044E+03  0.17120000000E+03 0.  0.
        998    1    1    2    0    0  0.26766751727E+02  0.24456624263E+02  0.11474870393E+04  0.11481032579E+04  0.10000000000E+02 0. -1.
</event>
<event>
 5    1  0.1777974E-008  0.3863282E+03  0.7957747E-01  0.3424058E+00
         13   -1    0    0    0    0  0.00000000000E+00  0.00000000000E+00  0.14999999963E+04  0.15000000000E+04  0.10566000000E+00 0.  1.
        994   -1    0    0    0    0 -0.00000000000E+00 -0.00000000000E+00  0.11368683772E-12  0.17120000000E+03  0.17120000000E+03 0.  0.
         13    1    1    2    0    0  0.35431625856E+01 -0.10426140153E+02  0.62716332054E+02  0.63675802861E+02  0.10566000000E+00 0.  1.
        994    1    1    2    0    0 -0.52010593684E+01  0.76302132613E+01  0.12513891489E+01  0.17145342559E+03  0.17120000000E+03 0.  0.
        998    1    1    2    0    0  0.16578967828E+01  0.27959268920E+01  0.14360322751E+04  0.14360707715E+04  0.10000000000E+02 0.  1.
</event>
<event>
 5    1  0.1556794E-008  0.3829778E+03  0.7957747E-01  0.3438294E+00
         13   -1    0    0    0    0  0.00000000000E+00  0.00000000000E+00  0.14999999963E+04  0.15000000000E+04  0.10566000000E+00 0. -1.
        994   -1    0    0    0    0 -0.00000000000E+00 -0.00000000000E+00  0.11368683772E-12  0.17120000000E+03  0.17120000000E+03 0.  0.
         13    1    1    2    0    0 -0.11676140111E+02 -0.19238724765E+02  0.11949129661E+03  0.12159211285E+03  0.10566000000E+00 0. -1.
        994    1    1    2    0    0 -0.53513238209E+01 -0.17386552292E+02  0.37337040262E+01  0.17220426654E+03  0.17120000000E+03 0.  0.
        998    1    1    2    0    0  0.17027463932E+02  0.36625277057E+02  0.13767749956E+04  0.13774036206E+04  0.10000000000E+02 0. -1.
</event>
<event>
 5    1  0.1556794E-008  0.3814938E+03  0.7957747E-01  0.3444680E+00
         13   -1    0    0    0    0  0.00000000000E+00  0.00000000000E+00  0.14999999963E+04  0.15000000000E+04  0.10566000000E+00 0. -1.
        994   -1    0    0    0    0 -0.00000000000E+00 -0.00000000000E+00  0.11368683772E-12  0.17120000000E+03  0.17120000000E+03 0.  0.
         13    1    1    2    0    0  0.19250086448E+03  0.62289155347E+02  0.10773948841E+04  0.10962282012E+04  0.10566000000E+00 0. -1.
        994    1    1    2    0    0 -0.19098966826E+03 -0.78626455067E+02  0.16143787752E+03  0.31309870827E+03  0.17120000000E+03 0.  0.
        998    1    1    2    0    0 -0.15111962193E+01  0.16337299719E+02  0.26116723471E+03  0.26187309056E+03  0.10000000000E+02 0. -1.
</event>
<event>
 5    1  0.1556794E-008  0.3836366E+03  0.7957747E-01  0.3435475E+00
         13   -1    0    0    0    0  0.00000000000E+00  0.00000000000E+00  0.14999999963E+04  0.15000000000E+04  0.10566000000E+00 0. -1.
        994   -1    0    0    0    0 -0.00000000000E+00 -0.00000000000E+00  0.11368683772E-12  0.17120000000E+03  0.17120000000E+03 0.  0.
         13    1    1    2    0    0 -0.17865189102E+02 -0.13145917112E+02  0.11409838831E+03  0.11623439034E+03  0.10566000000E+00 0. -1.
        994    1    1    2    0    0  0.56289881427E+01 -0.15758248681E+01  0.24214444410E+01  0.17131687636E+03  0.17120000000E+03 0.  0.
        998    1    1    2    0    0  0.12236200959E+02  0.14721741980E+02  0.13834801635E+04  0.13836487333E+04  0.10000000000E+02 0. -1.
</event>
<event>
 5    1  0.1556794E-008  0.3838986E+03  0.7957747E-01  0.3434357E+00
         13   -1    0    0    0    0  0.00000000000E+00  0.00000000000E+00  0.14999999963E+04  0.15000000000E+04  0.10566000000E+00 0. -1.
        994   -1    0    0    0    0 -0.00000000000E+00 -0.00000000000E+00  0.11368683772E-12  0.17120000000E+03  0.17120000000E+03 0.  0.
         13    1    1    2    0    0  0.18718125675E+02  0.12325870607E+02  0.11888008320E+03  0.12097429752E+03  0.10566000000E+00 0. -1.
        994    1    1    2    0    0 -0.10675190847E+02 -0.71742920654E+00  0.25558575199E+01  0.17155304373E+03  0.17120000000E+03 0.  0.
        998    1    1    2    0    0 -0.80429348279E+01 -0.11608441401E+02  0.13785640556E+04  0.13786726588E+04  0.10000000000E+02 0. -1.
</event>
<event>
 5    1  0.1556794E-008  0.3836991E+03  0.7957747E-01  0.3435208E+00
         13   -1    0    0    0    0  0.00000000000E+00  0.00000000000E+00  0.14999999963E+04  0.15000000000E+04  0.10566000000E+00 0.  1.
        994   -1    0    0    0    0 -0.00000000000E+00 -0.00000000000E+00  0.11368683772E-12  0.17120000000E+03  0.17120000000E+03 0.  0.
         13    1    1    2    0    0 -0.13737340639E+02  0.93137831401E+01  0.64292864075E+02  0.66400637190E+02  0.10566000000E+00 0.  1.
        994    1    1    2    0    0  0.36385864697E-01  0.36540133729E+01  0.23215126807E+01  0.17125473003E+03  0.17120000000E+03 0.  0.
        998    1    1    2    0    0  0.13700954774E+02 -0.12967796513E+02  0.14333856195E+04  0.14335446328E+04  0.10000000000E+02 0.  1.
</event>
<event>
 5    1  0.1556794E-008  0.3841572E+03  0.7957747E-01  0.3433254E+00
         13   -1    0    0    0    0  0.00000000000E+00  0.00000000000E+00  0.14999999963E+04  0.15000000000E+04  0.10566000000E+00 0. -1.
        994   -1    0    0    0    0 -0.00000000000E+00 -0.00000000000E+00  0.11368683772E-12  0.17120000000E+03  0.17120000000E+03 0.  0.
         13    1    1    2    0    0 -0.50945445123E+01  0.90293478847E+01  0.25591998398E+02  0.27612407592E+02  0.10566000000E+00 0. -1.
        994    1    1    2    0    0  0.38512917805E+00 -0.86086166522E+01  0.22940461770E+01  0.17143208350E+03  0.17120000000E+03 0.  0.
        998    1    1    2    0    0  0.47094153342E+01 -0.42073123247E+00  0.14721139517E+04  0.14721555089E+04  0.10000000000E+02 0. -1.
</event>
<event>
 5    1  0.1556794E-008  0.3822921E+03  0.7957747E-01  0.3441238E+00
         13   -1    0    0    0    0  0.00000000000E+00  0.00000000000E+00  0.14999999963E+04  0.15000000000E+04  0.10566000000E+00 0.  1.
        994   -1    0    0    0    0 -0.00000000000E+00 -0.00000000000E+00  0.11368683772E-12  0.17120000000E+03  0.17120000000E+03 0.  0.
         13    1    1    2    0    0  0.33964877775E+02 -0.14980281676E+02  0.20405118839E+03  0.20740038672E+03  0.10566000000E+00 0.  1.
        994    1    1    2    0    0 -0.30821058261E+02  0.18663258314E+02  0.72998701475E+01  0.17510277824E+03  0.17120000000E+03 0.  0.
        998    1    1    2    0    0 -0.31438195142E+01 -0.36829766378E+01  0.12886489377E+04  0.12886968350E+04  0.10000000000E+02 0.  0.
</event>
<event>
 5    1  0.1556794E-008  0.3765642E+03  0.7957747E-01  0.3466257E+00
         13   -1    0    0    0    0  0.00000000000E+00  0.00000000000E+00  0.14999999963E+04  0.15000000000E+04  0.10566000000E+00 0. -1.
        994   -1    0    0    0    0 -0.00000000000E+00 -0.00000000000E+00  0.11368683772E-12  0.17120000000E+03  0.17120000000E+03 0.  0.
         13    1    1    2    0    0  0.18876393242E+02  0.39373403737E+02  0.20224006129E+03  0.20690006452E+03  0.10566000000E+00 0. -1.
        994    1    1    2    0    0  0.79225492462E+01  0.72167586688E+01  0.62661063086E+01  0.17164950475E+03  0.17120000000E+03 0.  0.
        998    1    1    2    0    0 -0.26798942488E+02 -0.46590162406E+02  0.12914938287E+04  0.12926504307E+04  0.10000000000E+02 0. -1.
</event>
<event>
 5    1  0.1556794E-008  0.3844313E+03  0.7957747E-01  0.3432088E+00
         13   -1    0    0    0    0  0.00000000000E+00  0.00000000000E+00  0.14999999963E+04  0.15000000000E+04  0.10566000000E+00 0. -1.
        994   -1    0    0    0    0 -0.00000000000E+00 -0.00000000000E+00  0.11368683772E-12  0.17120000000E+03  0.17120000000E+03 0.  0.
         13    1    1    2    0    0 -0.21560319682E+01 -0.15491105967E+02  0.69118131050E+02  0.70865718382E+02  0.10566000000E+00 0. -1.
        994    1    1    2    0    0 -0.45916586464E+00 -0.30544758335E+01  0.19442059025E+01  0.17123889918E+03  0.17120000000E+03 0.  0.
        998    1    1    2    0    0  0.26151978329E+01  0.18545581800E+02  0.14289376593E+04  0.14290953824E+04  0.10000000000E+02 0. -1.
</event>
<event>
 5    1  0.1556794E-008  0.3854177E+03  0.7957747E-01  0.3427903E+00
         13   -1    0    0    0    0  0.00000000000E+00  0.00000000000E+00  0.14999999963E+04  0.15000000000E+04  0.10566000000E+00 0. -1.
        994   -1    0    0    0    0 -0.00000000000E+00 -0.00000000000E+00  0.11368683772E-12  0.17120000000E+03  0.17120000000E+03 0.  0.
         13    1    1    2    0    0  0.11984649093E+02 -0.18742381572E+01  0.51129425634E+02  0.52548776505E+02  0.10566000000E+00 0. -1.
        994    1    1    2    0    0 -0.10241836771E+02  0.30493032571E+01  0.17980339175E+01  0.17154260811E+03  0.17120000000E+03 0.  0.
        998    1    1    2    0    0 -0.17428123215E+01 -0.11750650999E+01  0.14470725367E+04  0.14471086154E+04  0.10000000000E+02 0.  0.
</event>
<event>
 5    1  0.1556794E-008  0.3849442E+03  0.7957747E-01  0.3429909E+00
         13   -1    0    0    0    0  0.00000000000E+00  0.00000000000E+00  0.14999999963E+04  0.15000000000E+04  0.10566000000E+00 0.  1.
        994   -1    0    0    0    0 -0.00000000000E+00 -0.00000000000E+00  0.11368683772E-12  0.17120000000E+03  0.17120000000E+03 0.  0.
         13    1    1    2    0    0  0.12053967870E+02  0.83666811326E+01  0.64971654450E+02  0.66608006580E+02  0.10566000000E+00 0.  1.
        994    1    1    2    0    0 -0.11753565597E+02  0.11870554729E+00  0.21124296590E+01  0.17161603292E+03  0.17120000000E+03 0.  0.
        998    1    1    2    0    0 -0.30040227335E+00 -0.84853866799E+01  0.14329159122E+04  0.14329759605E+04  0.10000000000E+02 0.  1.
</event>
<event>
 5    1  0.1556794E-008  0.3698679E+03  0.7957747E-01  0.3496498E+00
         13   -1    0    0    0    0  0.00000000000E+00  0.00000000000E+00  0.14999999963E+04  0.15000000000E+04  0.10566000000E+00 0. -1.
        994   -1    0    0    0    0 -0.00000000000E+00 -0.00000000000E+00  0.11368683772E-12  0.17120000000E+03  0.17120000000E+03 0.  0.
         13    1    1    2    0    0  0.52086038319E+01  0.10648860027E+02  0.14138241382E+01  0.11938921077E+02  0.10566000000E+00 0. -1.
        994    1    1    2    0    0 -0.77835153061E+01 -0.72458884388E+01  0.11264248252E+02  0.17189941622E+03  0.17120000000E+03 0.  0.
        998    1    1    2    0    0  0.25749114742E+01 -0.34029715883E+01  0.14873219239E+04  0.14873616627E+04  0.10000000000E+02 0. -1.
</event>
<event>
 5    1  0.1556794E-008  0.3862453E+03  0.7957747E-01  0.3424408E+00
         13   -1    0    0    0    0  0.00000000000E+00  0.00000000000E+00  0.14999999963E+04  0.15000000000E+04  0.10566000000E+00 0.  1.
        994   -1    0    0    0    0 -0.00000000000E+00 -0.00000000000E+00  0.11368683772E-12  0.17120000000E+03  0.17120000000E+03 0.  0.
         13    1    1    2    0    0  0.74055796690E+01 -0.70439989707E+01  0.56961365553E+02  0.57871140143E+02  0.10566000000E+00 0.  1.
        994    1    1    2    0    0  0.74525701416E+00 -0.51883880252E+01  0.11031403757E+01  0.17128377535E+03  0.17120000000E+03 0.  0.
        998    1    1    2    0    0 -0.81508366831E+01  0.12232386996E+02  0.14419354904E+04  0.14420450845E+04  0.10000000000E+02 0.  1.
</event>
<event>
 5    1  0.1556794E-008  0.3830043E+03  0.7957747E-01  0.3438181E+00
         13   -1    0    0    0    0  0.00000000000E+00  0.00000000000E+00  0.14999999963E+04  0.15000000000E+04  0.10566000000E+00 0.  1.
        994   -1    0    0    0    0 -0.00000000000E+00 -0.00000000000E+00  0.11368683772E-12  0.17120000000E+03  0.17120000000E+03 0.  0.
         13    1    1    2    0    0  0.63370143518E+01  0.87163946875E+01  0.21828111775E+02  0.24343601109E+02  0.10566000000E+00 0.  1.
        994    1    1    2    0    0  0.79429427520E+01 -0.31664785649E+01  0.28662938707E+01  0.17143737214E+03  0.17120000000E+03 0.  0.
        998    1    1    2    0    0 -0.14279957104E+02 -0.55499161227E+01  0.14753055906E+04  0.14754190268E+04  0.10000000000E+02 0.  1.
</event>
<event>
 5    1  0.1556794E-008  0.3790590E+03  0.7957747E-01  0.3455266E+00
         13   -1    0    0    0    0  0.00000000000E+00  0.00000000000E+00  0.14999999963E+04  0.15000000000E+04  0.10566000000E+00 0.  1.
        994   -1    0    0    0    0 -0.00000000000E+00 -0.00000000000E+00  0.11368683772E-12  0.17120000000E+03  0.17120000000E+03 0.  0.
         13    1    1    2    0    0 -0.12968476157E+02  0.13722400481E+02  0.36622988794E+02  0.41203642084E+02  0.10566000000E+00 0.  1.
        994    1    1    2    0    0  0.12890953328E+02 -0.80203760277E+01  0.53822269471E+01  0.17195613242E+03  0.17120000000E+03 0.  0.
        998    1    1    2    0    0  0.77522829219E-01 -0.57020244537E+01  0.14579947805E+04  0.14580402255E+04  0.10000000000E+02 0.  1.
</event>
<event>
 5    1  0.1556794E-008  0.3841534E+03  0.7957747E-01  0.3433271E+00
         13   -1    0    0    0    0  0.00000000000E+00  0.00000000000E+00  0.14999999963E+04  0.15000000000E+04  0.10566000000E+00 0. -1.
        994   -1    0    0    0    0 -0.00000000000E+00 -0.00000000000E+00  0.11368683772E-12  0.17120000000E+03  0.17120000000E+03 0.  0.
         13    1    1    2    0    0  0.76056235724E+01 -0.88713586232E+01  0.32248285187E+02  0.34300285353E+02  0.10566000000E+00 0. -1.
        994    1    1    2    0    0 -0.45678559507E+01  0.11686904188E+02  0.25704432434E+01  0.17167846754E+03  0.17120000000E+03 0.  0.
        998    1    1    2    0    0 -0.30377676217E+01 -0.28155455649E+01  0.14651812678E+04  0.14652212471E+04  0.10000000000E+02 0. -1.
</event>
<event>
 5    1  0.1556794E-008  0.3757973E+03  0.7957747E-01  0.3469665E+00
         13   -1    0    0    0    0  0.00000000000E+00  0.00000000000E+00  0.14999999963E+04  0.15000000000E+04  0.10566000000E+00 0.  1.
        994   -1    0    0    0    0 -0.00000000000E+00 -0.00000000000E+00  0.11368683772E-12  0.17120000000E+03  0.17120000000E+03 0.  0.
         13    1    1    2    0    0  0.15646450688E+02 -0.91762042055E+01  0.23609958172E+02  0.29773401413E+02  0.10566000000E+00 0.  1.
        994    1    1    2    0    0 -0.11647418641E+02  0.46678141881E+01  0.68038316671E+01  0.17179401321E+03  0.17120000000E+03 0.  0.
        998    1    1    2    0    0 -0.39990320473E+01  0.45083900173E+01  0.14695862064E+04  0.14696325854E+04  0.10000000000E+02 0.  1.
</event>
<event>
 5    1  0.1556794E-008  0.3834534E+03  0.7957747E-01  0.3436258E+00
         13   -1    0    0    0    0  0.00000000000E+00  0.00000000000E+00  0.14999999963E+04  0.15000000000E+04  0.10566000000E+00 0. -1.
        994   -1    0    0    0    0 -0.00000000000E+00 -0.00000000000E+00  0.11368683772E-12  0.17120000000E+03  0.17120000000E+03 0.  0.
         13    1    1    2    0    0  0.14354054722E+02 -0.29687403110E+00  0.41154742429E+02  0.43587280365E+02  0.10566000000E+00 0. -1.
        994    1    1    2    0    0 -0.15865162939E+02 -0.32038431331E+01  0.32662870631E+01  0.17199440874E+03  0.17120000000E+03 0.  0.
        998    1    1    2    0    0  0.15111082169E+01  0.35007171642E+01  0.14555789668E+04  0.14556183109E+04  0.10000000000E+02 0. -1.
</event>
<event>
 5    1  0.1556794E-008  0.3841400E+03  0.7957747E-01  0.3433328E+00
         13   -1    0    0    0    0  0.00000000000E+00  0.00000000000E+00  0.14999999963E+04  0.15000000000E+04  0.10566000000E+00 0. -1.
        994   -1    0    0    0    0 -0.00000000000E+00 -0.00000000000E+00  0.11368683772E-12  0.17120000000E+03  0.17120000000E+03 0.  0.
         13    1    1    2    0    0  0.12564863194E+02  0.19512762216E+02  0.12114044986E+03  0.12334359907E+03  0.10566000000E+00 0. -1.
        994    1    1    2    0    0 -0.14557544850E+02 -0.19143977357E+02  0.39675661399E+01  0.17292656118E+03  0.17120000000E+03 0.  0.
        998    1    1    2    0    0  0.19926816559E+01 -0.36878485864E+00  0.13748919803E+04  0.13749298397E+04  0.10000000000E+02 0. -1.
</event>
<event>
 5    1  0.1556794E-008  0.3840755E+03  0.7957747E-01  0.3433602E+00
         13   -1    0    0    0    0  0.00000000000E+00  0.00000000000E+00  0.14999999963E+04  0.15000000000E+04  0.10566000000E+00 0. -1.
        994   -1    0    0    0    0 -0.00000000000E+00 -0.00000000000E+00  0.11368683772E-12  0.17120000000E+03  0.17120000000E+03 0.  0.
         13    1    1    2    0    0  0.53200967710E+01 -0.13252956177E+02  0.47540867077E+02  0.49639595925E+02  0.10566000000E+00 0. -1.
        994    1    1    2    0    0 -0.13051945662E+02  0.87824499164E+01  0.29065744147E+01  0.17194584289E+03  0.17120000000E+03 0.  0.
        998    1    1    2    0    0  0.77318488910E+01  0.44705062606E+01  0.14495525548E+04  0.14496145612E+04  0.10000000000E+02 0. -1.
</event>
<event>
 5    1  0.1556794E-008  0.3839903E+03  0.7957747E-01  0.3433966E+00
         13   -1    0    0    0    0  0.00000000000E+00  0.00000000000E+00  0.14999999963E+04  0.15000000000E+04  0.10566000000E+00 0.  1.
        994   -1    0    0    0    0 -0.00000000000E+00 -0.00000000000E+00  0.11368683772E-12  0.17120000000E+03  0.17120000000E+03 0.  0.
         13    1    1    2    0    0 -0.18101777685E+02 -0.16645890912E+02  0.12884804952E+03  0.13117389629E+03  0.10566000000E+00 0.  1.
        994    1    1    2    0    0  0.22360665170E+02  0.15496330832E+02  0.45781279060E+01  0.17340857785E+03  0.17120000000E+03 0.  0.
        998    1    1    2    0    0 -0.42588874857E+01  0.11495600799E+01  0.13665738189E+04  0.13666175259E+04  0.10000000000E+02 0.  1.
</event>
<event>
 5    1  0.1556794E-008  0.3846499E+03  0.7957747E-01  0.3431158E+00
         13   -1    0    0    0    0  0.00000000000E+00  0.00000000000E+00  0.14999999963E+04  0.15000000000E+04  0.10566000000E+00 0. -1.
        994   -1    0    0    0    0 -0.00000000000E+00 -0.00000000000E+00  0.11368683772E-12  0.17120000000E+03  0.17120000000E+03 0.  0.
         13    1    1    2    0    0  0.10708430968E+02 -0.81174836288E+01  0.52455676429E+02  0.54149544670E+02  0.10566000000E+00 0. -1.
        994    1    1    2    0    0 -0.33263745512E+01 -0.49851656406E+01  0.19223247145E+01  0.17131565012E+03  0.17120000000E+03 0.  0.
        998    1    1    2    0    0 -0.73820564172E+01  0.13102649269E+02  0.14456219951E+04  0.14457348052E+04  0.10000000000E+02 0. -1.
</event>
<event>
 5    1  0.1556794E-008  0.3846389E+03  0.7957747E-01  0.3431205E+00
         13   -1    0    0    0    0  0.00000000000E+00  0.00000000000E+00  0.14999999963E+04  0.15000000000E+04  0.10566000000E+00 0.  1.
        994   -1    0    0    0    0 -0.00000000000E+00 -0.00000000000E+00  0.11368683772E-12  0.17120000000E+03  0.17120000000E+03 0.  0.
         13    1    1    2    0    0 -0.21200701673E+03  0.61470914757E+02  0.11490887755E+04  0.11700985744E+04  0.10566000000E+00 0.  1.
        994    1    1    2    0    0  0.22042887939E+03 -0.55196286695E+02  0.19593847495E+03  0.34545165639E+03  0.17120000000E+03 0.  0.
        998    1    1    2    0    0 -0.84218626580E+01 -0.62746280617E+01  0.15497274579E+03  0.15564976925E+03  0.10000000000E+02 0.  0.
</event>
<event>
 5    1  0.2168697E-008  0.3861729E+03  0.7957747E-01  0.3424713E+00
         13   -1    0    0    0    0  0.00000000000E+00  0.00000000000E+00  0.14999999963E+04  0.15000000000E+04  0.10566000000E+00 0.  1.
        994   -1    0    0    0    0 -0.00000000000E+00 -0.00000000000E+00  0.11368683772E-12  0.17120000000E+03  0.17120000000E+03 0.  0.
         13    1    1    2    0    0 -0.10942887866E+02 -0.44384560220E+01  0.66264775913E+02  0.67308828377E+02  0.10566000000E+00 0.  1.
        994    1    1    2    0    0  0.11271168945E+02 -0.80053528659E+00  0.14673437740E+01  0.17157876676E+03  0.17120000000E+03 0.  0.
        998    1    1    2    0    0 -0.32828107913E+00  0.52389913086E+01  0.14322678766E+04  0.14323124049E+04  0.10000000000E+02 0.  1.
</event>
<event>
 5    1  0.1556794E-008  0.3949802E+03  0.7957747E-01  0.3388417E+00
         13   -1    0    0    0    0  0.00000000000E+00  0.00000000000E+00  0.14999999963E+04  0.15000000000E+04  0.10566000000E+00 0. -1.
        994   -1    0    0    0    0 -0.00000000000E+00 -0.00000000000E+00  0.11368683772E-12  0.17120000000E+03  0.17120000000E+03 0.  0.
         13    1    1    2    0    0  0.78892514192E+02 -0.61188342993E+02  0.20922438615E+03  0.23182514324E+03  0.10566000000E+00 0. -1.
        994    1    1    2    0    0 -0.41839489115E+02  0.19707124101E+02  0.33062261154E+02  0.18039253505E+03  0.17120000000E+03 0.  0.
        998    1    1    2    0    0 -0.37053025077E+02  0.41481218892E+02  0.12577133490E+04  0.12589823217E+04  0.10000000000E+02 0. -1.
</event>
<event>
 5    1  0.1556794E-008  0.3850801E+03  0.7957747E-01  0.3429333E+00
         13   -1    0    0    0    0  0.00000000000E+00  0.00000000000E+00  0.14999999963E+04  0.15000000000E+04  0.10566000000E+00 0. -1.
        994   -1    0    0    0    0 -0.00000000000E+00 -0.00000000000E+00  0.11368683772E-12  0.17120000000E+03  0.17120000000E+03 0.  0.
         13    1    1    2    0    0 -0.11458597631E+02  0.27742554249E+01  0.43952784616E+02  0.45506641190E+02  0.10566000000E+00 0. -1.
        994    1    1    2    0    0  0.60269100676E+01 -0.30730057197E+01  0.17408640436E+01  0.17134245713E+03  0.17120000000E+03 0.  0.
        998    1    1    2    0    0  0.54316875633E+01  0.29875029478E+00  0.14543063476E+04  0.14543509017E+04  0.10000000000E+02 0. -1.
</event>
<event>
 5    1  0.1556794E-008  0.3800695E+03  0.7957747E-01  0.3450856E+00
         13   -1    0    0    0    0  0.00000000000E+00  0.00000000000E+00  0.14999999963E+04  0.15000000000E+04  0.10566000000E+00 0.  1.
        994   -1    0    0    0    0 -0.00000000000E+00 -0.00000000000E+00  0.11368683772E-12  0.17120000000E+03  0.17120000000E+03 0.  0.
         13    1    1    2    0    0  0.26827415140E+02  0.43410210010E+02  0.26138837026E+03  0.26632320178E+03  0.10566000000E+00 0.  1.
        994    1    1    2    0    0 -0.24101510801E+02 -0.46119337109E+02  0.13201846828E+02  0.17942019072E+03  0.17120000000E+03 0.  0.
        998    1    1    2    0    0 -0.27259043394E+01  0.27091270996E+01  0.12254097792E+04  0.12254566075E+04  0.10000000000E+02 0.  1.
</event>
<event>
 5    1  0.1556794E-008  0.3723320E+03  0.7957747E-01  0.3485241E+00
         13   -1    0    0    0    0  0.00000000000E+00  0.00000000000E+00  0.14999999963E+04  0.15000000000E+04  0.10566000000E+00 0. -1.
        994   -1    0    0    0    0 -0.00000000000E+00 -0.00000000000E+00  0.11368683772E-12  0.17120000000E+03  0.17120000000E+03 0.  0.
         13    1    1    2    0    0 -0.68047526446E+00 -0.23179790353E+02  0.30555568061E+02  0.38359087984E+02  0.10566000000E+00 0. -1.
        994    1    1    2    0    0 -0.64790212892E+01  0.99387663108E+01  0.85381507049E+01  0.17182286463E+03  0.17120000000E+03 0.  0.
        998    1    1    2    0    0  0.71594965537E+01  0.13241024042E+02  0.14609062775E+04  0.14610180474E+04  0.10000000000E+02 0. -1.
</event>
<event>
 5    1  0.1556794E-008  0.3828751E+03  0.7957747E-01  0.3438734E+00
         13   -1    0    0    0    0  0.00000000000E+00  0.00000000000E+00  0.14999999963E+04  0.15000000000E+04  0.10566000000E+00 0. -1.
        994   -1    0    0    0    0 -0.00000000000E+00 -0.00000000000E+00  0.11368683772E-12  0.17120000000E+03  0.17120000000E+03 0.  0.
         13    1    1    2    0    0 -0.11603116516E+02  0.83637871814E+01  0.36199126495E+02  0.38922656281E+02  0.10566000000E+00 0. -1.
        994    1    1    2    0    0  0.14406494485E+02 -0.81169513147E+01  0.35947615524E+01  0.17203428232E+03  0.17120000000E+03 0.  0.
        998    1    1    2    0    0 -0.28033779698E+01 -0.24683586673E+00  0.14602061082E+04  0.14602430614E+04  0.10000000000E+02 0. -1.
</event>
<event>
 5    1  0.1556794E-008  0.3856373E+03  0.7957747E-01  0.3426974E+00
         13   -1    0    0    0    0  0.00000000000E+00  0.00000000000E+00  0.14999999963E+04  0.15000000000E+04  0.10566000000E+00 0. -1.
        994   -1    0    0    0    0 -0.00000000000E+00 -0.00000000000E+00  0.11368683772E-12  0.17120000000E+03  0.17120000000E+03 0.  0.
         13    1    1    2    0    0 -0.11719511378E+02  0.23163906136E+01  0.57345653439E+02  0.58576853320E+02  0.10566000000E+00 0. -1.
        994    1    1    2    0    0  0.23197995730E+01  0.73623054758E+01  0.15096250111E+01  0.17138058227E+03  0.17120000000E+03 0.  0.
        998    1    1    2    0    0  0.93997118050E+01 -0.96786960895E+01  0.14411447178E+04  0.14412425644E+04  0.10000000000E+02 0. -1.
</event>
<event>
 5    1  0.2212506E-008  0.3862196E+03  0.7957747E-01  0.3424516E+00
         13   -1    0    0    0    0  0.00000000000E+00  0.00000000000E+00  0.14999999963E+04  0.15000000000E+04  0.10566000000E+00 0.  1.
        994   -1    0    0    0    0 -0.00000000000E+00 -0.00000000000E+00  0.11368683772E-12  0.17120000000E+03  0.17120000000E+03 0.  0.
         13    1    1    2    0    0 -0.63495710140E+00 -0.10801245924E+02  0.55139269874E+02  0.56190927473E+02  0.10566000000E+00 0.  1.
        994    1    1    2    0    0  0.51493303379E+00  0.14168354064E+02  0.16845425281E+01  0.17179431043E+03  0.17120000000E+03 0.  0.
        998    1    1    2    0    0  0.12002406761E+00 -0.33671081402E+01  0.14431761839E+04  0.14432147621E+04  0.10000000000E+02 0.  1.
</event>
<event>
 5    1  0.1556794E-008  0.3941313E+03  0.7957747E-01  0.3391845E+00
         13   -1    0    0    0    0  0.00000000000E+00  0.00000000000E+00  0.14999999963E+04  0.15000000000E+04  0.10566000000E+00 0.  1.
        994   -1    0    0    0    0 -0.00000000000E+00 -0.00000000000E+00  0.11368683772E-12  0.17120000000E+03  0.17120000000E+03 0.  0.
         13    1    1    2    0    0 -0.29336770047E+02  0.92680001732E+01  0.98640735093E+01  0.32308714216E+02  0.10566000000E+00 0.  1.
        994    1    1    2    0    0  0.86015089989E+01 -0.39991648203E+01  0.24662027742E+02  0.17322711938E+03  0.17120000000E+03 0.  0.
        998    1    1    2    0    0  0.20735261049E+02 -0.52688353529E+01  0.14654738950E+04  0.14656641664E+04  0.10000000000E+02 0.  1.
</event>
<event>
 5    1  0.1556794E-008  0.3784479E+03  0.7957747E-01  0.3457945E+00
         13   -1    0    0    0    0  0.00000000000E+00  0.00000000000E+00  0.14999999963E+04  0.15000000000E+04  0.10566000000E+00 0.  1.
        994   -1    0    0    0    0 -0.00000000000E+00 -0.00000000000E+00  0.11368683772E-12  0.17120000000E+03  0.17120000000E+03 0.  0.
         13    1    1    2    0    0 -0.18320193387E+01  0.32883931247E+02  0.11741729701E+03  0.12194893206E+03  0.10566000000E+00 0.  1.
        994    1    1    2    0    0  0.49193861926E+01 -0.45171410905E+01  0.50686032076E+01  0.17140517980E+03  0.17120000000E+03 0.  0.
        998    1    1    2    0    0 -0.30873668539E+01 -0.28366790156E+02  0.13775140961E+04  0.13778458881E+04  0.10000000000E+02 0.  1.
</event>
<event>
 5    1  0.1556794E-008  0.3817462E+03  0.7957747E-01  0.3443590E+00
         13   -1    0    0    0    0  0.00000000000E+00  0.00000000000E+00  0.14999999963E+04  0.15000000000E+04  0.10566000000E+00 0.  1.
        994   -1    0    0    0    0 -0.00000000000E+00 -0.00000000000E+00  0.11368683772E-12  0.17120000000E+03  0.17120000000E+03 0.  0.
         13    1    1    2    0    0  0.11281941705E+02 -0.44753721451E+01  0.21294385990E+02  0.24510675291E+02  0.10566000000E+00 0.  1.
        994    1    1    2    0    0 -0.69693340027E+01  0.76755202530E+01  0.36116074962E+01  0.17155165093E+03  0.17120000000E+03 0.  0.
        998    1    1    2    0    0 -0.43126077027E+01 -0.32001481079E+01  0.14750940028E+04  0.14751376738E+04  0.10000000000E+02 0.  1.
</event>
<event>
 5    1  0.1556794E-008  0.3840898E+03  0.7957747E-01  0.3433542E+00
         13   -1    0    0    0    0  0.00000000000E+00  0.00000000000E+00  0.14999999963E+04  0.15000000000E+04  0.10566000000E+00 0. -1.
        994   -1    0    0    0    0 -0.00000000000E+00 -0.00000000000E+00  0.11368683772E-12  0.17120000000E+03  0.17120000000E+03 0.  0.
         13    1    1    2    0    0  0.17936492139E+02  0.83697392786E+01  0.85335848862E+02  0.87601304505E+02  0.10566000000E+00 0. -1.
        994    1    1    2    0    0 -0.22484877798E+02 -0.16200462888E+02  0.46200759667E+01  0.17349008568E+03  0.17120000000E+03 0.  0.
        998    1    1    2    0    0  0.45483856581E+01  0.78307236094E+01  0.14100440714E+04  0.14101086098E+04  0.10000000000E+02 0. -1.
</event>
<event>
 5    1  0.1556794E-008  0.3811860E+03  0.7957747E-01  0.3446011E+00
         13   -1    0    0    0    0  0.00000000000E+00  0.00000000000E+00  0.14999999963E+04  0.15000000000E+04  0.10566000000E+00 0. -1.
        994   -1    0    0    0    0 -0.00000000000E+00 -0.00000000000E+00  0.11368683772E-12  0.17120000000E+03  0.17120000000E+03 0.  0.
         13    1    1    2    0    0 -0.82917330545E+01 -0.75864160505E+01  0.16310441933E+02  0.19807781946E+02  0.10566000000E+00 0. -1.
        994    1    1    2    0    0  0.79950651106E+01  0.57559116688E+01  0.38589094829E+01  0.17152662408E+03  0.17120000000E+03 0.  0.
        998    1    1    2    0    0  0.29666794391E+00  0.18305043816E+01  0.14798306449E+04  0.14798655940E+04  0.10000000000E+02 0. -1.
</event>
<event>
 5    1  0.1556794E-008  0.3832025E+03  0.7957747E-01  0.3437332E+00
         13   -1    0    0    0    0  0.00000000000E+00  0.00000000000E+00  0.14999999963E+04  0.15000000000E+04  0.10566000000E+00 0.  1.
        994   -1    0    0    0    0 -0.00000000000E+00 -0.00000000000E+00  0.11368683772E-12  0.17120000000E+03  0.17120000000E+03 0.  0.
         13    1    1    2    0    0  0.12870203332E+02  0.10760492695E+02  0.66942590553E+02  0.69012693983E+02  0.10566000000E+00 0.  1.
        994    1    1    2    0    0  0.34725852131E+01  0.34326617936E+02  0.64728758106E+01  0.17476187704E+03  0.17120000000E+03 0.  0.
        998    1    1    2    0    0 -0.16342788545E+02 -0.45087110631E+02  0.14265845299E+04  0.14274254290E+04  0.10000000000E+02 0.  1.
</event>
<event>
 5    1  0.1556794E-008  0.3804157E+03  0.7957747E-01  0.3449350E+00
         13   -1    0    0    0    0  0.00000000000E+00  0.00000000000E+00  0.14999999963E+04  0.15000000000E+04  0.10566000000E+00 0. -1.
        994   -1    0    0    0    0 -0.00000000000E+00 -0.00000000000E+00  0.11368683772E-12  0.17120000000E+03  0.17120000000E+03 0.  0.
         13    1    1    2    0    0 -0.20342844145E+02  0.22336800292E+02  0.11026324872E+03  0.11432742076E+03  0.10566000000E+00 0. -1.
        994    1    1    2    0    0  0.11747961616E+02 -0.24325574652E+02  0.63633869747E+01  0.17343494711E+03  0.17120000000E+03 0.  0.
        998    1    1    2    0    0  0.85948825291E+01  0.19887743599E+01  0.13833733606E+04  0.13834376321E+04  0.10000000000E+02 0. -1.
</event>
<event>
 5    1  0.1556794E-008  0.3846179E+03  0.7957747E-01  0.3431295E+00
         13   -1    0    0    0    0  0.00000000000E+00  0.00000000000E+00  0.14999999963E+04  0.15000000000E+04  0.10566000000E+00 0. -1.
        994   -1    0    0    0    0 -0.00000000000E+00 -0.00000000000E+00  0.11368683772E-12  0.17120000000E+03  0.17120000000E+03 0.  0.
         13    1    1    2    0    0  0.45225406640E+01 -0.11714821598E+02  0.41893550026E+02  0.43735238847E+02  0.10566000000E+00 0. -1.
        994    1    1    2    0    0 -0.77333982223E+01  0.12065601858E+02  0.24965466337E+01  0.17181692856E+03  0.17120000000E+03 0.  0.
        998    1    1    2    0    0  0.32108575583E+01 -0.35078026038E+00  0.14556098996E+04  0.14556478326E+04  0.10000000000E+02 0. -1.
</event>
<event>
 5    1  0.1556794E-008  0.3842985E+03  0.7957747E-01  0.3432653E+00
         13   -1    0    0    0    0  0.00000000000E+00  0.00000000000E+00  0.14999999963E+04  0.15000000000E+04  0.10566000000E+00 0. -1.
        994   -1    0    0    0    0 -0.00000000000E+00 -0.00000000000E+00  0.11368683772E-12  0.17120000000E+03  0.17120000000E+03 0.  0.
         13    1    1    2    0    0 -0.15228944194E+02 -0.16885743666E+02  0.12375496376E+03  0.12582667165E+03  0.10566000000E+00 0. -1.
        994    1    1    2    0    0  0.89606567096E+01  0.19665110247E+02  0.35196846307E+01  0.17259443244E+03  0.17120000000E+03 0.  0.
        998    1    1    2    0    0  0.62682874839E+01 -0.27793665817E+01  0.13727253479E+04  0.13727788959E+04  0.10000000000E+02 0. -1.
</event>
<event>
 5    1  0.1556794E-008  0.3743767E+03  0.7957747E-01  0.3476015E+00
         13   -1    0    0    0    0  0.00000000000E+00  0.00000000000E+00  0.14999999963E+04  0.15000000000E+04  0.10566000000E+00 0. -1.
        994   -1    0    0    0    0 -0.00000000000E+00 -0.00000000000E+00  0.11368683772E-12  0.17120000000E+03  0.17120000000E+03 0.  0.
         13    1    1    2    0    0 -0.27437504362E+02  0.12541753616E+02  0.29579348120E+02  0.42249984954E+02  0.10566000000E+00 0. -1.
        994    1    1    2    0    0  0.15926305594E+02  0.54409161811E+01  0.14278298988E+02  0.17261680278E+03  0.17120000000E+03 0.  0.
        998    1    1    2    0    0  0.11511198768E+02 -0.17982669797E+02  0.14561423492E+04  0.14563332123E+04  0.10000000000E+02 0. -1.
</event>
<event>
 5    1  0.1556794E-008  0.3794849E+03  0.7957747E-01  0.3453404E+00
         13   -1    0    0    0    0  0.00000000000E+00  0.00000000000E+00  0.14999999963E+04  0.15000000000E+04  0.10566000000E+00 0.  1.
        994   -1    0    0    0    0 -0.00000000000E+00 -0.00000000000E+00  0.11368683772E-12  0.17120000000E+03  0.17120000000E+03 0.  0.
         13    1    1    2    0    0  0.91579709020E+01  0.73558932534E+01  0.13657699388E+02  0.18014480654E+02  0.10566000000E+00 0.  1.
        994    1    1    2    0    0 -0.91803519217E+01 -0.85487206470E+01  0.49204781010E+01  0.17172946920E+03  0.17120000000E+03 0.  0.
        998    1    1    2    0    0  0.22381019675E-01  0.11928273936E+01  0.14814218188E+04  0.14814560501E+04  0.10000000000E+02 0.  1.
</event>
<event>
 5    1  0.1556794E-008  0.3804251E+03  0.7957747E-01  0.3449310E+00
         13   -1    0    0    0    0  0.00000000000E+00  0.00000000000E+00  0.14999999963E+04  0.15000000000E+04  0.10566000000E+00 0.  1.
        994   -1    0    0    0    0 -0.00000000000E+00 -0.00000000000E+00  0.11368683772E-12  0.17120000000E+03  0.17120000000E+03 0.  0.
         13    1    1    2    0    0  0.11598675259E+02  0.28922568434E+02  0.16473070202E+03  0.16765219827E+03  0.10566000000E+00 0.  1.
        994    1    1    2    0    0  0.44651511014E+02  0.41111593195E+01  0.10660091185E+02  0.17729561927E+03  0.17120000000E+03 0.  0.
        998    1    1    2    0    0 -0.56250186273E+02 -0.33033727754E+02  0.13246092031E+04  0.13262521825E+04  0.10000000000E+02 0.  1.
</event>
<event>
 5    1  0.1556794E-008  0.3805347E+03  0.7957747E-01  0.3448834E+00
         13   -1    0    0    0    0  0.00000000000E+00  0.00000000000E+00  0.14999999963E+04  0.15000000000E+04  0.10566000000E+00 0. -1.
        994   -1    0    0    0    0 -0.00000000000E+00 -0.00000000000E+00  0.11368683772E-12  0.17120000000E+03  0.17120000000E+03 0.  0.
         13    1    1    2    0    0  0.24381744126E+02  0.66937794918E+01  0.76358062776E+02  0.80435322125E+02  0.10566000000E+00 0. -1.
        994    1    1    2    0    0 -0.27974420768E+02 -0.97320880278E+01  0.67965034816E+01  0.17387614619E+03  0.17120000000E+03 0.  0.
        998    1    1    2    0    0  0.35926766416E+01  0.30383085360E+01  0.14168454300E+04  0.14168885317E+04  0.10000000000E+02 0. -1.
</event>
<event>
 5    1  0.1556794E-008  0.3770149E+03  0.7957747E-01  0.3464260E+00
         13   -1    0    0    0    0  0.00000000000E+00  0.00000000000E+00  0.14999999963E+04  0.15000000000E+04  0.10566000000E+00 0.  1.
        994   -1    0    0    0    0 -0.00000000000E+00 -0.00000000000E+00  0.11368683772E-12  0.17120000000E+03  0.17120000000E+03 0.  0.
         13    1    1    2    0    0 -0.13076507534E+01 -0.17651929311E+02  0.25201397230E+02  0.30796463194E+02  0.10566000000E+00 0.  1.
        994    1    1    2    0    0 -0.44275288826E+01  0.15290635606E+02  0.65036690290E+01  0.17206145489E+03  0.17120000000E+03 0.  0.
        998    1    1    2    0    0  0.57351796360E+01  0.23612937042E+01  0.14682949300E+04  0.14683420819E+04  0.10000000000E+02 0.  1.
</event>
<event>
 5    1  0.3298138E-008  0.3859200E+03  0.7957747E-01  0.3425780E+00
         13   -1    0    0    0    0  0.00000000000E+00  0.00000000000E+00  0.14999999963E+04  0.15000000000E+04  0.10566000000E+00 0. -1.
        994   -1    0    0    0    0 -0.00000000000E+00 -0.00000000000E+00  0.11368683772E-12  0.17120000000E+03  0.17120000000E+03 0.  0.
         13    1    1    2    0    0 -0.20663588508E+01  0.10666561966E+02  0.52829934077E+02  0.53935688386E+02  0.10566000000E+00 0. -1.
        994    1    1    2    0    0  0.62650099794E+01 -0.34832133113E+00  0.13031485308E+01  0.17131990507E+03  0.17120000000E+03 0.  0.
        998    1    1    2    0    0 -0.41986511286E+01 -0.10318240635E+02  0.14458669137E+04  0.14459444065E+04  0.10000000000E+02 0. -1.
</event>
<event>
 5    1  0.2614224E-008  0.3863150E+03  0.7957747E-01  0.3424114E+00
         13   -1    0    0    0    0  0.00000000000E+00  0.00000000000E+00  0.14999999963E+04  0.15000000000E+04  0.10566000000E+00 0.  1.
        994   -1    0    0    0    0 -0.00000000000E+00 -0.00000000000E+00  0.11368683772E-12  0.17120000000E+03  0.17120000000E+03 0.  0.
         13    1    1    2    0    0  0.98764264917E+01  0.49133567245E+01  0.62545708208E+02  0.63511114412E+02  0.10566000000E+00 0.  1.
        994    1    1    2    0    0 -0.91089481173E+01 -0.15119499780E+01  0.12578864764E+01  0.17145343743E+03  0.17120000000E+03 0.  0.
        998    1    1    2    0    0 -0.76747837446E+00 -0.34014067466E+01  0.14361964016E+04  0.14362354482E+04  0.10000000000E+02 0.  1.
</event>
<event>
 5    1  0.1556794E-008  0.4173157E+03  0.7957747E-01  0.3303206E+00
         13   -1    0    0    0    0  0.00000000000E+00  0.00000000000E+00  0.14999999963E+04  0.15000000000E+04  0.10566000000E+00 0.  1.
        994   -1    0    0    0    0 -0.00000000000E+00 -0.00000000000E+00  0.11368683772E-12  0.17120000000E+03  0.17120000000E+03 0.  0.
         13    1    1    2    0    0  0.21217494835E+02  0.39872796871E+02  0.11469570213E+02  0.46600259895E+02  0.10566000000E+00 0.  1.
        994    1    1    2    0    0 -0.18030233677E+02 -0.41497464211E+02  0.47240831700E+02  0.18327101528E+03  0.17120000000E+03 0.  0.
        998    1    1    2    0    0 -0.31872611584E+01  0.16246673407E+01  0.14412895944E+04  0.14413287248E+04  0.10000000000E+02 0.  0.
</event>
<event>
 5    1  0.1556794E-008  0.4344948E+03  0.7957747E-01  0.3243540E+00
         13   -1    0    0    0    0  0.00000000000E+00  0.00000000000E+00  0.14999999963E+04  0.15000000000E+04  0.10566000000E+00 0. -1.
        994   -1    0    0    0    0 -0.00000000000E+00 -0.00000000000E+00  0.11368683772E-12  0.17120000000E+03  0.17120000000E+03 0.  0.
         13    1    1    2    0    0  0.10923373349E+03 -0.29405366891E+02  0.11383645577E+03  0.16048499606E+03  0.10566000000E+00 0. -1.
        994    1    1    2    0    0 -0.69943050811E+02  0.72718876485E+02  0.98692436065E+02  0.22187767416E+03  0.17120000000E+03 0.  0.
        998    1    1    2    0    0 -0.39290682680E+02 -0.43313509594E+02  0.12874711044E+04  0.12888373298E+04  0.10000000000E+02 0. -1.
</event>
<event>
 5    1  0.1556794E-008  0.3827401E+03  0.7957747E-01  0.3439314E+00
         13   -1    0    0    0    0  0.00000000000E+00  0.00000000000E+00  0.14999999963E+04  0.15000000000E+04  0.10566000000E+00 0.  1.
        994   -1    0    0    0    0 -0.00000000000E+00 -0.00000000000E+00  0.11368683772E-12  0.17120000000E+03  0.17120000000E+03 0.  0.
         13    1    1    2    0    0  0.10978817121E+02  0.73875400679E+01  0.30066192355E+02  0.32849615833E+02  0.10566000000E+00 0.  1.
        994    1    1    2    0    0 -0.16659358556E+02 -0.37285273692E+01  0.37224054199E+01  0.17208931532E+03  0.17120000000E+03 0.  0.
        998    1    1    2    0    0  0.56805414356E+01 -0.36590126986E+01  0.14662113985E+04  0.14662610689E+04  0.10000000000E+02 0.  1.
</event>
<event>
 5    1  0.1556794E-008  0.3831399E+03  0.7957747E-01  0.3437600E+00
         13   -1    0    0    0    0  0.00000000000E+00  0.00000000000E+00  0.14999999963E+04  0.15000000000E+04  0.10566000000E+00 0.  1.
        994   -1    0    0    0    0 -0.00000000000E+00 -0.00000000000E+00  0.11368683772E-12  0.17120000000E+03  0.17120000000E+03 0.  0.
         13    1    1    2    0    0 -0.17521327351E+02 -0.77070434739E+01  0.68089120026E+02  0.70728600023E+02  0.10566000000E+00 0.  1.
        994    1    1    2    0    0  0.17609689243E+02  0.99665675539E+01  0.39122964122E+01  0.17243601621E+03  0.17120000000E+03 0.  0.
        998    1    1    2    0    0 -0.88361891773E-01 -0.22595240800E+01  0.14279985798E+04  0.14280353838E+04  0.10000000000E+02 0.  0.
</event>
<event>
 5    1  0.1556794E-008  0.4127484E+03  0.7957747E-01  0.3319889E+00
         13   -1    0    0    0    0  0.00000000000E+00  0.00000000000E+00  0.14999999963E+04  0.15000000000E+04  0.10566000000E+00 0. -1.
        994   -1    0    0    0    0 -0.00000000000E+00 -0.00000000000E+00  0.11368683772E-12  0.17120000000E+03  0.17120000000E+03 0.  0.
         13    1    1    2    0    0 -0.57935074807E+02 -0.96592749718E+02  0.14860178009E+03  0.18646482886E+03  0.10566000000E+00 0. -1.
        994    1    1    2    0    0  0.58725743630E+02  0.99831978912E+02  0.93619512577E+02  0.22691229608E+03  0.17120000000E+03 0.  0.
        998    1    1    2    0    0 -0.79066882292E+00 -0.32392291943E+01  0.12577787036E+04  0.12578228751E+04  0.10000000000E+02 0.  0.
</event>
<event>
 5    1  0.1556794E-008  0.3831720E+03  0.7957747E-01  0.3437462E+00
         13   -1    0    0    0    0  0.00000000000E+00  0.00000000000E+00  0.14999999963E+04  0.15000000000E+04  0.10566000000E+00 0.  1.
        994   -1    0    0    0    0 -0.00000000000E+00 -0.00000000000E+00  0.11368683772E-12  0.17120000000E+03  0.17120000000E+03 0.  0.
         13    1    1    2    0    0  0.10482886044E+02  0.30284148914E+02  0.17949265951E+03  0.18233114533E+03  0.10566000000E+00 0.  1.
        994    1    1    2    0    0 -0.11796467484E+02 -0.30128797879E+02  0.60115762160E+01  0.17433439177E+03  0.17120000000E+03 0.  0.
        998    1    1    2    0    0  0.13135814408E+01 -0.15535103499E+00  0.13144957605E+04  0.13145344629E+04  0.10000000000E+02 0.  1.
</event>
<event>
 5    1  0.1556794E-008  0.3796532E+03  0.7957747E-01  0.3452670E+00
         13   -1    0    0    0    0  0.00000000000E+00  0.00000000000E+00  0.14999999963E+04  0.15000000000E+04  0.10566000000E+00 0. -1.
        994   -1    0    0    0    0 -0.00000000000E+00 -0.00000000000E+00  0.11368683772E-12  0.17120000000E+03  0.17120000000E+03 0.  0.
         13    1    1    2    0    0 -0.64296537623E+00 -0.20800030036E+02  0.46066066751E+02  0.50548474991E+02  0.10566000000E+00 0. -1.
        994    1    1    2    0    0 -0.81901537599E+01  0.29077602925E+02  0.73685408393E+01  0.17400092242E+03  0.17120000000E+03 0.  0.
        998    1    1    2    0    0  0.88331191362E+01 -0.82775728889E+01  0.14465653887E+04  0.14466506026E+04  0.10000000000E+02 0. -1.
</event>
<event>
 5    1  0.1556794E-008  0.2773099E+03  0.7957747E-01  0.4072626E+00
         13   -1    0    0    0    0  0.00000000000E+00  0.00000000000E+00  0.14999999963E+04  0.15000000000E+04  0.10566000000E+00 0.  1.
        994   -1    0    0    0    0 -0.00000000000E+00 -0.00000000000E+00  0.11368683772E-12  0.17120000000E+03  0.17120000000E+03 0.  0.
         13    1    1    2    0    0  0.37652067591E+02  0.16635884818E+03  0.48564503084E+03  0.51472716239E+03  0.10566000000E+00 0.  1.
        994    1    1    2    0    0 -0.36137096910E+02 -0.17656755554E+03  0.14657771702E+03  0.28857660780E+03  0.17120000000E+03 0.  0.
        998    1    1    2    0    0 -0.15149706804E+01  0.10208707368E+02  0.86777724841E+03  0.86789622980E+03  0.10000000000E+02 0.  1.
</event>
<event>
 5    1  0.1556794E-008  0.3743678E+03  0.7957747E-01  0.3476055E+00
         13   -1    0    0    0    0  0.00000000000E+00  0.00000000000E+00  0.14999999963E+04  0.15000000000E+04  0.10566000000E+00 0. -1.
        994   -1    0    0    0    0 -0.00000000000E+00 -0.00000000000E+00  0.11368683772E-12  0.17120000000E+03  0.17120000000E+03 0.  0.
         13    1    1    2    0    0  0.10047939874E+02  0.34048429061E+02  0.82498580208E+02  0.89812490878E+02  0.10566000000E+00 0. -1.
        994    1    1    2    0    0 -0.19727021977E+02 -0.33214556152E+02  0.12104402425E+02  0.17592134235E+03  0.17120000000E+03 0.  0.
        998    1    1    2    0    0  0.96790821032E+01 -0.83387290920E+00  0.14053970136E+04  0.14054661668E+04  0.10000000000E+02 0.  0.
</event>
<event>
 5    1  0.1556794E-008  0.3946301E+03  0.7957747E-01  0.3389829E+00
         13   -1    0    0    0    0  0.00000000000E+00  0.00000000000E+00  0.14999999963E+04  0.15000000000E+04  0.10566000000E+00 0. -1.
        994   -1    0    0    0    0 -0.00000000000E+00 -0.00000000000E+00  0.11368683772E-12  0.17120000000E+03  0.17120000000E+03 0.  0.
         13    1    1    2    0    0 -0.19844024206E+02 -0.32169292801E+02  0.11736378888E+02  0.39577802484E+02  0.10566000000E+00 0. -1.
        994    1    1    2    0    0  0.16505943389E+03  0.54268684908E+02  0.15229095569E+03  0.28756161437E+03  0.17120000000E+03 0.  0.
        998    1    1    2    0    0 -0.14521540968E+03 -0.22099392107E+02  0.13359726617E+04  0.13440605831E+04  0.10000000000E+02 0. -1.
</event>
<event>
 5    1  0.1556794E-008  0.3814592E+03  0.7957747E-01  0.3444829E+00
         13   -1    0    0    0    0  0.00000000000E+00  0.00000000000E+00  0.14999999963E+04  0.15000000000E+04  0.10566000000E+00 0. -1.
        994   -1    0    0    0    0 -0.00000000000E+00 -0.00000000000E+00  0.11368683772E-12  0.17120000000E+03  0.17120000000E+03 0.  0.
         13    1    1    2    0    0 -0.41084647956E+01 -0.22814961044E+02  0.78822599353E+02  0.82160910798E+02  0.10566000000E+00 0. -1.
        994    1    1    2    0    0  0.10362665974E+02  0.10629639110E+02  0.41318593944E+01  0.17189207758E+03  0.17120000000E+03 0.  0.
        998    1    1    2    0    0 -0.62542011781E+01  0.12185321934E+02  0.14170455375E+04  0.14171470116E+04  0.10000000000E+02 0. -1.
</event>
<event>
 5    1  0.1556794E-008  0.2326165E+03  0.7957747E-01  0.4537197E+00
         13   -1    0    0    0    0  0.00000000000E+00  0.00000000000E+00  0.14999999963E+04  0.15000000000E+04  0.10566000000E+00 0.  1.
        994   -1    0    0    0    0 -0.00000000000E+00 -0.00000000000E+00  0.11368683772E-12  0.17120000000E+03  0.17120000000E+03 0.  0.
         13    1    1    2    0    0  0.13354240499E+03  0.61924655545E+02  0.12328032269E+03  0.19200595309E+03  0.10566000000E+00 0.  1.
        994    1    1    2    0    0 -0.14760681807E+03 -0.91021340868E+02  0.24018595159E+03  0.34215696482E+03  0.17120000000E+03 0.  0.
        998    1    1    2    0    0  0.14064413080E+02  0.29096685322E+02  0.11365337220E+04  0.11370370821E+04  0.10000000000E+02 0. -1.
</event>
<event>
 5    1  0.1556794E-008  0.3817202E+03  0.7957747E-01  0.3443702E+00
         13   -1    0    0    0    0  0.00000000000E+00  0.00000000000E+00  0.14999999963E+04  0.15000000000E+04  0.10566000000E+00 0.  1.
        994   -1    0    0    0    0 -0.00000000000E+00 -0.00000000000E+00  0.11368683772E-12  0.17120000000E+03  0.17120000000E+03 0.  0.
         13    1    1    2    0    0  0.44947213595E+02  0.22191944325E+01  0.25589439466E+03  0.25982134095E+03  0.10566000000E+00 0.  1.
        994    1    1    2    0    0 -0.45946939941E+02 -0.96308828900E+01  0.10627905798E+02  0.17783775633E+03  0.17120000000E+03 0.  0.
        998    1    1    2    0    0  0.99972634624E+00  0.74116884575E+01  0.12334776958E+04  0.12335409027E+04  0.10000000000E+02 0.  1.
</event>
<event>
 5    1  0.1556794E-008  0.3858979E+03  0.7957747E-01  0.3425873E+00
         13   -1    0    0    0    0  0.00000000000E+00  0.00000000000E+00  0.14999999963E+04  0.15000000000E+04  0.10566000000E+00 0. -1.
        994   -1    0    0    0    0 -0.00000000000E+00 -0.00000000000E+00  0.11368683772E-12  0.17120000000E+03  0.17120000000E+03 0.  0.
         13    1    1    2    0    0  0.79513600956E+01 -0.73480356437E+01  0.47758650066E+02  0.48970578671E+02  0.10566000000E+00 0. -1.
        994    1    1    2    0    0 -0.20886434104E+01  0.19283341238E+02  0.24196185913E+01  0.17231222892E+03  0.17120000000E+03 0.  0.
        998    1    1    2    0    0 -0.58627166852E+01 -0.11935305594E+02  0.14498217276E+04  0.14499171924E+04  0.10000000000E+02 0. -1.
</event>
<event>
 5    1  0.1556794E-008  0.4081600E+03  0.7957747E-01  0.3337019E+00
         13   -1    0    0    0    0  0.00000000000E+00  0.00000000000E+00  0.14999999963E+04  0.15000000000E+04  0.10566000000E+00 0.  1.
        994   -1    0    0    0    0 -0.00000000000E+00 -0.00000000000E+00  0.11368683772E-12  0.17120000000E+03  0.17120000000E+03 0.  0.
         13    1    1    2    0    0  0.87147537464E+02 -0.58601391995E+02  0.20526905639E+03  0.23057366091E+03  0.10566000000E+00 0.  1.
        994    1    1    2    0    0 -0.33522942853E+02 -0.49033146122E+02  0.47178762865E+02  0.18725200341E+03  0.17120000000E+03 0.  0.
        998    1    1    2    0    0 -0.53624594611E+02  0.10763453812E+03  0.12475521770E+04  0.12533743357E+04  0.10000000000E+02 0.  1.
</event>
<event>
 5    1  0.1556794E-008  0.3717681E+03  0.7957747E-01  0.3487805E+00
         13   -1    0    0    0    0  0.00000000000E+00  0.00000000000E+00  0.14999999963E+04  0.15000000000E+04  0.10566000000E+00 0. -1.
        994   -1    0    0    0    0 -0.00000000000E+00 -0.00000000000E+00  0.11368683772E-12  0.17120000000E+03  0.17120000000E+03 0.  0.
         13    1    1    2    0    0  0.12118576795E+02  0.90743166885E+01  0.57252158077E+01  0.16186178888E+02  0.10566000000E+00 0. -1.
        994    1    1    2    0    0  0.89716733965E+02  0.73859951617E+02  0.61027508462E+02  0.21572709982E+03  0.17120000000E+03 0.  0.
        998    1    1    2    0    0 -0.10183531076E+03 -0.82934268305E+02  0.14332472720E+04  0.14392867213E+04  0.10000000000E+02 0. -1.
</event>
<event>
 5    1  0.1556794E-008  0.3713570E+03  0.7957747E-01  0.3489677E+00
         13   -1    0    0    0    0  0.00000000000E+00  0.00000000000E+00  0.14999999963E+04  0.15000000000E+04  0.10566000000E+00 0. -1.
        994   -1    0    0    0    0 -0.00000000000E+00 -0.00000000000E+00  0.11368683772E-12  0.17120000000E+03  0.17120000000E+03 0.  0.
         13    1    1    2    0    0  0.60843110605E+01 -0.43471765688E+02  0.10311592033E+03  0.11207014519E+03  0.10566000000E+00 0. -1.
        994    1    1    2    0    0  0.36683996755E+02  0.48563616608E+02  0.21419271924E+02  0.18295454541E+03  0.17120000000E+03 0.  0.
        998    1    1    2    0    0 -0.42768307816E+02 -0.50918509197E+01  0.13754648040E+04  0.13761753094E+04  0.10000000000E+02 0. -1.
</event>
<event>
 5    1  0.1556794E-008  0.3835022E+03  0.7957747E-01  0.3436049E+00
         13   -1    0    0    0    0  0.00000000000E+00  0.00000000000E+00  0.14999999963E+04  0.15000000000E+04  0.10566000000E+00 0.  1.
        994   -1    0    0    0    0 -0.00000000000E+00 -0.00000000000E+00  0.11368683772E-12  0.17120000000E+03  0.17120000000E+03 0.  0.
         13    1    1    2    0    0  0.22920051176E+02  0.11349694316E+02  0.13218252230E+03  0.13463422549E+03  0.10566000000E+00 0.  1.
        994    1    1    2    0    0 -0.14494151903E+02 -0.16710175992E+02  0.39942725941E+01  0.17266935059E+03  0.17120000000E+03 0.  0.
        998    1    1    2    0    0 -0.84258992732E+01  0.53604816760E+01  0.13638232014E+04  0.13638964239E+04  0.10000000000E+02 0.  1.
</event>
<event>
 5    1  0.2033236E-008  0.3864506E+03  0.7957747E-01  0.3423543E+00
         13   -1    0    0    0    0  0.00000000000E+00  0.00000000000E+00  0.14999999963E+04  0.15000000000E+04  0.10566000000E+00 0. -1.
        994   -1    0    0    0    0 -0.00000000000E+00 -0.00000000000E+00  0.11368683772E-12  0.17120000000E+03  0.17120000000E+03 0.  0.
         13    1    1    2    0    0 -0.59068763732E+01  0.11888165501E+02  0.73403468637E+02  0.74594235966E+02  0.10566000000E+00 0. -1.
        994    1    1    2    0    0  0.22955454693E+02 -0.37406513209E+02  0.72421210212E+01  0.17688439289E+03  0.17120000000E+03 0.  0.
        998    1    1    2    0    0 -0.17048578320E+02  0.25518347708E+02  0.14193544066E+04  0.14197213711E+04  0.10000000000E+02 0. -1.
</event>
<event>
 5    1  0.1556794E-008  0.3783629E+03  0.7957747E-01  0.3458318E+00
         13   -1    0    0    0    0  0.00000000000E+00  0.00000000000E+00  0.14999999963E+04  0.15000000000E+04  0.10566000000E+00 0. -1.
        994   -1    0    0    0    0 -0.00000000000E+00 -0.00000000000E+00  0.11368683772E-12  0.17120000000E+03  0.17120000000E+03 0.  0.
         13    1    1    2    0    0 -0.65304098620E+01 -0.43330204115E+02  0.21013398740E+03  0.21465427241E+03  0.10566000000E+00 0. -1.
        994    1    1    2    0    0  0.21961408426E+02  0.98234140800E+01  0.69096638613E+01  0.17302019067E+03  0.17120000000E+03 0.  0.
        998    1    1    2    0    0 -0.15430998564E+02  0.33506790035E+02  0.12829563450E+04  0.12835255369E+04  0.10000000000E+02 0. -1.
</event>
<event>
 5    1  0.1556794E-008  0.3752090E+03  0.7957747E-01  0.3472289E+00
         13   -1    0    0    0    0  0.00000000000E+00  0.00000000000E+00  0.14999999963E+04  0.15000000000E+04  0.10566000000E+00 0.  1.
        994   -1    0    0    0    0 -0.00000000000E+00 -0.00000000000E+00  0.11368683772E-12  0.17120000000E+03  0.17120000000E+03 0.  0.
         13    1    1    2    0    0  0.36328077815E+02 -0.17298376581E+03  0.83143265822E+03  0.85001375800E+03  0.10566000000E+00 0.  1.
        994    1    1    2    0    0 -0.72892234680E+01  0.18601902801E+03  0.13521322360E+03  0.28678958732E+03  0.17120000000E+03 0.  0.
        998    1    1    2    0    0 -0.29038854347E+02 -0.13035262203E+02  0.53335411445E+03  0.53439665468E+03  0.10000000000E+02 0. -1.
</event>
<event>
 5    1  0.1556794E-008  0.3835825E+03  0.7957747E-01  0.3435706E+00
         13   -1    0    0    0    0  0.00000000000E+00  0.00000000000E+00  0.14999999963E+04  0.15000000000E+04  0.10566000000E+00 0.  1.
        994   -1    0    0    0    0 -0.00000000000E+00 -0.00000000000E+00  0.11368683772E-12  0.17120000000E+03  0.17120000000E+03 0.  0.
         13    1    1    2    0    0 -0.89861673572E+01  0.65171783472E+01 -0.50941650470E+01  0.12214192521E+02  0.10566000000E+00 0.  1.
        994    1    1    2    0    0  0.68132777051E+01 -0.16103970418E+01  0.18489464347E+02  0.17233779163E+03  0.17120000000E+03 0.  0.
        998    1    1    2    0    0  0.21728896520E+01 -0.49067813054E+01  0.14866046970E+04  0.14866480158E+04  0.10000000000E+02 0.  1.
</event>
<event>
 5    1  0.1556794E-008  0.4071636E+03  0.7957747E-01  0.3340789E+00
         13   -1    0    0    0    0  0.00000000000E+00  0.00000000000E+00  0.14999999963E+04  0.15000000000E+04  0.10566000000E+00 0.  1.
        994   -1    0    0    0    0 -0.00000000000E+00 -0.00000000000E+00  0.11368683772E-12  0.17120000000E+03  0.17120000000E+03 0.  0.
         13    1    1    2    0    0 -0.89508169383E+02 -0.11918227371E+03  0.40324623525E+03  0.42991122824E+03  0.10566000000E+00 0.  1.
        994    1    1    2    0    0  0.10404748979E+02  0.66296782597E+02  0.50530167205E+02  0.19069939691E+03  0.17120000000E+03 0.  0.
        998    1    1    2    0    0  0.79103420403E+02  0.52885491115E+02  0.10462235938E+04  0.10505893749E+04  0.10000000000E+02 0.  1.
</event>
<event>
 5    1  0.1556794E-008  0.3187156E+03  0.7957747E-01  0.3770848E+00
         13   -1    0    0    0    0  0.00000000000E+00  0.00000000000E+00  0.14999999963E+04  0.15000000000E+04  0.10566000000E+00 0. -1.
        994   -1    0    0    0    0 -0.00000000000E+00 -0.00000000000E+00  0.11368683772E-12  0.17120000000E+03  0.17120000000E+03 0.  0.
         13    1    1    2    0    0 -0.19025899068E+03  0.37728316239E+02  0.79838494621E+03  0.82160844864E+03  0.10566000000E+00 0. -1.
        994    1    1    2    0    0  0.17087865847E+03 -0.32905383819E+02  0.12817789845E+03  0.27571959280E+03  0.17120000000E+03 0.  0.
        998    1    1    2    0    0  0.19380332208E+02 -0.48229324196E+01  0.57343715162E+03  0.57387195855E+03  0.10000000000E+02 0. -1.
</event>
<event>
 5    1  0.1556794E-008  0.3818800E+03  0.7957747E-01  0.3443013E+00
         13   -1    0    0    0    0  0.00000000000E+00  0.00000000000E+00  0.14999999963E+04  0.15000000000E+04  0.10566000000E+00 0. -1.
        994   -1    0    0    0    0 -0.00000000000E+00 -0.00000000000E+00  0.11368683772E-12  0.17120000000E+03  0.17120000000E+03 0.  0.
         13    1    1    2    0    0 -0.20593234225E+02  0.26643146597E+02  0.15831444863E+03  0.16185615332E+03  0.10566000000E+00 0. -1.
        994    1    1    2    0    0  0.43765400899E+02 -0.11993312532E+02  0.10058905032E+02  0.17739749556E+03  0.17120000000E+03 0.  0.
        998    1    1    2    0    0 -0.23172166675E+02 -0.14649834065E+02  0.13316266426E+04  0.13319463511E+04  0.10000000000E+02 0. -1.
</event>
<event>
 5    1  0.1556794E-008  0.3832552E+03  0.7957747E-01  0.3437106E+00
         13   -1    0    0    0    0  0.00000000000E+00  0.00000000000E+00  0.14999999963E+04  0.15000000000E+04  0.10566000000E+00 0. -1.
        994   -1    0    0    0    0 -0.00000000000E+00 -0.00000000000E+00  0.11368683772E-12  0.17120000000E+03  0.17120000000E+03 0.  0.
         13    1    1    2    0    0 -0.12815900599E+02  0.17986080717E+02  0.10554345296E+03  0.10782939319E+03  0.10566000000E+00 0. -1.
        994    1    1    2    0    0 -0.12447739239E+02 -0.10570097801E+02  0.33813374967E+01  0.17201030964E+03  0.17120000000E+03 0.  0.
        998    1    1    2    0    0  0.25263639838E+02 -0.74159829165E+01  0.13910752058E+04  0.13913602972E+04  0.10000000000E+02 0. -1.
</event>
<event>
 5    1  0.1556794E-008  0.3830888E+03  0.7957747E-01  0.3437818E+00
         13   -1    0    0    0    0  0.00000000000E+00  0.00000000000E+00  0.14999999963E+04  0.15000000000E+04  0.10566000000E+00 0. -1.
        994   -1    0    0    0    0 -0.00000000000E+00 -0.00000000000E+00  0.11368683772E-12  0.17120000000E+03  0.17120000000E+03 0.  0.
         13    1    1    2    0    0 -0.17668573317E+02  0.89836898797E+01  0.82451373675E+02  0.84800503252E+02  0.10566000000E+00 0. -1.
        994    1    1    2    0    0 -0.40012421003E+01 -0.17356887008E+01  0.26449229515E+01  0.17127597079E+03  0.17120000000E+03 0.  0.
        998    1    1    2    0    0  0.21669815418E+02 -0.72480011789E+01  0.14149036997E+04  0.14151235260E+04  0.10000000000E+02 0. -1.
</event>
<event>
 5    1  0.1556794E-008  0.3847274E+03  0.7957747E-01  0.3430829E+00
         13   -1    0    0    0    0  0.00000000000E+00  0.00000000000E+00  0.14999999963E+04  0.15000000000E+04  0.10566000000E+00 0. -1.
        994   -1    0    0    0    0 -0.00000000000E+00 -0.00000000000E+00  0.11368683772E-12  0.17120000000E+03  0.17120000000E+03 0.  0.
         13    1    1    2    0    0  0.10721816472E+01  0.11166901378E+02  0.36314869034E+02  0.38008290370E+02  0.10566000000E+00 0. -1.
        994    1    1    2    0    0 -0.88903352998E+01 -0.10594605612E+01  0.20294441408E+01  0.17144596572E+03  0.17120000000E+03 0.  0.
        998    1    1    2    0    0  0.78181536526E+01 -0.10107440817E+02  0.14616556831E+04  0.14617457439E+04  0.10000000000E+02 0. -1.
</event>
<event>
 5    1  0.1556794E-008  0.3839900E+03  0.7957747E-01  0.3433967E+00
         13   -1    0    0    0    0  0.00000000000E+00  0.00000000000E+00  0.14999999963E+04  0.15000000000E+04  0.10566000000E+00 0. -1.
        994   -1    0    0    0    0 -0.00000000000E+00 -0.00000000000E+00  0.11368683772E-12  0.17120000000E+03  0.17120000000E+03 0.  0.
         13    1    1    2    0    0  0.24404250898E+01 -0.18070158562E+02  0.80962249113E+02  0.82990259974E+02  0.10566000000E+00 0. -1.
        994    1    1    2    0    0 -0.78122565113E+01  0.38570076767E+01  0.23828924171E+01  0.17143811139E+03  0.17120000000E+03 0.  0.
        998    1    1    2    0    0  0.53718314215E+01  0.14213150885E+02  0.14166548547E+04  0.14167716286E+04  0.10000000000E+02 0. -1.
</event>
