<event>
 5    1  0.1800099E-008  0.3806457E+03  0.7957747E-01  0.3448352E+00
         13   -1    0    0    0    0  0.00000000000E+00  0.00000000000E+00  0.14999999963E+04  0.15000000000E+04  0.10566000000E+00 0.  1.
        994   -1    0    0    0    0 -0.00000000000E+00 -0.00000000000E+00  0.11368683772E-12  0.17120000000E+03  0.17120000000E+03 0.  0.
         13    1    1    2    0    0  0.32273514376E+02  0.32431023525E+02  0.24076084155E+03  0.24506967378E+03  0.10566000000E+00 0.  1.
        994    1    1    2    0    0 -0.19577656898E+02 -0.39556357325E+02  0.10333131059E+02  0.17709941742E+03  0.17120000000E+03 0.  0.
        998    1    1    2    0    0 -0.12695857478E+02  0.71253338000E+01  0.12489060237E+04  0.12490309088E+04  0.10000000000E+02 0.  1.
</event>
<event>
 5    1  0.1800099E-008  0.3844737E+03  0.7957747E-01  0.3431908E+00
         13   -1    0    0    0    0  0.00000000000E+00  0.00000000000E+00  0.14999999963E+04  0.15000000000E+04  0.10566000000E+00 0.  1.
        994   -1    0    0    0    0 -0.00000000000E+00 -0.00000000000E+00  0.11368683772E-12  0.17120000000E+03  0.17120000000E+03 0.  0.
         13    1    1    2    0    0  0.74494309897E+01 -0.69156618528E+01  0.27626415879E+02  0.29437228458E+02  0.10566000000E+00 0.  1.
        994    1    1    2    0    0  0.26439039206E+01  0.25805762126E+01  0.19366527874E+01  0.17125081088E+03  0.17120000000E+03 0.  0.
        998    1    1    2    0    0 -0.10093334910E+02  0.43350856403E+01  0.14704369276E+04  0.14705119607E+04  0.10000000000E+02 0.  1.
</event>
<event>
 5    1  0.1800099E-008  0.3825734E+03  0.7957747E-01  0.3440029E+00
         13   -1    0    0    0    0  0.00000000000E+00  0.00000000000E+00  0.14999999963E+04  0.15000000000E+04  0.10566000000E+00 0. -1.
        994   -1    0    0    0    0 -0.00000000000E+00 -0.00000000000E+00  0.11368683772E-12  0.17120000000E+03  0.17120000000E+03 0.  0.
         13    1    1    2    0    0 -0.17477847191E+02 -0.54607145884E+01  0.57349028986E+02  0.60201468719E+02  0.10566000000E+00 0. -1.
        994    1    1    2    0    0  0.20571767277E+02 -0.15111567340E+02  0.50024473415E+01  0.17316472376E+03  0.17120000000E+03 0.  0.
        998    1    1    2    0    0 -0.30939200857E+01  0.20572281928E+02  0.14376485200E+04  0.14378338075E+04  0.10000000000E+02 0. -1.
</event>
<event>
 5    1  0.1800099E-008  0.3848487E+03  0.7957747E-01  0.3430314E+00
         13   -1    0    0    0    0  0.00000000000E+00  0.00000000000E+00  0.14999999963E+04  0.15000000000E+04  0.10566000000E+00 0. -1.
        994   -1    0    0    0    0 -0.00000000000E+00 -0.00000000000E+00  0.11368683772E-12  0.17120000000E+03  0.17120000000E+03 0.  0.
         13    1    1    2    0    0  0.18850226796E+01 -0.12780209491E+02  0.51367669277E+02  0.52967307616E+02  0.10566000000E+00 0. -1.
        994    1    1    2    0    0  0.46370779701E+01  0.14580721141E+00  0.17761117753E+01  0.17127205938E+03  0.17120000000E+03 0.  0.
        998    1    1    2    0    0 -0.65221006496E+01  0.12634402280E+02  0.14468562152E+04  0.14469606330E+04  0.10000000000E+02 0. -1.
</event>
<event>
 5    1  0.1800099E-008  0.3840897E+03  0.7957747E-01  0.3433542E+00
         13   -1    0    0    0    0  0.00000000000E+00  0.00000000000E+00  0.14999999963E+04  0.15000000000E+04  0.10566000000E+00 0.  1.
        994   -1    0    0    0    0 -0.00000000000E+00 -0.00000000000E+00  0.11368683772E-12  0.17120000000E+03  0.17120000000E+03 0.  0.
         13    1    1    2    0    0 -0.99554337378E+01  0.35897066600E+01  0.26882967137E+02  0.28891205253E+02  0.10566000000E+00 0.  1.
        994    1    1    2    0    0  0.44255606356E+01  0.80195894852E+01  0.23595361998E+01  0.17146109417E+03  0.17120000000E+03 0.  0.
        998    1    1    2    0    0  0.55298731022E+01 -0.11609296145E+02  0.14707574929E+04  0.14708477006E+04  0.10000000000E+02 0.  1.
</event>
<event>
 5    1  0.1800099E-008  0.3859438E+03  0.7957747E-01  0.3425679E+00
         13   -1    0    0    0    0  0.00000000000E+00  0.00000000000E+00  0.14999999963E+04  0.15000000000E+04  0.10566000000E+00 0. -1.
        994   -1    0    0    0    0 -0.00000000000E+00 -0.00000000000E+00  0.11368683772E-12  0.17120000000E+03  0.17120000000E+03 0.  0.
         13    1    1    2    0    0 -0.97406540717E+01 -0.57065177485E+01  0.52083406706E+02  0.53292936725E+02  0.10566000000E+00 0. -1.
        994    1    1    2    0    0  0.11514736379E+02  0.14053745085E+02  0.22453075215E+01  0.17217600968E+03  0.17120000000E+03 0.  0.
        998    1    1    2    0    0 -0.17740823078E+01 -0.83472273364E+01  0.14456712821E+04  0.14457310536E+04  0.10000000000E+02 0. -1.
</event>
<event>
 5    1  0.1800099E-008  0.3778398E+03  0.7957747E-01  0.3460619E+00
         13   -1    0    0    0    0  0.00000000000E+00  0.00000000000E+00  0.14999999963E+04  0.15000000000E+04  0.10566000000E+00 0.  1.
        994   -1    0    0    0    0 -0.00000000000E+00 -0.00000000000E+00  0.11368683772E-12  0.17120000000E+03  0.17120000000E+03 0.  0.
         13    1    1    2    0    0 -0.81309108193E+02  0.12286026286E+02  0.47040328525E+03  0.47753678335E+03  0.10566000000E+00 0.  1.
        994    1    1    2    0    0  0.73428059892E+02 -0.41462566428E+02  0.29556140848E+02  0.19311610460E+03  0.17120000000E+03 0.  0.
        998    1    1    2    0    0  0.78810483012E+01  0.29176540142E+02  0.10000405702E+04  0.10005471120E+04  0.10000000000E+02 0.  1.
</event>
<event>
 5    1  0.1800099E-008  0.3878647E+03  0.7957747E-01  0.3417613E+00
         13   -1    0    0    0    0  0.00000000000E+00  0.00000000000E+00  0.14999999963E+04  0.15000000000E+04  0.10566000000E+00 0. -1.
        994   -1    0    0    0    0 -0.00000000000E+00 -0.00000000000E+00  0.11368683772E-12  0.17120000000E+03  0.17120000000E+03 0.  0.
         13    1    1    2    0    0  0.22157883929E+02  0.27509015049E+01  0.30546665789E+01  0.22536224867E+02  0.10566000000E+00 0. -1.
        994    1    1    2    0    0 -0.13346777690E+02 -0.40913225650E+01  0.21443939922E+02  0.17310158276E+03  0.17120000000E+03 0.  0.
        998    1    1    2    0    0 -0.88111062393E+01  0.13404210600E+01  0.14755013898E+04  0.14755621924E+04  0.10000000000E+02 0. -1.
</event>
<event>
 5    1  0.1800099E-008  0.3737497E+03  0.7957747E-01  0.3478834E+00
         13   -1    0    0    0    0  0.00000000000E+00  0.00000000000E+00  0.14999999963E+04  0.15000000000E+04  0.10566000000E+00 0. -1.
        994   -1    0    0    0    0 -0.00000000000E+00 -0.00000000000E+00  0.11368683772E-12  0.17120000000E+03  0.17120000000E+03 0.  0.
         13    1    1    2    0    0 -0.44922285915E+02  0.24383515740E+02  0.20809821780E+03  0.21428356686E+03  0.10566000000E+00 0. -1.
        994    1    1    2    0    0  0.46440789502E+00 -0.31226313099E+01  0.73562288525E+01  0.17138704911E+03  0.17120000000E+03 0.  0.
        998    1    1    2    0    0  0.44457878020E+02 -0.21260884430E+02  0.12845455496E+04  0.12855293840E+04  0.10000000000E+02 0. -1.
</event>
<event>
 5    1  0.1800099E-008  0.3856074E+03  0.7957747E-01  0.3427100E+00
         13   -1    0    0    0    0  0.00000000000E+00  0.00000000000E+00  0.14999999963E+04  0.15000000000E+04  0.10566000000E+00 0.  1.
        994   -1    0    0    0    0 -0.00000000000E+00 -0.00000000000E+00  0.11368683772E-12  0.17120000000E+03  0.17120000000E+03 0.  0.
         13    1    1    2    0    0 -0.10286330017E+02  0.67897470292E+01  0.62578132994E+02  0.63780429153E+02  0.10566000000E+00 0.  1.
        994    1    1    2    0    0 -0.46503505696E+01  0.27654705548E-01  0.13998397451E+01  0.17126887072E+03  0.17120000000E+03 0.  0.
        998    1    1    2    0    0  0.14936680587E+02 -0.68174017347E+01  0.14360220235E+04  0.14361507001E+04  0.10000000000E+02 0.  1.
</event>
<event>
 5    1  0.1800099E-008  0.3786683E+03  0.7957747E-01  0.3456978E+00
         13   -1    0    0    0    0  0.00000000000E+00  0.00000000000E+00  0.14999999963E+04  0.15000000000E+04  0.10566000000E+00 0.  1.
        994   -1    0    0    0    0 -0.00000000000E+00 -0.00000000000E+00  0.11368683772E-12  0.17120000000E+03  0.17120000000E+03 0.  0.
         13    1    1    2    0    0 -0.33658130083E+01 -0.31500318996E+02  0.10546106745E+03  0.11011651423E+03  0.10566000000E+00 0.  1.
        994    1    1    2    0    0 -0.39274618586E+01  0.14388937826E+02  0.55542119368E+01  0.17193823239E+03  0.17120000000E+03 0.  0.
        998    1    1    2    0    0  0.72932748669E+01  0.17111381170E+02  0.13889847169E+04  0.13891452534E+04  0.10000000000E+02 0.  1.
</event>
<event>
 5    1  0.1800099E-008  0.3786003E+03  0.7957747E-01  0.3457276E+00
         13   -1    0    0    0    0  0.00000000000E+00  0.00000000000E+00  0.14999999963E+04  0.15000000000E+04  0.10566000000E+00 0. -1.
        994   -1    0    0    0    0 -0.00000000000E+00 -0.00000000000E+00  0.11368683772E-12  0.17120000000E+03  0.17120000000E+03 0.  0.
         13    1    1    2    0    0 -0.19650920770E+02 -0.36090078127E+02  0.18835400777E+03  0.19278458402E+03  0.10566000000E+00 0. -1.
        994    1    1    2    0    0  0.23544097517E+01  0.11289525502E+02  0.52881609300E+01  0.17166945354E+03  0.17120000000E+03 0.  0.
        998    1    1    2    0    0  0.17296511019E+02  0.24800552625E+02  0.13063578276E+04  0.13067459624E+04  0.10000000000E+02 0. -1.
</event>
<event>
 5    1  0.1800099E-008  0.3755093E+03  0.7957747E-01  0.3470948E+00
         13   -1    0    0    0    0  0.00000000000E+00  0.00000000000E+00  0.14999999963E+04  0.15000000000E+04  0.10566000000E+00 0. -1.
        994   -1    0    0    0    0 -0.00000000000E+00 -0.00000000000E+00  0.11368683772E-12  0.17120000000E+03  0.17120000000E+03 0.  0.
         13    1    1    2    0    0 -0.14744996602E+02  0.71816838521E+01  0.18996279882E+02  0.25097038095E+02  0.10566000000E+00 0. -1.
        994    1    1    2    0    0 -0.37263814055E+01  0.71022906426E+01  0.66357361314E+01  0.17151618421E+03  0.17120000000E+03 0.  0.
        998    1    1    2    0    0  0.18471378007E+02 -0.14283974495E+02  0.14743679803E+04  0.14745867777E+04  0.10000000000E+02 0. -1.
</event>
<event>
 5    1  0.1800099E-008  0.3848172E+03  0.7957747E-01  0.3430448E+00
         13   -1    0    0    0    0  0.00000000000E+00  0.00000000000E+00  0.14999999963E+04  0.15000000000E+04  0.10566000000E+00 0.  1.
        994   -1    0    0    0    0 -0.00000000000E+00 -0.00000000000E+00  0.11368683772E-12  0.17120000000E+03  0.17120000000E+03 0.  0.
         13    1    1    2    0    0  0.38157093324E+01 -0.17353443072E+02  0.10296005845E+03  0.10448199090E+03  0.10566000000E+00 0.  1.
        994    1    1    2    0    0 -0.14665463014E+01 -0.36242941477E+01  0.17712257283E+01  0.17125379852E+03  0.17120000000E+03 0.  0.
        998    1    1    2    0    0 -0.23491630309E+01  0.20977737220E+02  0.13952687121E+04  0.13954642106E+04  0.10000000000E+02 0.  1.
</event>
<event>
 5    1  0.1800099E-008  0.3863621E+03  0.7957747E-01  0.3423916E+00
         13   -1    0    0    0    0  0.00000000000E+00  0.00000000000E+00  0.14999999963E+04  0.15000000000E+04  0.10566000000E+00 0. -1.
        994   -1    0    0    0    0 -0.00000000000E+00 -0.00000000000E+00  0.11368683772E-12  0.17120000000E+03  0.17120000000E+03 0.  0.
         13    1    1    2    0    0  0.10168118373E+02 -0.10169782598E+00  0.54533629769E+02  0.55473677664E+02  0.10566000000E+00 0. -1.
        994    1    1    2    0    0 -0.89041653657E+01  0.22985870948E+02  0.29474011063E+01  0.17299064020E+03  0.17120000000E+03 0.  0.
        998    1    1    2    0    0 -0.12639530069E+01 -0.22884173123E+02  0.14425189654E+04  0.14427356821E+04  0.10000000000E+02 0. -1.
</event>
<event>
 5    1  0.1800099E-008  0.3834137E+03  0.7957747E-01  0.3436428E+00
         13   -1    0    0    0    0  0.00000000000E+00  0.00000000000E+00  0.14999999963E+04  0.15000000000E+04  0.10566000000E+00 0.  1.
        994   -1    0    0    0    0 -0.00000000000E+00 -0.00000000000E+00  0.11368683772E-12  0.17120000000E+03  0.17120000000E+03 0.  0.
         13    1    1    2    0    0 -0.66409619173E+00 -0.13159040661E+02  0.35926250172E+02  0.38266277456E+02  0.10566000000E+00 0.  1.
        994    1    1    2    0    0 -0.17427944410E+02  0.44454470628E+01  0.34898562494E+01  0.17217756632E+03  0.17120000000E+03 0.  0.
        998    1    1    2    0    0  0.18092040602E+02  0.87135935987E+01  0.14605838899E+04  0.14607561562E+04  0.10000000000E+02 0.  1.
</event>
<event>
 5    1  0.1986417E-008  0.3855691E+03  0.7957747E-01  0.3427262E+00
         13   -1    0    0    0    0  0.00000000000E+00  0.00000000000E+00  0.14999999963E+04  0.15000000000E+04  0.10566000000E+00 0.  1.
        994   -1    0    0    0    0 -0.00000000000E+00 -0.00000000000E+00  0.11368683772E-12  0.17120000000E+03  0.17120000000E+03 0.  0.
         13    1    1    2    0    0  0.24298025963E+01 -0.12501538873E+02  0.65046435358E+02  0.66281538393E+02  0.10566000000E+00 0.  1.
        994    1    1    2    0    0  0.38928116162E+01 -0.10572520755E+01  0.14012859887E+01  0.17125324921E+03  0.17120000000E+03 0.  0.
        998    1    1    2    0    0 -0.63226142124E+01  0.13558790949E+02  0.14335522749E+04  0.14336652124E+04  0.10000000000E+02 0.  1.
</event>
<event>
 5    1  0.1800099E-008  0.3819819E+03  0.7957747E-01  0.3442574E+00
         13   -1    0    0    0    0  0.00000000000E+00  0.00000000000E+00  0.14999999963E+04  0.15000000000E+04  0.10566000000E+00 0. -1.
        994   -1    0    0    0    0 -0.00000000000E+00 -0.00000000000E+00  0.11368683772E-12  0.17120000000E+03  0.17120000000E+03 0.  0.
         13    1    1    2    0    0 -0.66794893652E+01 -0.16322788066E+02  0.49545594100E+02  0.52591121372E+02  0.10566000000E+00 0. -1.
        994    1    1    2    0    0 -0.77023878008E+01  0.10342298615E+02  0.36885130162E+01  0.17172459069E+03  0.17120000000E+03 0.  0.
        998    1    1    2    0    0  0.14381877166E+02  0.59804894506E+01  0.14467658892E+04  0.14468842879E+04  0.10000000000E+02 0. -1.
</event>
<event>
 5    1  0.1800099E-008  0.3706162E+03  0.7957747E-01  0.3493064E+00
         13   -1    0    0    0    0  0.00000000000E+00  0.00000000000E+00  0.14999999963E+04  0.15000000000E+04  0.10566000000E+00 0.  1.
        994   -1    0    0    0    0 -0.00000000000E+00 -0.00000000000E+00  0.11368683772E-12  0.17120000000E+03  0.17120000000E+03 0.  0.
         13    1    1    2    0    0  0.89632490103E+01  0.47238931721E+02  0.11504471964E+03  0.12468823194E+03  0.10566000000E+00 0.  1.
        994    1    1    2    0    0 -0.20047496771E+02 -0.49454813831E+02  0.18837651565E+02  0.18031078130E+03  0.17120000000E+03 0.  0.
        998    1    1    2    0    0  0.11084247760E+02  0.22158821097E+01  0.13661176251E+04  0.13662009868E+04  0.10000000000E+02 0.  1.
</event>
<event>
 5    1  0.1800099E-008  0.3812811E+03  0.7957747E-01  0.3445599E+00
         13   -1    0    0    0    0  0.00000000000E+00  0.00000000000E+00  0.14999999963E+04  0.15000000000E+04  0.10566000000E+00 0. -1.
        994   -1    0    0    0    0 -0.00000000000E+00 -0.00000000000E+00  0.11368683772E-12  0.17120000000E+03  0.17120000000E+03 0.  0.
         13    1    1    2    0    0  0.39601667199E+02 -0.23794503376E+02  0.23969933467E+03  0.24411114813E+03  0.10566000000E+00 0. -1.
        994    1    1    2    0    0 -0.47697360801E+02  0.26930817972E+02  0.13540548710E+02  0.18025840797E+03  0.17120000000E+03 0.  0.
        998    1    1    2    0    0  0.80956936019E+01 -0.31363145957E+01  0.12467601129E+04  0.12468304439E+04  0.10000000000E+02 0. -1.
</event>
<event>
 5    1  0.1800099E-008  0.3773346E+03  0.7957747E-01  0.3462847E+00
         13   -1    0    0    0    0  0.00000000000E+00  0.00000000000E+00  0.14999999963E+04  0.15000000000E+04  0.10566000000E+00 0. -1.
        994   -1    0    0    0    0 -0.00000000000E+00 -0.00000000000E+00  0.11368683772E-12  0.17120000000E+03  0.17120000000E+03 0.  0.
         13    1    1    2    0    0  0.33045764300E+02 -0.55349706344E+02  0.31159847862E+03  0.31819685035E+03  0.10566000000E+00 0. -1.
        994    1    1    2    0    0 -0.32693922106E+02  0.50342863452E+02  0.17735350259E+02  0.18228351295E+03  0.17120000000E+03 0.  0.
        998    1    1    2    0    0 -0.35184219446E+00  0.50068428920E+01  0.11706661674E+04  0.11707196367E+04  0.10000000000E+02 0. -1.
</event>
<event>
 5    1  0.1800099E-008  0.3860087E+03  0.7957747E-01  0.3425405E+00
         13   -1    0    0    0    0  0.00000000000E+00  0.00000000000E+00  0.14999999963E+04  0.15000000000E+04  0.10566000000E+00 0. -1.
        994   -1    0    0    0    0 -0.00000000000E+00 -0.00000000000E+00  0.11368683772E-12  0.17120000000E+03  0.17120000000E+03 0.  0.
         13    1    1    2    0    0 -0.53793985138E+01  0.92940095506E+01  0.53456673484E+02  0.54524706747E+02  0.10566000000E+00 0. -1.
        994    1    1    2    0    0  0.58931635136E+01  0.85262606461E+00  0.12463864375E+01  0.17130805535E+03  0.17120000000E+03 0.  0.
        998    1    1    2    0    0 -0.51376499978E+00 -0.10146635615E+02  0.14452969364E+04  0.14453672379E+04  0.10000000000E+02 0. -1.
</event>
<event>
 5    1  0.1800099E-008  0.3809964E+03  0.7957747E-01  0.3446832E+00
         13   -1    0    0    0    0  0.00000000000E+00  0.00000000000E+00  0.14999999963E+04  0.15000000000E+04  0.10566000000E+00 0.  1.
        994   -1    0    0    0    0 -0.00000000000E+00 -0.00000000000E+00  0.11368683772E-12  0.17120000000E+03  0.17120000000E+03 0.  0.
         13    1    1    2    0    0 -0.11377968637E+02 -0.59568748421E+01  0.21318648258E+02  0.24888520562E+02  0.10566000000E+00 0.  1.
        994    1    1    2    0    0  0.76000854203E+01  0.20737863545E+01  0.38378462384E+01  0.17142412593E+03  0.17120000000E+03 0.  0.
        998    1    1    2    0    0  0.37778832170E+01  0.38830884876E+01  0.14748435018E+04  0.14748873535E+04  0.10000000000E+02 0.  1.
</event>
<event>
 5    1  0.1800099E-008  0.3793487E+03  0.7957747E-01  0.3453999E+00
         13   -1    0    0    0    0  0.00000000000E+00  0.00000000000E+00  0.14999999963E+04  0.15000000000E+04  0.10566000000E+00 0. -1.
        994   -1    0    0    0    0 -0.00000000000E+00 -0.00000000000E+00  0.11368683772E-12  0.17120000000E+03  0.17120000000E+03 0.  0.
         13    1    1    2    0    0 -0.11781862248E+02 -0.13626457265E+02  0.33869204817E+02  0.38361788469E+02  0.10566000000E+00 0. -1.
        994    1    1    2    0    0  0.16520735029E+02  0.10723769492E+02  0.57629860671E+01  0.17242559533E+03  0.17120000000E+03 0.  0.
        998    1    1    2    0    0 -0.47388727807E+01  0.29026877731E+01  0.14603678054E+04  0.14604126162E+04  0.10000000000E+02 0. -1.
</event>
<event>
 5    1  0.1800099E-008  0.3729590E+03  0.7957747E-01  0.3482402E+00
         13   -1    0    0    0    0  0.00000000000E+00  0.00000000000E+00  0.14999999963E+04  0.15000000000E+04  0.10566000000E+00 0. -1.
        994   -1    0    0    0    0 -0.00000000000E+00 -0.00000000000E+00  0.11368683772E-12  0.17120000000E+03  0.17120000000E+03 0.  0.
         13    1    1    2    0    0  0.40053268398E+02  0.10726059651E+00  0.91909865850E+02  0.10025821871E+03  0.10566000000E+00 0. -1.
        994    1    1    2    0    0 -0.49375665937E+02  0.26951451738E+01  0.16146719691E+02  0.17892841236E+03  0.17120000000E+03 0.  0.
        998    1    1    2    0    0  0.93223975394E+01 -0.28024057703E+01  0.13919434107E+04  0.13920133689E+04  0.10000000000E+02 0. -1.
</event>
<event>
 5    1  0.1800099E-008  0.3741125E+03  0.7957747E-01  0.3477202E+00
         13   -1    0    0    0    0  0.00000000000E+00  0.00000000000E+00  0.14999999963E+04  0.15000000000E+04  0.10566000000E+00 0. -1.
        994   -1    0    0    0    0 -0.00000000000E+00 -0.00000000000E+00  0.11368683772E-12  0.17120000000E+03  0.17120000000E+03 0.  0.
         13    1    1    2    0    0  0.19370957232E+02  0.25087560529E+02  0.32071511302E+02  0.45091159650E+02  0.10566000000E+00 0. -1.
        994    1    1    2    0    0 -0.28905767346E+02 -0.20922724270E+02  0.17660106525E+02  0.17576866370E+03  0.17120000000E+03 0.  0.
        998    1    1    2    0    0  0.95348101137E+01 -0.41648362593E+01  0.14502683785E+04  0.14503401766E+04  0.10000000000E+02 0. -1.
</event>
<event>
 5    1  0.1800099E-008  0.3865140E+03  0.7957747E-01  0.3423276E+00
         13   -1    0    0    0    0  0.00000000000E+00  0.00000000000E+00  0.14999999963E+04  0.15000000000E+04  0.10566000000E+00 0. -1.
        994   -1    0    0    0    0 -0.00000000000E+00 -0.00000000000E+00  0.11368683772E-12  0.17120000000E+03  0.17120000000E+03 0.  0.
         13    1    1    2    0    0 -0.61627240895E+01 -0.91589572716E+01  0.63705257161E+02  0.64654749404E+02  0.10566000000E+00 0. -1.
        994    1    1    2    0    0  0.16516222176E+02  0.13094565730E+02  0.23355326353E+01  0.17250839968E+03  0.17120000000E+03 0.  0.
        998    1    1    2    0    0 -0.10353498086E+02 -0.39356084586E+01  0.14339592065E+04  0.14340368509E+04  0.10000000000E+02 0. -1.
</event>
<event>
 5    1  0.1800099E-008  0.3844897E+03  0.7957747E-01  0.3431839E+00
         13   -1    0    0    0    0  0.00000000000E+00  0.00000000000E+00  0.14999999963E+04  0.15000000000E+04  0.10566000000E+00 0.  1.
        994   -1    0    0    0    0 -0.00000000000E+00 -0.00000000000E+00  0.11368683772E-12  0.17120000000E+03  0.17120000000E+03 0.  0.
         13    1    1    2    0    0  0.30066114473E+01  0.16746819804E+02  0.71585154296E+02  0.73579488756E+02  0.10566000000E+00 0.  1.
        994    1    1    2    0    0 -0.31513256225E+01 -0.21903065486E+02  0.34984041994E+01  0.17265964775E+03  0.17120000000E+03 0.  0.
        998    1    1    2    0    0  0.14471417515E+00  0.51562456815E+01  0.14249164378E+04  0.14249608635E+04  0.10000000000E+02 0.  1.
</event>
<event>
 5    1  0.1800099E-008  0.3836286E+03  0.7957747E-01  0.3435510E+00
         13   -1    0    0    0    0  0.00000000000E+00  0.00000000000E+00  0.14999999963E+04  0.15000000000E+04  0.10566000000E+00 0.  1.
        994   -1    0    0    0    0 -0.00000000000E+00 -0.00000000000E+00  0.11368683772E-12  0.17120000000E+03  0.17120000000E+03 0.  0.
         13    1    1    2    0    0 -0.11028992096E+02 -0.10964935034E+02  0.53849343442E+02  0.56050257985E+02  0.10566000000E+00 0.  1.
        994    1    1    2    0    0 -0.11648676355E+01  0.41334286744E+01  0.23734942344E+01  0.17127029989E+03  0.17120000000E+03 0.  0.
        998    1    1    2    0    0  0.12193859731E+02  0.68315063594E+01  0.14437771586E+04  0.14438794421E+04  0.10000000000E+02 0.  1.
</event>
<event>
 5    1  0.1800099E-008  0.3843702E+03  0.7957747E-01  0.3432348E+00
         13   -1    0    0    0    0  0.00000000000E+00  0.00000000000E+00  0.14999999963E+04  0.15000000000E+04  0.10566000000E+00 0.  1.
        994   -1    0    0    0    0 -0.00000000000E+00 -0.00000000000E+00  0.11368683772E-12  0.17120000000E+03  0.17120000000E+03 0.  0.
         13    1    1    2    0    0  0.13718654249E+02 -0.69728704707E+01  0.61553074543E+02  0.63447730824E+02  0.10566000000E+00 0.  1.
        994    1    1    2    0    0 -0.63011150940E+01  0.41560300988E+01  0.21309496465E+01  0.17137957166E+03  0.17120000000E+03 0.  0.
        998    1    1    2    0    0 -0.74175391547E+01  0.28168403719E+01  0.14363159721E+04  0.14363726975E+04  0.10000000000E+02 0.  1.
</event>
<event>
 5    1  0.1800099E-008  0.3775894E+03  0.7957747E-01  0.3461722E+00
         13   -1    0    0    0    0  0.00000000000E+00  0.00000000000E+00  0.14999999963E+04  0.15000000000E+04  0.10566000000E+00 0. -1.
        994   -1    0    0    0    0 -0.00000000000E+00 -0.00000000000E+00  0.11368683772E-12  0.17120000000E+03  0.17120000000E+03 0.  0.
         13    1    1    2    0    0  0.24908340261E+02  0.18046168026E+02  0.82070161532E+02  0.87644806879E+02  0.10566000000E+00 0. -1.
        994    1    1    2    0    0 -0.22884681433E+02 -0.21779775941E+02  0.87255648763E+01  0.17430904385E+03  0.17120000000E+03 0.  0.
        998    1    1    2    0    0 -0.20236588286E+01  0.37336079146E+01  0.14092042699E+04  0.14092461493E+04  0.10000000000E+02 0. -1.
</event>
<event>
 5    1  0.2324534E-008  0.3864127E+03  0.7957747E-01  0.3423703E+00
         13   -1    0    0    0    0  0.00000000000E+00  0.00000000000E+00  0.14999999963E+04  0.15000000000E+04  0.10566000000E+00 0. -1.
        994   -1    0    0    0    0 -0.00000000000E+00 -0.00000000000E+00  0.11368683772E-12  0.17120000000E+03  0.17120000000E+03 0.  0.
         13    1    1    2    0    0 -0.10128886617E+02  0.35003666908E+01  0.64349789797E+02  0.65236136627E+02  0.10566000000E+00 0. -1.
        994    1    1    2    0    0  0.54858513571E+01  0.20037468415E+01  0.10420264733E+01  0.17130275942E+03  0.17120000000E+03 0.  0.
        998    1    1    2    0    0  0.46430352596E+01 -0.55041135322E+01  0.14346081800E+04  0.14346611040E+04  0.10000000000E+02 0. -1.
</event>
<event>
 5    1  0.1800099E-008  0.3833253E+03  0.7957747E-01  0.3436806E+00
         13   -1    0    0    0    0  0.00000000000E+00  0.00000000000E+00  0.14999999963E+04  0.15000000000E+04  0.10566000000E+00 0. -1.
        994   -1    0    0    0    0 -0.00000000000E+00 -0.00000000000E+00  0.11368683772E-12  0.17120000000E+03  0.17120000000E+03 0.  0.
         13    1    1    2    0    0 -0.19314689233E+02 -0.36721892328E+01  0.79908852545E+02  0.82292029219E+02  0.10566000000E+00 0. -1.
        994    1    1    2    0    0  0.77408793174E+01  0.15622708315E+01  0.26701021048E+01  0.17140283355E+03  0.17120000000E+03 0.  0.
        998    1    1    2    0    0  0.11573809915E+02  0.21099184012E+01  0.14174210416E+04  0.14175051372E+04  0.10000000000E+02 0. -1.
</event>
<event>
 5    1  0.1800099E-008  0.4014844E+03  0.7957747E-01  0.3362633E+00
         13   -1    0    0    0    0  0.00000000000E+00  0.00000000000E+00  0.14999999963E+04  0.15000000000E+04  0.10566000000E+00 0. -1.
        994   -1    0    0    0    0 -0.00000000000E+00 -0.00000000000E+00  0.11368683772E-12  0.17120000000E+03  0.17120000000E+03 0.  0.
         13    1    1    2    0    0  0.46578237053E+02 -0.22438448513E+02  0.35079355329E+02  0.62478704156E+02  0.10566000000E+00 0. -1.
        994    1    1    2    0    0 -0.42531317856E+02  0.33697394987E+02  0.40356778800E+02  0.18407209735E+03  0.17120000000E+03 0.  0.
        998    1    1    2    0    0 -0.40469191979E+01 -0.11258946475E+02  0.14245638621E+04  0.14246491985E+04  0.10000000000E+02 0. -1.
</event>
<event>
 5    1  0.1800099E-008  0.3760497E+03  0.7957747E-01  0.3468541E+00
         13   -1    0    0    0    0  0.00000000000E+00  0.00000000000E+00  0.14999999963E+04  0.15000000000E+04  0.10566000000E+00 0.  1.
        994   -1    0    0    0    0 -0.00000000000E+00 -0.00000000000E+00  0.11368683772E-12  0.17120000000E+03  0.17120000000E+03 0.  0.
         13    1    1    2    0    0 -0.20309762319E+02  0.17748688038E+02  0.54587786913E+02  0.60887929974E+02  0.10566000000E+00 0.  1.
        994    1    1    2    0    0  0.16470824277E+02 -0.26309736592E+02  0.94111225693E+01  0.17424551506E+03  0.17120000000E+03 0.  0.
        998    1    1    2    0    0  0.38389380423E+01  0.85610485538E+01  0.14360010868E+04  0.14360665550E+04  0.10000000000E+02 0.  1.
</event>
<event>
 5    1  0.1800099E-008  0.3850779E+03  0.7957747E-01  0.3429342E+00
         13   -1    0    0    0    0  0.00000000000E+00  0.00000000000E+00  0.14999999963E+04  0.15000000000E+04  0.10566000000E+00 0. -1.
        994   -1    0    0    0    0 -0.00000000000E+00 -0.00000000000E+00  0.11368683772E-12  0.17120000000E+03  0.17120000000E+03 0.  0.
         13    1    1    2    0    0  0.35096649875E+01  0.10380554109E+02  0.37542749452E+02  0.39109370391E+02  0.10566000000E+00 0. -1.
        994    1    1    2    0    0 -0.36225493251E+01 -0.69686165526E+01  0.17942881602E+01  0.17138945111E+03  0.17120000000E+03 0.  0.
        998    1    1    2    0    0  0.11288433765E+00 -0.34119375564E+01  0.14606629587E+04  0.14607011785E+04  0.10000000000E+02 0. -1.
</event>
<event>
 5    1  0.1800099E-008  0.3830135E+03  0.7957747E-01  0.3438141E+00
         13   -1    0    0    0    0  0.00000000000E+00  0.00000000000E+00  0.14999999963E+04  0.15000000000E+04  0.10566000000E+00 0.  1.
        994   -1    0    0    0    0 -0.00000000000E+00 -0.00000000000E+00  0.11368683772E-12  0.17120000000E+03  0.17120000000E+03 0.  0.
         13    1    1    2    0    0  0.98182159972E+01 -0.25386267505E+01  0.18246678117E+02  0.20875689629E+02  0.10566000000E+00 0.  1.
        994    1    1    2    0    0 -0.13761861879E+02  0.37496412922E+01  0.32933021072E+01  0.17182472026E+03  0.17120000000E+03 0.  0.
        998    1    1    2    0    0  0.39436458813E+01 -0.12110145418E+01  0.14784600161E+04  0.14784995901E+04  0.10000000000E+02 0.  1.
</event>
<event>
 5    1  0.1800099E-008  0.3987557E+03  0.7957747E-01  0.3373348E+00
         13   -1    0    0    0    0  0.00000000000E+00  0.00000000000E+00  0.14999999963E+04  0.15000000000E+04  0.10566000000E+00 0. -1.
        994   -1    0    0    0    0 -0.00000000000E+00 -0.00000000000E+00  0.11368683772E-12  0.17120000000E+03  0.17120000000E+03 0.  0.
         13    1    1    2    0    0  0.44603661600E+02  0.11673698797E+03  0.25754932848E+03  0.28626679645E+03  0.10566000000E+00 0. -1.
        994    1    1    2    0    0 -0.52893009805E+02 -0.86827654450E+02  0.68555030102E+02  0.21058476729E+03  0.17120000000E+03 0.  0.
        998    1    1    2    0    0  0.82893482051E+01 -0.29909333517E+02  0.11738956377E+04  0.11743484363E+04  0.10000000000E+02 0. -1.
</event>
<event>
 5    1  0.1800099E-008  0.3794115E+03  0.7957747E-01  0.3453725E+00
         13   -1    0    0    0    0  0.00000000000E+00  0.00000000000E+00  0.14999999963E+04  0.15000000000E+04  0.10566000000E+00 0. -1.
        994   -1    0    0    0    0 -0.00000000000E+00 -0.00000000000E+00  0.11368683772E-12  0.17120000000E+03  0.17120000000E+03 0.  0.
         13    1    1    2    0    0  0.13333708922E+02  0.20673101718E+01  0.18695439899E+02  0.23056283352E+02  0.10566000000E+00 0. -1.
        994    1    1    2    0    0 -0.97085918539E+01  0.35793704372E+01  0.47892181276E+01  0.17157926815E+03  0.17120000000E+03 0.  0.
        998    1    1    2    0    0 -0.36251170677E+01 -0.56466806090E+01  0.14765153383E+04  0.14765644485E+04  0.10000000000E+02 0. -1.
</event>
<event>
 5    1  0.1800099E-008  0.3847273E+03  0.7957747E-01  0.3430830E+00
         13   -1    0    0    0    0  0.00000000000E+00  0.00000000000E+00  0.14999999963E+04  0.15000000000E+04  0.10566000000E+00 0.  1.
        994   -1    0    0    0    0 -0.00000000000E+00 -0.00000000000E+00  0.11368683772E-12  0.17120000000E+03  0.17120000000E+03 0.  0.
         13    1    1    2    0    0  0.70628964260E+01  0.96134510237E+01  0.38047190775E+02  0.39873585698E+02  0.10566000000E+00 0.  1.
        994    1    1    2    0    0 -0.19505620717E+02 -0.92468048467E+01  0.33008869937E+01  0.17258710408E+03  0.17120000000E+03 0.  0.
        998    1    1    2    0    0  0.12442724291E+02 -0.36664617693E+00  0.14586519185E+04  0.14587393102E+04  0.10000000000E+02 0.  1.
</event>
<event>
 5    1  0.1800099E-008  0.3725120E+03  0.7957747E-01  0.3484425E+00
         13   -1    0    0    0    0  0.00000000000E+00  0.00000000000E+00  0.14999999963E+04  0.15000000000E+04  0.10566000000E+00 0.  1.
        994   -1    0    0    0    0 -0.00000000000E+00 -0.00000000000E+00  0.11368683772E-12  0.17120000000E+03  0.17120000000E+03 0.  0.
         13    1    1    2    0    0 -0.31097929398E+02 -0.27964078332E+02  0.12391139204E+03  0.13077887876E+03  0.10566000000E+00 0.  1.
        994    1    1    2    0    0  0.13518598205E+01 -0.12816824038E+02  0.85315209706E+01  0.17189626335E+03  0.17120000000E+03 0.  0.
        998    1    1    2    0    0  0.29746069577E+02  0.40780902369E+02  0.13675570833E+04  0.13685248579E+04  0.10000000000E+02 0.  1.
</event>
<event>
 5    1  0.1800099E-008  0.3784097E+03  0.7957747E-01  0.3458112E+00
         13   -1    0    0    0    0  0.00000000000E+00  0.00000000000E+00  0.14999999963E+04  0.15000000000E+04  0.10566000000E+00 0.  1.
        994   -1    0    0    0    0 -0.00000000000E+00 -0.00000000000E+00  0.11368683772E-12  0.17120000000E+03  0.17120000000E+03 0.  0.
         13    1    1    2    0    0  0.21886167326E+02  0.13967224991E+03  0.79394609952E+03  0.80643521862E+03  0.10566000000E+00 0.  1.
        994    1    1    2    0    0 -0.27293179540E+02 -0.14360857125E+03  0.80473220791E+02  0.23906843926E+03  0.17120000000E+03 0.  0.
        998    1    1    2    0    0  0.54070122147E+01  0.39363213370E+01  0.62558067597E+03  0.62569634212E+03  0.10000000000E+02 0.  1.
</event>
<event>
 5    1  0.1800099E-008  0.3778689E+03  0.7957747E-01  0.3460491E+00
         13   -1    0    0    0    0  0.00000000000E+00  0.00000000000E+00  0.14999999963E+04  0.15000000000E+04  0.10566000000E+00 0.  1.
        994   -1    0    0    0    0 -0.00000000000E+00 -0.00000000000E+00  0.11368683772E-12  0.17120000000E+03  0.17120000000E+03 0.  0.
         13    1    1    2    0    0 -0.88222450294E+01  0.39233210697E+02  0.16166395704E+03  0.16659028483E+03  0.10566000000E+00 0.  1.
        994    1    1    2    0    0 -0.26220265792E+02 -0.21961206558E+02  0.91611912165E+01  0.17482323746E+03  0.17120000000E+03 0.  0.
        998    1    1    2    0    0  0.35042510821E+02 -0.17272004139E+02  0.13291748480E+04  0.13297864777E+04  0.10000000000E+02 0.  1.
</event>
<event>
 5    1  0.1800099E-008  0.3841798E+03  0.7957747E-01  0.3433158E+00
         13   -1    0    0    0    0  0.00000000000E+00  0.00000000000E+00  0.14999999963E+04  0.15000000000E+04  0.10566000000E+00 0. -1.
        994   -1    0    0    0    0 -0.00000000000E+00 -0.00000000000E+00  0.11368683772E-12  0.17120000000E+03  0.17120000000E+03 0.  0.
         13    1    1    2    0    0 -0.97038950073E+01 -0.58386268495E+01  0.30584870286E+02  0.32614423132E+02  0.10566000000E+00 0. -1.
        994    1    1    2    0    0  0.95085474362E+01  0.47760306200E+01  0.24113335273E+01  0.17154730389E+03  0.17120000000E+03 0.  0.
        998    1    1    2    0    0  0.19534757111E+00  0.10625962295E+01  0.14670037925E+04  0.14670382730E+04  0.10000000000E+02 0. -1.
</event>
<event>
 5    1  0.1800099E-008  0.3839830E+03  0.7957747E-01  0.3433997E+00
         13   -1    0    0    0    0  0.00000000000E+00  0.00000000000E+00  0.14999999963E+04  0.15000000000E+04  0.10566000000E+00 0. -1.
        994   -1    0    0    0    0 -0.00000000000E+00 -0.00000000000E+00  0.11368683772E-12  0.17120000000E+03  0.17120000000E+03 0.  0.
         13    1    1    2    0    0 -0.14699300516E+02  0.16293390021E+02  0.13020590325E+03  0.13204216144E+03  0.10566000000E+00 0. -1.
        994    1    1    2    0    0 -0.69964768295E+01 -0.23678836486E+00  0.22976262700E+01  0.17135847176E+03  0.17120000000E+03 0.  0.
        998    1    1    2    0    0  0.21695777345E+02 -0.16056601657E+02  0.13674964668E+04  0.13677993668E+04  0.10000000000E+02 0. -1.
</event>
<event>
 5    1  0.1800099E-008  0.3497526E+03  0.7957747E-01  0.3594454E+00
         13   -1    0    0    0    0  0.00000000000E+00  0.00000000000E+00  0.14999999963E+04  0.15000000000E+04  0.10566000000E+00 0.  1.
        994   -1    0    0    0    0 -0.00000000000E+00 -0.00000000000E+00  0.11368683772E-12  0.17120000000E+03  0.17120000000E+03 0.  0.
         13    1    1    2    0    0  0.19646677166E+03  0.16357486244E+03  0.90739788739E+03  0.94272311162E+03  0.10566000000E+00 0.  1.
        994    1    1    2    0    0 -0.17627563338E+03 -0.17350649110E+03  0.26780806909E+03  0.40275079547E+03  0.17120000000E+03 0.  0.
        998    1    1    2    0    0 -0.20191138279E+02  0.99316286599E+01  0.32479403980E+03  0.32572609291E+03  0.10000000000E+02 0. -1.
</event>
<event>
 5    1  0.1800099E-008  0.3855000E+03  0.7957747E-01  0.3427554E+00
         13   -1    0    0    0    0  0.00000000000E+00  0.00000000000E+00  0.14999999963E+04  0.15000000000E+04  0.10566000000E+00 0.  1.
        994   -1    0    0    0    0 -0.00000000000E+00 -0.00000000000E+00  0.11368683772E-12  0.17120000000E+03  0.17120000000E+03 0.  0.
         13    1    1    2    0    0 -0.10154294314E+02  0.92396312807E+01  0.76709890289E+02  0.77928806686E+02  0.10566000000E+00 0.  1.
        994    1    1    2    0    0 -0.62695050712E+01  0.16542731064E+01  0.15201566288E+01  0.17132949013E+03  0.17120000000E+03 0.  0.
        998    1    1    2    0    0  0.16423799385E+02 -0.10893904387E+02  0.14217699494E+04  0.14219417032E+04  0.10000000000E+02 0.  1.
</event>
<event>
 5    1  0.1800099E-008  0.3846574E+03  0.7957747E-01  0.3431127E+00
         13   -1    0    0    0    0  0.00000000000E+00  0.00000000000E+00  0.14999999963E+04  0.15000000000E+04  0.10566000000E+00 0. -1.
        994   -1    0    0    0    0 -0.00000000000E+00 -0.00000000000E+00  0.11368683772E-12  0.17120000000E+03  0.17120000000E+03 0.  0.
         13    1    1    2    0    0 -0.74202221382E+01 -0.14375865662E+02  0.70866685487E+02  0.72689913234E+02  0.10566000000E+00 0. -1.
        994    1    1    2    0    0 -0.47815403011E+00  0.16386904942E+02  0.26856644078E+01  0.17200410483E+03  0.17120000000E+03 0.  0.
        998    1    1    2    0    0  0.78983761683E+01 -0.20110392806E+01  0.14264476464E+04  0.14265059819E+04  0.10000000000E+02 0. -1.
</event>
<event>
 5    1  0.1800099E-008  0.3699199E+03  0.7957747E-01  0.3496259E+00
         13   -1    0    0    0    0  0.00000000000E+00  0.00000000000E+00  0.14999999963E+04  0.15000000000E+04  0.10566000000E+00 0. -1.
        994   -1    0    0    0    0 -0.00000000000E+00 -0.00000000000E+00  0.11368683772E-12  0.17120000000E+03  0.17120000000E+03 0.  0.
         13    1    1    2    0    0  0.67462189891E+02 -0.15115900573E+03  0.65075593162E+03  0.67147858177E+03  0.10566000000E+00 0. -1.
        994    1    1    2    0    0 -0.67476177867E+02  0.14872396460E+03  0.11089825075E+03  0.26130387338E+03  0.17120000000E+03 0.  0.
        998    1    1    2    0    0  0.13987976699E-01  0.24350411290E+01  0.73834581391E+03  0.73841754485E+03  0.10000000000E+02 0.  0.
</event>
<event>
 5    1  0.1800099E-008  0.3742585E+03  0.7957747E-01  0.3476546E+00
         13   -1    0    0    0    0  0.00000000000E+00  0.00000000000E+00  0.14999999963E+04  0.15000000000E+04  0.10566000000E+00 0. -1.
        994   -1    0    0    0    0 -0.00000000000E+00 -0.00000000000E+00  0.11368683772E-12  0.17120000000E+03  0.17120000000E+03 0.  0.
         13    1    1    2    0    0  0.48338563017E+02 -0.18864833320E+02  0.94692989902E+02  0.10797810941E+03  0.10566000000E+00 0. -1.
        994    1    1    2    0    0 -0.44756949138E+02  0.16693901417E+01  0.20361797048E+02  0.17812920630E+03  0.17120000000E+03 0.  0.
        998    1    1    2    0    0 -0.35816138787E+01  0.17195443178E+02  0.13849452093E+04  0.13850926843E+04  0.10000000000E+02 0. -1.
</event>
<event>
 5    1  0.1800099E-008  0.3832508E+03  0.7957747E-01  0.3437125E+00
         13   -1    0    0    0    0  0.00000000000E+00  0.00000000000E+00  0.14999999963E+04  0.15000000000E+04  0.10566000000E+00 0.  1.
        994   -1    0    0    0    0 -0.00000000000E+00 -0.00000000000E+00  0.11368683772E-12  0.17120000000E+03  0.17120000000E+03 0.  0.
         13    1    1    2    0    0 -0.22604714404E+02 -0.96372098171E+01  0.11225158359E+03  0.11490986950E+03  0.10566000000E+00 0.  1.
        994    1    1    2    0    0  0.20560487988E+02  0.15595279526E+02  0.47067568591E+01  0.17319797912E+03  0.17120000000E+03 0.  0.
        998    1    1    2    0    0  0.20442264156E+01 -0.59580697085E+01  0.13830416558E+04  0.13830921514E+04  0.10000000000E+02 0.  1.
</event>
<event>
 5    1  0.1800099E-008  0.3843748E+03  0.7957747E-01  0.3432328E+00
         13   -1    0    0    0    0  0.00000000000E+00  0.00000000000E+00  0.14999999963E+04  0.15000000000E+04  0.10566000000E+00 0.  1.
        994   -1    0    0    0    0 -0.00000000000E+00 -0.00000000000E+00  0.11368683772E-12  0.17120000000E+03  0.17120000000E+03 0.  0.
         13    1    1    2    0    0 -0.22451591346E+00 -0.22547434043E+02  0.12255401022E+03  0.12461113022E+03  0.10566000000E+00 0.  1.
        994    1    1    2    0    0 -0.35075476283E+01  0.22071822692E+02  0.35885149344E+01  0.17268985404E+03  0.17120000000E+03 0.  0.
        998    1    1    2    0    0  0.37320635418E+01  0.47561135066E+00  0.13738574711E+04  0.13738990157E+04  0.10000000000E+02 0.  1.
</event>
<event>
 5    1  0.1800099E-008  0.3837125E+03  0.7957747E-01  0.3435151E+00
         13   -1    0    0    0    0  0.00000000000E+00  0.00000000000E+00  0.14999999963E+04  0.15000000000E+04  0.10566000000E+00 0. -1.
        994   -1    0    0    0    0 -0.00000000000E+00 -0.00000000000E+00  0.11368683772E-12  0.17120000000E+03  0.17120000000E+03 0.  0.
         13    1    1    2    0    0 -0.23539186470E+02  0.16057244597E+02  0.17202190239E+03  0.17436592118E+03  0.10566000000E+00 0. -1.
        994    1    1    2    0    0  0.19111856389E+02 -0.91068673444E+01  0.37522396697E+01  0.17254482719E+03  0.17120000000E+03 0.  0.
        998    1    1    2    0    0  0.44273300813E+01 -0.69503772527E+01  0.13242258542E+04  0.13242892516E+04  0.10000000000E+02 0. -1.
</event>
<event>
 5    1  0.1800099E-008  0.3838967E+03  0.7957747E-01  0.3434365E+00
         13   -1    0    0    0    0  0.00000000000E+00  0.00000000000E+00  0.14999999963E+04  0.15000000000E+04  0.10566000000E+00 0.  1.
        994   -1    0    0    0    0 -0.00000000000E+00 -0.00000000000E+00  0.11368683772E-12  0.17120000000E+03  0.17120000000E+03 0.  0.
         13    1    1    2    0    0 -0.11872188482E+02  0.98547059724E+01  0.53549870133E+02  0.55728483242E+02  0.10566000000E+00 0.  1.
        994    1    1    2    0    0  0.10089656845E+02 -0.71675324765E+01  0.26846074535E+01  0.17166776580E+03  0.17120000000E+03 0.  0.
        998    1    1    2    0    0  0.17825316372E+01 -0.26871734959E+01  0.14437655187E+04  0.14438037510E+04  0.10000000000E+02 0.  1.
</event>
<event>
 5    1  0.1800099E-008  0.3837070E+03  0.7957747E-01  0.3435175E+00
         13   -1    0    0    0    0  0.00000000000E+00  0.00000000000E+00  0.14999999963E+04  0.15000000000E+04  0.10566000000E+00 0.  1.
        994   -1    0    0    0    0 -0.00000000000E+00 -0.00000000000E+00  0.11368683772E-12  0.17120000000E+03  0.17120000000E+03 0.  0.
         13    1    1    2    0    0  0.24716461896E+02  0.58281066044E+01  0.12862864143E+03  0.13111143686E+03  0.10566000000E+00 0.  1.
        994    1    1    2    0    0 -0.28825696309E+02  0.46325511023E+00  0.50231127943E+01  0.17368306491E+03  0.17120000000E+03 0.  0.
        998    1    1    2    0    0  0.41092344125E+01 -0.62913617146E+01  0.13663482421E+04  0.13664054982E+04  0.10000000000E+02 0.  1.
</event>
<event>
 5    1  0.1800099E-008  0.3876101E+03  0.7957747E-01  0.3418677E+00
         13   -1    0    0    0    0  0.00000000000E+00  0.00000000000E+00  0.14999999963E+04  0.15000000000E+04  0.10566000000E+00 0.  1.
        994   -1    0    0    0    0 -0.00000000000E+00 -0.00000000000E+00  0.11368683772E-12  0.17120000000E+03  0.17120000000E+03 0.  0.
         13    1    1    2    0    0 -0.10848879670E+02 -0.72432873829E+01 -0.53567719058E+01  0.14102112306E+02  0.10566000000E+00 0.  1.
        994    1    1    2    0    0  0.24424326166E+02  0.72059123336E+00  0.22800691185E+02  0.17443158682E+03  0.17120000000E+03 0.  0.
        998    1    1    2    0    0 -0.13575446497E+02  0.65226961496E+01  0.14825560770E+04  0.14826663009E+04  0.10000000000E+02 0.  1.
</event>
<event>
 5    1  0.1800099E-008  0.3842956E+03  0.7957747E-01  0.3432665E+00
         13   -1    0    0    0    0  0.00000000000E+00  0.00000000000E+00  0.14999999963E+04  0.15000000000E+04  0.10566000000E+00 0.  1.
        994   -1    0    0    0    0 -0.00000000000E+00 -0.00000000000E+00  0.11368683772E-12  0.17120000000E+03  0.17120000000E+03 0.  0.
         13    1    1    2    0    0  0.12878411193E+02 -0.11803298224E+02  0.79563672746E+02  0.81458949838E+02  0.10566000000E+00 0.  1.
        994    1    1    2    0    0  0.11698142929E+01  0.97776766848E+01  0.22999553363E+01  0.17149840005E+03  0.17120000000E+03 0.  0.
        998    1    1    2    0    0 -0.14048225486E+02  0.20256215396E+01  0.14181363682E+04  0.14182426501E+04  0.10000000000E+02 0.  1.
</event>
<event>
 5    1  0.1800099E-008  0.3761270E+03  0.7957747E-01  0.3468198E+00
         13   -1    0    0    0    0  0.00000000000E+00  0.00000000000E+00  0.14999999963E+04  0.15000000000E+04  0.10566000000E+00 0.  1.
        994   -1    0    0    0    0 -0.00000000000E+00 -0.00000000000E+00  0.11368683772E-12  0.17120000000E+03  0.17120000000E+03 0.  0.
         13    1    1    2    0    0 -0.51891496619E+01 -0.13945743102E+02  0.15622280432E+02  0.21574935337E+02  0.10566000000E+00 0.  1.
        994    1    1    2    0    0  0.40574585291E+01  0.57497603540E+01  0.62688445840E+01  0.17145921126E+03  0.17120000000E+03 0.  0.
        998    1    1    2    0    0  0.11316911328E+01  0.81959827477E+01  0.14781088713E+04  0.14781658534E+04  0.10000000000E+02 0.  1.
</event>
<event>
 5    1  0.1800099E-008  0.3845021E+03  0.7957747E-01  0.3431786E+00
         13   -1    0    0    0    0  0.00000000000E+00  0.00000000000E+00  0.14999999963E+04  0.15000000000E+04  0.10566000000E+00 0.  1.
        994   -1    0    0    0    0 -0.00000000000E+00 -0.00000000000E+00  0.11368683772E-12  0.17120000000E+03  0.17120000000E+03 0.  0.
         13    1    1    2    0    0 -0.10105121767E+02  0.71204087259E+01  0.40749593948E+02  0.42583497711E+02  0.10566000000E+00 0.  1.
        994    1    1    2    0    0  0.30205545930E+01 -0.67089915725E+01  0.20558531828E+01  0.17137036164E+03  0.17120000000E+03 0.  0.
        998    1    1    2    0    0  0.70845671736E+01 -0.41141715331E+00  0.14571945491E+04  0.14572461406E+04  0.10000000000E+02 0.  1.
</event>
<event>
 5    1  0.1800099E-008  0.3847321E+03  0.7957747E-01  0.3430809E+00
         13   -1    0    0    0    0  0.00000000000E+00  0.00000000000E+00  0.14999999963E+04  0.15000000000E+04  0.10566000000E+00 0. -1.
        994   -1    0    0    0    0 -0.00000000000E+00 -0.00000000000E+00  0.11368683772E-12  0.17120000000E+03  0.17120000000E+03 0.  0.
         13    1    1    2    0    0 -0.14962608930E+02 -0.13660880277E+01  0.62392743288E+02  0.64176408761E+02  0.10566000000E+00 0. -1.
        994    1    1    2    0    0  0.13161070276E+02  0.90862052089E+01  0.26055187032E+01  0.17196511746E+03  0.17120000000E+03 0.  0.
        998    1    1    2    0    0  0.18015386535E+01 -0.77201171812E+01  0.14350017343E+04  0.14350584738E+04  0.10000000000E+02 0. -1.
</event>
<event>
 5    1  0.1800099E-008  0.3774735E+03  0.7957747E-01  0.3462234E+00
         13   -1    0    0    0    0  0.00000000000E+00  0.00000000000E+00  0.14999999963E+04  0.15000000000E+04  0.10566000000E+00 0. -1.
        994   -1    0    0    0    0 -0.00000000000E+00 -0.00000000000E+00  0.11368683772E-12  0.17120000000E+03  0.17120000000E+03 0.  0.
         13    1    1    2    0    0  0.18796777261E+02  0.31492277644E+02  0.11267618804E+03  0.11849479694E+03  0.10566000000E+00 0. -1.
        994    1    1    2    0    0 -0.19578423682E+02 -0.33799648042E+02  0.10574655404E+02  0.17591757791E+03  0.17120000000E+03 0.  0.
        998    1    1    2    0    0  0.78164642117E+00  0.23073703986E+01  0.13767491528E+04  0.13767876252E+04  0.10000000000E+02 0. -1.
</event>
<event>
 5    1  0.1800099E-008  0.3755158E+03  0.7957747E-01  0.3470919E+00
         13   -1    0    0    0    0  0.00000000000E+00  0.00000000000E+00  0.14999999963E+04  0.15000000000E+04  0.10566000000E+00 0. -1.
        994   -1    0    0    0    0 -0.00000000000E+00 -0.00000000000E+00  0.11368683772E-12  0.17120000000E+03  0.17120000000E+03 0.  0.
         13    1    1    2    0    0 -0.40501776257E+02 -0.15714584021E+02  0.65008912597E+02  0.78188950063E+02  0.10566000000E+00 0. -1.
        994    1    1    2    0    0  0.12755931235E+02  0.16857234882E+02  0.15480258591E+02  0.17319341372E+03  0.17120000000E+03 0.  0.
        998    1    1    2    0    0  0.27745845022E+02 -0.11426508609E+01  0.14195108251E+04  0.14198176362E+04  0.10000000000E+02 0. -1.
</event>
<event>
 5    1  0.1800099E-008  0.3830050E+03  0.7957747E-01  0.3438177E+00
         13   -1    0    0    0    0  0.00000000000E+00  0.00000000000E+00  0.14999999963E+04  0.15000000000E+04  0.10566000000E+00 0.  1.
        994   -1    0    0    0    0 -0.00000000000E+00 -0.00000000000E+00  0.11368683772E-12  0.17120000000E+03  0.17120000000E+03 0.  0.
         13    1    1    2    0    0 -0.14870052609E+02  0.19013599680E+02  0.11221496231E+03  0.11478172488E+03  0.10566000000E+00 0.  1.
        994    1    1    2    0    0  0.47692904994E+00 -0.15255621704E+02  0.33953569816E+01  0.17191256471E+03  0.17120000000E+03 0.  0.
        998    1    1    2    0    0  0.14393123559E+02 -0.37579779764E+01  0.13843896770E+04  0.13845057104E+04  0.10000000000E+02 0.  1.
</event>
<event>
 5    1  0.1857703E-008  0.3865511E+03  0.7957747E-01  0.3423120E+00
         13   -1    0    0    0    0  0.00000000000E+00  0.00000000000E+00  0.14999999963E+04  0.15000000000E+04  0.10566000000E+00 0. -1.
        994   -1    0    0    0    0 -0.00000000000E+00 -0.00000000000E+00  0.11368683772E-12  0.17120000000E+03  0.17120000000E+03 0.  0.
         13    1    1    2    0    0 -0.29544020430E+01 -0.95977487722E+01  0.58718660081E+02  0.59571280653E+02  0.10566000000E+00 0. -1.
        994    1    1    2    0    0 -0.26061633035E+01  0.10393628916E+02  0.12377685519E+01  0.17153947557E+03  0.17120000000E+03 0.  0.
        998    1    1    2    0    0  0.55605653466E+01 -0.79588014383E+00  0.14400435676E+04  0.14400892438E+04  0.10000000000E+02 0. -1.
</event>
<event>
 5    1  0.1800099E-008  0.4059380E+03  0.7957747E-01  0.3345452E+00
         13   -1    0    0    0    0  0.00000000000E+00  0.00000000000E+00  0.14999999963E+04  0.15000000000E+04  0.10566000000E+00 0. -1.
        994   -1    0    0    0    0 -0.00000000000E+00 -0.00000000000E+00  0.11368683772E-12  0.17120000000E+03  0.17120000000E+03 0.  0.
         13    1    1    2    0    0  0.55058798656E+02 -0.13592521972E+03  0.33077199439E+03  0.36182490255E+03  0.10566000000E+00 0. -1.
        994    1    1    2    0    0 -0.32097409494E+02  0.89227151717E+02  0.68464399881E+02  0.20733678485E+03  0.17120000000E+03 0.  0.
        998    1    1    2    0    0 -0.22961389162E+02  0.46698068005E+02  0.11007636020E+04  0.11020383126E+04  0.10000000000E+02 0. -1.
</event>
<event>
 5    1  0.1800099E-008  0.4369398E+03  0.7957747E-01  0.3235420E+00
         13   -1    0    0    0    0  0.00000000000E+00  0.00000000000E+00  0.14999999963E+04  0.15000000000E+04  0.10566000000E+00 0. -1.
        994   -1    0    0    0    0 -0.00000000000E+00 -0.00000000000E+00  0.11368683772E-12  0.17120000000E+03  0.17120000000E+03 0.  0.
         13    1    1    2    0    0 -0.37371778965E+02  0.46111656701E+02  0.19566599521E+02  0.62496381715E+02  0.10566000000E+00 0. -1.
        994    1    1    2    0    0  0.29671851020E+02  0.35601862005E+02  0.62036081401E+02  0.18789844788E+03  0.17120000000E+03 0.  0.
        998    1    1    2    0    0  0.76999279449E+01 -0.81713518706E+02  0.14183973154E+04  0.14208051704E+04  0.10000000000E+02 0. -1.
</event>
<event>
 5    1  0.1800099E-008  0.3802737E+03  0.7957747E-01  0.3449968E+00
         13   -1    0    0    0    0  0.00000000000E+00  0.00000000000E+00  0.14999999963E+04  0.15000000000E+04  0.10566000000E+00 0. -1.
        994   -1    0    0    0    0 -0.00000000000E+00 -0.00000000000E+00  0.11368683772E-12  0.17120000000E+03  0.17120000000E+03 0.  0.
         13    1    1    2    0    0 -0.61870055345E+02 -0.66856529372E+02  0.43532728315E+03  0.44475561142E+03  0.10566000000E+00 0. -1.
        994    1    1    2    0    0  0.65216077978E+02  0.12851410717E+03  0.76801080229E+02  0.23659429091E+03  0.17120000000E+03 0.  0.
        998    1    1    2    0    0 -0.33460226330E+01 -0.61657577799E+02  0.98787163290E+03  0.98985009767E+03  0.10000000000E+02 0. -1.
</event>
<event>
 5    1  0.1800099E-008  0.3798952E+03  0.7957747E-01  0.3451615E+00
         13   -1    0    0    0    0  0.00000000000E+00  0.00000000000E+00  0.14999999963E+04  0.15000000000E+04  0.10566000000E+00 0.  1.
        994   -1    0    0    0    0 -0.00000000000E+00 -0.00000000000E+00  0.11368683772E-12  0.17120000000E+03  0.17120000000E+03 0.  0.
         13    1    1    2    0    0 -0.28199885602E+02  0.13885442645E+02  0.10646535228E+03  0.11100865492E+03  0.10566000000E+00 0.  1.
        994    1    1    2    0    0  0.31218421967E+02 -0.18825882988E+02  0.86431749104E+01  0.17525167107E+03  0.17120000000E+03 0.  0.
        998    1    1    2    0    0 -0.30185363650E+01  0.49404403433E+01  0.13848914691E+04  0.13849396740E+04  0.10000000000E+02 0.  1.
</event>
<event>
 5    1  0.1800099E-008  0.3842825E+03  0.7957747E-01  0.3432721E+00
         13   -1    0    0    0    0  0.00000000000E+00  0.00000000000E+00  0.14999999963E+04  0.15000000000E+04  0.10566000000E+00 0.  1.
        994   -1    0    0    0    0 -0.00000000000E+00 -0.00000000000E+00  0.11368683772E-12  0.17120000000E+03  0.17120000000E+03 0.  0.
         13    1    1    2    0    0  0.12270177038E+02 -0.13017652828E+02  0.78159504063E+02  0.80180644604E+02  0.10566000000E+00 0.  1.
        994    1    1    2    0    0 -0.22564622089E+02  0.67010586109E+00  0.36684016098E+01  0.17272089735E+03  0.17120000000E+03 0.  0.
        998    1    1    2    0    0  0.10294445051E+02  0.12347546967E+02  0.14181720906E+04  0.14182984580E+04  0.10000000000E+02 0.  1.
</event>
<event>
 5    1  0.1800099E-008  0.3918255E+03  0.7957747E-01  0.3401231E+00
         13   -1    0    0    0    0  0.00000000000E+00  0.00000000000E+00  0.14999999963E+04  0.15000000000E+04  0.10566000000E+00 0.  1.
        994   -1    0    0    0    0 -0.00000000000E+00 -0.00000000000E+00  0.11368683772E-12  0.17120000000E+03  0.17120000000E+03 0.  0.
         13    1    1    2    0    0  0.22600799599E+02  0.82798336802E+02  0.14950950075E+03  0.17239333716E+03  0.10566000000E+00 0.  1.
        994    1    1    2    0    0 -0.50082437767E+01 -0.65708040305E+02  0.39627809684E+02  0.18767640333E+03  0.17120000000E+03 0.  0.
        998    1    1    2    0    0 -0.17592555823E+02 -0.17090296497E+02  0.13108626858E+04  0.13111302595E+04  0.10000000000E+02 0.  1.
</event>
<event>
 5    1  0.1800099E-008  0.3772502E+03  0.7957747E-01  0.3463220E+00
         13   -1    0    0    0    0  0.00000000000E+00  0.00000000000E+00  0.14999999963E+04  0.15000000000E+04  0.10566000000E+00 0.  1.
        994   -1    0    0    0    0 -0.00000000000E+00 -0.00000000000E+00  0.11368683772E-12  0.17120000000E+03  0.17120000000E+03 0.  0.
         13    1    1    2    0    0 -0.20677652417E+03 -0.11752429628E+03  0.82365889555E+03  0.85731119119E+03  0.10566000000E+00 0.  1.
        994    1    1    2    0    0  0.21965430519E+03  0.14533670190E+03  0.29419306485E+03  0.43038328280E+03  0.17120000000E+03 0.  0.
        998    1    1    2    0    0 -0.12877781020E+02 -0.27812405623E+02  0.38214803588E+03  0.38350552601E+03  0.10000000000E+02 0. -1.
</event>
<event>
 5    1  0.1800099E-008  0.3770396E+03  0.7957747E-01  0.3464151E+00
         13   -1    0    0    0    0  0.00000000000E+00  0.00000000000E+00  0.14999999963E+04  0.15000000000E+04  0.10566000000E+00 0.  1.
        994   -1    0    0    0    0 -0.00000000000E+00 -0.00000000000E+00  0.11368683772E-12  0.17120000000E+03  0.17120000000E+03 0.  0.
         13    1    1    2    0    0  0.10604973243E+02  0.72171153030E+01  0.12020036724E+02  0.17579666028E+02  0.10566000000E+00 0.  1.
        994    1    1    2    0    0 -0.10520497219E+02 -0.61588433951E+01  0.61369097791E+01  0.17174316253E+03  0.17120000000E+03 0.  0.
        998    1    1    2    0    0 -0.84476024218E-01 -0.10582719078E+01  0.14818430498E+04  0.14818771714E+04  0.10000000000E+02 0.  1.
</event>
<event>
 5    1  0.1800099E-008  0.3837832E+03  0.7957747E-01  0.3434849E+00
         13   -1    0    0    0    0  0.00000000000E+00  0.00000000000E+00  0.14999999963E+04  0.15000000000E+04  0.10566000000E+00 0. -1.
        994   -1    0    0    0    0 -0.00000000000E+00 -0.00000000000E+00  0.11368683772E-12  0.17120000000E+03  0.17120000000E+03 0.  0.
         13    1    1    2    0    0  0.13337786373E+01  0.14851786445E+02  0.50227634542E+02  0.52394474535E+02  0.10566000000E+00 0. -1.
        994    1    1    2    0    0  0.23366960389E+02 -0.81184975943E+01  0.42584682492E+01  0.17303034241E+03  0.17120000000E+03 0.  0.
        998    1    1    2    0    0 -0.24700739026E+02 -0.67332888508E+01  0.14455138935E+04  0.14457751831E+04  0.10000000000E+02 0. -1.
</event>
<event>
 5    1  0.1800099E-008  0.3845434E+03  0.7957747E-01  0.3431611E+00
         13   -1    0    0    0    0  0.00000000000E+00  0.00000000000E+00  0.14999999963E+04  0.15000000000E+04  0.10566000000E+00 0. -1.
        994   -1    0    0    0    0 -0.00000000000E+00 -0.00000000000E+00  0.11368683772E-12  0.17120000000E+03  0.17120000000E+03 0.  0.
         13    1    1    2    0    0 -0.18803040718E+02  0.65190535146E+01  0.11339905410E+03  0.11513213728E+03  0.10566000000E+00 0. -1.
        994    1    1    2    0    0  0.42214948924E+01 -0.17917614079E+01  0.19262751030E+01  0.17127224516E+03  0.17120000000E+03 0.  0.
        998    1    1    2    0    0  0.14581545825E+02 -0.47272921067E+01  0.13846746671E+04  0.13847956176E+04  0.10000000000E+02 0. -1.
</event>
<event>
 5    1  0.1800099E-008  0.3819335E+03  0.7957747E-01  0.3442783E+00
         13   -1    0    0    0    0  0.00000000000E+00  0.00000000000E+00  0.14999999963E+04  0.15000000000E+04  0.10566000000E+00 0.  1.
        994   -1    0    0    0    0 -0.00000000000E+00 -0.00000000000E+00  0.11368683772E-12  0.17120000000E+03  0.17120000000E+03 0.  0.
         13    1    1    2    0    0 -0.15154000711E+02  0.44234687714E+01  0.38037975198E+02  0.41183850411E+02  0.10566000000E+00 0.  1.
        994    1    1    2    0    0  0.92774790503E+01 -0.12751235916E+02  0.39867169412E+01  0.17197092646E+03  0.17120000000E+03 0.  0.
        998    1    1    2    0    0  0.58765216608E+01  0.83277671444E+01  0.14579753041E+04  0.14580452231E+04  0.10000000000E+02 0.  1.
</event>
<event>
 5    1  0.1800099E-008  0.3732564E+03  0.7957747E-01  0.3481058E+00
         13   -1    0    0    0    0  0.00000000000E+00  0.00000000000E+00  0.14999999963E+04  0.15000000000E+04  0.10566000000E+00 0.  1.
        994   -1    0    0    0    0 -0.00000000000E+00 -0.00000000000E+00  0.11368683772E-12  0.17120000000E+03  0.17120000000E+03 0.  0.
         13    1    1    2    0    0  0.89916729120E+02 -0.18817930796E+02  0.44840718229E+03  0.45772059708E+03  0.10566000000E+00 0.  1.
        994    1    1    2    0    0 -0.71735073608E+02  0.32731213697E+02  0.29143640015E+02  0.19072505050E+03  0.17120000000E+03 0.  0.
        998    1    1    2    0    0 -0.18181655511E+02 -0.13913282901E+02  0.10224491740E+04  0.10227543524E+04  0.10000000000E+02 0.  1.
</event>
<event>
 5    1  0.1800099E-008  0.3667056E+03  0.7957747E-01  0.3511170E+00
         13   -1    0    0    0    0  0.00000000000E+00  0.00000000000E+00  0.14999999963E+04  0.15000000000E+04  0.10566000000E+00 0. -1.
        994   -1    0    0    0    0 -0.00000000000E+00 -0.00000000000E+00  0.11368683772E-12  0.17120000000E+03  0.17120000000E+03 0.  0.
         13    1    1    2    0    0  0.19494022071E+03  0.22176462241E+03  0.10069341702E+04  0.10493320121E+04  0.10566000000E+00 0. -1.
        994    1    1    2    0    0 -0.15371879355E+03 -0.23257086753E+03  0.38470931164E+03  0.50500432709E+03  0.17120000000E+03 0.  0.
        998    1    1    2    0    0 -0.41221427159E+02  0.10806245123E+02  0.10835651444E+03  0.11686366078E+03  0.10000000000E+02 0.  1.
</event>
<event>
 5    1  0.1800099E-008  0.3825020E+03  0.7957747E-01  0.3440336E+00
         13   -1    0    0    0    0  0.00000000000E+00  0.00000000000E+00  0.14999999963E+04  0.15000000000E+04  0.10566000000E+00 0. -1.
        994   -1    0    0    0    0 -0.00000000000E+00 -0.00000000000E+00  0.11368683772E-12  0.17120000000E+03  0.17120000000E+03 0.  0.
         13    1    1    2    0    0 -0.10534044101E+02 -0.45915287396E+00  0.18105134650E+02  0.20951944331E+02  0.10566000000E+00 0. -1.
        994    1    1    2    0    0  0.93709212498E+01 -0.21701914459E-01  0.31666707260E+01  0.17148551670E+03  0.17120000000E+03 0.  0.
        998    1    1    2    0    0  0.11631228513E+01  0.48085478842E+00  0.14787281909E+04  0.14787625390E+04  0.10000000000E+02 0. -1.
</event>
<event>
 5    1  0.1800099E-008  0.3859250E+03  0.7957747E-01  0.3425758E+00
         13   -1    0    0    0    0  0.00000000000E+00  0.00000000000E+00  0.14999999963E+04  0.15000000000E+04  0.10566000000E+00 0.  1.
        994   -1    0    0    0    0 -0.00000000000E+00 -0.00000000000E+00  0.11368683772E-12  0.17120000000E+03  0.17120000000E+03 0.  0.
         13    1    1    2    0    0 -0.80389209243E+01 -0.10577817448E+02  0.78028519552E+02  0.79151598210E+02  0.10566000000E+00 0.  1.
        994    1    1    2    0    0 -0.35476222413E+01  0.10037274661E+02  0.15432494363E+01  0.17153761723E+03  0.17120000000E+03 0.  0.
        998    1    1    2    0    0  0.11586543166E+02  0.54054278701E+00  0.14204282273E+04  0.14205107846E+04  0.10000000000E+02 0.  1.
</event>
<event>
 5    1  0.1800099E-008  0.3826554E+03  0.7957747E-01  0.3439677E+00
         13   -1    0    0    0    0  0.00000000000E+00  0.00000000000E+00  0.14999999963E+04  0.15000000000E+04  0.10566000000E+00 0.  1.
        994   -1    0    0    0    0 -0.00000000000E+00 -0.00000000000E+00  0.11368683772E-12  0.17120000000E+03  0.17120000000E+03 0.  0.
         13    1    1    2    0    0  0.19843622935E+02  0.17970420101E+02  0.14710187257E+03  0.14951815089E+03  0.10566000000E+00 0.  1.
        994    1    1    2    0    0  0.57150693690E+01 -0.21079910915E+01  0.29216488679E+01  0.17133324743E+03  0.17120000000E+03 0.  0.
        998    1    1    2    0    0 -0.25558692304E+02 -0.15862429010E+02  0.13499764748E+04  0.13503486017E+04  0.10000000000E+02 0.  1.
</event>
<event>
 5    1  0.1800099E-008  0.3816544E+03  0.7957747E-01  0.3443986E+00
         13   -1    0    0    0    0  0.00000000000E+00  0.00000000000E+00  0.14999999963E+04  0.15000000000E+04  0.10566000000E+00 0.  1.
        994   -1    0    0    0    0 -0.00000000000E+00 -0.00000000000E+00  0.11368683772E-12  0.17120000000E+03  0.17120000000E+03 0.  0.
         13    1    1    2    0    0 -0.61416925521E+01  0.28558262812E+02  0.13404219741E+03  0.13718825246E+03  0.10566000000E+00 0.  1.
        994    1    1    2    0    0 -0.28354203352E+02 -0.18398181231E+02  0.71080055109E+01  0.17464941358E+03  0.17120000000E+03 0.  0.
        998    1    1    2    0    0  0.34495895904E+02 -0.10160081581E+02  0.13588497934E+04  0.13593623340E+04  0.10000000000E+02 0.  1.
</event>
<event>
 5    1  0.1800099E-008  0.3846925E+03  0.7957747E-01  0.3430977E+00
         13   -1    0    0    0    0  0.00000000000E+00  0.00000000000E+00  0.14999999963E+04  0.15000000000E+04  0.10566000000E+00 0.  1.
        994   -1    0    0    0    0 -0.00000000000E+00 -0.00000000000E+00  0.11368683772E-12  0.17120000000E+03  0.17120000000E+03 0.  0.
         13    1    1    2    0    0  0.19373211382E+01  0.11538918864E+02  0.37535058791E+02  0.39316557126E+02  0.10566000000E+00 0.  1.
        994    1    1    2    0    0 -0.45167177873E+01 -0.10593413401E+02  0.22195651809E+01  0.17160124596E+03  0.17120000000E+03 0.  0.
        998    1    1    2    0    0  0.25793966491E+01 -0.94550546290E+00  0.14602453723E+04  0.14602821969E+04  0.10000000000E+02 0.  1.
</event>
<event>
 5    1  0.1800099E-008  0.3773487E+03  0.7957747E-01  0.3462785E+00
         13   -1    0    0    0    0  0.00000000000E+00  0.00000000000E+00  0.14999999963E+04  0.15000000000E+04  0.10566000000E+00 0.  1.
        994   -1    0    0    0    0 -0.00000000000E+00 -0.00000000000E+00  0.11368683772E-12  0.17120000000E+03  0.17120000000E+03 0.  0.
         13    1    1    2    0    0  0.18896040631E+02 -0.30777699760E+02  0.12065657922E+03  0.12594581544E+03  0.10566000000E+00 0.  1.
        994    1    1    2    0    0 -0.13156050600E+02  0.10478446891E+02  0.64320951141E+01  0.17214439103E+03  0.17120000000E+03 0.  0.
        998    1    1    2    0    0 -0.57399900308E+01  0.20299252870E+02  0.13729113219E+04  0.13731097935E+04  0.10000000000E+02 0.  1.
</event>
<event>
 5    1  0.1800099E-008  0.3749810E+03  0.7957747E-01  0.3473308E+00
         13   -1    0    0    0    0  0.00000000000E+00  0.00000000000E+00  0.14999999963E+04  0.15000000000E+04  0.10566000000E+00 0.  1.
        994   -1    0    0    0    0 -0.00000000000E+00 -0.00000000000E+00  0.11368683772E-12  0.17120000000E+03  0.17120000000E+03 0.  0.
         13    1    1    2    0    0  0.16138196944E+02  0.15276935062E+02  0.36616407403E+02  0.42832214519E+02  0.10566000000E+00 0.  1.
        994    1    1    2    0    0  0.17422843084E+02 -0.50832927546E+01  0.78090294542E+01  0.17233634633E+03  0.17120000000E+03 0.  0.
        998    1    1    2    0    0 -0.33561040029E+02 -0.10193642307E+02  0.14555745594E+04  0.14560314391E+04  0.10000000000E+02 0.  1.
</event>
<event>
 5    1  0.1800099E-008  0.3788778E+03  0.7957747E-01  0.3456059E+00
         13   -1    0    0    0    0  0.00000000000E+00  0.00000000000E+00  0.14999999963E+04  0.15000000000E+04  0.10566000000E+00 0.  1.
        994   -1    0    0    0    0 -0.00000000000E+00 -0.00000000000E+00  0.11368683772E-12  0.17120000000E+03  0.17120000000E+03 0.  0.
         13    1    1    2    0    0 -0.53229277450E+02  0.11377592872E+02  0.31328800524E+03  0.31798143183E+03  0.10566000000E+00 0.  1.
        994    1    1    2    0    0  0.32214348210E+02  0.15931975494E+01  0.81991682957E+01  0.17440461252E+03  0.17120000000E+03 0.  0.
        998    1    1    2    0    0  0.21014929240E+02 -0.12970790421E+02  0.11785128227E+04  0.11788139556E+04  0.10000000000E+02 0.  1.
</event>
<event>
 5    1  0.1800099E-008  0.3755565E+03  0.7957747E-01  0.3470737E+00
         13   -1    0    0    0    0  0.00000000000E+00  0.00000000000E+00  0.14999999963E+04  0.15000000000E+04  0.10566000000E+00 0.  1.
        994   -1    0    0    0    0 -0.00000000000E+00 -0.00000000000E+00  0.11368683772E-12  0.17120000000E+03  0.17120000000E+03 0.  0.
         13    1    1    2    0    0 -0.44829629738E+02 -0.21504558540E+01  0.16887572264E+03  0.17473792097E+03  0.10566000000E+00 0.  1.
        994    1    1    2    0    0  0.10930064081E+02  0.19855160645E+02  0.81380341394E+01  0.17288539934E+03  0.17120000000E+03 0.  0.
        998    1    1    2    0    0  0.33899565657E+02 -0.17704704791E+02  0.13229862395E+04  0.13235766797E+04  0.10000000000E+02 0.  1.
</event>
<event>
 5    1  0.1800099E-008  0.3837098E+03  0.7957747E-01  0.3435163E+00
         13   -1    0    0    0    0  0.00000000000E+00  0.00000000000E+00  0.14999999963E+04  0.15000000000E+04  0.10566000000E+00 0.  1.
        994   -1    0    0    0    0 -0.00000000000E+00 -0.00000000000E+00  0.11368683772E-12  0.17120000000E+03  0.17120000000E+03 0.  0.
         13    1    1    2    0    0 -0.85859363582E+01  0.24979442645E+02  0.14836824827E+03  0.15070115831E+03  0.10566000000E+00 0.  1.
        994    1    1    2    0    0  0.71650297064E+01 -0.18272792045E+02  0.35453150757E+01  0.17235788882E+03  0.17120000000E+03 0.  0.
        998    1    1    2    0    0  0.14209066518E+01 -0.67066505991E+01  0.13480864329E+04  0.13481409529E+04  0.10000000000E+02 0.  1.
</event>
<event>
 5    1  0.1800099E-008  0.3803786E+03  0.7957747E-01  0.3449512E+00
         13   -1    0    0    0    0  0.00000000000E+00  0.00000000000E+00  0.14999999963E+04  0.15000000000E+04  0.10566000000E+00 0.  1.
        994   -1    0    0    0    0 -0.00000000000E+00 -0.00000000000E+00  0.11368683772E-12  0.17120000000E+03  0.17120000000E+03 0.  0.
         13    1    1    2    0    0  0.11388103495E+02 -0.12485873313E+02  0.32558070669E+02  0.36682762482E+02  0.10566000000E+00 0.  1.
        994    1    1    2    0    0 -0.24454872307E+02  0.19750944760E+02  0.72483189585E+01  0.17421285465E+03  0.17120000000E+03 0.  0.
        998    1    1    2    0    0  0.13066768812E+02 -0.72650714467E+01  0.14601936067E+04  0.14603043829E+04  0.10000000000E+02 0.  1.
</event>
<event>
 5    1  0.1800099E-008  0.3849631E+03  0.7957747E-01  0.3429829E+00
         13   -1    0    0    0    0  0.00000000000E+00  0.00000000000E+00  0.14999999963E+04  0.15000000000E+04  0.10566000000E+00 0. -1.
        994   -1    0    0    0    0 -0.00000000000E+00 -0.00000000000E+00  0.11368683772E-12  0.17120000000E+03  0.17120000000E+03 0.  0.
         13    1    1    2    0    0  0.12557496328E+01 -0.15151352211E+02  0.71491844730E+02  0.73090597261E+02  0.10566000000E+00 0. -1.
        994    1    1    2    0    0 -0.60602165161E+01  0.65953223179E+01  0.19123495081E+01  0.17144480622E+03  0.17120000000E+03 0.  0.
        998    1    1    2    0    0  0.48044668833E+01  0.85560298936E+01  0.14265958020E+04  0.14266645965E+04  0.10000000000E+02 0. -1.
</event>
<event>
 5    1  0.1800099E-008  0.3774842E+03  0.7957747E-01  0.3462187E+00
         13   -1    0    0    0    0  0.00000000000E+00  0.00000000000E+00  0.14999999963E+04  0.15000000000E+04  0.10566000000E+00 0. -1.
        994   -1    0    0    0    0 -0.00000000000E+00 -0.00000000000E+00  0.11368683772E-12  0.17120000000E+03  0.17120000000E+03 0.  0.
         13    1    1    2    0    0  0.14995716130E+02 -0.23951506113E+02  0.82910418952E+02  0.87593920349E+02  0.10566000000E+00 0. -1.
        994    1    1    2    0    0  0.18863129015E+02 -0.68968371677E+01  0.67695101688E+01  0.17250695716E+03  0.17120000000E+03 0.  0.
        998    1    1    2    0    0 -0.33858845146E+02  0.30848343281E+02  0.14103200672E+04  0.14110991225E+04  0.10000000000E+02 0. -1.
</event>
<event>
 5    1  0.1800099E-008  0.3791397E+03  0.7957747E-01  0.3454913E+00
         13   -1    0    0    0    0  0.00000000000E+00  0.00000000000E+00  0.14999999963E+04  0.15000000000E+04  0.10566000000E+00 0.  1.
        994   -1    0    0    0    0 -0.00000000000E+00 -0.00000000000E+00  0.11368683772E-12  0.17120000000E+03  0.17120000000E+03 0.  0.
         13    1    1    2    0    0  0.34518054353E+02 -0.48801924680E+02  0.30825151264E+03  0.31399383774E+03  0.10566000000E+00 0.  1.
        994    1    1    2    0    0 -0.33514865151E+02  0.50724618710E+02  0.17060845542E+02  0.18247395864E+03  0.17120000000E+03 0.  0.
        998    1    1    2    0    0 -0.10031892021E+01 -0.19226940298E+01  0.11746876381E+04  0.11747322036E+04  0.10000000000E+02 0.  0.
</event>
<event>
 5    1  0.1800099E-008  0.4034930E+03  0.7957747E-01  0.3354838E+00
         13   -1    0    0    0    0  0.00000000000E+00  0.00000000000E+00  0.14999999963E+04  0.15000000000E+04  0.10566000000E+00 0. -1.
        994   -1    0    0    0    0 -0.00000000000E+00 -0.00000000000E+00  0.11368683772E-12  0.17120000000E+03  0.17120000000E+03 0.  0.
         13    1    1    2    0    0 -0.59299377128E+02  0.10249421059E+03  0.45674969213E+03  0.47184931043E+03  0.10566000000E+00 0. -1.
        994    1    1    2    0    0 -0.15511982735E+00  0.49211973422E+02  0.39561868750E+02  0.18247307705E+03  0.17120000000E+03 0.  0.
        998    1    1    2    0    0  0.59454496955E+02 -0.15170618401E+03  0.10036884354E+04  0.10168776125E+04  0.10000000000E+02 0. -1.
</event>
<event>
 5    1  0.1800099E-008  0.3699851E+03  0.7957747E-01  0.3495959E+00
         13   -1    0    0    0    0  0.00000000000E+00  0.00000000000E+00  0.14999999963E+04  0.15000000000E+04  0.10566000000E+00 0.  1.
        994   -1    0    0    0    0 -0.00000000000E+00 -0.00000000000E+00  0.11368683772E-12  0.17120000000E+03  0.17120000000E+03 0.  0.
         13    1    1    2    0    0 -0.11014842216E+02 -0.15078417086E+00  0.23102212481E+01  0.11256010446E+02  0.10566000000E+00 0.  1.
        994    1    1    2    0    0 -0.54368044955E+01 -0.46174434232E+02  0.16788804959E+02  0.17819354980E+03  0.17120000000E+03 0.  0.
        998    1    1    2    0    0  0.16451646711E+02  0.46325218403E+02  0.14809009701E+04  0.14817504398E+04  0.10000000000E+02 0.  1.
</event>
<event>
 5    1  0.1800099E-008  0.3842297E+03  0.7957747E-01  0.3432946E+00
         13   -1    0    0    0    0  0.00000000000E+00  0.00000000000E+00  0.14999999963E+04  0.15000000000E+04  0.10566000000E+00 0.  1.
        994   -1    0    0    0    0 -0.00000000000E+00 -0.00000000000E+00  0.11368683772E-12  0.17120000000E+03  0.17120000000E+03 0.  0.
         13    1    1    2    0    0 -0.25074265577E+02  0.11770199670E+01  0.15091683371E+03  0.15299021548E+03  0.10566000000E+00 0.  1.
        994    1    1    2    0    0  0.19200788401E+02  0.21051290131E+01  0.32441079785E+01  0.17231676088E+03  0.17120000000E+03 0.  0.
        998    1    1    2    0    0  0.58734771756E+01 -0.32821489801E+01  0.13458390546E+04  0.13458930236E+04  0.10000000000E+02 0.  1.
</event>
<event>
 5    1  0.1800099E-008  0.3864321E+03  0.7957747E-01  0.3423621E+00
         13   -1    0    0    0    0  0.00000000000E+00  0.00000000000E+00  0.14999999963E+04  0.15000000000E+04  0.10566000000E+00 0. -1.
        994   -1    0    0    0    0 -0.00000000000E+00 -0.00000000000E+00  0.11368683772E-12  0.17120000000E+03  0.17120000000E+03 0.  0.
         13    1    1    2    0    0  0.11154946098E+01 -0.10069732747E+02  0.58220828540E+02  0.59095853372E+02  0.10566000000E+00 0. -1.
        994    1    1    2    0    0 -0.62760712784E+01  0.32543514540E+01  0.10844270890E+01  0.17134933865E+03  0.17120000000E+03 0.  0.
        998    1    1    2    0    0  0.51605766686E+01  0.68153812926E+01  0.14406947406E+04  0.14407548080E+04  0.10000000000E+02 0. -1.
</event>
<event>
 5    1  0.1800099E-008  0.3817178E+03  0.7957747E-01  0.3443713E+00
         13   -1    0    0    0    0  0.00000000000E+00  0.00000000000E+00  0.14999999963E+04  0.15000000000E+04  0.10566000000E+00 0. -1.
        994   -1    0    0    0    0 -0.00000000000E+00 -0.00000000000E+00  0.11368683772E-12  0.17120000000E+03  0.17120000000E+03 0.  0.
         13    1    1    2    0    0 -0.35643183839E+02  0.10388656007E+02  0.18886730150E+03  0.19248176399E+03  0.10566000000E+00 0. -1.
        994    1    1    2    0    0  0.35303490229E+02 -0.40235926522E+01  0.74765796162E+01  0.17500818542E+03  0.17120000000E+03 0.  0.
        998    1    1    2    0    0  0.33969361001E+00 -0.63650633546E+01  0.13036561152E+04  0.13037100506E+04  0.10000000000E+02 0. -1.
</event>
<event>
 5    1  0.1800099E-008  0.3781698E+03  0.7957747E-01  0.3459167E+00
         13   -1    0    0    0    0  0.00000000000E+00  0.00000000000E+00  0.14999999963E+04  0.15000000000E+04  0.10566000000E+00 0.  1.
        994   -1    0    0    0    0 -0.00000000000E+00 -0.00000000000E+00  0.11368683772E-12  0.17120000000E+03  0.17120000000E+03 0.  0.
         13    1    1    2    0    0 -0.20221679084E+02 -0.30997718795E+01  0.38990269803E+02  0.44031547713E+02  0.10566000000E+00 0.  1.
        994    1    1    2    0    0  0.15579604788E+02  0.81920934410E+01  0.61026322054E+01  0.17221067505E+03  0.17120000000E+03 0.  0.
        998    1    1    2    0    0  0.46420742955E+01 -0.50923215616E+01  0.14549070943E+04  0.14549577772E+04  0.10000000000E+02 0.  1.
</event>
<event>
 5    1  0.1800099E-008  0.3829784E+03  0.7957747E-01  0.3438291E+00
         13   -1    0    0    0    0  0.00000000000E+00  0.00000000000E+00  0.14999999963E+04  0.15000000000E+04  0.10566000000E+00 0. -1.
        994   -1    0    0    0    0 -0.00000000000E+00 -0.00000000000E+00  0.11368683772E-12  0.17120000000E+03  0.17120000000E+03 0.  0.
         13    1    1    2    0    0  0.16599753107E+02  0.14656486692E+02  0.87842756775E+02  0.90590979061E+02  0.10566000000E+00 0. -1.
        994    1    1    2    0    0 -0.26241520131E+02 -0.40955627298E+01  0.49757347939E+01  0.17331932653E+03  0.17120000000E+03 0.  0.
        998    1    1    2    0    0  0.96417670235E+01 -0.10560923962E+02  0.14071815047E+04  0.14072896944E+04  0.10000000000E+02 0. -1.
</event>
<event>
 5    1  0.1800099E-008  0.3794511E+03  0.7957747E-01  0.3453552E+00
         13   -1    0    0    0    0  0.00000000000E+00  0.00000000000E+00  0.14999999963E+04  0.15000000000E+04  0.10566000000E+00 0.  1.
        994   -1    0    0    0    0 -0.00000000000E+00 -0.00000000000E+00  0.11368683772E-12  0.17120000000E+03  0.17120000000E+03 0.  0.
         13    1    1    2    0    0  0.52978138954E+01  0.12940215671E+02  0.21383263329E+02  0.25549386065E+02  0.10566000000E+00 0.  1.
        994    1    1    2    0    0 -0.13447162150E+02  0.15624574577E+02  0.58349148338E+01  0.17253532894E+03  0.17120000000E+03 0.  0.
        998    1    1    2    0    0  0.81493482545E+01 -0.28564790248E+02  0.14727818181E+04  0.14731152850E+04  0.10000000000E+02 0.  1.
</event>
<event>
 5    1  0.1800099E-008  0.3842288E+03  0.7957747E-01  0.3432950E+00
         13   -1    0    0    0    0  0.00000000000E+00  0.00000000000E+00  0.14999999963E+04  0.15000000000E+04  0.10566000000E+00 0.  1.
        994   -1    0    0    0    0 -0.00000000000E+00 -0.00000000000E+00  0.11368683772E-12  0.17120000000E+03  0.17120000000E+03 0.  0.
         13    1    1    2    0    0 -0.65681057210E+01 -0.10211342267E+02  0.33968878531E+02  0.36073638524E+02  0.10566000000E+00 0.  1.
        994    1    1    2    0    0  0.20955468795E+02  0.13735896866E+02  0.40860697588E+01  0.17307207314E+03  0.17120000000E+03 0.  0.
        998    1    1    2    0    0 -0.14387363074E+02 -0.35245545988E+01  0.14619450480E+04  0.14620542883E+04  0.10000000000E+02 0.  1.
</event>
<event>
 5    1  0.1800099E-008  0.3760652E+03  0.7957747E-01  0.3468472E+00
         13   -1    0    0    0    0  0.00000000000E+00  0.00000000000E+00  0.14999999963E+04  0.15000000000E+04  0.10566000000E+00 0. -1.
        994   -1    0    0    0    0 -0.00000000000E+00 -0.00000000000E+00  0.11368683772E-12  0.17120000000E+03  0.17120000000E+03 0.  0.
         13    1    1    2    0    0  0.72387699505E+01  0.19416469313E+02  0.31505592086E+02  0.37709581909E+02  0.10566000000E+00 0. -1.
        994    1    1    2    0    0 -0.10785570809E+02 -0.22983946521E+02  0.83190400978E+01  0.17327214653E+03  0.17120000000E+03 0.  0.
        998    1    1    2    0    0  0.35468008587E+01  0.35674772076E+01  0.14601753641E+04  0.14602182716E+04  0.10000000000E+02 0. -1.
</event>
<event>
 5    1  0.1800099E-008  0.3850567E+03  0.7957747E-01  0.3429432E+00
         13   -1    0    0    0    0  0.00000000000E+00  0.00000000000E+00  0.14999999963E+04  0.15000000000E+04  0.10566000000E+00 0.  1.
        994   -1    0    0    0    0 -0.00000000000E+00 -0.00000000000E+00  0.11368683772E-12  0.17120000000E+03  0.17120000000E+03 0.  0.
         13    1    1    2    0    0 -0.25357512163E+01  0.10049535854E+02  0.33325081832E+02  0.34899791522E+02  0.10566000000E+00 0.  1.
        994    1    1    2    0    0 -0.12011967530E+01 -0.77792402410E+01  0.18057375259E+01  0.17139037353E+03  0.17120000000E+03 0.  0.
        998    1    1    2    0    0  0.37369479693E+01 -0.22702956127E+01  0.14648691769E+04  0.14649098349E+04  0.10000000000E+02 0.  1.
</event>
<event>
 5    1  0.1800099E-008  0.3857973E+03  0.7957747E-01  0.3426298E+00
         13   -1    0    0    0    0  0.00000000000E+00  0.00000000000E+00  0.14999999963E+04  0.15000000000E+04  0.10566000000E+00 0.  1.
        994   -1    0    0    0    0 -0.00000000000E+00 -0.00000000000E+00  0.11368683772E-12  0.17120000000E+03  0.17120000000E+03 0.  0.
         13    1    1    2    0    0 -0.40537356704E+01 -0.12399566951E+02  0.72072845220E+02  0.73244031946E+02  0.10566000000E+00 0.  1.
        994    1    1    2    0    0 -0.25738508986E+01  0.49778404755E+01  0.13378465185E+01  0.17129691602E+03  0.17120000000E+03 0.  0.
        998    1    1    2    0    0  0.66275865690E+01  0.74217264758E+01  0.14265893045E+04  0.14266590520E+04  0.10000000000E+02 0.  1.
</event>
<event>
 5    1  0.1800099E-008  0.3782430E+03  0.7957747E-01  0.3458845E+00
         13   -1    0    0    0    0  0.00000000000E+00  0.00000000000E+00  0.14999999963E+04  0.15000000000E+04  0.10566000000E+00 0. -1.
        994   -1    0    0    0    0 -0.00000000000E+00 -0.00000000000E+00  0.11368683772E-12  0.17120000000E+03  0.17120000000E+03 0.  0.
         13    1    1    2    0    0  0.24439292741E+02 -0.30751486488E+02  0.15112786512E+03  0.15614920983E+03  0.10566000000E+00 0. -1.
        994    1    1    2    0    0 -0.63479611117E+01  0.25668074320E+02  0.73770974355E+01  0.17338687441E+03  0.17120000000E+03 0.  0.
        998    1    1    2    0    0 -0.18091331629E+02  0.50834121675E+01  0.13414950337E+04  0.13416639158E+04  0.10000000000E+02 0. -1.
</event>
<event>
 5    1  0.1800099E-008  0.3811316E+03  0.7957747E-01  0.3446246E+00
         13   -1    0    0    0    0  0.00000000000E+00  0.00000000000E+00  0.14999999963E+04  0.15000000000E+04  0.10566000000E+00 0.  1.
        994   -1    0    0    0    0 -0.00000000000E+00 -0.00000000000E+00  0.11368683772E-12  0.17120000000E+03  0.17120000000E+03 0.  0.
         13    1    1    2    0    0  0.10106617319E+02 -0.37386613153E+01  0.14811945828E+02  0.18317374411E+02  0.10566000000E+00 0.  1.
        994    1    1    2    0    0 -0.73822946853E+01  0.73615818792E+00  0.37463427200E+01  0.17140161985E+03  0.17120000000E+03 0.  0.
        998    1    1    2    0    0 -0.27243226338E+01  0.30025031274E+01  0.14814417077E+04  0.14814810057E+04  0.10000000000E+02 0.  1.
</event>
<event>
 5    1  0.1800099E-008  0.3834817E+03  0.7957747E-01  0.3436137E+00
         13   -1    0    0    0    0  0.00000000000E+00  0.00000000000E+00  0.14999999963E+04  0.15000000000E+04  0.10566000000E+00 0.  1.
        994   -1    0    0    0    0 -0.00000000000E+00 -0.00000000000E+00  0.11368683772E-12  0.17120000000E+03  0.17120000000E+03 0.  0.
         13    1    1    2    0    0 -0.12064852742E+02 -0.43291824465E+01  0.34358917247E+02  0.36672180883E+02  0.10566000000E+00 0.  1.
        994    1    1    2    0    0  0.40111698236E+01  0.45146310820E+00  0.24396895910E+01  0.17126495668E+03  0.17120000000E+03 0.  0.
        998    1    1    2    0    0  0.80536829184E+01  0.38777193383E+01  0.14632013894E+04  0.14632628624E+04  0.10000000000E+02 0.  1.
</event>
<event>
 5    1  0.1800099E-008  0.3832412E+03  0.7957747E-01  0.3437166E+00
         13   -1    0    0    0    0  0.00000000000E+00  0.00000000000E+00  0.14999999963E+04  0.15000000000E+04  0.10566000000E+00 0.  1.
        994   -1    0    0    0    0 -0.00000000000E+00 -0.00000000000E+00  0.11368683772E-12  0.17120000000E+03  0.17120000000E+03 0.  0.
         13    1    1    2    0    0  0.11306341803E+02  0.27189317601E+01  0.25644321577E+02  0.28157918035E+02  0.10566000000E+00 0.  1.
        994    1    1    2    0    0 -0.12846121507E+02 -0.40141852035E+01  0.31052307571E+01  0.17175627784E+03  0.17120000000E+03 0.  0.
        998    1    1    2    0    0  0.15397797047E+01  0.12952534434E+01  0.14712504439E+04  0.14712858041E+04  0.10000000000E+02 0.  1.
</event>
<event>
 5    1  0.1800099E-008  0.3795740E+03  0.7957747E-01  0.3453016E+00
         13   -1    0    0    0    0  0.00000000000E+00  0.00000000000E+00  0.14999999963E+04  0.15000000000E+04  0.10566000000E+00 0.  1.
        994   -1    0    0    0    0 -0.00000000000E+00 -0.00000000000E+00  0.11368683772E-12  0.17120000000E+03  0.17120000000E+03 0.  0.
         13    1    1    2    0    0  0.64973908855E+00 -0.38067122761E+02  0.13803045500E+03  0.14318500504E+03  0.10566000000E+00 0.  1.
        994    1    1    2    0    0 -0.80130783044E+01  0.53380167605E+02  0.14164640165E+02  0.18006590113E+03  0.17120000000E+03 0.  0.
        998    1    1    2    0    0  0.73633392159E+01 -0.15313044845E+02  0.13478049011E+04  0.13479490938E+04  0.10000000000E+02 0.  1.
</event>
<event>
 5    1  0.1800099E-008  0.3816881E+03  0.7957747E-01  0.3443841E+00
         13   -1    0    0    0    0  0.00000000000E+00  0.00000000000E+00  0.14999999963E+04  0.15000000000E+04  0.10566000000E+00 0. -1.
        994   -1    0    0    0    0 -0.00000000000E+00 -0.00000000000E+00  0.11368683772E-12  0.17120000000E+03  0.17120000000E+03 0.  0.
         13    1    1    2    0    0 -0.19230746053E+02  0.17330998379E+02  0.13690086033E+03  0.13932710369E+03  0.10566000000E+00 0. -1.
        994    1    1    2    0    0 -0.23899035615E+02  0.14300919621E+02  0.58663373691E+01  0.17354980299E+03  0.17120000000E+03 0.  0.
        998    1    1    2    0    0  0.43129781668E+02 -0.31631918000E+02  0.13572327986E+04  0.13583230933E+04  0.10000000000E+02 0. -1.
</event>
<event>
 5    1  0.1800099E-008  0.3837396E+03  0.7957747E-01  0.3435035E+00
         13   -1    0    0    0    0  0.00000000000E+00  0.00000000000E+00  0.14999999963E+04  0.15000000000E+04  0.10566000000E+00 0. -1.
        994   -1    0    0    0    0 -0.00000000000E+00 -0.00000000000E+00  0.11368683772E-12  0.17120000000E+03  0.17120000000E+03 0.  0.
         13    1    1    2    0    0 -0.14521945226E+02 -0.23135301117E+01  0.47825890060E+02  0.50035649679E+02  0.10566000000E+00 0. -1.
        994    1    1    2    0    0  0.90503355586E+01 -0.82488257202E+01  0.27525169571E+01  0.17165945371E+03  0.17120000000E+03 0.  0.
        998    1    1    2    0    0  0.54716096673E+01  0.10562355832E+02  0.14494215893E+04  0.14495048966E+04  0.10000000000E+02 0. -1.
</event>
<event>
 5    1  0.1800099E-008  0.2978866E+03  0.7957747E-01  0.3911223E+00
         13   -1    0    0    0    0  0.00000000000E+00  0.00000000000E+00  0.14999999963E+04  0.15000000000E+04  0.10566000000E+00 0.  1.
        994   -1    0    0    0    0 -0.00000000000E+00 -0.00000000000E+00  0.11368683772E-12  0.17120000000E+03  0.17120000000E+03 0.  0.
         13    1    1    2    0    0  0.58437988084E+02  0.18029660171E+03  0.62346740617E+03  0.65163907246E+03  0.10566000000E+00 0.  1.
        994    1    1    2    0    0 -0.59456821505E+02 -0.17332500481E+03  0.14853322924E+03  0.29145879830E+03  0.17120000000E+03 0.  0.
        998    1    1    2    0    0  0.10188334208E+01 -0.69715968952E+01  0.72799936087E+03  0.72810212924E+03  0.10000000000E+02 0.  1.
</event>
<event>
 5    1  0.1800099E-008  0.3768701E+03  0.7957747E-01  0.3464901E+00
         13   -1    0    0    0    0  0.00000000000E+00  0.00000000000E+00  0.14999999963E+04  0.15000000000E+04  0.10566000000E+00 0.  1.
        994   -1    0    0    0    0 -0.00000000000E+00 -0.00000000000E+00  0.11368683772E-12  0.17120000000E+03  0.17120000000E+03 0.  0.
         13    1    1    2    0    0  0.57874997863E+02 -0.25051873125E+02  0.14319290849E+03  0.15646511410E+03  0.10566000000E+00 0.  1.
        994    1    1    2    0    0 -0.12057671996E+02  0.14888775525E+02  0.15934604592E+02  0.17300408872E+03  0.17120000000E+03 0.  0.
        998    1    1    2    0    0 -0.45817325867E+02  0.10163097600E+02  0.13408724832E+04  0.13417307972E+04  0.10000000000E+02 0.  1.
</event>
<event>
 5    1  0.1800099E-008  0.3707611E+03  0.7957747E-01  0.3492400E+00
         13   -1    0    0    0    0  0.00000000000E+00  0.00000000000E+00  0.14999999963E+04  0.15000000000E+04  0.10566000000E+00 0.  1.
        994   -1    0    0    0    0 -0.00000000000E+00 -0.00000000000E+00  0.11368683772E-12  0.17120000000E+03  0.17120000000E+03 0.  0.
         13    1    1    2    0    0 -0.89504245794E+02  0.36938942092E+02  0.49950020106E+03  0.50879854312E+03  0.10566000000E+00 0.  1.
        994    1    1    2    0    0  0.73157184063E+02  0.57684035722E+02  0.42420542021E+02  0.19947020816E+03  0.17120000000E+03 0.  0.
        998    1    1    2    0    0  0.16347061731E+02 -0.94622977814E+02  0.95807925320E+03  0.96293124873E+03  0.10000000000E+02 0.  1.
</event>
<event>
 5    1  0.1800099E-008  0.3883301E+03  0.7957747E-01  0.3415670E+00
         13   -1    0    0    0    0  0.00000000000E+00  0.00000000000E+00  0.14999999963E+04  0.15000000000E+04  0.10566000000E+00 0. -1.
        994   -1    0    0    0    0 -0.00000000000E+00 -0.00000000000E+00  0.11368683772E-12  0.17120000000E+03  0.17120000000E+03 0.  0.
         13    1    1    2    0    0  0.26271674698E+02  0.25781474320E+02  0.23690268575E+02  0.43773568494E+02  0.10566000000E+00 0. -1.
        994    1    1    2    0    0 -0.25902272110E+02 -0.20933329008E+02  0.25137289727E+02  0.17621139378E+03  0.17120000000E+03 0.  0.
        998    1    1    2    0    0 -0.36940258794E+00 -0.48481453123E+01  0.14511724380E+04  0.14512150377E+04  0.10000000000E+02 0. -1.
</event>
<event>
 5    1  0.1800099E-008  0.3812973E+03  0.7957747E-01  0.3445529E+00
         13   -1    0    0    0    0  0.00000000000E+00  0.00000000000E+00  0.14999999963E+04  0.15000000000E+04  0.10566000000E+00 0. -1.
        994   -1    0    0    0    0 -0.00000000000E+00 -0.00000000000E+00  0.11368683772E-12  0.17120000000E+03  0.17120000000E+03 0.  0.
         13    1    1    2    0    0  0.22326423950E+02 -0.63215999563E+00  0.71857783079E+02  0.75249059700E+02  0.10566000000E+00 0. -1.
        994    1    1    2    0    0 -0.10172574609E+02 -0.27272598386E+01  0.38490140844E+01  0.17156682118E+03  0.17120000000E+03 0.  0.
        998    1    1    2    0    0 -0.12153849341E+02  0.33594198343E+01  0.14242931991E+04  0.14243841191E+04  0.10000000000E+02 0. -1.
</event>
<event>
 5    1  0.2663471E-008  0.3865929E+03  0.7957747E-01  0.3422945E+00
         13   -1    0    0    0    0  0.00000000000E+00  0.00000000000E+00  0.14999999963E+04  0.15000000000E+04  0.10566000000E+00 0.  1.
        994   -1    0    0    0    0 -0.00000000000E+00 -0.00000000000E+00  0.11368683772E-12  0.17120000000E+03  0.17120000000E+03 0.  0.
         13    1    1    2    0    0 -0.70542668558E+01 -0.71736649227E+01  0.60563863532E+02  0.61393948229E+02  0.10566000000E+00 0.  1.
        994    1    1    2    0    0  0.10294489502E+02  0.23325378315E+01  0.12059745166E+01  0.17152933166E+03  0.17120000000E+03 0.  0.
        998    1    1    2    0    0 -0.32402226462E+01  0.48411270912E+01  0.14382301582E+04  0.14382767201E+04  0.10000000000E+02 0.  1.
</event>
<event>
 5    1  0.1800099E-008  0.3795461E+03  0.7957747E-01  0.3453137E+00
         13   -1    0    0    0    0  0.00000000000E+00  0.00000000000E+00  0.14999999963E+04  0.15000000000E+04  0.10566000000E+00 0. -1.
        994   -1    0    0    0    0 -0.00000000000E+00 -0.00000000000E+00  0.11368683772E-12  0.17120000000E+03  0.17120000000E+03 0.  0.
         13    1    1    2    0    0  0.27731497829E+02  0.37838355069E+02  0.21547362999E+03  0.22052136738E+03  0.10566000000E+00 0. -1.
        994    1    1    2    0    0 -0.10179197681E+02 -0.52460876477E+02  0.13983341764E+02  0.17989089325E+03  0.17120000000E+03 0.  0.
        998    1    1    2    0    0 -0.17552300148E+02  0.14622521408E+02  0.12705430245E+04  0.12707877394E+04  0.10000000000E+02 0. -1.
</event>
<event>
 5    1  0.1800099E-008  0.3853962E+03  0.7957747E-01  0.3427994E+00
         13   -1    0    0    0    0  0.00000000000E+00  0.00000000000E+00  0.14999999963E+04  0.15000000000E+04  0.10566000000E+00 0. -1.
        994   -1    0    0    0    0 -0.00000000000E+00 -0.00000000000E+00  0.11368683772E-12  0.17120000000E+03  0.17120000000E+03 0.  0.
         13    1    1    2    0    0 -0.42499953724E+01  0.14435225844E+02  0.78408806733E+02  0.79839779203E+02  0.10566000000E+00 0. -1.
        994    1    1    2    0    0  0.11344261386E+01 -0.11513895684E+02  0.18733275391E+01  0.17160071699E+03  0.17120000000E+03 0.  0.
        998    1    1    2    0    0  0.31155692338E+01 -0.29213301593E+01  0.14197178620E+04  0.14197595038E+04  0.10000000000E+02 0. -1.
</event>
<event>
 5    1  0.1800099E-008  0.3829322E+03  0.7957747E-01  0.3438490E+00
         13   -1    0    0    0    0  0.00000000000E+00  0.00000000000E+00  0.14999999963E+04  0.15000000000E+04  0.10566000000E+00 0. -1.
        994   -1    0    0    0    0 -0.00000000000E+00 -0.00000000000E+00  0.11368683772E-12  0.17120000000E+03  0.17120000000E+03 0.  0.
         13    1    1    2    0    0 -0.12731570308E+02 -0.10450516488E+02  0.53471713691E+02  0.55951242224E+02  0.10566000000E+00 0. -1.
        994    1    1    2    0    0  0.54471380373E+01 -0.10835441804E+02  0.31473559366E+01  0.17165786892E+03  0.17120000000E+03 0.  0.
        998    1    1    2    0    0  0.72844322711E+01  0.21285958291E+02  0.14433809267E+04  0.14435908889E+04  0.10000000000E+02 0. -1.
</event>
<event>
 5    1  0.1800099E-008  0.3829121E+03  0.7957747E-01  0.3438576E+00
         13   -1    0    0    0    0  0.00000000000E+00  0.00000000000E+00  0.14999999963E+04  0.15000000000E+04  0.10566000000E+00 0.  1.
        994   -1    0    0    0    0 -0.00000000000E+00 -0.00000000000E+00  0.11368683772E-12  0.17120000000E+03  0.17120000000E+03 0.  0.
         13    1    1    2    0    0  0.18550196454E+02 -0.78139570486E+00  0.67530806418E+02  0.70036714280E+02  0.10566000000E+00 0.  1.
        994    1    1    2    0    0 -0.65146269282E+00  0.75044036914E+01  0.28581915956E+01  0.17138946799E+03  0.17120000000E+03 0.  0.
        998    1    1    2    0    0 -0.17898733761E+02 -0.67230079866E+01  0.14296109983E+04  0.14297738177E+04  0.10000000000E+02 0.  1.
</event>
<event>
 5    1  0.1800099E-008  0.3787182E+03  0.7957747E-01  0.3456759E+00
         13   -1    0    0    0    0  0.00000000000E+00  0.00000000000E+00  0.14999999963E+04  0.15000000000E+04  0.10566000000E+00 0. -1.
        994   -1    0    0    0    0 -0.00000000000E+00 -0.00000000000E+00  0.11368683772E-12  0.17120000000E+03  0.17120000000E+03 0.  0.
         13    1    1    2    0    0  0.12344694059E+02  0.35743611752E+02  0.38288598539E+02  0.53814730275E+02  0.10566000000E+00 0. -1.
        994    1    1    2    0    0 -0.13357599979E+02 -0.39778396578E+02  0.22002108406E+02  0.17763524168E+03  0.17120000000E+03 0.  0.
        998    1    1    2    0    0  0.10129059192E+01  0.40347848258E+01  0.14397092893E+04  0.14397500280E+04  0.10000000000E+02 0. -1.
</event>
<event>
 5    1  0.1800099E-008  0.3823976E+03  0.7957747E-01  0.3440785E+00
         13   -1    0    0    0    0  0.00000000000E+00  0.00000000000E+00  0.14999999963E+04  0.15000000000E+04  0.10566000000E+00 0. -1.
        994   -1    0    0    0    0 -0.00000000000E+00 -0.00000000000E+00  0.11368683772E-12  0.17120000000E+03  0.17120000000E+03 0.  0.
         13    1    1    2    0    0  0.98219704039E+01  0.35490476938E+02  0.21735890825E+03  0.22045623424E+03  0.10566000000E+00 0. -1.
        994    1    1    2    0    0 -0.12894158236E+02 -0.25446079614E+02  0.56313765833E+01  0.17365170511E+03  0.17120000000E+03 0.  0.
        998    1    1    2    0    0  0.30721878326E+01 -0.10044397324E+02  0.12770097114E+04  0.12770920607E+04  0.10000000000E+02 0. -1.
</event>
<event>
 5    1  0.1800099E-008  0.3723189E+03  0.7957747E-01  0.3485301E+00
         13   -1    0    0    0    0  0.00000000000E+00  0.00000000000E+00  0.14999999963E+04  0.15000000000E+04  0.10566000000E+00 0. -1.
        994   -1    0    0    0    0 -0.00000000000E+00 -0.00000000000E+00  0.11368683772E-12  0.17120000000E+03  0.17120000000E+03 0.  0.
         13    1    1    2    0    0 -0.85840553309E+02  0.27221402490E+02  0.52705510648E+03  0.53469309120E+03  0.10566000000E+00 0. -1.
        994    1    1    2    0    0  0.61847288893E+02  0.25640935471E+02  0.23598321799E+02  0.18533446929E+03  0.17120000000E+03 0.  0.
        998    1    1    2    0    0  0.23993264416E+02 -0.52862337961E+02  0.94934656800E+03  0.95117243951E+03  0.10000000000E+02 0.  1.
</event>
<event>
 5    1  0.1800099E-008  0.3790043E+03  0.7957747E-01  0.3455506E+00
         13   -1    0    0    0    0  0.00000000000E+00  0.00000000000E+00  0.14999999963E+04  0.15000000000E+04  0.10566000000E+00 0.  1.
        994   -1    0    0    0    0 -0.00000000000E+00 -0.00000000000E+00  0.11368683772E-12  0.17120000000E+03  0.17120000000E+03 0.  0.
         13    1    1    2    0    0 -0.22600145812E+02 -0.52045208563E+01  0.53937703381E+02  0.58712355072E+02  0.10566000000E+00 0.  1.
        994    1    1    2    0    0  0.22380377683E+02  0.20434592397E+02  0.77232188611E+01  0.17403316345E+03  0.17120000000E+03 0.  0.
        998    1    1    2    0    0  0.21976812919E+00 -0.15230071540E+02  0.14383390740E+04  0.14384544815E+04  0.10000000000E+02 0.  1.
</event>
<event>
 5    1  0.1800099E-008  0.3848108E+03  0.7957747E-01  0.3430475E+00
         13   -1    0    0    0    0  0.00000000000E+00  0.00000000000E+00  0.14999999963E+04  0.15000000000E+04  0.10566000000E+00 0. -1.
        994   -1    0    0    0    0 -0.00000000000E+00 -0.00000000000E+00  0.11368683772E-12  0.17120000000E+03  0.17120000000E+03 0.  0.
         13    1    1    2    0    0  0.62009649485E+00 -0.12753193638E+02  0.45016643731E+02  0.46792497737E+02  0.10566000000E+00 0. -1.
        994    1    1    2    0    0  0.64016231722E+00  0.17466691863E+02  0.27300323613E+01  0.17211155745E+03  0.17120000000E+03 0.  0.
        998    1    1    2    0    0 -0.12602588121E+01 -0.47134982251E+01  0.14522533202E+04  0.14522959448E+04  0.10000000000E+02 0. -1.
</event>
<event>
 5    1  0.1800099E-008  0.3836884E+03  0.7957747E-01  0.3435254E+00
         13   -1    0    0    0    0  0.00000000000E+00  0.00000000000E+00  0.14999999963E+04  0.15000000000E+04  0.10566000000E+00 0. -1.
        994   -1    0    0    0    0 -0.00000000000E+00 -0.00000000000E+00  0.11368683772E-12  0.17120000000E+03  0.17120000000E+03 0.  0.
         13    1    1    2    0    0  0.87951875469E+01  0.20583800718E+02  0.10166225303E+03  0.10409742087E+03  0.10566000000E+00 0. -1.
        994    1    1    2    0    0 -0.11983261338E+02 -0.21661123846E+02  0.43092287857E+01  0.17303413620E+03  0.17120000000E+03 0.  0.
        998    1    1    2    0    0  0.31880737909E+01  0.10773231279E+01  0.13940285145E+04  0.13940684429E+04  0.10000000000E+02 0. -1.
</event>
<event>
 5    1  0.1800099E-008  0.3784402E+03  0.7957747E-01  0.3457978E+00
         13   -1    0    0    0    0  0.00000000000E+00  0.00000000000E+00  0.14999999963E+04  0.15000000000E+04  0.10566000000E+00 0. -1.
        994   -1    0    0    0    0 -0.00000000000E+00 -0.00000000000E+00  0.11368683772E-12  0.17120000000E+03  0.17120000000E+03 0.  0.
         13    1    1    2    0    0  0.12561904090E+01 -0.12850296215E+02  0.14923655864E+02  0.19734102350E+02  0.10566000000E+00 0. -1.
        994    1    1    2    0    0  0.84434832751E+01  0.63525995041E+01  0.52978462303E+01  0.17160756133E+03  0.17120000000E+03 0.  0.
        998    1    1    2    0    0 -0.96996736841E+01  0.64976967112E+01  0.14797784942E+04  0.14798583363E+04  0.10000000000E+02 0. -1.
</event>
<event>
 5    1  0.1800099E-008  0.3827244E+03  0.7957747E-01  0.3439381E+00
         13   -1    0    0    0    0  0.00000000000E+00  0.00000000000E+00  0.14999999963E+04  0.15000000000E+04  0.10566000000E+00 0. -1.
        994   -1    0    0    0    0 -0.00000000000E+00 -0.00000000000E+00  0.11368683772E-12  0.17120000000E+03  0.17120000000E+03 0.  0.
         13    1    1    2    0    0  0.11672155671E+02 -0.20335184647E+01  0.24128437550E+02  0.26880607843E+02  0.10566000000E+00 0. -1.
        994    1    1    2    0    0 -0.11368708970E+02  0.13107524778E+01  0.31981971127E+01  0.17161187045E+03  0.17120000000E+03 0.  0.
        998    1    1    2    0    0 -0.30344670093E+00  0.72276598693E+00  0.14726733616E+04  0.14727075217E+04  0.10000000000E+02 0. -1.
</event>
<event>
 5    1  0.1800099E-008  0.3737908E+03  0.7957747E-01  0.3478649E+00
         13   -1    0    0    0    0  0.00000000000E+00  0.00000000000E+00  0.14999999963E+04  0.15000000000E+04  0.10566000000E+00 0.  1.
        994   -1    0    0    0    0 -0.00000000000E+00 -0.00000000000E+00  0.11368683772E-12  0.17120000000E+03  0.17120000000E+03 0.  0.
         13    1    1    2    0    0 -0.52369199857E+02 -0.71870490542E+02  0.52747264968E+03  0.53491616897E+03  0.10566000000E+00 0.  1.
        994    1    1    2    0    0  0.19902850296E+02  0.52304621982E+02  0.18066932235E+02  0.18101864813E+03  0.17120000000E+03 0.  0.
        998    1    1    2    0    0  0.32466349561E+02  0.19565868560E+02  0.95446041436E+03  0.95526518290E+03  0.10000000000E+02 0.  1.
</event>
<event>
 5    1  0.2042844E-008  0.3858365E+03  0.7957747E-01  0.3426132E+00
         13   -1    0    0    0    0  0.00000000000E+00  0.00000000000E+00  0.14999999963E+04  0.15000000000E+04  0.10566000000E+00 0.  1.
        994   -1    0    0    0    0 -0.00000000000E+00 -0.00000000000E+00  0.11368683772E-12  0.17120000000E+03  0.17120000000E+03 0.  0.
         13    1    1    2    0    0  0.74514580142E+01 -0.81258132084E+01  0.52232049803E+02  0.53383061522E+02  0.10566000000E+00 0.  1.
        994    1    1    2    0    0 -0.44322370272E+01 -0.10884036415E+01  0.12837052187E+01  0.17126563358E+03  0.17120000000E+03 0.  0.
        998    1    1    2    0    0 -0.30192209870E+01  0.92142168499E+01  0.14464842413E+04  0.14465513049E+04  0.10000000000E+02 0.  1.
</event>
<event>
 5    1  0.1800099E-008  0.3789308E+03  0.7957747E-01  0.3455827E+00
         13   -1    0    0    0    0  0.00000000000E+00  0.00000000000E+00  0.14999999963E+04  0.15000000000E+04  0.10566000000E+00 0. -1.
        994   -1    0    0    0    0 -0.00000000000E+00 -0.00000000000E+00  0.11368683772E-12  0.17120000000E+03  0.17120000000E+03 0.  0.
         13    1    1    2    0    0 -0.24071551869E+02  0.15072160384E+02  0.18879242745E+02  0.34103469013E+02  0.10566000000E+00 0. -1.
        994    1    1    2    0    0  0.22444411570E+02 -0.12310782660E+02  0.18109939396E+02  0.17404803040E+03  0.17120000000E+03 0.  0.
        998    1    1    2    0    0  0.16271402988E+01 -0.27613777240E+01  0.14630108141E+04  0.14630485006E+04  0.10000000000E+02 0. -1.
</event>
<event>
 5    1  0.1800099E-008  0.3697211E+03  0.7957747E-01  0.3497174E+00
         13   -1    0    0    0    0  0.00000000000E+00  0.00000000000E+00  0.14999999963E+04  0.15000000000E+04  0.10566000000E+00 0.  1.
        994   -1    0    0    0    0 -0.00000000000E+00 -0.00000000000E+00  0.11368683772E-12  0.17120000000E+03  0.17120000000E+03 0.  0.
         13    1    1    2    0    0 -0.11943073062E+02  0.17942661495E+02  0.20855133855E+02  0.29992063414E+02  0.10566000000E+00 0.  1.
        994    1    1    2    0    0  0.98445137815E+01 -0.74167260520E+01  0.99409143663E+01  0.17193075366E+03  0.17120000000E+03 0.  0.
        998    1    1    2    0    0  0.20985592808E+01 -0.10525935443E+02  0.14692039481E+04  0.14692771829E+04  0.10000000000E+02 0.  1.
</event>
<event>
 5    1  0.1800099E-008  0.3781687E+03  0.7957747E-01  0.3459172E+00
         13   -1    0    0    0    0  0.00000000000E+00  0.00000000000E+00  0.14999999963E+04  0.15000000000E+04  0.10566000000E+00 0. -1.
        994   -1    0    0    0    0 -0.00000000000E+00 -0.00000000000E+00  0.11368683772E-12  0.17120000000E+03  0.17120000000E+03 0.  0.
         13    1    1    2    0    0  0.12324407705E+02  0.39791731167E+02  0.15426956583E+03  0.15979481531E+03  0.10566000000E+00 0. -1.
        994    1    1    2    0    0 -0.13552517587E+02 -0.38576645548E+02  0.10703949450E+02  0.17634013397E+03  0.17120000000E+03 0.  0.
        998    1    1    2    0    0  0.12281098820E+01 -0.12150856186E+01  0.13350264810E+04  0.13350650507E+04  0.10000000000E+02 0. -1.
</event>
<event>
 5    1  0.1800099E-008  0.3730376E+03  0.7957747E-01  0.3482046E+00
         13   -1    0    0    0    0  0.00000000000E+00  0.00000000000E+00  0.14999999963E+04  0.15000000000E+04  0.10566000000E+00 0.  1.
        994   -1    0    0    0    0 -0.00000000000E+00 -0.00000000000E+00  0.11368683772E-12  0.17120000000E+03  0.17120000000E+03 0.  0.
         13    1    1    2    0    0 -0.60951593353E+02  0.25028134373E+01  0.12155487732E+03  0.13600352999E+03  0.10566000000E+00 0.  1.
        994    1    1    2    0    0  0.80882899274E+02 -0.68851757439E+02  0.53571754293E+02  0.20847537206E+03  0.17120000000E+03 0.  0.
        998    1    1    2    0    0 -0.19931305921E+02  0.66348944002E+02  0.13248733647E+04  0.13267210979E+04  0.10000000000E+02 0.  1.
</event>
<event>
 5    1  0.1800099E-008  0.3773260E+03  0.7957747E-01  0.3462885E+00
         13   -1    0    0    0    0  0.00000000000E+00  0.00000000000E+00  0.14999999963E+04  0.15000000000E+04  0.10566000000E+00 0. -1.
        994   -1    0    0    0    0 -0.00000000000E+00 -0.00000000000E+00  0.11368683772E-12  0.17120000000E+03  0.17120000000E+03 0.  0.
         13    1    1    2    0    0 -0.33549717671E+01 -0.25055304672E+02  0.16126745576E+02  0.29985116553E+02  0.10566000000E+00 0. -1.
        994    1    1    2    0    0 -0.18616582321E+02 -0.46546426893E+01  0.16188590430E+02  0.17303107610E+03  0.17120000000E+03 0.  0.
        998    1    1    2    0    0  0.21971554088E+02  0.29709947361E+02  0.14676846603E+04  0.14681838073E+04  0.10000000000E+02 0. -1.
</event>
<event>
 5    1  0.1800099E-008  0.3846611E+03  0.7957747E-01  0.3431111E+00
         13   -1    0    0    0    0  0.00000000000E+00  0.00000000000E+00  0.14999999963E+04  0.15000000000E+04  0.10566000000E+00 0. -1.
        994   -1    0    0    0    0 -0.00000000000E+00 -0.00000000000E+00  0.11368683772E-12  0.17120000000E+03  0.17120000000E+03 0.  0.
         13    1    1    2    0    0  0.14568680315E+02  0.16722530723E+02  0.12576419228E+03  0.12770486563E+03  0.10566000000E+00 0. -1.
        994    1    1    2    0    0 -0.13903119029E+02 -0.19268761569E+02  0.36594426055E+01  0.17287976577E+03  0.17120000000E+03 0.  0.
        998    1    1    2    0    0 -0.66556128553E+00  0.25462308459E+01  0.13705763614E+04  0.13706153686E+04  0.10000000000E+02 0.  0.
</event>
<event>
 5    1  0.1800099E-008  0.3844243E+03  0.7957747E-01  0.3432117E+00
         13   -1    0    0    0    0  0.00000000000E+00  0.00000000000E+00  0.14999999963E+04  0.15000000000E+04  0.10566000000E+00 0.  1.
        994   -1    0    0    0    0 -0.00000000000E+00 -0.00000000000E+00  0.11368683772E-12  0.17120000000E+03  0.17120000000E+03 0.  0.
         13    1    1    2    0    0  0.93311064858E+01 -0.53203949128E+01  0.28841811974E+02  0.30777222621E+02  0.10566000000E+00 0.  1.
        994    1    1    2    0    0 -0.12806388363E+02  0.61951387013E+01  0.25833037174E+01  0.17180947816E+03  0.17120000000E+03 0.  0.
        998    1    1    2    0    0  0.34752818768E+01 -0.87474378859E+00  0.14685748806E+04  0.14686132992E+04  0.10000000000E+02 0.  1.
</event>
<event>
 5    1  0.1800099E-008  0.3858800E+03  0.7957747E-01  0.3425949E+00
         13   -1    0    0    0    0  0.00000000000E+00  0.00000000000E+00  0.14999999963E+04  0.15000000000E+04  0.10566000000E+00 0.  1.
        994   -1    0    0    0    0 -0.00000000000E+00 -0.00000000000E+00  0.11368683772E-12  0.17120000000E+03  0.17120000000E+03 0.  0.
         13    1    1    2    0    0 -0.22887572088E+01  0.10488596197E+02  0.48692887217E+02  0.49862385516E+02  0.10566000000E+00 0.  1.
        994    1    1    2    0    0  0.29498538335E+01 -0.68899483531E+01  0.13781145741E+01  0.17136951954E+03  0.17120000000E+03 0.  0.
        998    1    1    2    0    0 -0.66109662475E+00 -0.35986478438E+01  0.14499289945E+04  0.14499680949E+04  0.10000000000E+02 0.  1.
</event>
<event>
 5    1  0.1800099E-008  0.3839364E+03  0.7957747E-01  0.3434196E+00
         13   -1    0    0    0    0  0.00000000000E+00  0.00000000000E+00  0.14999999963E+04  0.15000000000E+04  0.10566000000E+00 0.  1.
        994   -1    0    0    0    0 -0.00000000000E+00 -0.00000000000E+00  0.11368683772E-12  0.17120000000E+03  0.17120000000E+03 0.  0.
         13    1    1    2    0    0 -0.49100723446E+01 -0.13784824930E+02  0.47747934041E+02  0.49940029816E+02  0.10566000000E+00 0.  1.
        994    1    1    2    0    0  0.64096935884E+01  0.14179014068E+02  0.29585748244E+01  0.17193115418E+03  0.17120000000E+03 0.  0.
        998    1    1    2    0    0 -0.14996212438E+01 -0.39418913790E+00  0.14492934874E+04  0.14493288160E+04  0.10000000000E+02 0.  1.
</event>
<event>
 5    1  0.1800099E-008  0.3735934E+03  0.7957747E-01  0.3479538E+00
         13   -1    0    0    0    0  0.00000000000E+00  0.00000000000E+00  0.14999999963E+04  0.15000000000E+04  0.10566000000E+00 0.  1.
        994   -1    0    0    0    0 -0.00000000000E+00 -0.00000000000E+00  0.11368683772E-12  0.17120000000E+03  0.17120000000E+03 0.  0.
         13    1    1    2    0    0  0.83323645016E+00  0.31608461190E+02  0.64757040931E+02  0.72064378273E+02  0.10566000000E+00 0.  1.
        994    1    1    2    0    0  0.23589472414E+02 -0.20938631191E+02  0.10808336686E+02  0.17441659791E+03  0.17120000000E+03 0.  0.
        998    1    1    2    0    0 -0.24422708864E+02 -0.10669829999E+02  0.14244346187E+04  0.14247190238E+04  0.10000000000E+02 0.  1.
</event>
<event>
 5    1  0.1800099E-008  0.3857693E+03  0.7957747E-01  0.3426416E+00
         13   -1    0    0    0    0  0.00000000000E+00  0.00000000000E+00  0.14999999963E+04  0.15000000000E+04  0.10566000000E+00 0.  1.
        994   -1    0    0    0    0 -0.00000000000E+00 -0.00000000000E+00  0.11368683772E-12  0.17120000000E+03  0.17120000000E+03 0.  0.
         13    1    1    2    0    0  0.46646367079E+01 -0.96519420309E+01  0.41981899735E+02  0.43329088267E+02  0.10566000000E+00 0.  1.
        994    1    1    2    0    0 -0.62361284283E+01  0.24342306278E+02  0.33228017874E+01  0.17306622485E+03  0.17120000000E+03 0.  0.
        998    1    1    2    0    0  0.15714917204E+01 -0.14690364247E+02  0.14546952948E+04  0.14548046869E+04  0.10000000000E+02 0.  1.
</event>
<event>
 5    1  0.1800099E-008  0.3741404E+03  0.7957747E-01  0.3477076E+00
         13   -1    0    0    0    0  0.00000000000E+00  0.00000000000E+00  0.14999999963E+04  0.15000000000E+04  0.10566000000E+00 0.  1.
        994   -1    0    0    0    0 -0.00000000000E+00 -0.00000000000E+00  0.11368683772E-12  0.17120000000E+03  0.17120000000E+03 0.  0.
         13    1    1    2    0    0  0.14608268536E+03  0.36399991085E+00  0.77847381921E+03  0.79206172854E+03  0.10566000000E+00 0.  1.
        994    1    1    2    0    0 -0.13613677710E+03 -0.70877837202E+00  0.73193679515E+02  0.23065229062E+03  0.17120000000E+03 0.  0.
        998    1    1    2    0    0 -0.99459082613E+01  0.34477846117E+00  0.64833249755E+03  0.64848598084E+03  0.10000000000E+02 0.  0.
</event>
<event>
 5    1  0.1800099E-008  0.3733517E+03  0.7957747E-01  0.3480628E+00
         13   -1    0    0    0    0  0.00000000000E+00  0.00000000000E+00  0.14999999963E+04  0.15000000000E+04  0.10566000000E+00 0.  1.
        994   -1    0    0    0    0 -0.00000000000E+00 -0.00000000000E+00  0.11368683772E-12  0.17120000000E+03  0.17120000000E+03 0.  0.
         13    1    1    2    0    0  0.61534694165E+02 -0.35869751950E+02  0.28949160184E+03  0.29812506837E+03  0.10566000000E+00 0.  1.
        994    1    1    2    0    0 -0.53012224614E+02  0.31832088566E+02  0.20712243856E+02  0.18319938555E+03  0.17120000000E+03 0.  0.
        998    1    1    2    0    0 -0.85224695511E+01  0.40376633849E+01  0.11897961506E+04  0.11898755461E+04  0.10000000000E+02 0.  1.
</event>
<event>
 5    1  0.1800099E-008  0.3858269E+03  0.7957747E-01  0.3426173E+00
         13   -1    0    0    0    0  0.00000000000E+00  0.00000000000E+00  0.14999999963E+04  0.15000000000E+04  0.10566000000E+00 0. -1.
        994   -1    0    0    0    0 -0.00000000000E+00 -0.00000000000E+00  0.11368683772E-12  0.17120000000E+03  0.17120000000E+03 0.  0.
         13    1    1    2    0    0 -0.66872931969E+01  0.12145403254E+02  0.82491061192E+02  0.83648174225E+02  0.10566000000E+00 0. -1.
        994    1    1    2    0    0  0.14060547983E+02  0.21514771158E+01  0.18840455296E+01  0.17180022553E+03  0.17120000000E+03 0.  0.
        998    1    1    2    0    0 -0.73732547856E+01 -0.14296880369E+02  0.14156248896E+04  0.14157516002E+04  0.10000000000E+02 0. -1.
</event>
<event>
 5    1  0.1800099E-008  0.3342966E+03  0.7957747E-01  0.3678003E+00
         13   -1    0    0    0    0  0.00000000000E+00  0.00000000000E+00  0.14999999963E+04  0.15000000000E+04  0.10566000000E+00 0.  1.
        994   -1    0    0    0    0 -0.00000000000E+00 -0.00000000000E+00  0.11368683772E-12  0.17120000000E+03  0.17120000000E+03 0.  0.
         13    1    1    2    0    0 -0.17341618871E+03 -0.18051555552E+03  0.75915238950E+03  0.79935686770E+03  0.10566000000E+00 0.  1.
        994    1    1    2    0    0  0.17325152128E+03  0.17921321321E+03  0.28388530579E+03  0.41476954114E+03  0.17120000000E+03 0.  0.
        998    1    1    2    0    0  0.16466742590E+00  0.13023423106E+01  0.45696230099E+03  0.45707359116E+03  0.10000000000E+02 0.  0.
</event>
<event>
 5    1  0.1800099E-008  0.3839669E+03  0.7957747E-01  0.3434065E+00
         13   -1    0    0    0    0  0.00000000000E+00  0.00000000000E+00  0.14999999963E+04  0.15000000000E+04  0.10566000000E+00 0.  1.
        994   -1    0    0    0    0 -0.00000000000E+00 -0.00000000000E+00  0.11368683772E-12  0.17120000000E+03  0.17120000000E+03 0.  0.
         13    1    1    2    0    0  0.83085170018E+01  0.16888330859E+02  0.88571860554E+02  0.90549615240E+02  0.10566000000E+00 0.  1.
        994    1    1    2    0    0  0.59212230444E+01 -0.36857499618E+01  0.23044311431E+01  0.17135750943E+03  0.17120000000E+03 0.  0.
        998    1    1    2    0    0 -0.14229740046E+02 -0.13202580897E+02  0.14091237046E+04  0.14092928753E+04  0.10000000000E+02 0.  1.
</event>
<event>
 5    1  0.1800099E-008  0.4141838E+03  0.7957747E-01  0.3314607E+00
         13   -1    0    0    0    0  0.00000000000E+00  0.00000000000E+00  0.14999999963E+04  0.15000000000E+04  0.10566000000E+00 0.  1.
        994   -1    0    0    0    0 -0.00000000000E+00 -0.00000000000E+00  0.11368683772E-12  0.17120000000E+03  0.17120000000E+03 0.  0.
         13    1    1    2    0    0 -0.34387835396E+02  0.26595424263E+02  0.12538992893E+02  0.45244638597E+02  0.10566000000E+00 0.  1.
        994    1    1    2    0    0  0.38809921362E+02  0.20655529401E+02  0.44620556204E+02  0.18230001351E+03  0.17120000000E+03 0.  0.
        998    1    1    2    0    0 -0.44220859656E+01 -0.47250953664E+02  0.14428404472E+04  0.14436553479E+04  0.10000000000E+02 0.  1.
</event>
<event>
 5    1  0.2273855E-008  0.3864207E+03  0.7957747E-01  0.3423669E+00
         13   -1    0    0    0    0  0.00000000000E+00  0.00000000000E+00  0.14999999963E+04  0.15000000000E+04  0.10566000000E+00 0. -1.
        994   -1    0    0    0    0 -0.00000000000E+00 -0.00000000000E+00  0.11368683772E-12  0.17120000000E+03  0.17120000000E+03 0.  0.
         13    1    1    2    0    0  0.10297427076E+02 -0.15222923361E+01  0.57728512494E+02  0.58659583166E+02  0.10566000000E+00 0. -1.
        994    1    1    2    0    0 -0.10834082524E+02  0.33261357166E+01  0.13469911189E+01  0.17157999565E+03  0.17120000000E+03 0.  0.
        998    1    1    2    0    0  0.53665544779E+00 -0.18038433805E+01  0.14409244927E+04  0.14409604212E+04  0.10000000000E+02 0. -1.
</event>
<event>
 5    1  0.1800099E-008  0.3829169E+03  0.7957747E-01  0.3438555E+00
         13   -1    0    0    0    0  0.00000000000E+00  0.00000000000E+00  0.14999999963E+04  0.15000000000E+04  0.10566000000E+00 0.  1.
        994   -1    0    0    0    0 -0.00000000000E+00 -0.00000000000E+00  0.11368683772E-12  0.17120000000E+03  0.17120000000E+03 0.  0.
         13    1    1    2    0    0 -0.15558910769E+02  0.45578892658E+01  0.47048750928E+02  0.49763944646E+02  0.10566000000E+00 0.  1.
        994    1    1    2    0    0  0.16877050200E+02 -0.43728483852E+01  0.36749708397E+01  0.17212467004E+03  0.17120000000E+03 0.  0.
        998    1    1    2    0    0 -0.13181394312E+01 -0.18504088066E+00  0.14492762745E+04  0.14493113853E+04  0.10000000000E+02 0.  1.
</event>
<event>
 5    1  0.1800099E-008  0.3855338E+03  0.7957747E-01  0.3427412E+00
         13   -1    0    0    0    0  0.00000000000E+00  0.00000000000E+00  0.14999999963E+04  0.15000000000E+04  0.10566000000E+00 0. -1.
        994   -1    0    0    0    0 -0.00000000000E+00 -0.00000000000E+00  0.11368683772E-12  0.17120000000E+03  0.17120000000E+03 0.  0.
         13    1    1    2    0    0  0.17401539343E+01  0.10926974491E+02  0.44288998955E+02  0.45650339535E+02  0.10566000000E+00 0. -1.
        994    1    1    2    0    0 -0.75207217726E+01 -0.93104890201E+01  0.18357857152E+01  0.17162766843E+03  0.17120000000E+03 0.  0.
        998    1    1    2    0    0  0.57805678383E+01 -0.16164854706E+01  0.14538752116E+04  0.14539219920E+04  0.10000000000E+02 0. -1.
</event>
<event>
 5    1  0.1800099E-008  0.3839508E+03  0.7957747E-01  0.3434134E+00
         13   -1    0    0    0    0  0.00000000000E+00  0.00000000000E+00  0.14999999963E+04  0.15000000000E+04  0.10566000000E+00 0. -1.
        994   -1    0    0    0    0 -0.00000000000E+00 -0.00000000000E+00  0.11368683772E-12  0.17120000000E+03  0.17120000000E+03 0.  0.
         13    1    1    2    0    0  0.23159325093E+01 -0.26159113553E+02  0.15195925291E+03  0.15421182988E+03  0.10566000000E+00 0. -1.
        994    1    1    2    0    0  0.78981365602E+01  0.22651083289E+02  0.40531462574E+01  0.17291998187E+03  0.17120000000E+03 0.  0.
        998    1    1    2    0    0 -0.10214069069E+02  0.35080302638E+01  0.13439875971E+04  0.13440681882E+04  0.10000000000E+02 0. -1.
</event>
<event>
 5    1  0.1800099E-008  0.3703258E+03  0.7957747E-01  0.3494395E+00
         13   -1    0    0    0    0  0.00000000000E+00  0.00000000000E+00  0.14999999963E+04  0.15000000000E+04  0.10566000000E+00 0.  1.
        994   -1    0    0    0    0 -0.00000000000E+00 -0.00000000000E+00  0.11368683772E-12  0.17120000000E+03  0.17120000000E+03 0.  0.
         13    1    1    2    0    0  0.24059597512E+02 -0.57780717899E+02  0.18021721581E+03  0.19077665379E+03  0.10566000000E+00 0.  1.
        994    1    1    2    0    0 -0.20239799523E+02  0.67631621070E+02  0.26513703438E+02  0.18707245153E+03  0.17120000000E+03 0.  0.
        998    1    1    2    0    0 -0.38197979886E+01 -0.98509031714E+01  0.12932690770E+04  0.12933508947E+04  0.10000000000E+02 0.  1.
</event>
<event>
 5    1  0.1800099E-008  0.3856325E+03  0.7957747E-01  0.3426994E+00
         13   -1    0    0    0    0  0.00000000000E+00  0.00000000000E+00  0.14999999963E+04  0.15000000000E+04  0.10566000000E+00 0.  1.
        994   -1    0    0    0    0 -0.00000000000E+00 -0.00000000000E+00  0.11368683772E-12  0.17120000000E+03  0.17120000000E+03 0.  0.
         13    1    1    2    0    0  0.93794414617E-01 -0.15446147016E+02  0.90521628022E+02  0.91830107039E+02  0.10566000000E+00 0.  1.
        994    1    1    2    0    0  0.87964214978E+01  0.11095608008E+02  0.19746910296E+01  0.17179589329E+03  0.17120000000E+03 0.  0.
        998    1    1    2    0    0 -0.88902159124E+01  0.43505390086E+01  0.14075036772E+04  0.14075739997E+04  0.10000000000E+02 0.  1.
</event>
<event>
 5    1  0.1800099E-008  0.3799999E+03  0.7957747E-01  0.3451159E+00
         13   -1    0    0    0    0  0.00000000000E+00  0.00000000000E+00  0.14999999963E+04  0.15000000000E+04  0.10566000000E+00 0. -1.
        994   -1    0    0    0    0 -0.00000000000E+00 -0.00000000000E+00  0.11368683772E-12  0.17120000000E+03  0.17120000000E+03 0.  0.
         13    1    1    2    0    0 -0.11619739630E+02  0.16036732267E+02  0.46048999261E+02  0.50127004976E+02  0.10566000000E+00 0. -1.
        994    1    1    2    0    0  0.50732732047E+01 -0.11220934438E+02  0.46403240815E+01  0.17170503801E+03  0.17120000000E+03 0.  0.
        998    1    1    2    0    0  0.65464664248E+01 -0.48157978290E+01  0.14493106729E+04  0.14493679570E+04  0.10000000000E+02 0. -1.
</event>
<event>
 5    1  0.1800099E-008  0.3833296E+03  0.7957747E-01  0.3436788E+00
         13   -1    0    0    0    0  0.00000000000E+00  0.00000000000E+00  0.14999999963E+04  0.15000000000E+04  0.10566000000E+00 0. -1.
        994   -1    0    0    0    0 -0.00000000000E+00 -0.00000000000E+00  0.11368683772E-12  0.17120000000E+03  0.17120000000E+03 0.  0.
         13    1    1    2    0    0 -0.10585942817E+01  0.18414377411E+02  0.69191851617E+02  0.71608193746E+02  0.10566000000E+00 0. -1.
        994    1    1    2    0    0 -0.20367868475E+00 -0.99022012496E+01  0.27861636454E+01  0.17150888543E+03  0.17120000000E+03 0.  0.
        998    1    1    2    0    0  0.12622729664E+01 -0.85121761618E+01  0.14280219810E+04  0.14280829208E+04  0.10000000000E+02 0. -1.
</event>
<event>
 5    1  0.1800099E-008  0.3843755E+03  0.7957747E-01  0.3432325E+00
         13   -1    0    0    0    0  0.00000000000E+00  0.00000000000E+00  0.14999999963E+04  0.15000000000E+04  0.10566000000E+00 0. -1.
        994   -1    0    0    0    0 -0.00000000000E+00 -0.00000000000E+00  0.11368683772E-12  0.17120000000E+03  0.17120000000E+03 0.  0.
         13    1    1    2    0    0  0.20752318046E+01  0.10312038434E+02  0.27941654579E+02  0.29856187773E+02  0.10566000000E+00 0. -1.
        994    1    1    2    0    0  0.10979091074E+01 -0.83235696744E+01  0.21728251913E+01  0.17141950993E+03  0.17120000000E+03 0.  0.
        998    1    1    2    0    0 -0.31731409120E+01 -0.19884687595E+01  0.14698855165E+04  0.14699243023E+04  0.10000000000E+02 0. -1.
</event>
<event>
 5    1  0.1800099E-008  0.3898475E+03  0.7957747E-01  0.3409370E+00
         13   -1    0    0    0    0  0.00000000000E+00  0.00000000000E+00  0.14999999963E+04  0.15000000000E+04  0.10566000000E+00 0. -1.
        994   -1    0    0    0    0 -0.00000000000E+00 -0.00000000000E+00  0.11368683772E-12  0.17120000000E+03  0.17120000000E+03 0.  0.
         13    1    1    2    0    0  0.36614622566E+02  0.33532308268E+02  0.50009052236E+02  0.70469587433E+02  0.10566000000E+00 0. -1.
        994    1    1    2    0    0 -0.35090474139E+02  0.17880411415E+01  0.26500722244E+02  0.17676613574E+03  0.17120000000E+03 0.  0.
        998    1    1    2    0    0 -0.15241484274E+01 -0.35320349409E+02  0.14234902218E+04  0.14239642768E+04  0.10000000000E+02 0. -1.
</event>
<event>
 5    1  0.1800099E-008  0.3793064E+03  0.7957747E-01  0.3454184E+00
         13   -1    0    0    0    0  0.00000000000E+00  0.00000000000E+00  0.14999999963E+04  0.15000000000E+04  0.10566000000E+00 0. -1.
        994   -1    0    0    0    0 -0.00000000000E+00 -0.00000000000E+00  0.11368683772E-12  0.17120000000E+03  0.17120000000E+03 0.  0.
         13    1    1    2    0    0  0.12389104697E+02  0.26949109266E+02  0.99635706032E+02  0.10395686358E+03  0.10566000000E+00 0. -1.
        994    1    1    2    0    0 -0.12819350084E+02 -0.70756197769E+01  0.52023574093E+01  0.17190376568E+03  0.17120000000E+03 0.  0.
        998    1    1    2    0    0  0.43024538690E+00 -0.19873489489E+02  0.13951619328E+04  0.13953393707E+04  0.10000000000E+02 0. -1.
</event>
<event>
 5    1  0.1800099E-008  0.3817339E+03  0.7957747E-01  0.3443643E+00
         13   -1    0    0    0    0  0.00000000000E+00  0.00000000000E+00  0.14999999963E+04  0.15000000000E+04  0.10566000000E+00 0. -1.
        994   -1    0    0    0    0 -0.00000000000E+00 -0.00000000000E+00  0.11368683772E-12  0.17120000000E+03  0.17120000000E+03 0.  0.
         13    1    1    2    0    0  0.44792273420E+02 -0.23991176880E+01  0.25594279016E+03  0.25984385027E+03  0.10566000000E+00 0. -1.
        994    1    1    2    0    0 -0.45630401671E+02  0.14247624141E+01  0.10219102640E+02  0.17747685360E+03  0.17120000000E+03 0.  0.
        998    1    1    2    0    0  0.83812825086E+00  0.97435527396E+00  0.12338381035E+04  0.12338792961E+04  0.10000000000E+02 0. -1.
</event>
<event>
 5    1  0.1800099E-008  0.3830239E+03  0.7957747E-01  0.3438096E+00
         13   -1    0    0    0    0  0.00000000000E+00  0.00000000000E+00  0.14999999963E+04  0.15000000000E+04  0.10566000000E+00 0. -1.
        994   -1    0    0    0    0 -0.00000000000E+00 -0.00000000000E+00  0.11368683772E-12  0.17120000000E+03  0.17120000000E+03 0.  0.
         13    1    1    2    0    0  0.12469309506E+02 -0.60653152430E+01  0.35292305720E+02  0.37918725396E+02  0.10566000000E+00 0. -1.
        994    1    1    2    0    0 -0.17654412419E+02 -0.42708485506E+01  0.37071597551E+01  0.17220075917E+03  0.17120000000E+03 0.  0.
        998    1    1    2    0    0  0.51851029121E+01  0.10336163794E+02  0.14610005308E+04  0.14610805154E+04  0.10000000000E+02 0. -1.
</event>
<event>
 5    1  0.1800099E-008  0.3843021E+03  0.7957747E-01  0.3432638E+00
         13   -1    0    0    0    0  0.00000000000E+00  0.00000000000E+00  0.14999999963E+04  0.15000000000E+04  0.10566000000E+00 0. -1.
        994   -1    0    0    0    0 -0.00000000000E+00 -0.00000000000E+00  0.11368683772E-12  0.17120000000E+03  0.17120000000E+03 0.  0.
         13    1    1    2    0    0  0.14536109348E+02  0.15327159873E+01  0.60573223385E+02  0.62311910968E+02  0.10566000000E+00 0. -1.
        994    1    1    2    0    0  0.11018299387E+02  0.46161172459E+01  0.24475745957E+01  0.17163374401E+03  0.17120000000E+03 0.  0.
        998    1    1    2    0    0 -0.25554408735E+02 -0.61488332332E+01  0.14369791983E+04  0.14372543450E+04  0.10000000000E+02 0. -1.
</event>
<event>
 5    1  0.1800099E-008  0.3785219E+03  0.7957747E-01  0.3457620E+00
         13   -1    0    0    0    0  0.00000000000E+00  0.00000000000E+00  0.14999999963E+04  0.15000000000E+04  0.10566000000E+00 0. -1.
        994   -1    0    0    0    0 -0.00000000000E+00 -0.00000000000E+00  0.11368683772E-12  0.17120000000E+03  0.17120000000E+03 0.  0.
         13    1    1    2    0    0 -0.87928657447E+01 -0.19795274740E+02  0.45257327420E+02  0.50173740535E+02  0.10566000000E+00 0. -1.
        994    1    1    2    0    0  0.10248428881E+02  0.17518505687E+02  0.62661525348E+01  0.17251270389E+03  0.17120000000E+03 0.  0.
        998    1    1    2    0    0 -0.14555631358E+01  0.22767690534E+01  0.14484765163E+04  0.14485135556E+04  0.10000000000E+02 0.  0.
</event>
<event>
 5    1  0.1800099E-008  0.3817717E+03  0.7957747E-01  0.3443480E+00
         13   -1    0    0    0    0  0.00000000000E+00  0.00000000000E+00  0.14999999963E+04  0.15000000000E+04  0.10566000000E+00 0.  1.
        994   -1    0    0    0    0 -0.00000000000E+00 -0.00000000000E+00  0.11368683772E-12  0.17120000000E+03  0.17120000000E+03 0.  0.
         13    1    1    2    0    0  0.24196426234E+02 -0.19215709204E+01  0.92565805823E+02  0.95695344971E+02  0.10566000000E+00 0.  1.
        994    1    1    2    0    0 -0.95292650189E+01  0.10078319232E+01  0.35467019900E+01  0.17150464050E+03  0.17120000000E+03 0.  0.
        998    1    1    2    0    0 -0.14667161216E+02  0.91373899712E+00  0.14038874885E+04  0.14040000145E+04  0.10000000000E+02 0.  1.
</event>
<event>
 5    1  0.1800099E-008  0.3857679E+03  0.7957747E-01  0.3426422E+00
         13   -1    0    0    0    0  0.00000000000E+00  0.00000000000E+00  0.14999999963E+04  0.15000000000E+04  0.10566000000E+00 0.  1.
        994   -1    0    0    0    0 -0.00000000000E+00 -0.00000000000E+00  0.11368683772E-12  0.17120000000E+03  0.17120000000E+03 0.  0.
         13    1    1    2    0    0  0.11678241631E+02 -0.38101708199E+01  0.60113261989E+02  0.61355636744E+02  0.10566000000E+00 0.  1.
        994    1    1    2    0    0 -0.98673697362E+01  0.22074819689E+01  0.15848214653E+01  0.17150565478E+03  0.17120000000E+03 0.  0.
        998    1    1    2    0    0 -0.18108718950E+01  0.16026888510E+01  0.14383019128E+04  0.14383387085E+04  0.10000000000E+02 0.  1.
</event>
<event>
 5    1  0.1800099E-008  0.3840220E+03  0.7957747E-01  0.3433831E+00
         13   -1    0    0    0    0  0.00000000000E+00  0.00000000000E+00  0.14999999963E+04  0.15000000000E+04  0.10566000000E+00 0. -1.
        994   -1    0    0    0    0 -0.00000000000E+00 -0.00000000000E+00  0.11368683772E-12  0.17120000000E+03  0.17120000000E+03 0.  0.
         13    1    1    2    0    0  0.20501996669E+01  0.21849638817E+02  0.11010593456E+03  0.11227171516E+03  0.10566000000E+00 0. -1.
        994    1    1    2    0    0  0.63240191146E+01 -0.18399002716E+02  0.33662330996E+01  0.17233481379E+03  0.17120000000E+03 0.  0.
        998    1    1    2    0    0 -0.83742187815E+01 -0.34506361012E+01  0.13865278286E+04  0.13865934711E+04  0.10000000000E+02 0. -1.
</event>
<event>
 5    1  0.1800099E-008  0.3852401E+03  0.7957747E-01  0.3428654E+00
         13   -1    0    0    0    0  0.00000000000E+00  0.00000000000E+00  0.14999999963E+04  0.15000000000E+04  0.10566000000E+00 0. -1.
        994   -1    0    0    0    0 -0.00000000000E+00 -0.00000000000E+00  0.11368683772E-12  0.17120000000E+03  0.17120000000E+03 0.  0.
         13    1    1    2    0    0  0.80348190652E+01  0.11945900384E+02  0.69627046922E+02  0.71099927429E+02  0.10566000000E+00 0. -1.
        994    1    1    2    0    0 -0.64408770424E+01 -0.48735023525E+01  0.17253727005E+01  0.17139910395E+03  0.17120000000E+03 0.  0.
        998    1    1    2    0    0 -0.15939420228E+01 -0.70723980312E+01  0.14286475767E+04  0.14287009686E+04  0.10000000000E+02 0. -1.
</event>
<event>
 5    1  0.1800099E-008  0.3702326E+03  0.7957747E-01  0.3494823E+00
         13   -1    0    0    0    0  0.00000000000E+00  0.00000000000E+00  0.14999999963E+04  0.15000000000E+04  0.10566000000E+00 0.  1.
        994   -1    0    0    0    0 -0.00000000000E+00 -0.00000000000E+00  0.11368683772E-12  0.17120000000E+03  0.17120000000E+03 0.  0.
         13    1    1    2    0    0  0.26617812954E+02 -0.11310786902E+02  0.40193260336E+02  0.49517180930E+02  0.10566000000E+00 0.  1.
        994    1    1    2    0    0 -0.34126070139E+02  0.13272394112E+02  0.13793822887E+02  0.17561450583E+03  0.17120000000E+03 0.  0.
        998    1    1    2    0    0  0.75082571848E+01 -0.19616072100E+01  0.14460129131E+04  0.14460683132E+04  0.10000000000E+02 0.  1.
</event>
<event>
 5    1  0.1800099E-008  0.3856956E+03  0.7957747E-01  0.3426728E+00
         13   -1    0    0    0    0  0.00000000000E+00  0.00000000000E+00  0.14999999963E+04  0.15000000000E+04  0.10566000000E+00 0. -1.
        994   -1    0    0    0    0 -0.00000000000E+00 -0.00000000000E+00  0.11368683772E-12  0.17120000000E+03  0.17120000000E+03 0.  0.
         13    1    1    2    0    0 -0.12612392634E+02 -0.25757752826E+01  0.65775196733E+02  0.67023091062E+02  0.10566000000E+00 0. -1.
        994    1    1    2    0    0  0.49784052797E+01  0.10027674673E+02  0.16965722590E+01  0.17157405729E+03  0.17120000000E+03 0.  0.
        998    1    1    2    0    0  0.76339873548E+01 -0.74518993908E+01  0.14325282273E+04  0.14326028516E+04  0.10000000000E+02 0. -1.
</event>
<event>
 5    1  0.1800099E-008  0.3833456E+03  0.7957747E-01  0.3436719E+00
         13   -1    0    0    0    0  0.00000000000E+00  0.00000000000E+00  0.14999999963E+04  0.15000000000E+04  0.10566000000E+00 0.  1.
        994   -1    0    0    0    0 -0.00000000000E+00 -0.00000000000E+00  0.11368683772E-12  0.17120000000E+03  0.17120000000E+03 0.  0.
         13    1    1    2    0    0  0.93949527841E+01 -0.16266430321E+02  0.71590933318E+02  0.74014422855E+02  0.10566000000E+00 0.  1.
        994    1    1    2    0    0 -0.72072041787E+01  0.87817191314E+01  0.28805871229E+01  0.17160069978E+03  0.17120000000E+03 0.  0.
        998    1    1    2    0    0 -0.21877486054E+01  0.74847111899E+01  0.14255284758E+04  0.14255848774E+04  0.10000000000E+02 0.  1.
</event>
<event>
 5    1  0.1800099E-008  0.3719949E+03  0.7957747E-01  0.3486773E+00
         13   -1    0    0    0    0  0.00000000000E+00  0.00000000000E+00  0.14999999963E+04  0.15000000000E+04  0.10566000000E+00 0.  1.
        994   -1    0    0    0    0 -0.00000000000E+00 -0.00000000000E+00  0.11368683772E-12  0.17120000000E+03  0.17120000000E+03 0.  0.
         13    1    1    2    0    0  0.28731323041E+02  0.95308512021E+00  0.28929511030E+02  0.40783882447E+02  0.10566000000E+00 0.  1.
        994    1    1    2    0    0 -0.29262965391E+02 -0.27633430621E+01  0.15045184234E+02  0.17435525452E+03  0.17120000000E+03 0.  0.
        998    1    1    2    0    0  0.53164235060E+00  0.18102579419E+01  0.14560253010E+04  0.14560608630E+04  0.10000000000E+02 0.  1.
</event>
<event>
 5    1  0.1800099E-008  0.3757220E+03  0.7957747E-01  0.3470000E+00
         13   -1    0    0    0    0  0.00000000000E+00  0.00000000000E+00  0.14999999963E+04  0.15000000000E+04  0.10566000000E+00 0.  1.
        994   -1    0    0    0    0 -0.00000000000E+00 -0.00000000000E+00  0.11368683772E-12  0.17120000000E+03  0.17120000000E+03 0.  0.
         13    1    1    2    0    0  0.43846493289E+02 -0.23032846183E+02  0.80314868962E+02  0.94358445925E+02  0.10566000000E+00 0.  1.
        994    1    1    2    0    0 -0.42105549338E+02  0.11658639838E+02  0.20838036746E+02  0.17791139633E+03  0.17120000000E+03 0.  0.
        998    1    1    2    0    0 -0.17409439508E+01  0.11374206345E+02  0.13988470906E+04  0.13989301577E+04  0.10000000000E+02 0.  1.
</event>
<event>
 5    1  0.1800099E-008  0.3861344E+03  0.7957747E-01  0.3424875E+00
         13   -1    0    0    0    0  0.00000000000E+00  0.00000000000E+00  0.14999999963E+04  0.15000000000E+04  0.10566000000E+00 0.  1.
        994   -1    0    0    0    0 -0.00000000000E+00 -0.00000000000E+00  0.11368683772E-12  0.17120000000E+03  0.17120000000E+03 0.  0.
         13    1    1    2    0    0 -0.40478417805E+01 -0.11358813462E+02  0.70163921674E+02  0.71192659278E+02  0.10566000000E+00 0.  1.
        994    1    1    2    0    0  0.68186012914E+01  0.39703023494E+01  0.12719745242E+01  0.17138644796E+03  0.17120000000E+03 0.  0.
        998    1    1    2    0    0 -0.27707595109E+01  0.73885111128E+01  0.14285641001E+04  0.14286208928E+04  0.10000000000E+02 0.  1.
</event>
<event>
 5    1  0.1800099E-008  0.3839515E+03  0.7957747E-01  0.3434131E+00
         13   -1    0    0    0    0  0.00000000000E+00  0.00000000000E+00  0.14999999963E+04  0.15000000000E+04  0.10566000000E+00 0. -1.
        994   -1    0    0    0    0 -0.00000000000E+00 -0.00000000000E+00  0.11368683772E-12  0.17120000000E+03  0.17120000000E+03 0.  0.
         13    1    1    2    0    0  0.86369851373E+01  0.16638339726E+02  0.83910754301E+02  0.85979402839E+02  0.10566000000E+00 0. -1.
        994    1    1    2    0    0  0.35379997006E+01 -0.96445254846E+01  0.24999042501E+01  0.17152616079E+03  0.17120000000E+03 0.  0.
        998    1    1    2    0    0 -0.12174984838E+02 -0.69938142413E+01  0.14135893377E+04  0.14136944364E+04  0.10000000000E+02 0. -1.
</event>
<event>
 5    1  0.1800099E-008  0.3850846E+03  0.7957747E-01  0.3429313E+00
         13   -1    0    0    0    0  0.00000000000E+00  0.00000000000E+00  0.14999999963E+04  0.15000000000E+04  0.10566000000E+00 0.  1.
        994   -1    0    0    0    0 -0.00000000000E+00 -0.00000000000E+00  0.11368683772E-12  0.17120000000E+03  0.17120000000E+03 0.  0.
         13    1    1    2    0    0 -0.26976912574E+02 -0.12004434876E+02  0.14130268539E+02  0.32734323297E+02  0.10566000000E+00 0.  1.
        994    1    1    2    0    0  0.32591646676E+02  0.23471609531E+02  0.25128584088E+02  0.17763450573E+03  0.17120000000E+03 0.  0.
        998    1    1    2    0    0 -0.56147341021E+01 -0.11467174655E+02  0.14607411437E+04  0.14608311710E+04  0.10000000000E+02 0.  1.
</event>
<event>
 5    1  0.1800099E-008  0.3802942E+03  0.7957747E-01  0.3449879E+00
         13   -1    0    0    0    0  0.00000000000E+00  0.00000000000E+00  0.14999999963E+04  0.15000000000E+04  0.10566000000E+00 0. -1.
        994   -1    0    0    0    0 -0.00000000000E+00 -0.00000000000E+00  0.11368683772E-12  0.17120000000E+03  0.17120000000E+03 0.  0.
         13    1    1    2    0    0  0.10742267055E+02  0.14075827788E+02  0.36543147482E+02  0.40607117865E+02  0.10566000000E+00 0. -1.
        994    1    1    2    0    0 -0.43325534035E+01 -0.24419364706E+02  0.60415816563E+01  0.17309251024E+03  0.17120000000E+03 0.  0.
        998    1    1    2    0    0 -0.64097136512E+01  0.10343536918E+02  0.14574152671E+04  0.14575003719E+04  0.10000000000E+02 0. -1.
</event>
<event>
 5    1  0.1800099E-008  0.3903545E+03  0.7957747E-01  0.3407276E+00
         13   -1    0    0    0    0  0.00000000000E+00  0.00000000000E+00  0.14999999963E+04  0.15000000000E+04  0.10566000000E+00 0.  1.
        994   -1    0    0    0    0 -0.00000000000E+00 -0.00000000000E+00  0.11368683772E-12  0.17120000000E+03  0.17120000000E+03 0.  0.
         13    1    1    2    0    0  0.69761847076E+02  0.55512985255E+01  0.92198387746E+02  0.11575010190E+03  0.10566000000E+00 0.  1.
        994    1    1    2    0    0 -0.87422030448E+02  0.21285192046E+01  0.51560677520E+02  0.19903538748E+03  0.17120000000E+03 0.  0.
        998    1    1    2    0    0  0.17660183372E+02 -0.76798177301E+01  0.13562409310E+04  0.13564145106E+04  0.10000000000E+02 0.  1.
</event>
<event>
 5    1  0.1800099E-008  0.3761160E+03  0.7957747E-01  0.3468246E+00
         13   -1    0    0    0    0  0.00000000000E+00  0.00000000000E+00  0.14999999963E+04  0.15000000000E+04  0.10566000000E+00 0.  1.
        994   -1    0    0    0    0 -0.00000000000E+00 -0.00000000000E+00  0.11368683772E-12  0.17120000000E+03  0.17120000000E+03 0.  0.
         13    1    1    2    0    0  0.18599836337E+02 -0.57561320670E+01  0.28636965633E+02  0.34629090846E+02  0.10566000000E+00 0.  1.
        994    1    1    2    0    0 -0.10088223740E+02  0.73325282739E+01  0.66336247624E+01  0.17178178951E+03  0.17120000000E+03 0.  0.
        998    1    1    2    0    0 -0.85116125971E+01 -0.15763962069E+01  0.14647294059E+04  0.14647891196E+04  0.10000000000E+02 0.  1.
</event>
<event>
 5    1  0.1800099E-008  0.3719546E+03  0.7957747E-01  0.3486956E+00
         13   -1    0    0    0    0  0.00000000000E+00  0.00000000000E+00  0.14999999963E+04  0.15000000000E+04  0.10566000000E+00 0. -1.
        994   -1    0    0    0    0 -0.00000000000E+00 -0.00000000000E+00  0.11368683772E-12  0.17120000000E+03  0.17120000000E+03 0.  0.
         13    1    1    2    0    0 -0.21731907901E+02 -0.25928601379E+02  0.63300003505E+02  0.71773740311E+02  0.10566000000E+00 0. -1.
        994    1    1    2    0    0  0.21178517073E+02  0.29270176367E+02  0.12747204078E+02  0.17543432966E+03  0.17120000000E+03 0.  0.
        998    1    1    2    0    0  0.55339082825E+00 -0.33415749873E+01  0.14239527887E+04  0.14239919300E+04  0.10000000000E+02 0. -1.
</event>
<event>
 5    1  0.1800099E-008  0.3837263E+03  0.7957747E-01  0.3435092E+00
         13   -1    0    0    0    0  0.00000000000E+00  0.00000000000E+00  0.14999999963E+04  0.15000000000E+04  0.10566000000E+00 0. -1.
        994   -1    0    0    0    0 -0.00000000000E+00 -0.00000000000E+00  0.11368683772E-12  0.17120000000E+03  0.17120000000E+03 0.  0.
         13    1    1    2    0    0  0.20113537504E+02  0.68245570067E+01  0.81624523258E+02  0.84342770470E+02  0.10566000000E+00 0. -1.
        994    1    1    2    0    0 -0.34520668908E+02 -0.45400695299E+02  0.13080873968E+02  0.18092387620E+03  0.17120000000E+03 0.  0.
        998    1    1    2    0    0  0.14407131404E+02  0.38576138293E+02  0.14052945991E+04  0.14059333533E+04  0.10000000000E+02 0. -1.
</event>
<event>
 5    1  0.1800099E-008  0.3797845E+03  0.7957747E-01  0.3452097E+00
         13   -1    0    0    0    0  0.00000000000E+00  0.00000000000E+00  0.14999999963E+04  0.15000000000E+04  0.10566000000E+00 0.  1.
        994   -1    0    0    0    0 -0.00000000000E+00 -0.00000000000E+00  0.11368683772E-12  0.17120000000E+03  0.17120000000E+03 0.  0.
         13    1    1    2    0    0 -0.25655535273E+02  0.12095591065E+02  0.96625117737E+02  0.10070220631E+03  0.10566000000E+00 0.  1.
        994    1    1    2    0    0  0.66943220625E+01 -0.10460553900E+02  0.47581124441E+01  0.17171580233E+03  0.17120000000E+03 0.  0.
        998    1    1    2    0    0  0.18961213210E+02 -0.16350371651E+01  0.13986167661E+04  0.13987819914E+04  0.10000000000E+02 0.  1.
</event>
<event>
 5    1  0.1800099E-008  0.3847229E+03  0.7957747E-01  0.3430848E+00
         13   -1    0    0    0    0  0.00000000000E+00  0.00000000000E+00  0.14999999963E+04  0.15000000000E+04  0.10566000000E+00 0.  1.
        994   -1    0    0    0    0 -0.00000000000E+00 -0.00000000000E+00  0.11368683772E-12  0.17120000000E+03  0.17120000000E+03 0.  0.
         13    1    1    2    0    0 -0.79837797461E+01 -0.10928546437E+02  0.52448908750E+02  0.54167084649E+02  0.10566000000E+00 0.  1.
        994    1    1    2    0    0  0.12880963136E+02 -0.16155652904E+01  0.23227069547E+01  0.17170720495E+03  0.17120000000E+03 0.  0.
        998    1    1    2    0    0 -0.48971833896E+01  0.12544111727E+02  0.14452283806E+04  0.14453257104E+04  0.10000000000E+02 0.  1.
</event>
<event>
 5    1  0.1800099E-008  0.3779566E+03  0.7957747E-01  0.3460105E+00
         13   -1    0    0    0    0  0.00000000000E+00  0.00000000000E+00  0.14999999963E+04  0.15000000000E+04  0.10566000000E+00 0.  1.
        994   -1    0    0    0    0 -0.00000000000E+00 -0.00000000000E+00  0.11368683772E-12  0.17120000000E+03  0.17120000000E+03 0.  0.
         13    1    1    2    0    0 -0.18919430076E+02 -0.13795384590E+02  0.52814555242E+02  0.57772362595E+02  0.10566000000E+00 0.  1.
        994    1    1    2    0    0  0.92083465070E+01 -0.29544159674E+01  0.54830424677E+01  0.17156056066E+03  0.17120000000E+03 0.  0.
        998    1    1    2    0    0  0.97110835687E+01  0.16749800557E+02  0.14417023986E+04  0.14418670767E+04  0.10000000000E+02 0.  1.
</event>
<event>
 5    1  0.1800099E-008  0.3842061E+03  0.7957747E-01  0.3433046E+00
         13   -1    0    0    0    0  0.00000000000E+00  0.00000000000E+00  0.14999999963E+04  0.15000000000E+04  0.10566000000E+00 0. -1.
        994   -1    0    0    0    0 -0.00000000000E+00 -0.00000000000E+00  0.11368683772E-12  0.17120000000E+03  0.17120000000E+03 0.  0.
         13    1    1    2    0    0 -0.98595954631E+01  0.23549263078E+01  0.23777859467E+02  0.25848695624E+02  0.10566000000E+00 0. -1.
        994    1    1    2    0    0  0.17847606299E+02 -0.49021216013E+01  0.31551211412E+01  0.17222648645E+03  0.17120000000E+03 0.  0.
        998    1    1    2    0    0 -0.79880108363E+01  0.25471952935E+01  0.14730670157E+04  0.14731248179E+04  0.10000000000E+02 0. -1.
</event>
<event>
 5    1  0.1800099E-008  0.3832975E+03  0.7957747E-01  0.3436925E+00
         13   -1    0    0    0    0  0.00000000000E+00  0.00000000000E+00  0.14999999963E+04  0.15000000000E+04  0.10566000000E+00 0. -1.
        994   -1    0    0    0    0 -0.00000000000E+00 -0.00000000000E+00  0.11368683772E-12  0.17120000000E+03  0.17120000000E+03 0.  0.
         13    1    1    2    0    0 -0.18699257547E+02  0.19192785897E+02  0.15156411745E+03  0.15391464558E+03  0.10566000000E+00 0. -1.
        994    1    1    2    0    0  0.11147519508E+02 -0.30946959479E+01  0.29204757511E+01  0.17161530676E+03  0.17120000000E+03 0.  0.
        998    1    1    2    0    0  0.75517380392E+01 -0.16098089949E+02  0.13455154031E+04  0.13456700477E+04  0.10000000000E+02 0. -1.
</event>
<event>
 5    1  0.1800099E-008  0.3847969E+03  0.7957747E-01  0.3430534E+00
         13   -1    0    0    0    0  0.00000000000E+00  0.00000000000E+00  0.14999999963E+04  0.15000000000E+04  0.10566000000E+00 0. -1.
        994   -1    0    0    0    0 -0.00000000000E+00 -0.00000000000E+00  0.11368683772E-12  0.17120000000E+03  0.17120000000E+03 0.  0.
         13    1    1    2    0    0  0.85945181654E+01 -0.15900308555E+02  0.87629724998E+02  0.89474384167E+02  0.10566000000E+00 0. -1.
        994    1    1    2    0    0 -0.29341190129E+01  0.23541746457E+02  0.35853671702E+01  0.17287312613E+03  0.17120000000E+03 0.  0.
        998    1    1    2    0    0 -0.56603991525E+01 -0.76414379020E+01  0.14087849041E+04  0.14088524897E+04  0.10000000000E+02 0. -1.
</event>
<event>
 5    1  0.1800099E-008  0.3728031E+03  0.7957747E-01  0.3483107E+00
         13   -1    0    0    0    0  0.00000000000E+00  0.00000000000E+00  0.14999999963E+04  0.15000000000E+04  0.10566000000E+00 0.  1.
        994   -1    0    0    0    0 -0.00000000000E+00 -0.00000000000E+00  0.11368683772E-12  0.17120000000E+03  0.17120000000E+03 0.  0.
         13    1    1    2    0    0  0.48964148758E+02  0.13528623714E+02  0.14318415585E+03  0.15192835540E+03  0.10566000000E+00 0.  1.
        994    1    1    2    0    0 -0.70514719793E+02  0.34596370674E+02  0.29242938947E+02  0.19061433327E+03  0.17120000000E+03 0.  0.
        998    1    1    2    0    0  0.21550571035E+02 -0.48124994388E+02  0.13275729015E+04  0.13286573113E+04  0.10000000000E+02 0.  1.
</event>
<event>
 5    1  0.1800099E-008  0.3840075E+03  0.7957747E-01  0.3433892E+00
         13   -1    0    0    0    0  0.00000000000E+00  0.00000000000E+00  0.14999999963E+04  0.15000000000E+04  0.10566000000E+00 0.  1.
        994   -1    0    0    0    0 -0.00000000000E+00 -0.00000000000E+00  0.11368683772E-12  0.17120000000E+03  0.17120000000E+03 0.  0.
         13    1    1    2    0    0 -0.12990083218E+02 -0.12734303725E+02  0.78798739312E+02  0.80871238611E+02  0.10566000000E+00 0.  1.
        994    1    1    2    0    0  0.14947828546E+00  0.12794258369E+02  0.26640009007E+01  0.17169814295E+03  0.17120000000E+03 0.  0.
        998    1    1    2    0    0  0.12840604933E+02 -0.59954643618E-01  0.14185372561E+04  0.14186306184E+04  0.10000000000E+02 0.  1.
</event>
<event>
 5    1  0.1800099E-008  0.3708083E+03  0.7957747E-01  0.3492184E+00
         13   -1    0    0    0    0  0.00000000000E+00  0.00000000000E+00  0.14999999963E+04  0.15000000000E+04  0.10566000000E+00 0. -1.
        994   -1    0    0    0    0 -0.00000000000E+00 -0.00000000000E+00  0.11368683772E-12  0.17120000000E+03  0.17120000000E+03 0.  0.
         13    1    1    2    0    0  0.41073343436E-01 -0.17490841569E+02  0.14256882650E+02  0.22565484545E+02  0.10566000000E+00 0. -1.
        994    1    1    2    0    0  0.21561434052E+00 -0.14847843340E+02  0.96078467242E+01  0.17211117239E+03  0.17120000000E+03 0.  0.
        998    1    1    2    0    0 -0.25668768395E+00  0.32338684909E+02  0.14761352669E+04  0.14765233431E+04  0.10000000000E+02 0. -1.
</event>
<event>
 5    1  0.1800099E-008  0.3814168E+03  0.7957747E-01  0.3445013E+00
         13   -1    0    0    0    0  0.00000000000E+00  0.00000000000E+00  0.14999999963E+04  0.15000000000E+04  0.10566000000E+00 0. -1.
        994   -1    0    0    0    0 -0.00000000000E+00 -0.00000000000E+00  0.11368683772E-12  0.17120000000E+03  0.17120000000E+03 0.  0.
         13    1    1    2    0    0 -0.16749724206E+02  0.28090666358E+02  0.18240902245E+03  0.18531783895E+03  0.10566000000E+00 0. -1.
        994    1    1    2    0    0 -0.17332867069E+02 -0.95953393679E+01  0.47267458433E+01  0.17240731117E+03  0.17120000000E+03 0.  0.
        998    1    1    2    0    0  0.34082591275E+02 -0.18495326990E+02  0.13128642280E+04  0.13134748499E+04  0.10000000000E+02 0. -1.
</event>
<event>
 5    1  0.1800099E-008  0.3751589E+03  0.7957747E-01  0.3472512E+00
         13   -1    0    0    0    0  0.00000000000E+00  0.00000000000E+00  0.14999999963E+04  0.15000000000E+04  0.10566000000E+00 0.  1.
        994   -1    0    0    0    0 -0.00000000000E+00 -0.00000000000E+00  0.11368683772E-12  0.17120000000E+03  0.17120000000E+03 0.  0.
         13    1    1    2    0    0 -0.88725188204E+02 -0.86504448716E+01  0.23928495731E+03  0.25535130933E+03  0.10566000000E+00 0.  1.
        994    1    1    2    0    0  0.88259873706E+02  0.14163550341E+02  0.42719986234E+02  0.19780002196E+03  0.17120000000E+03 0.  0.
        998    1    1    2    0    0  0.46531449799E+00 -0.55131054691E+01  0.12179950527E+04  0.12180486687E+04  0.10000000000E+02 0.  1.
</event>
<event>
 5    1  0.1800099E-008  0.3848658E+03  0.7957747E-01  0.3430242E+00
         13   -1    0    0    0    0  0.00000000000E+00  0.00000000000E+00  0.14999999963E+04  0.15000000000E+04  0.10566000000E+00 0.  1.
        994   -1    0    0    0    0 -0.00000000000E+00 -0.00000000000E+00  0.11368683772E-12  0.17120000000E+03  0.17120000000E+03 0.  0.
         13    1    1    2    0    0  0.85660341636E+01  0.10549449222E+02  0.53482687955E+02  0.55182215388E+02  0.10566000000E+00 0.  1.
        994    1    1    2    0    0 -0.10473274155E+02 -0.67062157566E+01  0.22057942077E+01  0.17166527992E+03  0.17120000000E+03 0.  0.
        998    1    1    2    0    0  0.19072399910E+01 -0.38432334658E+01  0.14443115141E+04  0.14443525047E+04  0.10000000000E+02 0.  1.
</event>
<event>
 5    1  0.1800099E-008  0.3843919E+03  0.7957747E-01  0.3432255E+00
         13   -1    0    0    0    0  0.00000000000E+00  0.00000000000E+00  0.14999999963E+04  0.15000000000E+04  0.10566000000E+00 0.  1.
        994   -1    0    0    0    0 -0.00000000000E+00 -0.00000000000E+00  0.11368683772E-12  0.17120000000E+03  0.17120000000E+03 0.  0.
         13    1    1    2    0    0 -0.21416801339E+01  0.10043494900E+02  0.26867359699E+02  0.28763253725E+02  0.10566000000E+00 0.  1.
        994    1    1    2    0    0  0.21014029871E+01 -0.60543236964E+01  0.20676727060E+01  0.17133238456E+03  0.17120000000E+03 0.  0.
        998    1    1    2    0    0  0.40277146822E-01 -0.39891712039E+01  0.14710649639E+04  0.14711043617E+04  0.10000000000E+02 0.  1.
</event>
<event>
 5    1  0.1800099E-008  0.3877143E+03  0.7957747E-01  0.3418241E+00
         13   -1    0    0    0    0  0.00000000000E+00  0.00000000000E+00  0.14999999963E+04  0.15000000000E+04  0.10566000000E+00 0.  1.
        994   -1    0    0    0    0 -0.00000000000E+00 -0.00000000000E+00  0.11368683772E-12  0.17120000000E+03  0.17120000000E+03 0.  0.
         13    1    1    2    0    0  0.27116096566E+02 -0.15924471683E+03  0.47037370095E+03  0.49733850870E+03  0.10566000000E+00 0.  1.
        994    1    1    2    0    0 -0.73073114175E+02  0.13113039603E+03  0.11047629337E+03  0.25307965579E+03  0.17120000000E+03 0.  0.
        998    1    1    2    0    0  0.45957017609E+02  0.28114320796E+02  0.91915000196E+03  0.92078183551E+03  0.10000000000E+02 0.  1.
</event>
<event>
 5    1  0.1800099E-008  0.3711024E+03  0.7957747E-01  0.3490840E+00
         13   -1    0    0    0    0  0.00000000000E+00  0.00000000000E+00  0.14999999963E+04  0.15000000000E+04  0.10566000000E+00 0.  1.
        994   -1    0    0    0    0 -0.00000000000E+00 -0.00000000000E+00  0.11368683772E-12  0.17120000000E+03  0.17120000000E+03 0.  0.
         13    1    1    2    0    0  0.85466437921E+01  0.20512112512E+02  0.24966181400E+02  0.33423244270E+02  0.10566000000E+00 0.  1.
        994    1    1    2    0    0  0.29129620712E+01 -0.14337799720E+02  0.94316753870E+01  0.17208269625E+03  0.17120000000E+03 0.  0.
        998    1    1    2    0    0 -0.11459605863E+02 -0.61743127924E+01  0.14656021395E+04  0.14656940595E+04  0.10000000000E+02 0.  1.
</event>
<event>
 5    1  0.1800099E-008  0.3864187E+03  0.7957747E-01  0.3423678E+00
         13   -1    0    0    0    0  0.00000000000E+00  0.00000000000E+00  0.14999999963E+04  0.15000000000E+04  0.10566000000E+00 0.  1.
        994   -1    0    0    0    0 -0.00000000000E+00 -0.00000000000E+00  0.11368683772E-12  0.17120000000E+03  0.17120000000E+03 0.  0.
         13    1    1    2    0    0  0.10318619618E+02 -0.33866567912E+01  0.64619194848E+02  0.65525528322E+02  0.10566000000E+00 0.  1.
        994    1    1    2    0    0 -0.95580924107E+01 -0.42050440344E+01  0.12844600400E+01  0.17152297037E+03  0.17120000000E+03 0.  0.
        998    1    1    2    0    0 -0.76052720715E+00  0.75917008256E+01  0.14340963414E+04  0.14341515013E+04  0.10000000000E+02 0.  1.
</event>
<event>
 5    1  0.1800099E-008  0.3697012E+03  0.7957747E-01  0.3497265E+00
         13   -1    0    0    0    0  0.00000000000E+00  0.00000000000E+00  0.14999999963E+04  0.15000000000E+04  0.10566000000E+00 0. -1.
        994   -1    0    0    0    0 -0.00000000000E+00 -0.00000000000E+00  0.11368683772E-12  0.17120000000E+03  0.17120000000E+03 0.  0.
         13    1    1    2    0    0  0.24801717240E+02  0.65915700864E+02  0.24891845090E+03  0.25868979717E+03  0.10566000000E+00 0. -1.
        994    1    1    2    0    0 -0.48879052364E+00 -0.26187945872E+02  0.13180511523E+02  0.17369287063E+03  0.17120000000E+03 0.  0.
        998    1    1    2    0    0 -0.24312926717E+02 -0.39727754992E+02  0.12379010339E+04  0.12388173322E+04  0.10000000000E+02 0. -1.
</event>
<event>
 5    1  0.1800099E-008  0.3831138E+03  0.7957747E-01  0.3437711E+00
         13   -1    0    0    0    0  0.00000000000E+00  0.00000000000E+00  0.14999999963E+04  0.15000000000E+04  0.10566000000E+00 0. -1.
        994   -1    0    0    0    0 -0.00000000000E+00 -0.00000000000E+00  0.11368683772E-12  0.17120000000E+03  0.17120000000E+03 0.  0.
         13    1    1    2    0    0 -0.98430172830E+01 -0.62677817150E+01  0.25096251190E+02  0.27676760372E+02  0.10566000000E+00 0. -1.
        994    1    1    2    0    0  0.11588868178E+02  0.77835124317E+01  0.32146036104E+01  0.17179830793E+03  0.17120000000E+03 0.  0.
        998    1    1    2    0    0 -0.17458508951E+01 -0.15157307167E+01  0.14716891415E+04  0.14717249317E+04  0.10000000000E+02 0. -1.
</event>
<event>
 5    1  0.1800099E-008  0.3840978E+03  0.7957747E-01  0.3433508E+00
         13   -1    0    0    0    0  0.00000000000E+00  0.00000000000E+00  0.14999999963E+04  0.15000000000E+04  0.10566000000E+00 0. -1.
        994   -1    0    0    0    0 -0.00000000000E+00 -0.00000000000E+00  0.11368683772E-12  0.17120000000E+03  0.17120000000E+03 0.  0.
         13    1    1    2    0    0  0.78376683494E+01 -0.15359588848E+02  0.75533566203E+02  0.77476943681E+02  0.10566000000E+00 0. -1.
        994    1    1    2    0    0  0.65010489205E+01  0.49708201970E+01  0.22996651526E+01  0.17141091316E+03  0.17120000000E+03 0.  0.
        998    1    1    2    0    0 -0.14338717270E+02  0.10388768651E+02  0.14221667649E+04  0.14223121432E+04  0.10000000000E+02 0. -1.
</event>
<event>
 5    1  0.1800099E-008  0.3697218E+03  0.7957747E-01  0.3497170E+00
         13   -1    0    0    0    0  0.00000000000E+00  0.00000000000E+00  0.14999999963E+04  0.15000000000E+04  0.10566000000E+00 0. -1.
        994   -1    0    0    0    0 -0.00000000000E+00 -0.00000000000E+00  0.11368683772E-12  0.17120000000E+03  0.17120000000E+03 0.  0.
         13    1    1    2    0    0  0.57513273854E+02  0.21008835052E+02  0.36214339185E+03  0.36728326295E+03  0.10566000000E+00 0. -1.
        994    1    1    2    0    0  0.30335359917E+02  0.31247928666E+02  0.16007587804E+02  0.17737629485E+03  0.17120000000E+03 0.  0.
        998    1    1    2    0    0 -0.87848633771E+02 -0.52256763717E+02  0.11218490166E+04  0.11265404422E+04  0.10000000000E+02 0. -1.
</event>
<event>
 5    1  0.1800099E-008  0.3718981E+03  0.7957747E-01  0.3487213E+00
         13   -1    0    0    0    0  0.00000000000E+00  0.00000000000E+00  0.14999999963E+04  0.15000000000E+04  0.10566000000E+00 0.  1.
        994   -1    0    0    0    0 -0.00000000000E+00 -0.00000000000E+00  0.11368683772E-12  0.17120000000E+03  0.17120000000E+03 0.  0.
         13    1    1    2    0    0  0.18148777905E+02 -0.29872232419E+02  0.42462170005E+02  0.54997958642E+02  0.10566000000E+00 0.  1.
        994    1    1    2    0    0 -0.63359945799E+02  0.28331814848E+02  0.29098501371E+02  0.18701159656E+03  0.17120000000E+03 0.  0.
        998    1    1    2    0    0  0.45211167894E+02  0.15404175713E+01  0.14284393249E+04  0.14291904448E+04  0.10000000000E+02 0.  1.
</event>
<event>
 5    1  0.1800099E-008  0.4037371E+03  0.7957747E-01  0.3353896E+00
         13   -1    0    0    0    0  0.00000000000E+00  0.00000000000E+00  0.14999999963E+04  0.15000000000E+04  0.10566000000E+00 0. -1.
        994   -1    0    0    0    0 -0.00000000000E+00 -0.00000000000E+00  0.11368683772E-12  0.17120000000E+03  0.17120000000E+03 0.  0.
         13    1    1    2    0    0 -0.66572982632E+02  0.74518479768E+02  0.14099120487E+03  0.17281058086E+03  0.10566000000E+00 0. -1.
        994    1    1    2    0    0  0.72046273284E+02 -0.73394798454E+02  0.73473863388E+02  0.21280345518E+03  0.17120000000E+03 0.  0.
        998    1    1    2    0    0 -0.54732906518E+01 -0.11236813137E+01  0.12855349280E+04  0.12855859640E+04  0.10000000000E+02 0. -1.
</event>
<event>
 5    1  0.1800099E-008  0.3839719E+03  0.7957747E-01  0.3434044E+00
         13   -1    0    0    0    0  0.00000000000E+00  0.00000000000E+00  0.14999999963E+04  0.15000000000E+04  0.10566000000E+00 0. -1.
        994   -1    0    0    0    0 -0.00000000000E+00 -0.00000000000E+00  0.11368683772E-12  0.17120000000E+03  0.17120000000E+03 0.  0.
         13    1    1    2    0    0 -0.84152846532E+01 -0.60360800446E+01  0.24384705746E+02  0.26492948429E+02  0.10566000000E+00 0. -1.
        994    1    1    2    0    0  0.41803313911E+01  0.65276253045E+01  0.23397080741E+01  0.17139136296E+03  0.17120000000E+03 0.  0.
        998    1    1    2    0    0  0.42349532620E+01 -0.49154525988E+00  0.14732755825E+04  0.14733156886E+04  0.10000000000E+02 0. -1.
</event>
<event>
 5    1  0.1800099E-008  0.3697678E+03  0.7957747E-01  0.3496959E+00
         13   -1    0    0    0    0  0.00000000000E+00  0.00000000000E+00  0.14999999963E+04  0.15000000000E+04  0.10566000000E+00 0. -1.
        994   -1    0    0    0    0 -0.00000000000E+00 -0.00000000000E+00  0.11368683772E-12  0.17120000000E+03  0.17120000000E+03 0.  0.
         13    1    1    2    0    0 -0.26488091558E+02  0.44110469177E+02  0.14922231466E+03  0.15784379254E+03  0.10566000000E+00 0. -1.
        994    1    1    2    0    0  0.13112297601E+02 -0.78434391838E+01  0.10198707448E+02  0.17218276778E+03  0.17120000000E+03 0.  0.
        998    1    1    2    0    0  0.13375793957E+02 -0.36267029993E+02  0.13405789742E+04  0.13411734397E+04  0.10000000000E+02 0. -1.
</event>
<event>
 5    1  0.1800099E-008  0.3817049E+03  0.7957747E-01  0.3443769E+00
         13   -1    0    0    0    0  0.00000000000E+00  0.00000000000E+00  0.14999999963E+04  0.15000000000E+04  0.10566000000E+00 0.  1.
        994   -1    0    0    0    0 -0.00000000000E+00 -0.00000000000E+00  0.11368683772E-12  0.17120000000E+03  0.17120000000E+03 0.  0.
         13    1    1    2    0    0  0.32756494205E+02 -0.17932007272E+02  0.32989371653E+02  0.49828251059E+02  0.10566000000E+00 0.  1.
        994    1    1    2    0    0 -0.37765741916E+02  0.48024972546E+01  0.22569882413E+02  0.17682803747E+03  0.17120000000E+03 0.  0.
        998    1    1    2    0    0  0.50092477110E+01  0.13129510018E+02  0.14444407422E+04  0.14445437115E+04  0.10000000000E+02 0.  1.
</event>
<event>
 5    1  0.1800099E-008  0.3832359E+03  0.7957747E-01  0.3437189E+00
         13   -1    0    0    0    0  0.00000000000E+00  0.00000000000E+00  0.14999999963E+04  0.15000000000E+04  0.10566000000E+00 0.  1.
        994   -1    0    0    0    0 -0.00000000000E+00 -0.00000000000E+00  0.11368683772E-12  0.17120000000E+03  0.17120000000E+03 0.  0.
         13    1    1    2    0    0 -0.82001353735E+01 -0.15804566628E+02  0.60287393292E+02  0.62861812735E+02  0.10566000000E+00 0.  1.
        994    1    1    2    0    0  0.54733979114E+01  0.18310657859E+02  0.37175159373E+01  0.17230350606E+03  0.17120000000E+03 0.  0.
        998    1    1    2    0    0  0.27267374622E+01 -0.25060912311E+01  0.14359950870E+04  0.14360346812E+04  0.10000000000E+02 0.  1.
</event>
<event>
 5    1  0.1800099E-008  0.3847332E+03  0.7957747E-01  0.3430805E+00
         13   -1    0    0    0    0  0.00000000000E+00  0.00000000000E+00  0.14999999963E+04  0.15000000000E+04  0.10566000000E+00 0.  1.
        994   -1    0    0    0    0 -0.00000000000E+00 -0.00000000000E+00  0.11368683772E-12  0.17120000000E+03  0.17120000000E+03 0.  0.
         13    1    1    2    0    0 -0.19275809581E+02 -0.29272222518E+00  0.99578615250E+02  0.10142758156E+03  0.10566000000E+00 0.  1.
        994    1    1    2    0    0  0.19766353001E+02 -0.23277465001E+01  0.30676148689E+01  0.17238032769E+03  0.17120000000E+03 0.  0.
        998    1    1    2    0    0 -0.49054341946E+00  0.26204687253E+01  0.13973537662E+04  0.13973920907E+04  0.10000000000E+02 0.  1.
</event>
<event>
 5    1  0.1800099E-008  0.3829431E+03  0.7957747E-01  0.3438443E+00
         13   -1    0    0    0    0  0.00000000000E+00  0.00000000000E+00  0.14999999963E+04  0.15000000000E+04  0.10566000000E+00 0.  1.
        994   -1    0    0    0    0 -0.00000000000E+00 -0.00000000000E+00  0.11368683772E-12  0.17120000000E+03  0.17120000000E+03 0.  0.
         13    1    1    2    0    0  0.66356238131E+01  0.10401432188E+02  0.27175120846E+02  0.29844926738E+02  0.10566000000E+00 0.  1.
        994    1    1    2    0    0 -0.24471146148E+01 -0.15624715923E+02  0.34833057410E+01  0.17196422168E+03  0.17120000000E+03 0.  0.
        998    1    1    2    0    0 -0.41885091982E+01  0.52232837350E+01  0.14693415697E+04  0.14693908516E+04  0.10000000000E+02 0.  1.
</event>
<event>
 5    1  0.1800099E-008  0.3824884E+03  0.7957747E-01  0.3440395E+00
         13   -1    0    0    0    0  0.00000000000E+00  0.00000000000E+00  0.14999999963E+04  0.15000000000E+04  0.10566000000E+00 0. -1.
        994   -1    0    0    0    0 -0.00000000000E+00 -0.00000000000E+00  0.11368683772E-12  0.17120000000E+03  0.17120000000E+03 0.  0.
         13    1    1    2    0    0 -0.12692774606E+01  0.17898051006E+02  0.54770126039E+02  0.57634444263E+02  0.10566000000E+00 0. -1.
        994    1    1    2    0    0  0.10381775006E+02 -0.11696088647E+02  0.36936422842E+01  0.17195250139E+03  0.17120000000E+03 0.  0.
        998    1    1    2    0    0 -0.91124975459E+01 -0.62019623596E+01  0.14415362280E+04  0.14416130543E+04  0.10000000000E+02 0. -1.
</event>
<event>
 5    1  0.1800099E-008  0.3823769E+03  0.7957747E-01  0.3440874E+00
         13   -1    0    0    0    0  0.00000000000E+00  0.00000000000E+00  0.14999999963E+04  0.15000000000E+04  0.10566000000E+00 0.  1.
        994   -1    0    0    0    0 -0.00000000000E+00 -0.00000000000E+00  0.11368683772E-12  0.17120000000E+03  0.17120000000E+03 0.  0.
         13    1    1    2    0    0  0.10531792755E+02 -0.15880937469E+02  0.58926255570E+02  0.61930909836E+02  0.10566000000E+00 0.  1.
        994    1    1    2    0    0 -0.10636222930E+02  0.16095551740E+02  0.41736047267E+01  0.17233413765E+03  0.17120000000E+03 0.  0.
        998    1    1    2    0    0  0.10443017495E+00 -0.21461427108E+00  0.14369001360E+04  0.14369349525E+04  0.10000000000E+02 0.  1.
</event>
<event>
 5    1  0.1800099E-008  0.3857172E+03  0.7957747E-01  0.3426636E+00
         13   -1    0    0    0    0  0.00000000000E+00  0.00000000000E+00  0.14999999963E+04  0.15000000000E+04  0.10566000000E+00 0. -1.
        994   -1    0    0    0    0 -0.00000000000E+00 -0.00000000000E+00  0.11368683772E-12  0.17120000000E+03  0.17120000000E+03 0.  0.
         13    1    1    2    0    0 -0.69585576138E+01 -0.73764423757E+01  0.40851261817E+02  0.42091212649E+02  0.10566000000E+00 0. -1.
        994    1    1    2    0    0  0.10215270295E+02 -0.16256745696E+01  0.16255917310E+01  0.17151990297E+03  0.17120000000E+03 0.  0.
        998    1    1    2    0    0 -0.32567126815E+01  0.90021169453E+01  0.14575231427E+04  0.14575888844E+04  0.10000000000E+02 0. -1.
</event>
<event>
 5    1  0.1800099E-008  0.3764367E+03  0.7957747E-01  0.3466822E+00
         13   -1    0    0    0    0  0.00000000000E+00  0.00000000000E+00  0.14999999963E+04  0.15000000000E+04  0.10566000000E+00 0. -1.
        994   -1    0    0    0    0 -0.00000000000E+00 -0.00000000000E+00  0.11368683772E-12  0.17120000000E+03  0.17120000000E+03 0.  0.
         13    1    1    2    0    0  0.14476590294E+03  0.35607028098E+02  0.89591374090E+03  0.90823260754E+03  0.10566000000E+00 0. -1.
        994    1    1    2    0    0 -0.13604464453E+03 -0.20458963729E+02  0.72915185775E+02  0.23141473337E+03  0.17120000000E+03 0.  0.
        998    1    1    2    0    0 -0.87212584006E+01 -0.15148064369E+02  0.53117106960E+03  0.53155265909E+03  0.10000000000E+02 0. -1.
</event>
<event>
 5    1  0.1800099E-008  0.3832787E+03  0.7957747E-01  0.3437005E+00
         13   -1    0    0    0    0  0.00000000000E+00  0.00000000000E+00  0.14999999963E+04  0.15000000000E+04  0.10566000000E+00 0.  1.
        994   -1    0    0    0    0 -0.00000000000E+00 -0.00000000000E+00  0.11368683772E-12  0.17120000000E+03  0.17120000000E+03 0.  0.
         13    1    1    2    0    0 -0.30871102860E+01  0.10858420471E+02  0.24650774877E+02  0.27112864310E+02  0.10566000000E+00 0.  1.
        994    1    1    2    0    0  0.28913503359E+01 -0.87083083046E+01  0.27656461558E+01  0.17146802425E+03  0.17120000000E+03 0.  0.
        998    1    1    2    0    0  0.19575995017E+00 -0.21501121660E+01  0.14725835752E+04  0.14726191114E+04  0.10000000000E+02 0.  1.
</event>
<event>
 5    1  0.1800099E-008  0.3771784E+03  0.7957747E-01  0.3463537E+00
         13   -1    0    0    0    0  0.00000000000E+00  0.00000000000E+00  0.14999999963E+04  0.15000000000E+04  0.10566000000E+00 0.  1.
        994   -1    0    0    0    0 -0.00000000000E+00 -0.00000000000E+00  0.11368683772E-12  0.17120000000E+03  0.17120000000E+03 0.  0.
         13    1    1    2    0    0 -0.45410453574E+02  0.14205224217E+01  0.16904980829E+03  0.17504849621E+03  0.10566000000E+00 0.  1.
        994    1    1    2    0    0  0.40747277260E+02  0.36902485208E+01  0.11233834826E+02  0.17637913024E+03  0.17120000000E+03 0.  0.
        998    1    1    2    0    0  0.46631763136E+01 -0.51107709425E+01  0.13197163532E+04  0.13197723736E+04  0.10000000000E+02 0.  1.
</event>
<event>
 5    1  0.1800099E-008  0.3754255E+03  0.7957747E-01  0.3471322E+00
         13   -1    0    0    0    0  0.00000000000E+00  0.00000000000E+00  0.14999999963E+04  0.15000000000E+04  0.10566000000E+00 0.  1.
        994   -1    0    0    0    0 -0.00000000000E+00 -0.00000000000E+00  0.11368683772E-12  0.17120000000E+03  0.17120000000E+03 0.  0.
         13    1    1    2    0    0  0.75188368214E+02 -0.25705087232E+02  0.39147058764E+03  0.39945371994E+03  0.10566000000E+00 0.  1.
        994    1    1    2    0    0 -0.65325686422E+02  0.25845584430E+02  0.23401541307E+02  0.18652750917E+03  0.17120000000E+03 0.  0.
        998    1    1    2    0    0 -0.98626817920E+01 -0.14049719755E+00  0.10851278673E+04  0.10852187709E+04  0.10000000000E+02 0.  0.
</event>
<event>
 5    1  0.1800099E-008  0.3809589E+03  0.7957747E-01  0.3446994E+00
         13   -1    0    0    0    0  0.00000000000E+00  0.00000000000E+00  0.14999999963E+04  0.15000000000E+04  0.10566000000E+00 0. -1.
        994   -1    0    0    0    0 -0.00000000000E+00 -0.00000000000E+00  0.11368683772E-12  0.17120000000E+03  0.17120000000E+03 0.  0.
         13    1    1    2    0    0 -0.96443885142E+01  0.35987195340E+02  0.13725131066E+03  0.14221823336E+03  0.10566000000E+00 0. -1.
        994    1    1    2    0    0  0.29618231522E+02 -0.68996426342E+02  0.22670819306E+02  0.18831131813E+03  0.17120000000E+03 0.  0.
        998    1    1    2    0    0 -0.19973843008E+02  0.33009231002E+02  0.13400778663E+04  0.13406704485E+04  0.10000000000E+02 0. -1.
</event>
<event>
 5    1  0.1800099E-008  0.3849913E+03  0.7957747E-01  0.3429709E+00
         13   -1    0    0    0    0  0.00000000000E+00  0.00000000000E+00  0.14999999963E+04  0.15000000000E+04  0.10566000000E+00 0.  1.
        994   -1    0    0    0    0 -0.00000000000E+00 -0.00000000000E+00  0.11368683772E-12  0.17120000000E+03  0.17120000000E+03 0.  0.
         13    1    1    2    0    0  0.25661168260E+01  0.12162686143E+02  0.46870965895E+02  0.48491385810E+02  0.10566000000E+00 0.  1.
        994    1    1    2    0    0  0.44375127984E+01 -0.10775793094E+02  0.20812393940E+01  0.17160880162E+03  0.17120000000E+03 0.  0.
        998    1    1    2    0    0 -0.70036296244E+01 -0.13868930489E+01  0.14510477910E+04  0.14510998126E+04  0.10000000000E+02 0.  1.
</event>
<event>
 5    1  0.1800099E-008  0.3831104E+03  0.7957747E-01  0.3437726E+00
         13   -1    0    0    0    0  0.00000000000E+00  0.00000000000E+00  0.14999999963E+04  0.15000000000E+04  0.10566000000E+00 0. -1.
        994   -1    0    0    0    0 -0.00000000000E+00 -0.00000000000E+00  0.11368683772E-12  0.17120000000E+03  0.17120000000E+03 0.  0.
         13    1    1    2    0    0  0.48070470267E+01 -0.12147139085E+02  0.32151976263E+02  0.34704775330E+02  0.10566000000E+00 0. -1.
        994    1    1    2    0    0  0.43629738984E+01  0.13029096274E+02  0.31961357673E+01  0.17178023220E+03  0.17120000000E+03 0.  0.
        998    1    1    2    0    0 -0.91700209251E+01 -0.88195718906E+00  0.14646518842E+04  0.14647149925E+04  0.10000000000E+02 0. -1.
</event>
<event>
 5    1  0.1800099E-008  0.3777576E+03  0.7957747E-01  0.3460981E+00
         13   -1    0    0    0    0  0.00000000000E+00  0.00000000000E+00  0.14999999963E+04  0.15000000000E+04  0.10566000000E+00 0.  1.
        994   -1    0    0    0    0 -0.00000000000E+00 -0.00000000000E+00  0.11368683772E-12  0.17120000000E+03  0.17120000000E+03 0.  0.
         13    1    1    2    0    0  0.23788126330E+02 -0.52962480416E+02  0.30813393604E+03  0.31355610820E+03  0.10566000000E+00 0.  1.
        994    1    1    2    0    0 -0.21322145608E+02  0.30821823674E+02  0.10014578588E+02  0.17554016775E+03  0.17120000000E+03 0.  0.
        998    1    1    2    0    0 -0.24659807218E+01  0.22140656742E+02  0.11818514816E+04  0.11821037241E+04  0.10000000000E+02 0.  1.
</event>
<event>
 5    1  0.1800099E-008  0.3852585E+03  0.7957747E-01  0.3428577E+00
         13   -1    0    0    0    0  0.00000000000E+00  0.00000000000E+00  0.14999999963E+04  0.15000000000E+04  0.10566000000E+00 0.  1.
        994   -1    0    0    0    0 -0.00000000000E+00 -0.00000000000E+00  0.11368683772E-12  0.17120000000E+03  0.17120000000E+03 0.  0.
         13    1    1    2    0    0 -0.29940359055E+01 -0.12229846666E+02  0.54847218926E+02  0.56273990337E+02  0.10566000000E+00 0.  1.
        994    1    1    2    0    0 -0.46221139407E+01  0.36530114855E+01  0.16159336529E+01  0.17130895969E+03  0.17120000000E+03 0.  0.
        998    1    1    2    0    0  0.76161498463E+01  0.85768351807E+01  0.14435368437E+04  0.14436170500E+04  0.10000000000E+02 0.  1.
</event>
<event>
 5    1  0.1800099E-008  0.3856918E+03  0.7957747E-01  0.3426743E+00
         13   -1    0    0    0    0  0.00000000000E+00  0.00000000000E+00  0.14999999963E+04  0.15000000000E+04  0.10566000000E+00 0. -1.
        994   -1    0    0    0    0 -0.00000000000E+00 -0.00000000000E+00  0.11368683772E-12  0.17120000000E+03  0.17120000000E+03 0.  0.
         13    1    1    2    0    0 -0.87918181697E+01 -0.85500530094E+01  0.60147604043E+02  0.61385217352E+02  0.10566000000E+00 0. -1.
        994    1    1    2    0    0  0.78033707187E+01 -0.76813027288E+00  0.14888290650E+01  0.17138593650E+03  0.17120000000E+03 0.  0.
        998    1    1    2    0    0  0.98844745100E+00  0.93181832823E+01  0.14383635632E+04  0.14384288461E+04  0.10000000000E+02 0. -1.
</event>
<event>
 5    1  0.1800099E-008  0.3792605E+03  0.7957747E-01  0.3454385E+00
         13   -1    0    0    0    0  0.00000000000E+00  0.00000000000E+00  0.14999999963E+04  0.15000000000E+04  0.10566000000E+00 0. -1.
        994   -1    0    0    0    0 -0.00000000000E+00 -0.00000000000E+00  0.11368683772E-12  0.17120000000E+03  0.17120000000E+03 0.  0.
         13    1    1    2    0    0  0.67097918234E+01 -0.20079790089E+02  0.42719294590E+02  0.47677757609E+02  0.10566000000E+00 0. -1.
        994    1    1    2    0    0 -0.20392911524E+01  0.49891939086E+02  0.12908211202E+02  0.17879996144E+03  0.17120000000E+03 0.  0.
        998    1    1    2    0    0 -0.46705006709E+01 -0.29812148997E+02  0.14443724905E+04  0.14447222810E+04  0.10000000000E+02 0. -1.
</event>
<event>
 5    1  0.1800099E-008  0.3851279E+03  0.7957747E-01  0.3429130E+00
         13   -1    0    0    0    0  0.00000000000E+00  0.00000000000E+00  0.14999999963E+04  0.15000000000E+04  0.10566000000E+00 0. -1.
        994   -1    0    0    0    0 -0.00000000000E+00 -0.00000000000E+00  0.11368683772E-12  0.17120000000E+03  0.17120000000E+03 0.  0.
         13    1    1    2    0    0 -0.13087317285E+02 -0.18493144179E+00  0.59438633257E+02  0.60862750191E+02  0.10566000000E+00 0. -1.
        994    1    1    2    0    0 -0.44980563977E+01  0.29663617042E+00  0.16334420314E+01  0.17126712655E+03  0.17120000000E+03 0.  0.
        998    1    1    2    0    0  0.17585373683E+02 -0.11170472863E+00  0.14389279210E+04  0.14390701233E+04  0.10000000000E+02 0. -1.
</event>
<event>
 5    1  0.1800099E-008  0.3838300E+03  0.7957747E-01  0.3434649E+00
         13   -1    0    0    0    0  0.00000000000E+00  0.00000000000E+00  0.14999999963E+04  0.15000000000E+04  0.10566000000E+00 0. -1.
        994   -1    0    0    0    0 -0.00000000000E+00 -0.00000000000E+00  0.11368683772E-12  0.17120000000E+03  0.17120000000E+03 0.  0.
         13    1    1    2    0    0  0.12982560685E+02  0.26185365467E+01  0.38732680834E+02  0.40934525088E+02  0.10566000000E+00 0. -1.
        994    1    1    2    0    0 -0.11358227422E+02  0.11608175416E+01  0.26425603952E+01  0.17160064089E+03  0.17120000000E+03 0.  0.
        998    1    1    2    0    0 -0.16243332627E+01 -0.37793540883E+01  0.14586247550E+04  0.14586648340E+04  0.10000000000E+02 0. -1.
</event>
<event>
 5    1  0.1800099E-008  0.3860118E+03  0.7957747E-01  0.3425392E+00
         13   -1    0    0    0    0  0.00000000000E+00  0.00000000000E+00  0.14999999963E+04  0.15000000000E+04  0.10566000000E+00 0. -1.
        994   -1    0    0    0    0 -0.00000000000E+00 -0.00000000000E+00  0.11368683772E-12  0.17120000000E+03  0.17120000000E+03 0.  0.
         13    1    1    2    0    0 -0.26549027759E+01 -0.96493918488E+01  0.46369323509E+02  0.47437164740E+02  0.10566000000E+00 0. -1.
        994    1    1    2    0    0  0.65341415588E+01  0.40833466001E-01  0.12685767313E+01  0.17132934938E+03  0.17120000000E+03 0.  0.
        998    1    1    2    0    0 -0.38792387829E+01  0.96085583828E+01  0.14523620960E+04  0.14524334859E+04  0.10000000000E+02 0. -1.
</event>
<event>
 5    1  0.1800099E-008  0.3773205E+03  0.7957747E-01  0.3462909E+00
         13   -1    0    0    0    0  0.00000000000E+00  0.00000000000E+00  0.14999999963E+04  0.15000000000E+04  0.10566000000E+00 0. -1.
        994   -1    0    0    0    0 -0.00000000000E+00 -0.00000000000E+00  0.11368683772E-12  0.17120000000E+03  0.17120000000E+03 0.  0.
         13    1    1    2    0    0  0.71275798853E+02 -0.39297430482E+02  0.29975730952E+03  0.31061066195E+03  0.10566000000E+00 0. -1.
        994    1    1    2    0    0 -0.87787599346E+01 -0.30147786113E+02  0.18409101278E+02  0.17502654268E+03  0.17120000000E+03 0.  0.
        998    1    1    2    0    0 -0.62497038919E+02  0.69445216595E+02  0.11818335855E+04  0.11855627954E+04  0.10000000000E+02 0. -1.
</event>
<event>
 5    1  0.1800099E-008  0.3180850E+03  0.7957747E-01  0.3774809E+00
         13   -1    0    0    0    0  0.00000000000E+00  0.00000000000E+00  0.14999999963E+04  0.15000000000E+04  0.10566000000E+00 0. -1.
        994   -1    0    0    0    0 -0.00000000000E+00 -0.00000000000E+00  0.11368683772E-12  0.17120000000E+03  0.17120000000E+03 0.  0.
         13    1    1    2    0    0  0.21976308711E+02  0.18289955621E+03  0.94351934168E+03  0.96133447098E+03  0.10566000000E+00 0. -1.
        994    1    1    2    0    0  0.73453641722E+02 -0.12432939279E+03  0.11014138015E+03  0.24958725732E+03  0.17120000000E+03 0.  0.
        998    1    1    2    0    0 -0.95429950433E+02 -0.58570163420E+02  0.44633927445E+03  0.46027827170E+03  0.10000000000E+02 0.  1.
</event>
<event>
 5    1  0.1800099E-008  0.3742398E+03  0.7957747E-01  0.3476630E+00
         13   -1    0    0    0    0  0.00000000000E+00  0.00000000000E+00  0.14999999963E+04  0.15000000000E+04  0.10566000000E+00 0. -1.
        994   -1    0    0    0    0 -0.00000000000E+00 -0.00000000000E+00  0.11368683772E-12  0.17120000000E+03  0.17120000000E+03 0.  0.
         13    1    1    2    0    0 -0.17258687463E+02 -0.33595300024E+02  0.98050285972E+02  0.10507319458E+03  0.10566000000E+00 0. -1.
        994    1    1    2    0    0  0.75691748925E+02 -0.98078626842E+01  0.27189569379E+02  0.18940471934E+03  0.17120000000E+03 0.  0.
        998    1    1    2    0    0 -0.58433061462E+02  0.43403162708E+02  0.13747601409E+04  0.13767220861E+04  0.10000000000E+02 0. -1.
</event>
<event>
 5    1  0.1800099E-008  0.3688052E+03  0.7957747E-01  0.3501400E+00
         13   -1    0    0    0    0  0.00000000000E+00  0.00000000000E+00  0.14999999963E+04  0.15000000000E+04  0.10566000000E+00 0.  1.
        994   -1    0    0    0    0 -0.00000000000E+00 -0.00000000000E+00  0.11368683772E-12  0.17120000000E+03  0.17120000000E+03 0.  0.
         13    1    1    2    0    0  0.64346875402E+02 -0.49386109618E+02  0.43094687944E+03  0.43851423268E+03  0.10566000000E+00 0.  1.
        994    1    1    2    0    0 -0.13164376322E+02 -0.12427470105E+01  0.10917350382E+02  0.17205660046E+03  0.17120000000E+03 0.  0.
        998    1    1    2    0    0 -0.51182499080E+02  0.50628856629E+02  0.10581357665E+04  0.10606291669E+04  0.10000000000E+02 0.  1.
</event>
<event>
 5    1  0.1800099E-008  0.3694235E+03  0.7957747E-01  0.3498545E+00
         13   -1    0    0    0    0  0.00000000000E+00  0.00000000000E+00  0.14999999963E+04  0.15000000000E+04  0.10566000000E+00 0. -1.
        994   -1    0    0    0    0 -0.00000000000E+00 -0.00000000000E+00  0.11368683772E-12  0.17120000000E+03  0.17120000000E+03 0.  0.
         13    1    1    2    0    0  0.50305493813E+02 -0.45449913068E+02  0.13533177366E+03  0.15136392381E+03  0.10566000000E+00 0. -1.
        994    1    1    2    0    0 -0.10861350949E+03  0.10079018864E+03  0.91683167037E+02  0.24427607269E+03  0.17120000000E+03 0.  0.
        998    1    1    2    0    0  0.58308015676E+02 -0.55340275575E+02  0.12729850556E+04  0.12755600035E+04  0.10000000000E+02 0. -1.
</event>
<event>
 5    1  0.1800099E-008  0.3858118E+03  0.7957747E-01  0.3426237E+00
         13   -1    0    0    0    0  0.00000000000E+00  0.00000000000E+00  0.14999999963E+04  0.15000000000E+04  0.10566000000E+00 0.  1.
        994   -1    0    0    0    0 -0.00000000000E+00 -0.00000000000E+00  0.11368683772E-12  0.17120000000E+03  0.17120000000E+03 0.  0.
         13    1    1    2    0    0 -0.91130490737E+01 -0.10667895871E+02  0.79081557670E+02  0.80316596002E+02  0.10566000000E+00 0.  1.
        994    1    1    2    0    0  0.92725982256E+01  0.78820441596E+01  0.17135747395E+01  0.17164056641E+03  0.17120000000E+03 0.  0.
        998    1    1    2    0    0 -0.15954915186E+00  0.27858517119E+01  0.14192048639E+04  0.14192428376E+04  0.10000000000E+02 0.  1.
</event>
<event>
 5    1  0.1800099E-008  0.3804467E+03  0.7957747E-01  0.3449216E+00
         13   -1    0    0    0    0  0.00000000000E+00  0.00000000000E+00  0.14999999963E+04  0.15000000000E+04  0.10566000000E+00 0.  1.
        994   -1    0    0    0    0 -0.00000000000E+00 -0.00000000000E+00  0.11368683772E-12  0.17120000000E+03  0.17120000000E+03 0.  0.
         13    1    1    2    0    0 -0.28863897678E+02 -0.51188986943E+02  0.11654022410E+03  0.13051847367E+03  0.10566000000E+00 0.  1.
        994    1    1    2    0    0 -0.43991447255E+02  0.11474062898E+02  0.24112446292E+02  0.17876731138E+03  0.17120000000E+03 0.  0.
        998    1    1    2    0    0  0.72855344932E+02  0.39714924044E+02  0.13593473259E+04  0.13619142149E+04  0.10000000000E+02 0.  1.
</event>
<event>
 5    1  0.1800099E-008  0.3766033E+03  0.7957747E-01  0.3466083E+00
         13   -1    0    0    0    0  0.00000000000E+00  0.00000000000E+00  0.14999999963E+04  0.15000000000E+04  0.10566000000E+00 0.  1.
        994   -1    0    0    0    0 -0.00000000000E+00 -0.00000000000E+00  0.11368683772E-12  0.17120000000E+03  0.17120000000E+03 0.  0.
         13    1    1    2    0    0  0.10637831142E+03  0.13541030360E+03  0.87019988601E+03  0.88707392490E+03  0.10566000000E+00 0.  1.
        994    1    1    2    0    0 -0.87485262511E+02 -0.15578275031E+03  0.12276045792E+03  0.27622727324E+03  0.17120000000E+03 0.  0.
        998    1    1    2    0    0 -0.18893048906E+02  0.20372446709E+02  0.50703965235E+03  0.50789880187E+03  0.10000000000E+02 0.  1.
</event>
<event>
 5    1  0.1800099E-008  0.3830665E+03  0.7957747E-01  0.3437914E+00
         13   -1    0    0    0    0  0.00000000000E+00  0.00000000000E+00  0.14999999963E+04  0.15000000000E+04  0.10566000000E+00 0.  1.
        994   -1    0    0    0    0 -0.00000000000E+00 -0.00000000000E+00  0.11368683772E-12  0.17120000000E+03  0.17120000000E+03 0.  0.
         13    1    1    2    0    0  0.77399955530E+01  0.12358738942E+02  0.38514791920E+02  0.41183082936E+02  0.10566000000E+00 0.  1.
        994    1    1    2    0    0 -0.42007475303E+01 -0.21404114553E+02  0.41692756741E+01  0.17263431078E+03  0.17120000000E+03 0.  0.
        998    1    1    2    0    0 -0.35392480226E+01  0.90453756110E+01  0.14573159287E+04  0.14573826063E+04  0.10000000000E+02 0.  1.
</event>
<event>
 5    1  0.1800099E-008  0.3857012E+03  0.7957747E-01  0.3426704E+00
         13   -1    0    0    0    0  0.00000000000E+00  0.00000000000E+00  0.14999999963E+04  0.15000000000E+04  0.10566000000E+00 0.  1.
        994   -1    0    0    0    0 -0.00000000000E+00 -0.00000000000E+00  0.11368683772E-12  0.17120000000E+03  0.17120000000E+03 0.  0.
         13    1    1    2    0    0  0.67093983508E+01  0.10218052760E+02  0.61659245508E+02  0.62859353712E+02  0.10566000000E+00 0.  1.
        994    1    1    2    0    0 -0.62068473457E+01  0.26907196151E+01  0.14325667056E+01  0.17133959605E+03  0.17120000000E+03 0.  0.
        998    1    1    2    0    0 -0.50255100515E+00 -0.12908772376E+02  0.14369081841E+04  0.14370010502E+04  0.10000000000E+02 0.  1.
</event>
<event>
 5    1  0.1800099E-008  0.3843932E+03  0.7957747E-01  0.3432250E+00
         13   -1    0    0    0    0  0.00000000000E+00  0.00000000000E+00  0.14999999963E+04  0.15000000000E+04  0.10566000000E+00 0.  1.
        994   -1    0    0    0    0 -0.00000000000E+00 -0.00000000000E+00  0.11368683772E-12  0.17120000000E+03  0.17120000000E+03 0.  0.
         13    1    1    2    0    0  0.87269523497E+01  0.61227104821E+01  0.28290086552E+02  0.30232225226E+02  0.10566000000E+00 0.  1.
        994    1    1    2    0    0 -0.55154139715E+01 -0.14859085556E+02  0.27599268101E+01  0.17195426546E+03  0.17120000000E+03 0.  0.
        998    1    1    2    0    0 -0.32115383782E+01  0.87363750743E+01  0.14689499829E+04  0.14690135093E+04  0.10000000000E+02 0.  1.
</event>
<event>
 5    1  0.1800099E-008  0.4135655E+03  0.7957747E-01  0.3316878E+00
         13   -1    0    0    0    0  0.00000000000E+00  0.00000000000E+00  0.14999999963E+04  0.15000000000E+04  0.10566000000E+00 0. -1.
        994   -1    0    0    0    0 -0.00000000000E+00 -0.00000000000E+00  0.11368683772E-12  0.17120000000E+03  0.17120000000E+03 0.  0.
         13    1    1    2    0    0 -0.32915632416E+01  0.62666661030E+02  0.40744442365E+02  0.74820221470E+02  0.10566000000E+00 0. -1.
        994    1    1    2    0    0  0.43015106527E+00 -0.63527411239E+02  0.53079739946E+02  0.19016523289E+03  0.17120000000E+03 0.  0.
        998    1    1    2    0    0  0.28614121764E+01  0.86075020940E+00  0.14061758140E+04  0.14062145456E+04  0.10000000000E+02 0. -1.
</event>
<event>
 5    1  0.1800099E-008  0.3819710E+03  0.7957747E-01  0.3442621E+00
         13   -1    0    0    0    0  0.00000000000E+00  0.00000000000E+00  0.14999999963E+04  0.15000000000E+04  0.10566000000E+00 0.  1.
        994   -1    0    0    0    0 -0.00000000000E+00 -0.00000000000E+00  0.11368683772E-12  0.17120000000E+03  0.17120000000E+03 0.  0.
         13    1    1    2    0    0  0.12651027038E+02 -0.35818985252E+01  0.26314929522E+02  0.29417089624E+02  0.10566000000E+00 0.  1.
        994    1    1    2    0    0 -0.11091379916E+02 -0.54056713903E+01  0.36472656945E+01  0.17168279628E+03  0.17120000000E+03 0.  0.
        998    1    1    2    0    0 -0.15596471219E+01  0.89875699155E+01  0.14700378011E+04  0.14701001141E+04  0.10000000000E+02 0.  1.
</event>
<event>
 5    1  0.1800099E-008  0.3718733E+03  0.7957747E-01  0.3487326E+00
         13   -1    0    0    0    0  0.00000000000E+00  0.00000000000E+00  0.14999999963E+04  0.15000000000E+04  0.10566000000E+00 0. -1.
        994   -1    0    0    0    0 -0.00000000000E+00 -0.00000000000E+00  0.11368683772E-12  0.17120000000E+03  0.17120000000E+03 0.  0.
         13    1    1    2    0    0  0.10165174238E+03  0.25705139461E+02  0.33581090749E+03  0.35179938555E+03  0.10566000000E+00 0. -1.
        994    1    1    2    0    0 -0.14674747526E+03 -0.61723956022E+02  0.10111209069E+03  0.25471113663E+03  0.17120000000E+03 0.  0.
        998    1    1    2    0    0  0.45095732881E+02  0.36018816561E+02  0.10630769981E+04  0.10646894778E+04  0.10000000000E+02 0. -1.
</event>
<event>
 5    1  0.1800099E-008  0.3693971E+03  0.7957747E-01  0.3498666E+00
         13   -1    0    0    0    0  0.00000000000E+00  0.00000000000E+00  0.14999999963E+04  0.15000000000E+04  0.10566000000E+00 0.  1.
        994   -1    0    0    0    0 -0.00000000000E+00 -0.00000000000E+00  0.11368683772E-12  0.17120000000E+03  0.17120000000E+03 0.  0.
         13    1    1    2    0    0  0.39092620984E+02  0.32680248584E+02  0.16634131789E+03  0.17397033329E+03  0.10566000000E+00 0.  1.
        994    1    1    2    0    0 -0.17952263660E+02  0.45987108607E+02  0.18076613229E+02  0.17909020597E+03  0.17120000000E+03 0.  0.
        998    1    1    2    0    0 -0.21140357324E+02 -0.78667357191E+02  0.13155820652E+04  0.13181394607E+04  0.10000000000E+02 0.  1.
</event>
<event>
 5    1  0.1800099E-008  0.3748676E+03  0.7957747E-01  0.3473815E+00
         13   -1    0    0    0    0  0.00000000000E+00  0.00000000000E+00  0.14999999963E+04  0.15000000000E+04  0.10566000000E+00 0.  1.
        994   -1    0    0    0    0 -0.00000000000E+00 -0.00000000000E+00  0.11368683772E-12  0.17120000000E+03  0.17120000000E+03 0.  0.
         13    1    1    2    0    0  0.78373378223E+01  0.14005933651E+02  0.14620706744E+02  0.21710971220E+02  0.10566000000E+00 0.  1.
        994    1    1    2    0    0 -0.35465652553E+02 -0.39827037153E+02  0.16480567255E+02  0.18006958237E+03  0.17120000000E+03 0.  0.
        998    1    1    2    0    0  0.27628314730E+02  0.25821103502E+02  0.14688987223E+04  0.14694194464E+04  0.10000000000E+02 0.  1.
</event>
<event>
 5    1  0.1800099E-008  0.3799450E+03  0.7957747E-01  0.3451398E+00
         13   -1    0    0    0    0  0.00000000000E+00  0.00000000000E+00  0.14999999963E+04  0.15000000000E+04  0.10566000000E+00 0. -1.
        994   -1    0    0    0    0 -0.00000000000E+00 -0.00000000000E+00  0.11368683772E-12  0.17120000000E+03  0.17120000000E+03 0.  0.
         13    1    1    2    0    0  0.11022663688E+01 -0.21923650622E+02  0.57549618583E+02  0.61594084219E+02  0.10566000000E+00 0. -1.
        994    1    1    2    0    0  0.21801545738E+02  0.10244073686E+02  0.61033902286E+01  0.17299404560E+03  0.17120000000E+03 0.  0.
        998    1    1    2    0    0 -0.22903812107E+02  0.11679576936E+02  0.14363469875E+04  0.14366118702E+04  0.10000000000E+02 0. -1.
</event>
<event>
 5    1  0.1800099E-008  0.3837578E+03  0.7957747E-01  0.3434958E+00
         13   -1    0    0    0    0  0.00000000000E+00  0.00000000000E+00  0.14999999963E+04  0.15000000000E+04  0.10566000000E+00 0.  1.
        994   -1    0    0    0    0 -0.00000000000E+00 -0.00000000000E+00  0.11368683772E-12  0.17120000000E+03  0.17120000000E+03 0.  0.
         13    1    1    2    0    0  0.12809915442E+03  0.18394016097E+02  0.52725362197E+03  0.54290342256E+03  0.10566000000E+00 0.  1.
        994    1    1    2    0    0 -0.68662749552E+02  0.51877583639E+02  0.46156359640E+02  0.19709314142E+03  0.17120000000E+03 0.  0.
        998    1    1    2    0    0 -0.59436404869E+02 -0.70271599736E+02  0.92659001467E+03  0.93120343601E+03  0.10000000000E+02 0.  1.
</event>
<event>
 5    1  0.1800099E-008  0.3776601E+03  0.7957747E-01  0.3461411E+00
         13   -1    0    0    0    0  0.00000000000E+00  0.00000000000E+00  0.14999999963E+04  0.15000000000E+04  0.10566000000E+00 0.  1.
        994   -1    0    0    0    0 -0.00000000000E+00 -0.00000000000E+00  0.11368683772E-12  0.17120000000E+03  0.17120000000E+03 0.  0.
         13    1    1    2    0    0 -0.94874210591E+01  0.47057970824E+01  0.81149730492E+01  0.13342399940E+02  0.10566000000E+00 0.  1.
        994    1    1    2    0    0  0.92219248918E+01 -0.88014169852E+00  0.56081634675E+01  0.17154215239E+03  0.17120000000E+03 0.  0.
        998    1    1    2    0    0  0.26549616728E+00 -0.38256553839E+01  0.14862768598E+04  0.14863154477E+04  0.10000000000E+02 0.  1.
</event>
<event>
 5    1  0.1800099E-008  0.3811987E+03  0.7957747E-01  0.3445956E+00
         13   -1    0    0    0    0  0.00000000000E+00  0.00000000000E+00  0.14999999963E+04  0.15000000000E+04  0.10566000000E+00 0.  1.
        994   -1    0    0    0    0 -0.00000000000E+00 -0.00000000000E+00  0.11368683772E-12  0.17120000000E+03  0.17120000000E+03 0.  0.
         13    1    1    2    0    0  0.26795290714E+02  0.53463409151E+01  0.10333602452E+03  0.10688739914E+03  0.10566000000E+00 0.  1.
        994    1    1    2    0    0 -0.16495839360E+02 -0.13868449483E+02  0.50773030792E+01  0.17262579649E+03  0.17120000000E+03 0.  0.
        998    1    1    2    0    0 -0.10299451354E+02  0.85221085676E+01  0.13915866687E+04  0.13916868044E+04  0.10000000000E+02 0.  1.
</event>
<event>
 5    1  0.1800099E-008  0.3778336E+03  0.7957747E-01  0.3460646E+00
         13   -1    0    0    0    0  0.00000000000E+00  0.00000000000E+00  0.14999999963E+04  0.15000000000E+04  0.10566000000E+00 0.  1.
        994   -1    0    0    0    0 -0.00000000000E+00 -0.00000000000E+00  0.11368683772E-12  0.17120000000E+03  0.17120000000E+03 0.  0.
         13    1    1    2    0    0 -0.60200629816E+02  0.58635821964E+01  0.28671979641E+03  0.29303028895E+03  0.10566000000E+00 0.  1.
        994    1    1    2    0    0  0.58090656056E+02 -0.10772385839E+02  0.17075097444E+02  0.18191087810E+03  0.17120000000E+03 0.  0.
        998    1    1    2    0    0  0.21099737600E+01  0.49088036427E+01  0.11962051024E+04  0.11962588329E+04  0.10000000000E+02 0.  1.
</event>
<event>
 5    1  0.1800099E-008  0.3743710E+03  0.7957747E-01  0.3476041E+00
         13   -1    0    0    0    0  0.00000000000E+00  0.00000000000E+00  0.14999999963E+04  0.15000000000E+04  0.10566000000E+00 0. -1.
        994   -1    0    0    0    0 -0.00000000000E+00 -0.00000000000E+00  0.11368683772E-12  0.17120000000E+03  0.17120000000E+03 0.  0.
         13    1    1    2    0    0 -0.29439845718E+02 -0.67377779011E+02  0.41148685844E+03  0.41800468353E+03  0.10566000000E+00 0. -1.
        994    1    1    2    0    0  0.27144289330E+02  0.26140329138E+02  0.11855028343E+02  0.17569892130E+03  0.17120000000E+03 0.  0.
        998    1    1    2    0    0  0.22955563886E+01  0.41237449872E+02  0.10766581095E+04  0.10774963952E+04  0.10000000000E+02 0. -1.
</event>
<event>
 5    1  0.1800099E-008  0.3774449E+03  0.7957747E-01  0.3462360E+00
         13   -1    0    0    0    0  0.00000000000E+00  0.00000000000E+00  0.14999999963E+04  0.15000000000E+04  0.10566000000E+00 0. -1.
        994   -1    0    0    0    0 -0.00000000000E+00 -0.00000000000E+00  0.11368683772E-12  0.17120000000E+03  0.17120000000E+03 0.  0.
         13    1    1    2    0    0  0.22027256836E+02  0.58894522665E+02  0.36751589376E+03  0.37285614944E+03  0.10566000000E+00 0. -1.
        994    1    1    2    0    0 -0.79636934860E+00 -0.36602973743E+02  0.99609447325E+01  0.17535413400E+03  0.17120000000E+03 0.  0.
        998    1    1    2    0    0 -0.21230887487E+02 -0.22291548922E+02  0.11225231578E+04  0.11229897166E+04  0.10000000000E+02 0. -1.
</event>
<event>
 5    1  0.1800099E-008  0.3785052E+03  0.7957747E-01  0.3457693E+00
         13   -1    0    0    0    0  0.00000000000E+00  0.00000000000E+00  0.14999999963E+04  0.15000000000E+04  0.10566000000E+00 0. -1.
        994   -1    0    0    0    0 -0.00000000000E+00 -0.00000000000E+00  0.11368683772E-12  0.17120000000E+03  0.17120000000E+03 0.  0.
         13    1    1    2    0    0  0.31978945005E+02 -0.45735667025E+02  0.32223002958E+03  0.32702692135E+03  0.10566000000E+00 0. -1.
        994    1    1    2    0    0 -0.21712656090E+02  0.21329025276E+02  0.80080151831E+01  0.17406876532E+03  0.17120000000E+03 0.  0.
        998    1    1    2    0    0 -0.10266288915E+02  0.24406641749E+02  0.11697619515E+04  0.11701043133E+04  0.10000000000E+02 0. -1.
</event>
<event>
 5    1  0.1800099E-008  0.3727195E+03  0.7957747E-01  0.3483485E+00
         13   -1    0    0    0    0  0.00000000000E+00  0.00000000000E+00  0.14999999963E+04  0.15000000000E+04  0.10566000000E+00 0.  1.
        994   -1    0    0    0    0 -0.00000000000E+00 -0.00000000000E+00  0.11368683772E-12  0.17120000000E+03  0.17120000000E+03 0.  0.
         13    1    1    2    0    0  0.47987036207E+01 -0.42470749752E+02  0.64936308383E+02  0.77740127678E+02  0.10566000000E+00 0.  1.
        994    1    1    2    0    0  0.94152009747E+01  0.51664295004E+02  0.22182726348E+02  0.18044212018E+03  0.17120000000E+03 0.  0.
        998    1    1    2    0    0 -0.14213904595E+02 -0.91935452522E+01  0.14128809615E+04  0.14130177521E+04  0.10000000000E+02 0.  1.
</event>
<event>
 5    1  0.1800099E-008  0.3807325E+03  0.7957747E-01  0.3447975E+00
         13   -1    0    0    0    0  0.00000000000E+00  0.00000000000E+00  0.14999999963E+04  0.15000000000E+04  0.10566000000E+00 0. -1.
        994   -1    0    0    0    0 -0.00000000000E+00 -0.00000000000E+00  0.11368683772E-12  0.17120000000E+03  0.17120000000E+03 0.  0.
         13    1    1    2    0    0 -0.32785324795E+02  0.16356966242E+02  0.18003588776E+03  0.18372631796E+03  0.10566000000E+00 0. -1.
        994    1    1    2    0    0  0.16409765128E+02 -0.97475297886E+01  0.49796322266E+01  0.17233261869E+03  0.17120000000E+03 0.  0.
        998    1    1    2    0    0  0.16375559668E+02 -0.66094364532E+01  0.13149844763E+04  0.13151410633E+04  0.10000000000E+02 0. -1.
</event>
<event>
 5    1  0.1800099E-008  0.3820966E+03  0.7957747E-01  0.3442080E+00
         13   -1    0    0    0    0  0.00000000000E+00  0.00000000000E+00  0.14999999963E+04  0.15000000000E+04  0.10566000000E+00 0. -1.
        994   -1    0    0    0    0 -0.00000000000E+00 -0.00000000000E+00  0.11368683772E-12  0.17120000000E+03  0.17120000000E+03 0.  0.
         13    1    1    2    0    0  0.40588227615E+01  0.97866427286E+01  0.16902213623E+02  0.19948644252E+02  0.10566000000E+00 0. -1.
        994    1    1    2    0    0 -0.39469912580E+01 -0.85081196565E+01  0.33706209664E+01  0.17148984788E+03  0.17120000000E+03 0.  0.
        998    1    1    2    0    0 -0.11183150350E+00 -0.12785230721E+01  0.14797271617E+04  0.14797615079E+04  0.10000000000E+02 0. -1.
</event>
<event>
 5    1  0.1800099E-008  0.3692934E+03  0.7957747E-01  0.3499144E+00
         13   -1    0    0    0    0  0.00000000000E+00  0.00000000000E+00  0.14999999963E+04  0.15000000000E+04  0.10566000000E+00 0.  1.
        994   -1    0    0    0    0 -0.00000000000E+00 -0.00000000000E+00  0.11368683772E-12  0.17120000000E+03  0.17120000000E+03 0.  0.
         13    1    1    2    0    0  0.10597117864E+03 -0.50795107277E+02  0.61559087614E+03  0.62670740508E+03  0.10566000000E+00 0.  1.
        994    1    1    2    0    0 -0.53870245435E+02  0.12109882112E+03  0.73248448416E+02  0.22856443953E+03  0.17120000000E+03 0.  0.
        998    1    1    2    0    0 -0.52100933204E+02 -0.70303713847E+02  0.81116067172E+03  0.81592815540E+03  0.10000000000E+02 0.  1.
</event>
<event>
 5    1  0.1800099E-008  0.3743731E+03  0.7957747E-01  0.3476031E+00
         13   -1    0    0    0    0  0.00000000000E+00  0.00000000000E+00  0.14999999963E+04  0.15000000000E+04  0.10566000000E+00 0. -1.
        994   -1    0    0    0    0 -0.00000000000E+00 -0.00000000000E+00  0.11368683772E-12  0.17120000000E+03  0.17120000000E+03 0.  0.
         13    1    1    2    0    0 -0.89652396106E+02 -0.29025444543E+02  0.55387528695E+03  0.56183438237E+03  0.10566000000E+00 0. -1.
        994    1    1    2    0    0 -0.51971744432E+01  0.18373313499E+02  0.14565531559E+02  0.17287620999E+03  0.17120000000E+03 0.  0.
        998    1    1    2    0    0  0.94849570549E+02  0.10652131044E+02  0.93155917777E+03  0.93648940764E+03  0.10000000000E+02 0. -1.
</event>
<event>
 5    1  0.1800099E-008  0.3860300E+03  0.7957747E-01  0.3425316E+00
         13   -1    0    0    0    0  0.00000000000E+00  0.00000000000E+00  0.14999999963E+04  0.15000000000E+04  0.10566000000E+00 0.  1.
        994   -1    0    0    0    0 -0.00000000000E+00 -0.00000000000E+00  0.11368683772E-12  0.17120000000E+03  0.17120000000E+03 0.  0.
         13    1    1    2    0    0  0.33742811875E+01 -0.11330933292E+02  0.61032433819E+02  0.62167072995E+02  0.10566000000E+00 0.  1.
        994    1    1    2    0    0  0.89741364494E+00  0.13493249250E+02  0.17192654758E+01  0.17174186735E+03  0.17120000000E+03 0.  0.
        998    1    1    2    0    0 -0.42716948324E+01 -0.21623159586E+01  0.14372482970E+04  0.14372910597E+04  0.10000000000E+02 0.  1.
</event>
<event>
 5    1  0.1800099E-008  0.3744509E+03  0.7957747E-01  0.3475682E+00
         13   -1    0    0    0    0  0.00000000000E+00  0.00000000000E+00  0.14999999963E+04  0.15000000000E+04  0.10566000000E+00 0.  1.
        994   -1    0    0    0    0 -0.00000000000E+00 -0.00000000000E+00  0.11368683772E-12  0.17120000000E+03  0.17120000000E+03 0.  0.
         13    1    1    2    0    0  0.40945139809E+02  0.16967622502E+02  0.14225063024E+03  0.14899549542E+03  0.10566000000E+00 0.  1.
        994    1    1    2    0    0 -0.86241321467E+00 -0.58757595068E+02  0.18813321496E+02  0.18197961369E+03  0.17120000000E+03 0.  0.
        998    1    1    2    0    0 -0.40082726594E+02  0.41789972566E+02  0.13389360445E+04  0.13402248909E+04  0.10000000000E+02 0.  1.
</event>
<event>
 5    1  0.1800099E-008  0.3774518E+03  0.7957747E-01  0.3462329E+00
         13   -1    0    0    0    0  0.00000000000E+00  0.00000000000E+00  0.14999999963E+04  0.15000000000E+04  0.10566000000E+00 0.  1.
        994   -1    0    0    0    0 -0.00000000000E+00 -0.00000000000E+00  0.11368683772E-12  0.17120000000E+03  0.17120000000E+03 0.  0.
         13    1    1    2    0    0  0.10991782372E+03 -0.14020548097E+02  0.63064592279E+03  0.64030679743E+03  0.10566000000E+00 0.  1.
        994    1    1    2    0    0 -0.10916536338E+03  0.24587351542E+02  0.48875367542E+02  0.21028517772E+03  0.17120000000E+03 0.  0.
        998    1    1    2    0    0 -0.75246034754E+00 -0.10566803444E+02  0.82047870595E+03  0.82060802485E+03  0.10000000000E+02 0.  1.
</event>
<event>
 5    1  0.1800099E-008  0.3733262E+03  0.7957747E-01  0.3480742E+00
         13   -1    0    0    0    0  0.00000000000E+00  0.00000000000E+00  0.14999999963E+04  0.15000000000E+04  0.10566000000E+00 0.  1.
        994   -1    0    0    0    0 -0.00000000000E+00 -0.00000000000E+00  0.11368683772E-12  0.17120000000E+03  0.17120000000E+03 0.  0.
         13    1    1    2    0    0 -0.17654336669E+02  0.55914616885E+02  0.21316484248E+03  0.22108229513E+03  0.10566000000E+00 0.  1.
        994    1    1    2    0    0  0.19255266655E+02 -0.39735921442E+02  0.14235301813E+02  0.17737472358E+03  0.17120000000E+03 0.  0.
        998    1    1    2    0    0 -0.16009299868E+01 -0.16178695443E+02  0.12725998520E+04  0.12727429813E+04  0.10000000000E+02 0.  1.
</event>
<event>
 5    1  0.1800099E-008  0.3820935E+03  0.7957747E-01  0.3442093E+00
         13   -1    0    0    0    0  0.00000000000E+00  0.00000000000E+00  0.14999999963E+04  0.15000000000E+04  0.10566000000E+00 0. -1.
        994   -1    0    0    0    0 -0.00000000000E+00 -0.00000000000E+00  0.11368683772E-12  0.17120000000E+03  0.17120000000E+03 0.  0.
         13    1    1    2    0    0  0.34391115936E+01  0.15206387183E+02  0.36738132120E+02  0.39909437674E+02  0.10566000000E+00 0. -1.
        994    1    1    2    0    0 -0.68147164265E+01 -0.21260293654E+02  0.47366025797E+01  0.17271455020E+03  0.17120000000E+03 0.  0.
        998    1    1    2    0    0  0.33756048329E+01  0.60539064706E+01  0.14585252616E+04  0.14585760121E+04  0.10000000000E+02 0. -1.
</event>
<event>
 5    1  0.1800099E-008  0.3834461E+03  0.7957747E-01  0.3436289E+00
         13   -1    0    0    0    0  0.00000000000E+00  0.00000000000E+00  0.14999999963E+04  0.15000000000E+04  0.10566000000E+00 0.  1.
        994   -1    0    0    0    0 -0.00000000000E+00 -0.00000000000E+00  0.11368683772E-12  0.17120000000E+03  0.17120000000E+03 0.  0.
         13    1    1    2    0    0 -0.94683021119E+01  0.14983224467E+02  0.62290039768E+02  0.64762689711E+02  0.10566000000E+00 0.  1.
        994    1    1    2    0    0  0.16167050062E+02 -0.12211879335E+02  0.37616041206E+01  0.17243576535E+03  0.17120000000E+03 0.  0.
        998    1    1    2    0    0 -0.66987479504E+01 -0.27713451320E+01  0.14339483524E+04  0.14340015449E+04  0.10000000000E+02 0.  1.
</event>
<event>
 5    1  0.1800099E-008  0.2946574E+03  0.7957747E-01  0.3934915E+00
         13   -1    0    0    0    0  0.00000000000E+00  0.00000000000E+00  0.14999999963E+04  0.15000000000E+04  0.10566000000E+00 0. -1.
        994   -1    0    0    0    0 -0.00000000000E+00 -0.00000000000E+00  0.11368683772E-12  0.17120000000E+03  0.17120000000E+03 0.  0.
         13    1    1    2    0    0  0.16735015182E+03  0.12399598048E+03  0.58161986886E+03  0.61778860423E+03  0.10566000000E+00 0. -1.
        994    1    1    2    0    0 -0.14286615593E+03 -0.12050494837E+03  0.17144122634E+03  0.30599626661E+03  0.17120000000E+03 0.  0.
        998    1    1    2    0    0 -0.24483995885E+02 -0.34910321153E+01  0.74693890108E+03  0.74741512916E+03  0.10000000000E+02 0. -1.
</event>
<event>
 5    1  0.1800099E-008  0.3726345E+03  0.7957747E-01  0.3483870E+00
         13   -1    0    0    0    0  0.00000000000E+00  0.00000000000E+00  0.14999999963E+04  0.15000000000E+04  0.10566000000E+00 0.  1.
        994   -1    0    0    0    0 -0.00000000000E+00 -0.00000000000E+00  0.11368683772E-12  0.17120000000E+03  0.17120000000E+03 0.  0.
         13    1    1    2    0    0  0.27615395236E+01  0.21807663563E+02  0.27681541267E+02  0.35347972807E+02  0.10566000000E+00 0.  1.
        994    1    1    2    0    0  0.42141206328E+01 -0.10467201083E+02  0.83349010216E+01  0.17177378056E+03  0.17120000000E+03 0.  0.
        998    1    1    2    0    0 -0.69756601564E+01 -0.11340462480E+02  0.14639835540E+04  0.14640782466E+04  0.10000000000E+02 0.  1.
</event>
<event>
 5    1  0.1800099E-008  0.3839260E+03  0.7957747E-01  0.3434240E+00
         13   -1    0    0    0    0  0.00000000000E+00  0.00000000000E+00  0.14999999963E+04  0.15000000000E+04  0.10566000000E+00 0.  1.
        994   -1    0    0    0    0 -0.00000000000E+00 -0.00000000000E+00  0.11368683772E-12  0.17120000000E+03  0.17120000000E+03 0.  0.
         13    1    1    2    0    0  0.11514492547E+02 -0.16432939276E+00  0.29686033332E+02  0.31841518208E+02  0.10566000000E+00 0.  1.
        994    1    1    2    0    0 -0.10823756519E+02 -0.43886041901E+01  0.26146317800E+01  0.17161785994E+03  0.17120000000E+03 0.  0.
        998    1    1    2    0    0 -0.69073602750E+00  0.45529335829E+01  0.14676993312E+04  0.14677406218E+04  0.10000000000E+02 0.  1.
</event>
<event>
 5    1  0.1800099E-008  0.3852122E+03  0.7957747E-01  0.3428773E+00
         13   -1    0    0    0    0  0.00000000000E+00  0.00000000000E+00  0.14999999963E+04  0.15000000000E+04  0.10566000000E+00 0.  1.
        994   -1    0    0    0    0 -0.00000000000E+00 -0.00000000000E+00  0.11368683772E-12  0.17120000000E+03  0.17120000000E+03 0.  0.
         13    1    1    2    0    0 -0.25669419565E+01 -0.10805733593E+02  0.37295333367E+02  0.38914086453E+02  0.10566000000E+00 0.  1.
        994    1    1    2    0    0  0.20716492303E+01  0.23877590884E+02  0.34148866357E+01  0.17290324615E+03  0.17120000000E+03 0.  0.
        998    1    1    2    0    0  0.49529272614E+00 -0.13071857291E+02  0.14592897763E+04  0.14593826674E+04  0.10000000000E+02 0.  1.
</event>
<event>
 5    1  0.1800099E-008  0.3802040E+03  0.7957747E-01  0.3450271E+00
         13   -1    0    0    0    0  0.00000000000E+00  0.00000000000E+00  0.14999999963E+04  0.15000000000E+04  0.10566000000E+00 0. -1.
        994   -1    0    0    0    0 -0.00000000000E+00 -0.00000000000E+00  0.11368683772E-12  0.17120000000E+03  0.17120000000E+03 0.  0.
         13    1    1    2    0    0  0.57385190161E+01 -0.10337404908E+02  0.15609795683E+02  0.19582375392E+02  0.10566000000E+00 0. -1.
        994    1    1    2    0    0 -0.55491472523E+01  0.70081952558E+01  0.42971788740E+01  0.17148706535E+03  0.17120000000E+03 0.  0.
        998    1    1    2    0    0 -0.18937176373E+00  0.33292096520E+01  0.14800930217E+04  0.14801305593E+04  0.10000000000E+02 0. -1.
</event>
<event>
 5    1  0.1800099E-008  0.3710869E+03  0.7957747E-01  0.3490911E+00
         13   -1    0    0    0    0  0.00000000000E+00  0.00000000000E+00  0.14999999963E+04  0.15000000000E+04  0.10566000000E+00 0.  1.
        994   -1    0    0    0    0 -0.00000000000E+00 -0.00000000000E+00  0.11368683772E-12  0.17120000000E+03  0.17120000000E+03 0.  0.
         13    1    1    2    0    0  0.39099244112E+02  0.97212830423E+02  0.46528678879E+03  0.47693908655E+03  0.10566000000E+00 0.  1.
        994    1    1    2    0    0 -0.33220327911E+02 -0.89260389210E+02  0.40629842353E+02  0.20007806316E+03  0.17120000000E+03 0.  0.
        998    1    1    2    0    0 -0.58789162005E+01 -0.79524412136E+01  0.99408336514E+03  0.99418285029E+03  0.10000000000E+02 0.  1.
</event>
<event>
 5    1  0.1800099E-008  0.3804120E+03  0.7957747E-01  0.3449367E+00
         13   -1    0    0    0    0  0.00000000000E+00  0.00000000000E+00  0.14999999963E+04  0.15000000000E+04  0.10566000000E+00 0.  1.
        994   -1    0    0    0    0 -0.00000000000E+00 -0.00000000000E+00  0.11368683772E-12  0.17120000000E+03  0.17120000000E+03 0.  0.
         13    1    1    2    0    0 -0.35321034868E+02  0.69696551600E+01  0.15171244627E+03  0.15592571666E+03  0.10566000000E+00 0.  1.
        994    1    1    2    0    0  0.34264700470E+02  0.26120151109E+01  0.78776481542E+01  0.17479241878E+03  0.17120000000E+03 0.  0.
        998    1    1    2    0    0  0.10563343971E+01 -0.95816702709E+01  0.13404099019E+04  0.13404818646E+04  0.10000000000E+02 0.  1.
</event>
<event>
 5    1  0.1800099E-008  0.3703168E+03  0.7957747E-01  0.3494436E+00
         13   -1    0    0    0    0  0.00000000000E+00  0.00000000000E+00  0.14999999963E+04  0.15000000000E+04  0.10566000000E+00 0. -1.
        994   -1    0    0    0    0 -0.00000000000E+00 -0.00000000000E+00  0.11368683772E-12  0.17120000000E+03  0.17120000000E+03 0.  0.
         13    1    1    2    0    0  0.26222238922E+02 -0.12180889060E+02  0.35730659125E+02  0.45963801387E+02  0.10566000000E+00 0. -1.
        994    1    1    2    0    0 -0.20078919858E+01 -0.28462818647E+02  0.13961170021E+02  0.17412213513E+03  0.17120000000E+03 0.  0.
        998    1    1    2    0    0 -0.24214346936E+02  0.40643707707E+02  0.14503081671E+04  0.14511140635E+04  0.10000000000E+02 0. -1.
</event>
<event>
 5    1  0.1800099E-008  0.3848632E+03  0.7957747E-01  0.3430253E+00
         13   -1    0    0    0    0  0.00000000000E+00  0.00000000000E+00  0.14999999963E+04  0.15000000000E+04  0.10566000000E+00 0. -1.
        994   -1    0    0    0    0 -0.00000000000E+00 -0.00000000000E+00  0.11368683772E-12  0.17120000000E+03  0.17120000000E+03 0.  0.
         13    1    1    2    0    0  0.10990888152E+02 -0.12622807370E+02  0.84654336609E+02  0.86293121157E+02  0.10566000000E+00 0. -1.
        994    1    1    2    0    0 -0.62217799663E+01  0.40471881850E+01  0.18793373962E+01  0.17137112413E+03  0.17120000000E+03 0.  0.
        998    1    1    2    0    0 -0.47691081860E+01  0.85756191848E+01  0.14134663223E+04  0.14135357547E+04  0.10000000000E+02 0. -1.
</event>
<event>
 5    1  0.1800099E-008  0.3827680E+03  0.7957747E-01  0.3439194E+00
         13   -1    0    0    0    0  0.00000000000E+00  0.00000000000E+00  0.14999999963E+04  0.15000000000E+04  0.10566000000E+00 0. -1.
        994   -1    0    0    0    0 -0.00000000000E+00 -0.00000000000E+00  0.11368683772E-12  0.17120000000E+03  0.17120000000E+03 0.  0.
         13    1    1    2    0    0  0.19345060563E+01 -0.35429271975E+02  0.20536661329E+03  0.20840929116E+03  0.10566000000E+00 0. -1.
        994    1    1    2    0    0 -0.71822993235E+01  0.32430274318E+02  0.64057864357E+01  0.17451012067E+03  0.17120000000E+03 0.  0.
        998    1    1    2    0    0  0.52477932672E+01  0.29989976570E+01  0.12882275966E+04  0.12882805882E+04  0.10000000000E+02 0. -1.
</event>
<event>
 5    1  0.1800099E-008  0.3771332E+03  0.7957747E-01  0.3463737E+00
         13   -1    0    0    0    0  0.00000000000E+00  0.00000000000E+00  0.14999999963E+04  0.15000000000E+04  0.10566000000E+00 0. -1.
        994   -1    0    0    0    0 -0.00000000000E+00 -0.00000000000E+00  0.11368683772E-12  0.17120000000E+03  0.17120000000E+03 0.  0.
         13    1    1    2    0    0  0.15189297772E+02 -0.28252277505E+02  0.97489605143E+02  0.10263108801E+03  0.10566000000E+00 0. -1.
        994    1    1    2    0    0 -0.10765463083E+02 -0.32681493782E+01  0.60146265545E+01  0.17167466828E+03  0.17120000000E+03 0.  0.
        998    1    1    2    0    0 -0.44238346890E+01  0.31520426883E+02  0.13964957646E+04  0.13968942437E+04  0.10000000000E+02 0.  1.
</event>
<event>
 5    1  0.1800099E-008  0.3811381E+03  0.7957747E-01  0.3446218E+00
         13   -1    0    0    0    0  0.00000000000E+00  0.00000000000E+00  0.14999999963E+04  0.15000000000E+04  0.10566000000E+00 0.  1.
        994   -1    0    0    0    0 -0.00000000000E+00 -0.00000000000E+00  0.11368683772E-12  0.17120000000E+03  0.17120000000E+03 0.  0.
         13    1    1    2    0    0  0.33001931771E+02 -0.87003605398E+01  0.16988906313E+03  0.17328337690E+03  0.10566000000E+00 0.  1.
        994    1    1    2    0    0 -0.19454233925E+02 -0.17010054380E+02  0.57869599569E+01  0.17323607613E+03  0.17120000000E+03 0.  0.
        998    1    1    2    0    0 -0.13547697847E+02  0.25710414920E+02  0.13243239732E+04  0.13246805470E+04  0.10000000000E+02 0.  1.
</event>
<event>
 5    1  0.1800099E-008  0.3849150E+03  0.7957747E-01  0.3430033E+00
         13   -1    0    0    0    0  0.00000000000E+00  0.00000000000E+00  0.14999999963E+04  0.15000000000E+04  0.10566000000E+00 0.  1.
        994   -1    0    0    0    0 -0.00000000000E+00 -0.00000000000E+00  0.11368683772E-12  0.17120000000E+03  0.17120000000E+03 0.  0.
         13    1    1    2    0    0 -0.38561814684E+02 -0.53863392663E+02  0.10240451287E+03  0.12196300275E+03  0.10566000000E+00 0.  1.
        994    1    1    2    0    0  0.34770638916E+02  0.54658328986E+02  0.34708649691E+02  0.18630797251E+03  0.17120000000E+03 0.  0.
        998    1    1    2    0    0  0.37911757678E+01 -0.79493632366E+00  0.13628868337E+04  0.13629290247E+04  0.10000000000E+02 0.  1.
</event>
<event>
 5    1  0.1800099E-008  0.3820444E+03  0.7957747E-01  0.3442305E+00
         13   -1    0    0    0    0  0.00000000000E+00  0.00000000000E+00  0.14999999963E+04  0.15000000000E+04  0.10566000000E+00 0.  1.
        994   -1    0    0    0    0 -0.00000000000E+00 -0.00000000000E+00  0.11368683772E-12  0.17120000000E+03  0.17120000000E+03 0.  0.
         13    1    1    2    0    0 -0.11027226086E+01 -0.24092288540E+02  0.13271210685E+03  0.13488576216E+03  0.10566000000E+00 0.  1.
        994    1    1    2    0    0 -0.15757578973E+02 -0.34011027535E+02  0.77841940823E+01  0.17542829010E+03  0.17120000000E+03 0.  0.
        998    1    1    2    0    0  0.16860301582E+02  0.58103316075E+02  0.13595036953E+04  0.13608859477E+04  0.10000000000E+02 0.  1.
</event>
<event>
 5    1  0.1800099E-008  0.3794149E+03  0.7957747E-01  0.3453710E+00
         13   -1    0    0    0    0  0.00000000000E+00  0.00000000000E+00  0.14999999963E+04  0.15000000000E+04  0.10566000000E+00 0. -1.
        994   -1    0    0    0    0 -0.00000000000E+00 -0.00000000000E+00  0.11368683772E-12  0.17120000000E+03  0.17120000000E+03 0.  0.
         13    1    1    2    0    0 -0.25627606263E+02 -0.69960931210E+01  0.72939235590E+02  0.77626430899E+02  0.10566000000E+00 0. -1.
        994    1    1    2    0    0  0.31772006724E+02  0.70395320050E+01  0.79840000020E+01  0.17444827221E+03  0.17120000000E+03 0.  0.
        998    1    1    2    0    0 -0.61444004613E+01 -0.43438883963E-01  0.14190767607E+04  0.14191252969E+04  0.10000000000E+02 0. -1.
</event>
<event>
 5    1  0.1800099E-008  0.3708997E+03  0.7957747E-01  0.3491766E+00
         13   -1    0    0    0    0  0.00000000000E+00  0.00000000000E+00  0.14999999963E+04  0.15000000000E+04  0.10566000000E+00 0.  1.
        994   -1    0    0    0    0 -0.00000000000E+00 -0.00000000000E+00  0.11368683772E-12  0.17120000000E+03  0.17120000000E+03 0.  0.
         13    1    1    2    0    0 -0.23434336994E+02  0.11671665141E+03  0.43124565988E+03  0.44737542981E+03  0.10566000000E+00 0.  1.
        994    1    1    2    0    0 -0.91137841227E+01 -0.12315265189E+03  0.66995609821E+02  0.22146667574E+03  0.17120000000E+03 0.  0.
        998    1    1    2    0    0  0.32548121116E+02  0.64360004812E+01  0.10017587266E+04  0.10023578945E+04  0.10000000000E+02 0.  1.
</event>
<event>
 5    1  0.1800099E-008  0.3838260E+03  0.7957747E-01  0.3434667E+00
         13   -1    0    0    0    0  0.00000000000E+00  0.00000000000E+00  0.14999999963E+04  0.15000000000E+04  0.10566000000E+00 0.  1.
        994   -1    0    0    0    0 -0.00000000000E+00 -0.00000000000E+00  0.11368683772E-12  0.17120000000E+03  0.17120000000E+03 0.  0.
         13    1    1    2    0    0 -0.18737384852E+02  0.89350298932E+00  0.76728961463E+02  0.78988813321E+02  0.10566000000E+00 0.  1.
        994    1    1    2    0    0  0.17146018208E+02  0.44449378193E+01  0.32505442858E+01  0.17214455975E+03  0.17120000000E+03 0.  0.
        998    1    1    2    0    0  0.15913666444E+01 -0.53384408086E+01  0.14200204905E+04  0.14200666269E+04  0.10000000000E+02 0.  1.
</event>
<event>
 5    1  0.1800099E-008  0.3699108E+03  0.7957747E-01  0.3496301E+00
         13   -1    0    0    0    0  0.00000000000E+00  0.00000000000E+00  0.14999999963E+04  0.15000000000E+04  0.10566000000E+00 0.  1.
        994   -1    0    0    0    0 -0.00000000000E+00 -0.00000000000E+00  0.11368683772E-12  0.17120000000E+03  0.17120000000E+03 0.  0.
         13    1    1    2    0    0  0.46484186768E+02  0.25856921408E+02  0.17031927620E+03  0.17843213559E+03  0.10566000000E+00 0.  1.
        994    1    1    2    0    0 -0.13147569102E+02  0.14958354482E+02  0.10688639220E+02  0.17268554644E+03  0.17120000000E+03 0.  0.
        998    1    1    2    0    0 -0.33336617666E+02 -0.40815275890E+02  0.13189920809E+04  0.13200823180E+04  0.10000000000E+02 0.  1.
</event>
<event>
 5    1  0.1800099E-008  0.3804653E+03  0.7957747E-01  0.3449135E+00
         13   -1    0    0    0    0  0.00000000000E+00  0.00000000000E+00  0.14999999963E+04  0.15000000000E+04  0.10566000000E+00 0.  1.
        994   -1    0    0    0    0 -0.00000000000E+00 -0.00000000000E+00  0.11368683772E-12  0.17120000000E+03  0.17120000000E+03 0.  0.
         13    1    1    2    0    0  0.11112766064E+02  0.52659366453E+01  0.17924827473E+02  0.21737853213E+02  0.10566000000E+00 0.  1.
        994    1    1    2    0    0 -0.13837718781E+01 -0.93176640325E+01  0.41946894127E+01  0.17151025948E+03  0.17120000000E+03 0.  0.
        998    1    1    2    0    0 -0.97289941861E+01  0.40517273872E+01  0.14778804794E+04  0.14779518873E+04  0.10000000000E+02 0.  1.
</event>
<event>
 5    1  0.1800099E-008  0.3844468E+03  0.7957747E-01  0.3432022E+00
         13   -1    0    0    0    0  0.00000000000E+00  0.00000000000E+00  0.14999999963E+04  0.15000000000E+04  0.10566000000E+00 0. -1.
        994   -1    0    0    0    0 -0.00000000000E+00 -0.00000000000E+00  0.11368683772E-12  0.17120000000E+03  0.17120000000E+03 0.  0.
         13    1    1    2    0    0  0.50143853939E+01 -0.16537100373E+02  0.84476067522E+02  0.86225500275E+02  0.10566000000E+00 0. -1.
        994    1    1    2    0    0  0.11382899217E+02  0.33041194282E+01  0.23680363205E+01  0.17162614951E+03  0.17120000000E+03 0.  0.
        998    1    1    2    0    0 -0.16397284611E+02  0.13232980945E+02  0.14131558924E+04  0.14133483502E+04  0.10000000000E+02 0. -1.
</event>
<event>
 5    1  0.1800099E-008  0.3782062E+03  0.7957747E-01  0.3459007E+00
         13   -1    0    0    0    0  0.00000000000E+00  0.00000000000E+00  0.14999999963E+04  0.15000000000E+04  0.10566000000E+00 0.  1.
        994   -1    0    0    0    0 -0.00000000000E+00 -0.00000000000E+00  0.11368683772E-12  0.17120000000E+03  0.17120000000E+03 0.  0.
         13    1    1    2    0    0 -0.10160172099E+02 -0.45767201402E+01  0.99493387581E+01  0.14939075275E+02  0.10566000000E+00 0.  1.
        994    1    1    2    0    0  0.11799851462E+02  0.51864345171E+01  0.56002844404E+01  0.17177583876E+03  0.17120000000E+03 0.  0.
        998    1    1    2    0    0 -0.16396793636E+01 -0.60971437691E+00  0.14844503731E+04  0.14844850860E+04  0.10000000000E+02 0.  1.
</event>
<event>
 5    1  0.1800099E-008  0.3820052E+03  0.7957747E-01  0.3442474E+00
         13   -1    0    0    0    0  0.00000000000E+00  0.00000000000E+00  0.14999999963E+04  0.15000000000E+04  0.10566000000E+00 0.  1.
        994   -1    0    0    0    0 -0.00000000000E+00 -0.00000000000E+00  0.11368683772E-12  0.17120000000E+03  0.17120000000E+03 0.  0.
         13    1    1    2    0    0  0.26400952215E+02 -0.13201530691E+02  0.12850920367E+03  0.13185566837E+03  0.10566000000E+00 0.  1.
        994    1    1    2    0    0 -0.30788537451E+02  0.36512649953E+01  0.63231914946E+01  0.17409965113E+03  0.17120000000E+03 0.  0.
        998    1    1    2    0    0  0.43875852358E+01  0.95502656955E+01  0.13651676011E+04  0.13652446805E+04  0.10000000000E+02 0.  1.
</event>
<event>
 5    1  0.1800099E-008  0.3728841E+03  0.7957747E-01  0.3482740E+00
         13   -1    0    0    0    0  0.00000000000E+00  0.00000000000E+00  0.14999999963E+04  0.15000000000E+04  0.10566000000E+00 0.  1.
        994   -1    0    0    0    0 -0.00000000000E+00 -0.00000000000E+00  0.11368683772E-12  0.17120000000E+03  0.17120000000E+03 0.  0.
         13    1    1    2    0    0  0.38353636206E+02 -0.37790597959E+02  0.18608906193E+03  0.19372217436E+03  0.10566000000E+00 0.  1.
        994    1    1    2    0    0 -0.47628200681E+01  0.37843777055E+02  0.12766528304E+02  0.17586148004E+03  0.17120000000E+03 0.  0.
        998    1    1    2    0    0 -0.33590816138E+02 -0.53179095671E-01  0.13011444060E+04  0.13016163456E+04  0.10000000000E+02 0.  1.
</event>
<event>
 5    1  0.1800099E-008  0.3699240E+03  0.7957747E-01  0.3496240E+00
         13   -1    0    0    0    0  0.00000000000E+00  0.00000000000E+00  0.14999999963E+04  0.15000000000E+04  0.10566000000E+00 0.  1.
        994   -1    0    0    0    0 -0.00000000000E+00 -0.00000000000E+00  0.11368683772E-12  0.17120000000E+03  0.17120000000E+03 0.  0.
         13    1    1    2    0    0  0.32297765637E+02  0.83242567518E+01  0.61664940573E+02  0.70107167790E+02  0.10566000000E+00 0.  1.
        994    1    1    2    0    0 -0.38377383159E+01  0.48699301606E+02  0.17607811775E+02  0.17890171952E+03  0.17120000000E+03 0.  0.
        998    1    1    2    0    0 -0.28460027321E+02 -0.57023558358E+02  0.14207272439E+04  0.14221911127E+04  0.10000000000E+02 0.  1.
</event>
<event>
 5    1  0.1800099E-008  0.3763369E+03  0.7957747E-01  0.3467265E+00
         13   -1    0    0    0    0  0.00000000000E+00  0.00000000000E+00  0.14999999963E+04  0.15000000000E+04  0.10566000000E+00 0. -1.
        994   -1    0    0    0    0 -0.00000000000E+00 -0.00000000000E+00  0.11368683772E-12  0.17120000000E+03  0.17120000000E+03 0.  0.
         13    1    1    2    0    0 -0.10357374207E+02 -0.10653175563E+01  0.62309512160E+01  0.12134497066E+02  0.10566000000E+00 0. -1.
        994    1    1    2    0    0  0.11722606220E+02  0.21687953559E+01  0.64748755555E+01  0.17173667978E+03  0.17120000000E+03 0.  0.
        998    1    1    2    0    0 -0.13652320135E+01 -0.11034777996E+01  0.14872941695E+04  0.14873288231E+04  0.10000000000E+02 0. -1.
</event>
<event>
 5    1  0.1800099E-008  0.3848621E+03  0.7957747E-01  0.3430257E+00
         13   -1    0    0    0    0  0.00000000000E+00  0.00000000000E+00  0.14999999963E+04  0.15000000000E+04  0.10566000000E+00 0.  1.
        994   -1    0    0    0    0 -0.00000000000E+00 -0.00000000000E+00  0.11368683772E-12  0.17120000000E+03  0.17120000000E+03 0.  0.
         13    1    1    2    0    0  0.92534233164E+01  0.18228901843E+02  0.12312057060E+03  0.12480626897E+03  0.10566000000E+00 0.  1.
        994    1    1    2    0    0 -0.12074269415E+02 -0.81644187897E+01  0.23978842943E+01  0.17183607178E+03  0.17120000000E+03 0.  0.
        998    1    1    2    0    0  0.28208460987E+01 -0.10064483053E+02  0.13744815414E+04  0.13745576592E+04  0.10000000000E+02 0.  1.
</event>
<event>
 5    1  0.1800099E-008  0.3841084E+03  0.7957747E-01  0.3433462E+00
         13   -1    0    0    0    0  0.00000000000E+00  0.00000000000E+00  0.14999999963E+04  0.15000000000E+04  0.10566000000E+00 0.  1.
        994   -1    0    0    0    0 -0.00000000000E+00 -0.00000000000E+00  0.11368683772E-12  0.17120000000E+03  0.17120000000E+03 0.  0.
         13    1    1    2    0    0  0.75135986770E+01  0.12552988116E+02  0.52787489940E+02  0.54777385242E+02  0.10566000000E+00 0.  1.
        994    1    1    2    0    0  0.28968124442E+01 -0.61126480471E+01  0.22243640891E+01  0.17134801949E+03  0.17120000000E+03 0.  0.
        998    1    1    2    0    0 -0.10410411121E+02 -0.64403400692E+01  0.14449881422E+04  0.14450745953E+04  0.10000000000E+02 0.  1.
</event>
<event>
 5    1  0.1800099E-008  0.3783380E+03  0.7957747E-01  0.3458427E+00
         13   -1    0    0    0    0  0.00000000000E+00  0.00000000000E+00  0.14999999963E+04  0.15000000000E+04  0.10566000000E+00 0.  1.
        994   -1    0    0    0    0 -0.00000000000E+00 -0.00000000000E+00  0.11368683772E-12  0.17120000000E+03  0.17120000000E+03 0.  0.
         13    1    1    2    0    0  0.34494086747E+02 -0.29439148187E+02  0.24906481941E+03  0.25315963521E+03  0.10566000000E+00 0.  1.
        994    1    1    2    0    0 -0.58813437719E+01 -0.43151402080E+01  0.51533502182E+01  0.17143280800E+03  0.17120000000E+03 0.  0.
        998    1    1    2    0    0 -0.28612742975E+02  0.33754288395E+02  0.12457818266E+04  0.12466075568E+04  0.10000000000E+02 0.  1.
</event>
<event>
 5    1  0.1800099E-008  0.3814058E+03  0.7957747E-01  0.3445060E+00
         13   -1    0    0    0    0  0.00000000000E+00  0.00000000000E+00  0.14999999963E+04  0.15000000000E+04  0.10566000000E+00 0.  1.
        994   -1    0    0    0    0 -0.00000000000E+00 -0.00000000000E+00  0.11368683772E-12  0.17120000000E+03  0.17120000000E+03 0.  0.
         13    1    1    2    0    0 -0.22766643131E+02  0.31497929505E+02  0.18859376846E+03  0.19255664171E+03  0.10566000000E+00 0.  1.
        994    1    1    2    0    0  0.22128151665E+02 -0.36341191774E+02  0.94725643170E+01  0.17666212608E+03  0.17120000000E+03 0.  0.
        998    1    1    2    0    0  0.63849146631E+00  0.48432622687E+01  0.13019336635E+04  0.13019812322E+04  0.10000000000E+02 0.  0.
</event>
<event>
 5    1  0.1800099E-008  0.3835316E+03  0.7957747E-01  0.3435924E+00
         13   -1    0    0    0    0  0.00000000000E+00  0.00000000000E+00  0.14999999963E+04  0.15000000000E+04  0.10566000000E+00 0. -1.
        994   -1    0    0    0    0 -0.00000000000E+00 -0.00000000000E+00  0.11368683772E-12  0.17120000000E+03  0.17120000000E+03 0.  0.
         13    1    1    2    0    0  0.10598578679E+02  0.19542107452E+00  0.23053063767E+02  0.25373666911E+02  0.10566000000E+00 0. -1.
        994    1    1    2    0    0 -0.65867762521E+01 -0.48060216387E+01  0.25806651016E+01  0.17141348634E+03  0.17120000000E+03 0.  0.
        998    1    1    2    0    0 -0.40118024264E+01  0.46106005642E+01  0.14743662674E+04  0.14744128468E+04  0.10000000000E+02 0. -1.
</event>
<event>
 5    1  0.1800099E-008  0.3771260E+03  0.7957747E-01  0.3463769E+00
         13   -1    0    0    0    0  0.00000000000E+00  0.00000000000E+00  0.14999999963E+04  0.15000000000E+04  0.10566000000E+00 0. -1.
        994   -1    0    0    0    0 -0.00000000000E+00 -0.00000000000E+00  0.11368683772E-12  0.17120000000E+03  0.17120000000E+03 0.  0.
         13    1    1    2    0    0 -0.50191808327E+01  0.86836942330E+01  0.71213426179E+01  0.12301357912E+02  0.10566000000E+00 0. -1.
        994    1    1    2    0    0 -0.51585018180E+02  0.17981455224E+02  0.15730325550E+02  0.18039187890E+03  0.17120000000E+03 0.  0.
        998    1    1    2    0    0  0.56604199012E+02 -0.26665149457E+02  0.14771483281E+04  0.14785067632E+04  0.10000000000E+02 0. -1.
</event>
<event>
 5    1  0.1800099E-008  0.3783494E+03  0.7957747E-01  0.3458377E+00
         13   -1    0    0    0    0  0.00000000000E+00  0.00000000000E+00  0.14999999963E+04  0.15000000000E+04  0.10566000000E+00 0.  1.
        994   -1    0    0    0    0 -0.00000000000E+00 -0.00000000000E+00  0.11368683772E-12  0.17120000000E+03  0.17120000000E+03 0.  0.
         13    1    1    2    0    0  0.10727692966E+02 -0.33012126717E+02  0.14616690854E+03  0.15023202130E+03  0.10566000000E+00 0.  1.
        994    1    1    2    0    0  0.62242071975E+01 -0.11988926394E+02  0.55822829102E+01  0.17182280697E+03  0.17120000000E+03 0.  0.
        998    1    1    2    0    0 -0.16951900163E+02  0.45001053111E+02  0.13482508048E+04  0.13491451717E+04  0.10000000000E+02 0.  1.
</event>
<event>
 5    1  0.1800099E-008  0.3832905E+03  0.7957747E-01  0.3436955E+00
         13   -1    0    0    0    0  0.00000000000E+00  0.00000000000E+00  0.14999999963E+04  0.15000000000E+04  0.10566000000E+00 0. -1.
        994   -1    0    0    0    0 -0.00000000000E+00 -0.00000000000E+00  0.11368683772E-12  0.17120000000E+03  0.17120000000E+03 0.  0.
         13    1    1    2    0    0  0.17082575298E+01  0.16031523578E+02  0.51210932809E+02  0.53688906631E+02  0.10566000000E+00 0. -1.
        994    1    1    2    0    0 -0.28327166081E+01 -0.12348887471E+02  0.30122729622E+01  0.17169459250E+03  0.17120000000E+03 0.  0.
        998    1    1    2    0    0  0.11244590782E+01 -0.36826361068E+01  0.14457767905E+04  0.14458165009E+04  0.10000000000E+02 0. -1.
</event>
<event>
 5    1  0.1800099E-008  0.3803775E+03  0.7957747E-01  0.3449517E+00
         13   -1    0    0    0    0  0.00000000000E+00  0.00000000000E+00  0.14999999963E+04  0.15000000000E+04  0.10566000000E+00 0.  1.
        994   -1    0    0    0    0 -0.00000000000E+00 -0.00000000000E+00  0.11368683772E-12  0.17120000000E+03  0.17120000000E+03 0.  0.
         13    1    1    2    0    0 -0.93231074664E+01  0.92771888818E+01  0.20101112624E+02  0.24021916225E+02  0.10566000000E+00 0.  1.
        994    1    1    2    0    0  0.71461455066E+01 -0.11171776853E+02  0.45301470800E+01  0.17177263527E+03  0.17120000000E+03 0.  0.
        998    1    1    2    0    0  0.21769619599E+01  0.18945879716E+01  0.14753687366E+04  0.14754054485E+04  0.10000000000E+02 0.  1.
</event>
<event>
 5    1  0.1800099E-008  0.3684125E+03  0.7957747E-01  0.3503219E+00
         13   -1    0    0    0    0  0.00000000000E+00  0.00000000000E+00  0.14999999963E+04  0.15000000000E+04  0.10566000000E+00 0.  1.
        994   -1    0    0    0    0 -0.00000000000E+00 -0.00000000000E+00  0.11368683772E-12  0.17120000000E+03  0.17120000000E+03 0.  0.
         13    1    1    2    0    0 -0.90568894699E+01  0.62023665226E+02  0.30595181059E+03  0.31230671440E+03  0.10566000000E+00 0.  1.
        994    1    1    2    0    0 -0.13416300464E+02  0.29946262925E+02  0.13854656171E+02  0.17486614103E+03  0.17120000000E+03 0.  0.
        998    1    1    2    0    0  0.22473189934E+02 -0.91969928151E+02  0.11801935295E+04  0.11840271446E+04  0.10000000000E+02 0.  1.
</event>
<event>
 5    1  0.1800099E-008  0.3723487E+03  0.7957747E-01  0.3485166E+00
         13   -1    0    0    0    0  0.00000000000E+00  0.00000000000E+00  0.14999999963E+04  0.15000000000E+04  0.10566000000E+00 0.  1.
        994   -1    0    0    0    0 -0.00000000000E+00 -0.00000000000E+00  0.11368683772E-12  0.17120000000E+03  0.17120000000E+03 0.  0.
         13    1    1    2    0    0  0.24238218008E+01 -0.12709921304E+03  0.59572810730E+03  0.60914043854E+03  0.10566000000E+00 0.  1.
        994    1    1    2    0    0 -0.10860816795E+02  0.12410874343E+03  0.63315376796E+02  0.22099596032E+03  0.17120000000E+03 0.  0.
        998    1    1    2    0    0  0.84369949943E+01  0.29904696081E+01  0.84095651218E+03  0.84106360114E+03  0.10000000000E+02 0.  1.
</event>
<event>
 5    1  0.1800099E-008  0.3830470E+03  0.7957747E-01  0.3437998E+00
         13   -1    0    0    0    0  0.00000000000E+00  0.00000000000E+00  0.14999999963E+04  0.15000000000E+04  0.10566000000E+00 0. -1.
        994   -1    0    0    0    0 -0.00000000000E+00 -0.00000000000E+00  0.11368683772E-12  0.17120000000E+03  0.17120000000E+03 0.  0.
         13    1    1    2    0    0  0.68040409485E+01  0.13764321197E+02  0.43964415934E+02  0.46568578931E+02  0.10566000000E+00 0. -1.
        994    1    1    2    0    0 -0.12972286033E+02 -0.81278264733E+01  0.33788629751E+01  0.17191625427E+03  0.17120000000E+03 0.  0.
        998    1    1    2    0    0  0.61682450849E+01 -0.56364947234E+01  0.14526567174E+04  0.14527151668E+04  0.10000000000E+02 0. -1.
</event>
<event>
 5    1  0.1800099E-008  0.3849397E+03  0.7957747E-01  0.3429928E+00
         13   -1    0    0    0    0  0.00000000000E+00  0.00000000000E+00  0.14999999963E+04  0.15000000000E+04  0.10566000000E+00 0.  1.
        994   -1    0    0    0    0 -0.00000000000E+00 -0.00000000000E+00  0.11368683772E-12  0.17120000000E+03  0.17120000000E+03 0.  0.
         13    1    1    2    0    0 -0.13024745350E+02  0.31206887521E+01  0.58424501057E+02  0.59940104918E+02  0.10566000000E+00 0.  1.
        994    1    1    2    0    0 -0.42499461715E+01  0.35686574281E+00  0.17198962431E+01  0.17126175124E+03  0.17120000000E+03 0.  0.
        998    1    1    2    0    0  0.17274691522E+02 -0.34775544949E+01  0.14398555990E+04  0.14399981438E+04  0.10000000000E+02 0.  1.
</event>
<event>
 5    1  0.1800099E-008  0.2864928E+03  0.7957747E-01  0.3997431E+00
         13   -1    0    0    0    0  0.00000000000E+00  0.00000000000E+00  0.14999999963E+04  0.15000000000E+04  0.10566000000E+00 0.  1.
        994   -1    0    0    0    0 -0.00000000000E+00 -0.00000000000E+00  0.11368683772E-12  0.17120000000E+03  0.17120000000E+03 0.  0.
         13    1    1    2    0    0  0.15227671942E+03  0.87434135557E+02  0.58859449326E+03  0.61422830934E+03  0.10566000000E+00 0.  1.
        994    1    1    2    0    0 -0.13853226412E+03 -0.64088587438E+02  0.10882482927E+03  0.25387165795E+03  0.17120000000E+03 0.  0.
        998    1    1    2    0    0 -0.13744455294E+02 -0.23345548119E+02  0.80258067375E+03  0.80310003271E+03  0.10000000000E+02 0.  1.
</event>
<event>
 5    1  0.1800099E-008  0.3769999E+03  0.7957747E-01  0.3464326E+00
         13   -1    0    0    0    0  0.00000000000E+00  0.00000000000E+00  0.14999999963E+04  0.15000000000E+04  0.10566000000E+00 0.  1.
        994   -1    0    0    0    0 -0.00000000000E+00 -0.00000000000E+00  0.11368683772E-12  0.17120000000E+03  0.17120000000E+03 0.  0.
         13    1    1    2    0    0  0.39795189970E+02 -0.37970759151E+01  0.15597551166E+03  0.16101691319E+03  0.10566000000E+00 0.  1.
        994    1    1    2    0    0 -0.39606050729E+01 -0.12380367616E+01  0.57134443365E+01  0.17134556479E+03  0.17120000000E+03 0.  0.
        998    1    1    2    0    0 -0.35834584898E+02  0.50351126767E+01  0.13383110403E+04  0.13388375220E+04  0.10000000000E+02 0.  1.
</event>
<event>
 5    1  0.1800099E-008  0.3852533E+03  0.7957747E-01  0.3428599E+00
         13   -1    0    0    0    0  0.00000000000E+00  0.00000000000E+00  0.14999999963E+04  0.15000000000E+04  0.10566000000E+00 0.  1.
        994   -1    0    0    0    0 -0.00000000000E+00 -0.00000000000E+00  0.11368683772E-12  0.17120000000E+03  0.17120000000E+03 0.  0.
         13    1    1    2    0    0 -0.10631379730E+02  0.12943345148E+02  0.88444420386E+02  0.90016571141E+02  0.10566000000E+00 0.  1.
        994    1    1    2    0    0  0.64433263773E+01 -0.18229805023E+02  0.27338382609E+01  0.17231005809E+03  0.17120000000E+03 0.  0.
        998    1    1    2    0    0  0.41880533524E+01  0.52864598749E+01  0.14088217376E+04  0.14088733708E+04  0.10000000000E+02 0.  1.
</event>
<event>
 5    1  0.1800099E-008  0.4459389E+03  0.7957747E-01  0.3206279E+00
         13   -1    0    0    0    0  0.00000000000E+00  0.00000000000E+00  0.14999999963E+04  0.15000000000E+04  0.10566000000E+00 0. -1.
        994   -1    0    0    0    0 -0.00000000000E+00 -0.00000000000E+00  0.11368683772E-12  0.17120000000E+03  0.17120000000E+03 0.  0.
         13    1    1    2    0    0  0.82055695411E+02  0.64736026786E+02  0.82254965477E+02  0.13300293539E+03  0.10566000000E+00 0. -1.
        994    1    1    2    0    0 -0.10365108377E+03  0.47262585304E+02  0.12554064405E+03  0.24092984963E+03  0.17120000000E+03 0.  0.
        998    1    1    2    0    0  0.21595388354E+02 -0.11199861209E+03  0.12922043868E+04  0.12972672150E+04  0.10000000000E+02 0. -1.
</event>
<event>
 5    1  0.1800099E-008  0.3825569E+03  0.7957747E-01  0.3440100E+00
         13   -1    0    0    0    0  0.00000000000E+00  0.00000000000E+00  0.14999999963E+04  0.15000000000E+04  0.10566000000E+00 0. -1.
        994   -1    0    0    0    0 -0.00000000000E+00 -0.00000000000E+00  0.11368683772E-12  0.17120000000E+03  0.17120000000E+03 0.  0.
         13    1    1    2    0    0  0.21030588351E+02  0.25079165983E+02  0.17120696585E+03  0.17430744829E+03  0.10566000000E+00 0. -1.
        994    1    1    2    0    0 -0.32464949089E+02 -0.13125630801E+02  0.69235604631E+01  0.17488176232E+03  0.17120000000E+03 0.  0.
        998    1    1    2    0    0  0.11434360738E+02 -0.11953535182E+02  0.13218694700E+04  0.13220107894E+04  0.10000000000E+02 0. -1.
</event>
<event>
 5    1  0.1800099E-008  0.3745067E+03  0.7957747E-01  0.3475432E+00
         13   -1    0    0    0    0  0.00000000000E+00  0.00000000000E+00  0.14999999963E+04  0.15000000000E+04  0.10566000000E+00 0. -1.
        994   -1    0    0    0    0 -0.00000000000E+00 -0.00000000000E+00  0.11368683772E-12  0.17120000000E+03  0.17120000000E+03 0.  0.
         13    1    1    2    0    0  0.19437828357E+02  0.88642468485E+01  0.30097549357E+02  0.36909046110E+02  0.10566000000E+00 0. -1.
        994    1    1    2    0    0 -0.16849815134E+02  0.26816067153E+01  0.79240517954E+01  0.17223047896E+03  0.17120000000E+03 0.  0.
        998    1    1    2    0    0 -0.25880132238E+01 -0.11545853564E+02  0.14619783951E+04  0.14620604749E+04  0.10000000000E+02 0. -1.
</event>
<event>
 5    1  0.1800099E-008  0.3843660E+03  0.7957747E-01  0.3432366E+00
         13   -1    0    0    0    0  0.00000000000E+00  0.00000000000E+00  0.14999999963E+04  0.15000000000E+04  0.10566000000E+00 0.  1.
        994   -1    0    0    0    0 -0.00000000000E+00 -0.00000000000E+00  0.11368683772E-12  0.17120000000E+03  0.17120000000E+03 0.  0.
         13    1    1    2    0    0  0.14339079051E+02 -0.29715892801E+01  0.56758941554E+02  0.58617643600E+02  0.10566000000E+00 0.  1.
        994    1    1    2    0    0 -0.38952304194E+01 -0.24082831487E+01  0.20143572699E+01  0.17127308686E+03  0.17120000000E+03 0.  0.
        998    1    1    2    0    0 -0.10443848631E+02  0.53798724288E+01  0.14412266975E+04  0.14413092695E+04  0.10000000000E+02 0.  1.
</event>
<event>
 5    1  0.1800099E-008  0.4358519E+03  0.7957747E-01  0.3239022E+00
         13   -1    0    0    0    0  0.00000000000E+00  0.00000000000E+00  0.14999999963E+04  0.15000000000E+04  0.10566000000E+00 0.  1.
        994   -1    0    0    0    0 -0.00000000000E+00 -0.00000000000E+00  0.11368683772E-12  0.17120000000E+03  0.17120000000E+03 0.  0.
         13    1    1    2    0    0  0.75313217742E+01 -0.12163986872E+02 -0.19676200039E+02  0.24327913933E+02  0.10566000000E+00 0.  1.
        994    1    1    2    0    0  0.92122615964E-01  0.29261485981E+02  0.55202113435E+02  0.18224422179E+03  0.17120000000E+03 0.  0.
        998    1    1    2    0    0 -0.76234443901E+01 -0.17097499110E+02  0.14644740829E+04  0.14646278643E+04  0.10000000000E+02 0.  1.
</event>
<event>
 5    1  0.1800099E-008  0.3848467E+03  0.7957747E-01  0.3430323E+00
         13   -1    0    0    0    0  0.00000000000E+00  0.00000000000E+00  0.14999999963E+04  0.15000000000E+04  0.10566000000E+00 0.  1.
        994   -1    0    0    0    0 -0.00000000000E+00 -0.00000000000E+00  0.11368683772E-12  0.17120000000E+03  0.17120000000E+03 0.  0.
         13    1    1    2    0    0  0.18474803770E+02  0.15798079513E+01  0.10464445129E+03  0.10627458077E+03  0.10566000000E+00 0.  1.
        994    1    1    2    0    0 -0.70380721719E+01  0.54218971602E+00  0.18702239342E+01  0.17135567153E+03  0.17120000000E+03 0.  0.
        998    1    1    2    0    0 -0.11436731598E+02 -0.21219976673E+01  0.13934853211E+04  0.13935697477E+04  0.10000000000E+02 0.  1.
</event>
<event>
 5    1  0.1800099E-008  0.3752101E+03  0.7957747E-01  0.3472283E+00
         13   -1    0    0    0    0  0.00000000000E+00  0.00000000000E+00  0.14999999963E+04  0.15000000000E+04  0.10566000000E+00 0.  1.
        994   -1    0    0    0    0 -0.00000000000E+00 -0.00000000000E+00  0.11368683772E-12  0.17120000000E+03  0.17120000000E+03 0.  0.
         13    1    1    2    0    0  0.47714793423E+02  0.12818405695E+02  0.16648802976E+03  0.17366429757E+03  0.10566000000E+00 0.  1.
        994    1    1    2    0    0 -0.43771635736E+02 -0.18235914887E+02  0.14247130754E+02  0.17821595165E+03  0.17120000000E+03 0.  0.
        998    1    1    2    0    0 -0.39431576868E+01  0.54175091920E+01  0.13192648358E+04  0.13193197508E+04  0.10000000000E+02 0.  1.
</event>
<event>
 5    1  0.1800099E-008  0.3745223E+03  0.7957747E-01  0.3475362E+00
         13   -1    0    0    0    0  0.00000000000E+00  0.00000000000E+00  0.14999999963E+04  0.15000000000E+04  0.10566000000E+00 0. -1.
        994   -1    0    0    0    0 -0.00000000000E+00 -0.00000000000E+00  0.11368683772E-12  0.17120000000E+03  0.17120000000E+03 0.  0.
         13    1    1    2    0    0  0.36639702125E+02 -0.20562711166E+02  0.13845805077E+03  0.14469255631E+03  0.10566000000E+00 0. -1.
        994    1    1    2    0    0 -0.90600464689E+01 -0.68313450622E+01  0.73627423835E+01  0.17173351942E+03  0.17120000000E+03 0.  0.
        998    1    1    2    0    0 -0.27579655656E+02  0.27394056228E+02  0.13541792031E+04  0.13547739243E+04  0.10000000000E+02 0. -1.
</event>
<event>
 5    1  0.1800099E-008  0.3701966E+03  0.7957747E-01  0.3494988E+00
         13   -1    0    0    0    0  0.00000000000E+00  0.00000000000E+00  0.14999999963E+04  0.15000000000E+04  0.10566000000E+00 0.  1.
        994   -1    0    0    0    0 -0.00000000000E+00 -0.00000000000E+00  0.11368683772E-12  0.17120000000E+03  0.17120000000E+03 0.  0.
         13    1    1    2    0    0 -0.64842562709E+02 -0.17824264033E+02  0.30403409334E+03  0.31138240702E+03  0.10566000000E+00 0.  1.
        994    1    1    2    0    0  0.66622466552E+01  0.84632955649E+00  0.93222047323E+01  0.17158509640E+03  0.17120000000E+03 0.  0.
        998    1    1    2    0    0  0.58180316054E+02  0.16977934477E+02  0.11866436982E+04  0.11882324966E+04  0.10000000000E+02 0.  1.
</event>
<event>
 5    1  0.1800099E-008  0.3831078E+03  0.7957747E-01  0.3437737E+00
         13   -1    0    0    0    0  0.00000000000E+00  0.00000000000E+00  0.14999999963E+04  0.15000000000E+04  0.10566000000E+00 0. -1.
        994   -1    0    0    0    0 -0.00000000000E+00 -0.00000000000E+00  0.11368683772E-12  0.17120000000E+03  0.17120000000E+03 0.  0.
         13    1    1    2    0    0 -0.80851648054E+01  0.33162642543E+02  0.20354384677E+03  0.20638614167E+03  0.10566000000E+00 0. -1.
        994    1    1    2    0    0  0.53954804670E+02 -0.23578155103E+02  0.14130585424E+02  0.18159340238E+03  0.17120000000E+03 0.  0.
        998    1    1    2    0    0 -0.45869639864E+02 -0.95844874397E+01  0.12823255641E+04  0.12832204559E+04  0.10000000000E+02 0. -1.
</event>
<event>
 5    1  0.1800099E-008  0.3784386E+03  0.7957747E-01  0.3457986E+00
         13   -1    0    0    0    0  0.00000000000E+00  0.00000000000E+00  0.14999999963E+04  0.15000000000E+04  0.10566000000E+00 0. -1.
        994   -1    0    0    0    0 -0.00000000000E+00 -0.00000000000E+00  0.11368683772E-12  0.17120000000E+03  0.17120000000E+03 0.  0.
         13    1    1    2    0    0  0.52976955470E+02  0.55070539644E+01  0.31085469068E+03  0.31538474177E+03  0.10566000000E+00 0. -1.
        994    1    1    2    0    0 -0.21174143779E+02 -0.12041873544E+01  0.64363181027E+01  0.17262867845E+03  0.17120000000E+03 0.  0.
        998    1    1    2    0    0 -0.31802811691E+02 -0.43028666100E+01  0.11827089875E+04  0.11831865798E+04  0.10000000000E+02 0. -1.
</event>
<event>
 5    1  0.1800099E-008  0.3832968E+03  0.7957747E-01  0.3436928E+00
         13   -1    0    0    0    0  0.00000000000E+00  0.00000000000E+00  0.14999999963E+04  0.15000000000E+04  0.10566000000E+00 0.  1.
        994   -1    0    0    0    0 -0.00000000000E+00 -0.00000000000E+00  0.11368683772E-12  0.17120000000E+03  0.17120000000E+03 0.  0.
         13    1    1    2    0    0 -0.12159853252E+02 -0.72186506835E+01  0.45207003798E+02  0.47367238733E+02  0.10566000000E+00 0.  1.
        994    1    1    2    0    0 -0.11817647778E+02 -0.19046682526E+02  0.41413701343E+01  0.17271080991E+03  0.17120000000E+03 0.  0.
        998    1    1    2    0    0  0.23977501029E+02  0.26265333209E+02  0.14506516223E+04  0.14511219514E+04  0.10000000000E+02 0.  1.
</event>
<event>
 5    1  0.1800099E-008  0.3843822E+03  0.7957747E-01  0.3432296E+00
         13   -1    0    0    0    0  0.00000000000E+00  0.00000000000E+00  0.14999999963E+04  0.15000000000E+04  0.10566000000E+00 0.  1.
        994   -1    0    0    0    0 -0.00000000000E+00 -0.00000000000E+00  0.11368683772E-12  0.17120000000E+03  0.17120000000E+03 0.  0.
         13    1    1    2    0    0 -0.10253162563E+02  0.13114910401E+02  0.72882911102E+02  0.74760003425E+02  0.10566000000E+00 0.  1.
        994    1    1    2    0    0  0.10407807141E+02 -0.10638124565E+01  0.22979124885E+01  0.17153476192E+03  0.17120000000E+03 0.  0.
        998    1    1    2    0    0 -0.15464457801E+00 -0.12051097945E+02  0.14248191727E+04  0.14249052347E+04  0.10000000000E+02 0.  1.
</event>
<event>
 5    1  0.1800099E-008  0.3858455E+03  0.7957747E-01  0.3426094E+00
         13   -1    0    0    0    0  0.00000000000E+00  0.00000000000E+00  0.14999999963E+04  0.15000000000E+04  0.10566000000E+00 0. -1.
        994   -1    0    0    0    0 -0.00000000000E+00 -0.00000000000E+00  0.11368683772E-12  0.17120000000E+03  0.17120000000E+03 0.  0.
         13    1    1    2    0    0  0.10328621772E+02  0.32574972053E+01  0.52156268428E+02  0.53268932936E+02  0.10566000000E+00 0. -1.
        994    1    1    2    0    0  0.38401325457E+00  0.69584289403E+01  0.13702317849E+01  0.17134726358E+03  0.17120000000E+03 0.  0.
        998    1    1    2    0    0 -0.10712635027E+02 -0.10215926146E+02  0.14464734961E+04  0.14465838035E+04  0.10000000000E+02 0. -1.
</event>
<event>
 5    1  0.1800099E-008  0.3774208E+03  0.7957747E-01  0.3462466E+00
         13   -1    0    0    0    0  0.00000000000E+00  0.00000000000E+00  0.14999999963E+04  0.15000000000E+04  0.10566000000E+00 0. -1.
        994   -1    0    0    0    0 -0.00000000000E+00 -0.00000000000E+00  0.11368683772E-12  0.17120000000E+03  0.17120000000E+03 0.  0.
         13    1    1    2    0    0 -0.36339222958E+02  0.16343760026E+02  0.13784727466E+03  0.14349055688E+03  0.10566000000E+00 0. -1.
        994    1    1    2    0    0  0.30922020798E+02 -0.87910363325E+01  0.89331745549E+01  0.17442102883E+03  0.17120000000E+03 0.  0.
        998    1    1    2    0    0  0.54172021598E+01 -0.75527236931E+01  0.13532195471E+04  0.13532884143E+04  0.10000000000E+02 0. -1.
</event>
<event>
 5    1  0.1800099E-008  0.3837716E+03  0.7957747E-01  0.3434899E+00
         13   -1    0    0    0    0  0.00000000000E+00  0.00000000000E+00  0.14999999963E+04  0.15000000000E+04  0.10566000000E+00 0. -1.
        994   -1    0    0    0    0 -0.00000000000E+00 -0.00000000000E+00  0.11368683772E-12  0.17120000000E+03  0.17120000000E+03 0.  0.
         13    1    1    2    0    0 -0.83475107675E+01  0.23696757643E+02  0.15115044510E+03  0.15322429793E+03  0.10566000000E+00 0. -1.
        994    1    1    2    0    0  0.82132801676E+01 -0.40157596825E+01  0.25172504448E+01  0.17146241818E+03  0.17120000000E+03 0.  0.
        998    1    1    2    0    0  0.13423059988E+00 -0.19680997960E+02  0.13463323007E+04  0.13465132839E+04  0.10000000000E+02 0. -1.
</event>
<event>
 5    1  0.1800099E-008  0.3722934E+03  0.7957747E-01  0.3485417E+00
         13   -1    0    0    0    0  0.00000000000E+00  0.00000000000E+00  0.14999999963E+04  0.15000000000E+04  0.10566000000E+00 0.  1.
        994   -1    0    0    0    0 -0.00000000000E+00 -0.00000000000E+00  0.11368683772E-12  0.17120000000E+03  0.17120000000E+03 0.  0.
         13    1    1    2    0    0  0.17902323951E+03 -0.15892634518E+03  0.81755797170E+03  0.85188494043E+03  0.10566000000E+00 0.  1.
        994    1    1    2    0    0 -0.19014542732E+03  0.16336065501E+03  0.26906693749E+03  0.40564571240E+03  0.17120000000E+03 0.  0.
        998    1    1    2    0    0  0.11122187818E+02 -0.44343098337E+01  0.41337508708E+03  0.41366934717E+03  0.10000000000E+02 0.  1.
</event>
<event>
 5    1  0.1800099E-008  0.3810642E+03  0.7957747E-01  0.3446538E+00
         13   -1    0    0    0    0  0.00000000000E+00  0.00000000000E+00  0.14999999963E+04  0.15000000000E+04  0.10566000000E+00 0. -1.
        994   -1    0    0    0    0 -0.00000000000E+00 -0.00000000000E+00  0.11368683772E-12  0.17120000000E+03  0.17120000000E+03 0.  0.
         13    1    1    2    0    0  0.31533083199E+02 -0.12533639176E+02  0.18424348485E+03  0.18734220112E+03  0.10566000000E+00 0. -1.
        994    1    1    2    0    0 -0.76220148219E+01 -0.16104702908E+02  0.46551277697E+01  0.17218759183E+03  0.17120000000E+03 0.  0.
        998    1    1    2    0    0 -0.23911068377E+02  0.28638342084E+02  0.13111013837E+04  0.13116702070E+04  0.10000000000E+02 0. -1.
</event>
<event>
 5    1  0.1800099E-008  0.3755555E+03  0.7957747E-01  0.3470742E+00
         13   -1    0    0    0    0  0.00000000000E+00  0.00000000000E+00  0.14999999963E+04  0.15000000000E+04  0.10566000000E+00 0. -1.
        994   -1    0    0    0    0 -0.00000000000E+00 -0.00000000000E+00  0.11368683772E-12  0.17120000000E+03  0.17120000000E+03 0.  0.
         13    1    1    2    0    0 -0.24395805845E+02 -0.20748825110E+02  0.34433722063E+02  0.47025115262E+02  0.10566000000E+00 0. -1.
        994    1    1    2    0    0 -0.30146452544E+02  0.86417008502E+01  0.17421608436E+02  0.17491838107E+03  0.17120000000E+03 0.  0.
        998    1    1    2    0    0  0.54542258389E+02  0.12107124259E+02  0.14481446658E+04  0.14492565037E+04  0.10000000000E+02 0. -1.
</event>
<event>
 5    1  0.1800099E-008  0.3692735E+03  0.7957747E-01  0.3499236E+00
         13   -1    0    0    0    0  0.00000000000E+00  0.00000000000E+00  0.14999999963E+04  0.15000000000E+04  0.10566000000E+00 0. -1.
        994   -1    0    0    0    0 -0.00000000000E+00 -0.00000000000E+00  0.11368683772E-12  0.17120000000E+03  0.17120000000E+03 0.  0.
         13    1    1    2    0    0  0.66045752838E+02 -0.25658691540E+02  0.23538637051E+03  0.24581937374E+03  0.10566000000E+00 0. -1.
        994    1    1    2    0    0 -0.23492491170E+02  0.56884917630E+02  0.23882803541E+02  0.18348738186E+03  0.17120000000E+03 0.  0.
        998    1    1    2    0    0 -0.42553261668E+02 -0.31226226090E+02  0.12407308222E+04  0.12418932444E+04  0.10000000000E+02 0. -1.
</event>
<event>
 5    1  0.1800099E-008  0.3813822E+03  0.7957747E-01  0.3445162E+00
         13   -1    0    0    0    0  0.00000000000E+00  0.00000000000E+00  0.14999999963E+04  0.15000000000E+04  0.10566000000E+00 0.  1.
        994   -1    0    0    0    0 -0.00000000000E+00 -0.00000000000E+00  0.11368683772E-12  0.17120000000E+03  0.17120000000E+03 0.  0.
         13    1    1    2    0    0 -0.58851870086E+02 -0.27324306051E+02  0.10514151883E+03  0.12355124629E+03  0.10566000000E+00 0.  1.
        994    1    1    2    0    0  0.72890695668E+02  0.26599553203E+02  0.39358970049E+02  0.19203947060E+03  0.17120000000E+03 0.  0.
        998    1    1    2    0    0 -0.14038825581E+02  0.72475284807E+00  0.13554995074E+04  0.13556092831E+04  0.10000000000E+02 0.  1.
</event>
<event>
 5    1  0.1800099E-008  0.3807570E+03  0.7957747E-01  0.3447869E+00
         13   -1    0    0    0    0  0.00000000000E+00  0.00000000000E+00  0.14999999963E+04  0.15000000000E+04  0.10566000000E+00 0. -1.
        994   -1    0    0    0    0 -0.00000000000E+00 -0.00000000000E+00  0.11368683772E-12  0.17120000000E+03  0.17120000000E+03 0.  0.
         13    1    1    2    0    0 -0.27532649132E+02  0.18270330074E+02  0.14600130968E+03  0.14969383862E+03  0.10566000000E+00 0. -1.
        994    1    1    2    0    0  0.32911642705E+02  0.15483674959E+02  0.81754983205E+01  0.17521186943E+03  0.17120000000E+03 0.  0.
        998    1    1    2    0    0 -0.53789935737E+01 -0.33754005033E+02  0.13458231883E+04  0.13462942919E+04  0.10000000000E+02 0. -1.
</event>
<event>
 5    1  0.1800099E-008  0.3807275E+03  0.7957747E-01  0.3447997E+00
         13   -1    0    0    0    0  0.00000000000E+00  0.00000000000E+00  0.14999999963E+04  0.15000000000E+04  0.10566000000E+00 0.  1.
        994   -1    0    0    0    0 -0.00000000000E+00 -0.00000000000E+00  0.11368683772E-12  0.17120000000E+03  0.17120000000E+03 0.  0.
         13    1    1    2    0    0 -0.15372443108E+02  0.29458983964E+02  0.13571276143E+03  0.13972153922E+03  0.10566000000E+00 0.  1.
        994    1    1    2    0    0  0.14652571287E+02 -0.27001853599E+02  0.69202143207E+01  0.17407218994E+03  0.17120000000E+03 0.  0.
        998    1    1    2    0    0  0.71987182079E+00 -0.24571303655E+01  0.13573670205E+04  0.13574062708E+04  0.10000000000E+02 0.  0.
</event>
<event>
 5    1  0.1800099E-008  0.3848312E+03  0.7957747E-01  0.3430388E+00
         13   -1    0    0    0    0  0.00000000000E+00  0.00000000000E+00  0.14999999963E+04  0.15000000000E+04  0.10566000000E+00 0. -1.
        994   -1    0    0    0    0 -0.00000000000E+00 -0.00000000000E+00  0.11368683772E-12  0.17120000000E+03  0.17120000000E+03 0.  0.
         13    1    1    2    0    0  0.30440864068E+01 -0.13578577194E+02  0.53478144334E+02  0.55259092520E+02  0.10566000000E+00 0. -1.
        994    1    1    2    0    0 -0.61258415244E+01  0.17814745322E+02  0.28825655249E+01  0.17225748248E+03  0.17120000000E+03 0.  0.
        998    1    1    2    0    0  0.30817551177E+01 -0.42361681286E+01  0.14436392864E+04  0.14436834250E+04  0.10000000000E+02 0. -1.
</event>
<event>
 5    1  0.1800099E-008  0.3834803E+03  0.7957747E-01  0.3436143E+00
         13   -1    0    0    0    0  0.00000000000E+00  0.00000000000E+00  0.14999999963E+04  0.15000000000E+04  0.10566000000E+00 0.  1.
        994   -1    0    0    0    0 -0.00000000000E+00 -0.00000000000E+00  0.11368683772E-12  0.17120000000E+03  0.17120000000E+03 0.  0.
         13    1    1    2    0    0  0.74322057740E+01  0.15773987971E+02  0.62991996740E+02  0.65360991398E+02  0.10566000000E+00 0.  1.
        994    1    1    2    0    0  0.22076689753E+01 -0.13946338947E+02  0.30457207128E+01  0.17180829604E+03  0.17120000000E+03 0.  0.
        998    1    1    2    0    0 -0.96398747493E+01 -0.18276490246E+01  0.14339622788E+04  0.14340307126E+04  0.10000000000E+02 0.  1.
</event>
<event>
 5    1  0.1800099E-008  0.3769777E+03  0.7957747E-01  0.3464425E+00
         13   -1    0    0    0    0  0.00000000000E+00  0.00000000000E+00  0.14999999963E+04  0.15000000000E+04  0.10566000000E+00 0. -1.
        994   -1    0    0    0    0 -0.00000000000E+00 -0.00000000000E+00  0.11368683772E-12  0.17120000000E+03  0.17120000000E+03 0.  0.
         13    1    1    2    0    0 -0.18638986635E+01  0.18702643436E+02  0.28598431175E+02  0.34221987368E+02  0.10566000000E+00 0. -1.
        994    1    1    2    0    0  0.31780455738E+00 -0.15960732802E+02  0.65276110327E+01  0.17206654439E+03  0.17120000000E+03 0.  0.
        998    1    1    2    0    0  0.15460941062E+01 -0.27419106343E+01  0.14648739541E+04  0.14649114682E+04  0.10000000000E+02 0. -1.
</event>
<event>
 5    1  0.1800099E-008  0.3848942E+03  0.7957747E-01  0.3430121E+00
         13   -1    0    0    0    0  0.00000000000E+00  0.00000000000E+00  0.14999999963E+04  0.15000000000E+04  0.10566000000E+00 0.  1.
        994   -1    0    0    0    0 -0.00000000000E+00 -0.00000000000E+00  0.11368683772E-12  0.17120000000E+03  0.17120000000E+03 0.  0.
         13    1    1    2    0    0 -0.17649736186E+02  0.84119404581E+01  0.10922489151E+03  0.11096108336E+03  0.10566000000E+00 0.  1.
        994    1    1    2    0    0  0.15364526727E+02 -0.77430876859E+01  0.26571499447E+01  0.17208290018E+03  0.17120000000E+03 0.  0.
        998    1    1    2    0    0  0.22852094594E+01 -0.66885277214E+00  0.13881179548E+04  0.13881560165E+04  0.10000000000E+02 0.  1.
</event>
<event>
 5    1  0.1800099E-008  0.3837692E+03  0.7957747E-01  0.3434909E+00
         13   -1    0    0    0    0  0.00000000000E+00  0.00000000000E+00  0.14999999963E+04  0.15000000000E+04  0.10566000000E+00 0. -1.
        994   -1    0    0    0    0 -0.00000000000E+00 -0.00000000000E+00  0.11368683772E-12  0.17120000000E+03  0.17120000000E+03 0.  0.
         13    1    1    2    0    0  0.83386732577E+01  0.16028081702E+02  0.58422669159E+00  0.18077205526E+02  0.10566000000E+00 0. -1.
        994    1    1    2    0    0 -0.23384259849E+01 -0.17177075790E+02  0.19518243382E+02  0.17317887283E+03  0.17120000000E+03 0.  0.
        998    1    1    2    0    0 -0.60002472728E+01  0.11489940875E+01  0.14798975262E+04  0.14799439216E+04  0.10000000000E+02 0. -1.
</event>
<event>
 5    1  0.1800099E-008  0.3797872E+03  0.7957747E-01  0.3452086E+00
         13   -1    0    0    0    0  0.00000000000E+00  0.00000000000E+00  0.14999999963E+04  0.15000000000E+04  0.10566000000E+00 0. -1.
        994   -1    0    0    0    0 -0.00000000000E+00 -0.00000000000E+00  0.11368683772E-12  0.17120000000E+03  0.17120000000E+03 0.  0.
         13    1    1    2    0    0 -0.16431491161E+03  0.42713622265E+02  0.97841014801E+03  0.99303085179E+03  0.10566000000E+00 0. -1.
        994    1    1    2    0    0  0.16671005954E+03 -0.34286153003E+02  0.10816648207E+03  0.26453206248E+03  0.17120000000E+03 0.  0.
        998    1    1    2    0    0 -0.23951479245E+01 -0.84274692616E+01  0.41342336620E+03  0.41363708573E+03  0.10000000000E+02 0.  1.
</event>
<event>
 5    1  0.1800099E-008  0.3809613E+03  0.7957747E-01  0.3446983E+00
         13   -1    0    0    0    0  0.00000000000E+00  0.00000000000E+00  0.14999999963E+04  0.15000000000E+04  0.10566000000E+00 0. -1.
        994   -1    0    0    0    0 -0.00000000000E+00 -0.00000000000E+00  0.11368683772E-12  0.17120000000E+03  0.17120000000E+03 0.  0.
         13    1    1    2    0    0 -0.14533425961E+02  0.18664443386E+02  0.78878799413E+02  0.82349608851E+02  0.10566000000E+00 0. -1.
        994    1    1    2    0    0  0.59126242064E+01 -0.25466033560E+01  0.37867812709E+01  0.17136284319E+03  0.17120000000E+03 0.  0.
        998    1    1    2    0    0  0.86208017544E+01 -0.16117840030E+02  0.14173344156E+04  0.14174875480E+04  0.10000000000E+02 0. -1.
</event>
<event>
 5    1  0.1800099E-008  0.3842757E+03  0.7957747E-01  0.3432750E+00
         13   -1    0    0    0    0  0.00000000000E+00  0.00000000000E+00  0.14999999963E+04  0.15000000000E+04  0.10566000000E+00 0. -1.
        994   -1    0    0    0    0 -0.00000000000E+00 -0.00000000000E+00  0.11368683772E-12  0.17120000000E+03  0.17120000000E+03 0.  0.
         13    1    1    2    0    0 -0.22479314479E+02  0.70687370318E+01  0.12667880835E+03  0.12885192382E+03  0.10566000000E+00 0. -1.
        994    1    1    2    0    0  0.26268797443E+02 -0.41903264005E+01  0.43261983372E+01  0.17330829336E+03  0.17120000000E+03 0.  0.
        998    1    1    2    0    0 -0.37894829648E+01 -0.28784106313E+01  0.13689949896E+04  0.13690397828E+04  0.10000000000E+02 0. -1.
</event>
<event>
 5    1  0.1800099E-008  0.3819374E+03  0.7957747E-01  0.3442766E+00
         13   -1    0    0    0    0  0.00000000000E+00  0.00000000000E+00  0.14999999963E+04  0.15000000000E+04  0.10566000000E+00 0.  1.
        994   -1    0    0    0    0 -0.00000000000E+00 -0.00000000000E+00  0.11368683772E-12  0.17120000000E+03  0.17120000000E+03 0.  0.
         13    1    1    2    0    0 -0.88308073754E+01 -0.28925276768E+02  0.12591387739E+03  0.12949505966E+03  0.10566000000E+00 0.  1.
        994    1    1    2    0    0  0.20588187578E+02  0.34469799525E+02  0.85315514747E+01  0.17605188984E+03  0.17120000000E+03 0.  0.
        998    1    1    2    0    0 -0.11757380203E+02 -0.55445227568E+01  0.13655545674E+04  0.13656530505E+04  0.10000000000E+02 0.  1.
</event>
<event>
 5    1  0.1800099E-008  0.3755634E+03  0.7957747E-01  0.3470707E+00
         13   -1    0    0    0    0  0.00000000000E+00  0.00000000000E+00  0.14999999963E+04  0.15000000000E+04  0.10566000000E+00 0. -1.
        994   -1    0    0    0    0 -0.00000000000E+00 -0.00000000000E+00  0.11368683772E-12  0.17120000000E+03  0.17120000000E+03 0.  0.
         13    1    1    2    0    0 -0.35610547439E+02 -0.25142447553E+02  0.15413397675E+03  0.16017973564E+03  0.10566000000E+00 0. -1.
        994    1    1    2    0    0  0.13173278088E+02  0.95140261857E+01  0.72860827923E+01  0.17212373152E+03  0.17120000000E+03 0.  0.
        998    1    1    2    0    0  0.22437269350E+02  0.15628421368E+02  0.13385799367E+04  0.13388965328E+04  0.10000000000E+02 0. -1.
</event>
<event>
 5    1  0.1800099E-008  0.3830536E+03  0.7957747E-01  0.3437969E+00
         13   -1    0    0    0    0  0.00000000000E+00  0.00000000000E+00  0.14999999963E+04  0.15000000000E+04  0.10566000000E+00 0.  1.
        994   -1    0    0    0    0 -0.00000000000E+00 -0.00000000000E+00  0.11368683772E-12  0.17120000000E+03  0.17120000000E+03 0.  0.
         13    1    1    2    0    0 -0.23419301939E+02 -0.16886268888E+02  0.16462739496E+03  0.16714006138E+03  0.10566000000E+00 0.  1.
        994    1    1    2    0    0  0.34554146064E+01  0.18569327292E+02  0.37812034509E+01  0.17228028705E+03  0.17120000000E+03 0.  0.
        998    1    1    2    0    0  0.19963887332E+02 -0.16830584032E+01  0.13315913979E+04  0.13317796516E+04  0.10000000000E+02 0.  1.
</event>
<event>
 5    1  0.1800099E-008  0.3833841E+03  0.7957747E-01  0.3436554E+00
         13   -1    0    0    0    0  0.00000000000E+00  0.00000000000E+00  0.14999999963E+04  0.15000000000E+04  0.10566000000E+00 0.  1.
        994   -1    0    0    0    0 -0.00000000000E+00 -0.00000000000E+00  0.11368683772E-12  0.17120000000E+03  0.17120000000E+03 0.  0.
         13    1    1    2    0    0  0.21170488434E+02  0.13274786756E+02  0.12730990751E+03  0.12973909687E+03  0.10566000000E+00 0.  1.
        994    1    1    2    0    0 -0.24472892949E+02  0.86813347327E+01  0.46668758699E+01  0.17322097965E+03  0.17120000000E+03 0.  0.
        998    1    1    2    0    0  0.33024045154E+01 -0.21956121489E+02  0.13680232129E+04  0.13682399235E+04  0.10000000000E+02 0.  1.
</event>
<event>
 5    1  0.1800099E-008  0.3839278E+03  0.7957747E-01  0.3434232E+00
         13   -1    0    0    0    0  0.00000000000E+00  0.00000000000E+00  0.14999999963E+04  0.15000000000E+04  0.10566000000E+00 0.  1.
        994   -1    0    0    0    0 -0.00000000000E+00 -0.00000000000E+00  0.11368683772E-12  0.17120000000E+03  0.17120000000E+03 0.  0.
         13    1    1    2    0    0 -0.12256705216E+02 -0.19906090148E+01  0.33434029009E+02  0.35665596964E+02  0.10566000000E+00 0.  1.
        994    1    1    2    0    0  0.20585534559E+02 -0.17144047758E+01  0.35728585584E+01  0.17247871966E+03  0.17120000000E+03 0.  0.
        998    1    1    2    0    0 -0.83288293428E+01  0.37050137906E+01  0.14629931087E+04  0.14630556834E+04  0.10000000000E+02 0.  1.
</event>
<event>
 5    1  0.1800099E-008  0.3703953E+03  0.7957747E-01  0.3494076E+00
         13   -1    0    0    0    0  0.00000000000E+00  0.00000000000E+00  0.14999999963E+04  0.15000000000E+04  0.10566000000E+00 0. -1.
        994   -1    0    0    0    0 -0.00000000000E+00 -0.00000000000E+00  0.11368683772E-12  0.17120000000E+03  0.17120000000E+03 0.  0.
         13    1    1    2    0    0 -0.36683674298E+02  0.53919956628E+02  0.22048961460E+03  0.22993202255E+03  0.10566000000E+00 0. -1.
        994    1    1    2    0    0  0.40611461594E+02 -0.29626494863E+02  0.17839322867E+02  0.17931732056E+03  0.17120000000E+03 0.  0.
        998    1    1    2    0    0 -0.39277872966E+01 -0.24293461765E+02  0.12616710588E+04  0.12619506569E+04  0.10000000000E+02 0. -1.
</event>
<event>
 5    1  0.1800099E-008  0.3791689E+03  0.7957747E-01  0.3454785E+00
         13   -1    0    0    0    0  0.00000000000E+00  0.00000000000E+00  0.14999999963E+04  0.15000000000E+04  0.10566000000E+00 0. -1.
        994   -1    0    0    0    0 -0.00000000000E+00 -0.00000000000E+00  0.11368683772E-12  0.17120000000E+03  0.17120000000E+03 0.  0.
         13    1    1    2    0    0 -0.13951782313E+02  0.47189678965E+02  0.23274800979E+03  0.23789318035E+03  0.10566000000E+00 0. -1.
        994    1    1    2    0    0  0.13505824338E+02 -0.42959372452E+02  0.11381270157E+02  0.17738908727E+03  0.17120000000E+03 0.  0.
        998    1    1    2    0    0  0.44595797473E+00 -0.42303065121E+01  0.12558707163E+04  0.12559177324E+04  0.10000000000E+02 0.  0.
</event>
<event>
 5    1  0.1800099E-008  0.3787077E+03  0.7957747E-01  0.3456805E+00
         13   -1    0    0    0    0  0.00000000000E+00  0.00000000000E+00  0.14999999963E+04  0.15000000000E+04  0.10566000000E+00 0. -1.
        994   -1    0    0    0    0 -0.00000000000E+00 -0.00000000000E+00  0.11368683772E-12  0.17120000000E+03  0.17120000000E+03 0.  0.
         13    1    1    2    0    0 -0.22303581812E+02  0.37318209247E+02  0.20532284217E+03  0.20987515142E+03  0.10566000000E+00 0. -1.
        994    1    1    2    0    0 -0.14239559308E+02 -0.31171798970E+02  0.87399492042E+01  0.17481496736E+03  0.17120000000E+03 0.  0.
        998    1    1    2    0    0  0.36543141120E+02 -0.61464102771E+01  0.12859372049E+04  0.12865098812E+04  0.10000000000E+02 0. -1.
</event>
<event>
 5    1  0.1800099E-008  0.3853582E+03  0.7957747E-01  0.3428155E+00
         13   -1    0    0    0    0  0.00000000000E+00  0.00000000000E+00  0.14999999963E+04  0.15000000000E+04  0.10566000000E+00 0.  1.
        994   -1    0    0    0    0 -0.00000000000E+00 -0.00000000000E+00  0.11368683772E-12  0.17120000000E+03  0.17120000000E+03 0.  0.
         13    1    1    2    0    0 -0.32729943770E+01  0.13375611577E+02  0.58565464820E+02  0.60162648802E+02  0.10566000000E+00 0.  1.
        994    1    1    2    0    0  0.22201790894E+02 -0.22776947567E+02  0.47827925399E+01  0.17419536149E+03  0.17120000000E+03 0.  0.
        998    1    1    2    0    0 -0.18928796517E+02  0.94013359902E+01  0.14366517389E+04  0.14368419897E+04  0.10000000000E+02 0.  1.
</event>
<event>
 5    1  0.1800099E-008  0.3813304E+03  0.7957747E-01  0.3445386E+00
         13   -1    0    0    0    0  0.00000000000E+00  0.00000000000E+00  0.14999999963E+04  0.15000000000E+04  0.10566000000E+00 0.  1.
        994   -1    0    0    0    0 -0.00000000000E+00 -0.00000000000E+00  0.11368683772E-12  0.17120000000E+03  0.17120000000E+03 0.  0.
         13    1    1    2    0    0  0.47095217834E+01 -0.18520409000E+02  0.54869403485E+02  0.58102045986E+02  0.10566000000E+00 0.  1.
        994    1    1    2    0    0 -0.28847558252E+01 -0.33788358678E+01  0.35287869248E+01  0.17129398905E+03  0.17120000000E+03 0.  0.
        998    1    1    2    0    0 -0.18247659581E+01  0.21899244868E+02  0.14416018059E+04  0.14418039650E+04  0.10000000000E+02 0.  1.
</event>
<event>
 5    1  0.1800099E-008  0.3802618E+03  0.7957747E-01  0.3450019E+00
         13   -1    0    0    0    0  0.00000000000E+00  0.00000000000E+00  0.14999999963E+04  0.15000000000E+04  0.10566000000E+00 0. -1.
        994   -1    0    0    0    0 -0.00000000000E+00 -0.00000000000E+00  0.11368683772E-12  0.17120000000E+03  0.17120000000E+03 0.  0.
         13    1    1    2    0    0 -0.22976054701E+02  0.28769676848E+02  0.16573909997E+03  0.16977942696E+03  0.10566000000E+00 0. -1.
        994    1    1    2    0    0  0.43369255993E+02  0.24246033648E+01  0.10328771508E+02  0.17692624053E+03  0.17120000000E+03 0.  0.
        998    1    1    2    0    0 -0.20393201291E+02 -0.31194280213E+02  0.13239321248E+04  0.13244943325E+04  0.10000000000E+02 0. -1.
</event>
<event>
 5    1  0.1800099E-008  0.3819997E+03  0.7957747E-01  0.3442497E+00
         13   -1    0    0    0    0  0.00000000000E+00  0.00000000000E+00  0.14999999963E+04  0.15000000000E+04  0.10566000000E+00 0. -1.
        994   -1    0    0    0    0 -0.00000000000E+00 -0.00000000000E+00  0.11368683772E-12  0.17120000000E+03  0.17120000000E+03 0.  0.
         13    1    1    2    0    0 -0.22587909808E+02  0.97941732513E+01  0.14160725344E+03  0.14373157235E+03  0.10566000000E+00 0. -1.
        994    1    1    2    0    0 -0.38349292871E+02  0.39916344609E+01  0.80798122684E+01  0.17567391604E+03  0.17120000000E+03 0.  0.
        998    1    1    2    0    0  0.60937202678E+02 -0.13785807712E+02  0.13503129306E+04  0.13517945116E+04  0.10000000000E+02 0. -1.
</event>
<event>
 5    1  0.1800099E-008  0.3827188E+03  0.7957747E-01  0.3439405E+00
         13   -1    0    0    0    0  0.00000000000E+00  0.00000000000E+00  0.14999999963E+04  0.15000000000E+04  0.10566000000E+00 0. -1.
        994   -1    0    0    0    0 -0.00000000000E+00 -0.00000000000E+00  0.11368683772E-12  0.17120000000E+03  0.17120000000E+03 0.  0.
         13    1    1    2    0    0  0.23694233844E+01 -0.15363135290E+02  0.44545753213E+02  0.47180243603E+02  0.10566000000E+00 0. -1.
        994    1    1    2    0    0 -0.40667495416E+01  0.88413407022E-01  0.28217663269E+01  0.17127156400E+03  0.17120000000E+03 0.  0.
        998    1    1    2    0    0  0.16973261572E+01  0.15274721883E+02  0.14526324767E+04  0.14527481924E+04  0.10000000000E+02 0. -1.
</event>
<event>
 5    1  0.1800099E-008  0.3779744E+03  0.7957747E-01  0.3460026E+00
         13   -1    0    0    0    0  0.00000000000E+00  0.00000000000E+00  0.14999999963E+04  0.15000000000E+04  0.10566000000E+00 0. -1.
        994   -1    0    0    0    0 -0.00000000000E+00 -0.00000000000E+00  0.11368683772E-12  0.17120000000E+03  0.17120000000E+03 0.  0.
         13    1    1    2    0    0  0.40050136880E+02 -0.14748266098E+02  0.17399977964E+03  0.17915763812E+03  0.10566000000E+00 0. -1.
        994    1    1    2    0    0 -0.34393084164E+02 -0.16967506519E+02  0.10125000882E+02  0.17573484617E+03  0.17120000000E+03 0.  0.
        998    1    1    2    0    0 -0.56570527153E+01  0.31715772616E+02  0.13158752158E+04  0.13163075157E+04  0.10000000000E+02 0. -1.
</event>
<event>
 5    1  0.1800099E-008  0.3820904E+03  0.7957747E-01  0.3442107E+00
         13   -1    0    0    0    0  0.00000000000E+00  0.00000000000E+00  0.14999999963E+04  0.15000000000E+04  0.10566000000E+00 0. -1.
        994   -1    0    0    0    0 -0.00000000000E+00 -0.00000000000E+00  0.11368683772E-12  0.17120000000E+03  0.17120000000E+03 0.  0.
         13    1    1    2    0    0  0.20526716828E+02  0.12254526623E+01  0.64659416245E+02  0.67850564561E+02  0.10566000000E+00 0. -1.
        994    1    1    2    0    0 -0.22831127129E+02  0.32729360458E+01  0.48497610690E+01  0.17281473507E+03  0.17120000000E+03 0.  0.
        998    1    1    2    0    0  0.23044103016E+01 -0.44983887081E+01  0.14304908190E+04  0.14305347004E+04  0.10000000000E+02 0. -1.
</event>
<event>
 5    1  0.1800099E-008  0.3832524E+03  0.7957747E-01  0.3437118E+00
         13   -1    0    0    0    0  0.00000000000E+00  0.00000000000E+00  0.14999999963E+04  0.15000000000E+04  0.10566000000E+00 0.  1.
        994   -1    0    0    0    0 -0.00000000000E+00 -0.00000000000E+00  0.11368683772E-12  0.17120000000E+03  0.17120000000E+03 0.  0.
         13    1    1    2    0    0  0.10043713271E+02 -0.86643647589E+01  0.33971421634E+02  0.36469385034E+02  0.10566000000E+00 0.  1.
        994    1    1    2    0    0 -0.72313630382E+01  0.10308337440E+02  0.30248538207E+01  0.17168909160E+03  0.17120000000E+03 0.  0.
        998    1    1    2    0    0 -0.28123502324E+01 -0.16439726813E+01  0.14630037208E+04  0.14630415234E+04  0.10000000000E+02 0.  1.
</event>
<event>
 5    1  0.1800099E-008  0.3823465E+03  0.7957747E-01  0.3441005E+00
         13   -1    0    0    0    0  0.00000000000E+00  0.00000000000E+00  0.14999999963E+04  0.15000000000E+04  0.10566000000E+00 0.  1.
        994   -1    0    0    0    0 -0.00000000000E+00 -0.00000000000E+00  0.11368683772E-12  0.17120000000E+03  0.17120000000E+03 0.  0.
         13    1    1    2    0    0  0.53317351143E+01 -0.17193907018E+02  0.55525606070E+02  0.58370899696E+02  0.10566000000E+00 0.  1.
        994    1    1    2    0    0  0.77956044095E+00  0.56712297119E+01  0.30620341617E+01  0.17132304753E+03  0.17120000000E+03 0.  0.
        998    1    1    2    0    0 -0.61112955552E+01  0.11522677306E+02  0.14414123560E+04  0.14415060528E+04  0.10000000000E+02 0.  1.
</event>
<event>
 5    1  0.1800099E-008  0.3756798E+03  0.7957747E-01  0.3470188E+00
         13   -1    0    0    0    0  0.00000000000E+00  0.00000000000E+00  0.14999999963E+04  0.15000000000E+04  0.10566000000E+00 0.  1.
        994   -1    0    0    0    0 -0.00000000000E+00 -0.00000000000E+00  0.11368683772E-12  0.17120000000E+03  0.17120000000E+03 0.  0.
         13    1    1    2    0    0 -0.26602240257E+02 -0.44447715954E+01  0.56842690528E+02  0.62916911969E+02  0.10566000000E+00 0.  1.
        994    1    1    2    0    0  0.88807499682E+01 -0.49380107335E+01  0.66803147995E+01  0.17163134409E+03  0.17120000000E+03 0.  0.
        998    1    1    2    0    0  0.17721490289E+02  0.93827823290E+01  0.14364769910E+04  0.14366517439E+04  0.10000000000E+02 0.  1.
</event>
<event>
 5    1  0.1800099E-008  0.3751292E+03  0.7957747E-01  0.3472645E+00
         13   -1    0    0    0    0  0.00000000000E+00  0.00000000000E+00  0.14999999963E+04  0.15000000000E+04  0.10566000000E+00 0. -1.
        994   -1    0    0    0    0 -0.00000000000E+00 -0.00000000000E+00  0.11368683772E-12  0.17120000000E+03  0.17120000000E+03 0.  0.
         13    1    1    2    0    0 -0.51391888516E+02 -0.65071801539E+02  0.39996864175E+03  0.40847324405E+03  0.10566000000E+00 0. -1.
        994    1    1    2    0    0  0.44187671106E+02  0.63074201727E+02  0.27038597971E+02  0.18966135869E+03  0.17120000000E+03 0.  0.
        998    1    1    2    0    0  0.72042174097E+01  0.19975998119E+01  0.10729927566E+04  0.10730653973E+04  0.10000000000E+02 0.  0.
</event>
<event>
 5    1  0.1800099E-008  0.3715593E+03  0.7957747E-01  0.3488755E+00
         13   -1    0    0    0    0  0.00000000000E+00  0.00000000000E+00  0.14999999963E+04  0.15000000000E+04  0.10566000000E+00 0.  1.
        994   -1    0    0    0    0 -0.00000000000E+00 -0.00000000000E+00  0.11368683772E-12  0.17120000000E+03  0.17120000000E+03 0.  0.
         13    1    1    2    0    0 -0.11044516678E+02 -0.46303617354E+01  0.44970810360E+01  0.12792830036E+02  0.10566000000E+00 0.  1.
        994    1    1    2    0    0  0.15942282459E+02  0.23680025759E+01  0.93501846841E+01  0.17221100360E+03  0.17120000000E+03 0.  0.
        998    1    1    2    0    0 -0.48977657811E+01  0.22623591595E+01  0.14861527306E+04  0.14861961664E+04  0.10000000000E+02 0.  1.
</event>
<event>
 5    1  0.1800099E-008  0.3754981E+03  0.7957747E-01  0.3470998E+00
         13   -1    0    0    0    0  0.00000000000E+00  0.00000000000E+00  0.14999999963E+04  0.15000000000E+04  0.10566000000E+00 0.  1.
        994   -1    0    0    0    0 -0.00000000000E+00 -0.00000000000E+00  0.11368683772E-12  0.17120000000E+03  0.17120000000E+03 0.  0.
         13    1    1    2    0    0  0.22804184653E+02  0.12312882456E+02  0.48820118519E+02  0.55272534303E+02  0.10566000000E+00 0.  1.
        994    1    1    2    0    0 -0.22986729419E+02 -0.61996436484E+01  0.83490738101E+01  0.17304904607E+03  0.17120000000E+03 0.  0.
        998    1    1    2    0    0  0.18254476534E+00 -0.61132388074E+01  0.14428308040E+04  0.14428784196E+04  0.10000000000E+02 0.  1.
</event>
<event>
 5    1  0.2462649E-008  0.3864719E+03  0.7957747E-01  0.3423454E+00
         13   -1    0    0    0    0  0.00000000000E+00  0.00000000000E+00  0.14999999963E+04  0.15000000000E+04  0.10566000000E+00 0.  1.
        994   -1    0    0    0    0 -0.00000000000E+00 -0.00000000000E+00  0.11368683772E-12  0.17120000000E+03  0.17120000000E+03 0.  0.
         13    1    1    2    0    0 -0.59637425291E+01 -0.87086033929E+01  0.60405595495E+02  0.61320902873E+02  0.10566000000E+00 0.  1.
        994    1    1    2    0    0  0.10694893342E+02  0.79023815146E+01  0.14801194171E+01  0.17172204032E+03  0.17120000000E+03 0.  0.
        998    1    1    2    0    0 -0.47311508133E+01  0.80622187839E+00  0.14381142814E+04  0.14381570568E+04  0.10000000000E+02 0.  1.
</event>
<event>
 5    1  0.1800099E-008  0.3882899E+03  0.7957747E-01  0.3415838E+00
         13   -1    0    0    0    0  0.00000000000E+00  0.00000000000E+00  0.14999999963E+04  0.15000000000E+04  0.10566000000E+00 0. -1.
        994   -1    0    0    0    0 -0.00000000000E+00 -0.00000000000E+00  0.11368683772E-12  0.17120000000E+03  0.17120000000E+03 0.  0.
         13    1    1    2    0    0 -0.52981624198E+02  0.83479348045E+02  0.19870852223E+03  0.22194806155E+03  0.10566000000E+00 0. -1.
        994    1    1    2    0    0  0.50084912152E+02 -0.81668686576E+02  0.56142416726E+02  0.20405804015E+03  0.17120000000E+03 0.  0.
        998    1    1    2    0    0  0.28967120455E+01 -0.18106614699E+01  0.12451490573E+04  0.12451938983E+04  0.10000000000E+02 0.  0.
</event>
<event>
 5    1  0.1800099E-008  0.3839079E+03  0.7957747E-01  0.3434317E+00
         13   -1    0    0    0    0  0.00000000000E+00  0.00000000000E+00  0.14999999963E+04  0.15000000000E+04  0.10566000000E+00 0. -1.
        994   -1    0    0    0    0 -0.00000000000E+00 -0.00000000000E+00  0.11368683772E-12  0.17120000000E+03  0.17120000000E+03 0.  0.
         13    1    1    2    0    0  0.25979206138E+01  0.16131763714E+02  0.59422091548E+02  0.61627746349E+02  0.10566000000E+00 0. -1.
        994    1    1    2    0    0 -0.80671060455E+01 -0.14417502200E+02  0.30746366095E+01  0.17202277745E+03  0.17120000000E+03 0.  0.
        998    1    1    2    0    0  0.54691854317E+01 -0.17142615137E+01  0.14375032681E+04  0.14375494762E+04  0.10000000000E+02 0. -1.
</event>
<event>
 5    1  0.1800099E-008  0.3835977E+03  0.7957747E-01  0.3435641E+00
         13   -1    0    0    0    0  0.00000000000E+00  0.00000000000E+00  0.14999999963E+04  0.15000000000E+04  0.10566000000E+00 0.  1.
        994   -1    0    0    0    0 -0.00000000000E+00 -0.00000000000E+00  0.11368683772E-12  0.17120000000E+03  0.17120000000E+03 0.  0.
         13    1    1    2    0    0  0.91644892564E+01  0.14178979422E+02  0.62848427332E+02  0.65076626394E+02  0.10566000000E+00 0.  1.
        994    1    1    2    0    0 -0.11610854782E+02  0.22745673892E+01  0.27905401050E+01  0.17163103659E+03  0.17120000000E+03 0.  0.
        998    1    1    2    0    0  0.24463655252E+01 -0.16453546811E+02  0.14343610288E+04  0.14344923370E+04  0.10000000000E+02 0.  1.
</event>
<event>
 5    1  0.1800099E-008  0.3838968E+03  0.7957747E-01  0.3434364E+00
         13   -1    0    0    0    0  0.00000000000E+00  0.00000000000E+00  0.14999999963E+04  0.15000000000E+04  0.10566000000E+00 0. -1.
        994   -1    0    0    0    0 -0.00000000000E+00 -0.00000000000E+00  0.11368683772E-12  0.17120000000E+03  0.17120000000E+03 0.  0.
         13    1    1    2    0    0 -0.53923836771E+01 -0.11349459699E+02  0.36123495935E+02  0.38246649001E+02  0.10566000000E+00 0. -1.
        994    1    1    2    0    0  0.17670792836E+01  0.51506309470E+01  0.22767059662E+01  0.17130170740E+03  0.17120000000E+03 0.  0.
        998    1    1    2    0    0  0.36253043936E+01  0.61988287525E+01  0.14615997944E+04  0.14616516436E+04  0.10000000000E+02 0. -1.
</event>
<event>
 5    1  0.1800099E-008  0.3712497E+03  0.7957747E-01  0.3490167E+00
         13   -1    0    0    0    0  0.00000000000E+00  0.00000000000E+00  0.14999999963E+04  0.15000000000E+04  0.10566000000E+00 0. -1.
        994   -1    0    0    0    0 -0.00000000000E+00 -0.00000000000E+00  0.11368683772E-12  0.17120000000E+03  0.17120000000E+03 0.  0.
         13    1    1    2    0    0  0.57299150717E+02 -0.21071643528E+01  0.22859906409E+03  0.23568024117E+03  0.10566000000E+00 0. -1.
        994    1    1    2    0    0 -0.25300109415E+00  0.73314772698E+01  0.88026338928E+01  0.17158304384E+03  0.17120000000E+03 0.  0.
        998    1    1    2    0    0 -0.57046149623E+02 -0.52243129170E+01  0.12625982983E+04  0.12639367150E+04  0.10000000000E+02 0. -1.
</event>
<event>
 5    1  0.1800099E-008  0.3763880E+03  0.7957747E-01  0.3467038E+00
         13   -1    0    0    0    0  0.00000000000E+00  0.00000000000E+00  0.14999999963E+04  0.15000000000E+04  0.10566000000E+00 0. -1.
        994   -1    0    0    0    0 -0.00000000000E+00 -0.00000000000E+00  0.11368683772E-12  0.17120000000E+03  0.17120000000E+03 0.  0.
         13    1    1    2    0    0  0.33324322227E+02  0.46260507367E+01  0.92792521374E+02  0.98703464905E+02  0.10566000000E+00 0. -1.
        994    1    1    2    0    0 -0.21177773274E+02  0.36805780177E+01  0.75325034313E+01  0.17270849239E+03  0.17120000000E+03 0.  0.
        998    1    1    2    0    0 -0.12146548953E+02 -0.83066287544E+01  0.13996749715E+04  0.13997880427E+04  0.10000000000E+02 0. -1.
</event>
<event>
 5    1  0.3373114E-008  0.3862924E+03  0.7957747E-01  0.3424209E+00
         13   -1    0    0    0    0  0.00000000000E+00  0.00000000000E+00  0.14999999963E+04  0.15000000000E+04  0.10566000000E+00 0.  1.
        994   -1    0    0    0    0 -0.00000000000E+00 -0.00000000000E+00  0.11368683772E-12  0.17120000000E+03  0.17120000000E+03 0.  0.
         13    1    1    2    0    0 -0.97303531940E+01 -0.59094925409E+01  0.63658113289E+02  0.64668140741E+02  0.10566000000E+00 0.  1.
        994    1    1    2    0    0  0.12020335928E+02  0.57906428475E+01  0.15730404853E+01  0.17172633600E+03  0.17120000000E+03 0.  0.
        998    1    1    2    0    0 -0.22899827341E+01  0.11884969339E+00  0.14347688425E+04  0.14348055233E+04  0.10000000000E+02 0.  1.
</event>
<event>
 5    1  0.1800099E-008  0.3722252E+03  0.7957747E-01  0.3485726E+00
         13   -1    0    0    0    0  0.00000000000E+00  0.00000000000E+00  0.14999999963E+04  0.15000000000E+04  0.10566000000E+00 0. -1.
        994   -1    0    0    0    0 -0.00000000000E+00 -0.00000000000E+00  0.11368683772E-12  0.17120000000E+03  0.17120000000E+03 0.  0.
         13    1    1    2    0    0  0.61295804866E+02  0.37152948635E+02  0.18749679954E+03  0.20073011306E+03  0.10566000000E+00 0. -1.
        994    1    1    2    0    0 -0.11644196636E+03 -0.78617560137E+02  0.79211368778E+02  0.23520912660E+03  0.17120000000E+03 0.  0.
        998    1    1    2    0    0  0.55146161491E+02  0.41464611502E+02  0.12332918280E+04  0.12352607603E+04  0.10000000000E+02 0. -1.
</event>
<event>
 5    1  0.1800099E-008  0.3848600E+03  0.7957747E-01  0.3430266E+00
         13   -1    0    0    0    0  0.00000000000E+00  0.00000000000E+00  0.14999999963E+04  0.15000000000E+04  0.10566000000E+00 0. -1.
        994   -1    0    0    0    0 -0.00000000000E+00 -0.00000000000E+00  0.11368683772E-12  0.17120000000E+03  0.17120000000E+03 0.  0.
         13    1    1    2    0    0  0.18501391643E+02 -0.34352144674E+01  0.94411330855E+02  0.96268441086E+02  0.10566000000E+00 0. -1.
        994    1    1    2    0    0 -0.24276185577E+02  0.81766172837E+01  0.38615917664E+01  0.17314890166E+03  0.17120000000E+03 0.  0.
        998    1    1    2    0    0  0.57747939336E+01 -0.47414028164E+01  0.14017270737E+04  0.14017826573E+04  0.10000000000E+02 0. -1.
</event>
<event>
 5    1  0.1800099E-008  0.3802270E+03  0.7957747E-01  0.3450171E+00
         13   -1    0    0    0    0  0.00000000000E+00  0.00000000000E+00  0.14999999963E+04  0.15000000000E+04  0.10566000000E+00 0. -1.
        994   -1    0    0    0    0 -0.00000000000E+00 -0.00000000000E+00  0.11368683772E-12  0.17120000000E+03  0.17120000000E+03 0.  0.
         13    1    1    2    0    0 -0.55345256886E-01  0.14554733002E+02  0.24807349691E+02  0.28762111859E+02  0.10566000000E+00 0. -1.
        994    1    1    2    0    0  0.37996214821E+01 -0.89901342739E+01  0.43368623930E+01  0.17153281906E+03  0.17120000000E+03 0.  0.
        998    1    1    2    0    0 -0.37442762252E+01 -0.55645987281E+01  0.14708557842E+04  0.14709050691E+04  0.10000000000E+02 0. -1.
</event>
<event>
 5    1  0.1800099E-008  0.3847805E+03  0.7957747E-01  0.3430604E+00
         13   -1    0    0    0    0  0.00000000000E+00  0.00000000000E+00  0.14999999963E+04  0.15000000000E+04  0.10566000000E+00 0.  1.
        994   -1    0    0    0    0 -0.00000000000E+00 -0.00000000000E+00  0.11368683772E-12  0.17120000000E+03  0.17120000000E+03 0.  0.
         13    1    1    2    0    0 -0.95732913989E+01 -0.17111618636E+02  0.11361870237E+03  0.11529820508E+03  0.10566000000E+00 0.  1.
        994    1    1    2    0    0 -0.16863933510E+01  0.11239215902E+02  0.21643354848E+01  0.17159046665E+03  0.17120000000E+03 0.  0.
        998    1    1    2    0    0  0.11259684750E+02  0.58724027334E+01  0.13842169584E+04  0.13843113283E+04  0.10000000000E+02 0.  1.
</event>
<event>
 5    1  0.1800099E-008  0.3764245E+03  0.7957747E-01  0.3466876E+00
         13   -1    0    0    0    0  0.00000000000E+00  0.00000000000E+00  0.14999999963E+04  0.15000000000E+04  0.10566000000E+00 0.  1.
        994   -1    0    0    0    0 -0.00000000000E+00 -0.00000000000E+00  0.11368683772E-12  0.17120000000E+03  0.17120000000E+03 0.  0.
         13    1    1    2    0    0  0.39778477640E+02 -0.29916945889E+02  0.22502436039E+03  0.23046328312E+03  0.10566000000E+00 0.  1.
        994    1    1    2    0    0 -0.18343132435E+02  0.21290392347E+01  0.71034560913E+01  0.17233949752E+03  0.17120000000E+03 0.  0.
        998    1    1    2    0    0 -0.21435345205E+02  0.27787906655E+02  0.12678721798E+04  0.12683972194E+04  0.10000000000E+02 0.  1.
</event>
<event>
 5    1  0.1800099E-008  0.3853089E+03  0.7957747E-01  0.3428363E+00
         13   -1    0    0    0    0  0.00000000000E+00  0.00000000000E+00  0.14999999963E+04  0.15000000000E+04  0.10566000000E+00 0. -1.
        994   -1    0    0    0    0 -0.00000000000E+00 -0.00000000000E+00  0.11368683772E-12  0.17120000000E+03  0.17120000000E+03 0.  0.
         13    1    1    2    0    0 -0.18101551072E+03  0.95317671075E+02  0.11220458794E+04  0.11405433092E+04  0.10566000000E+00 0. -1.
        994    1    1    2    0    0  0.18796242169E+03 -0.10795350638E+03  0.17508289334E+03  0.32702796677E+03  0.17120000000E+03 0.  0.
        998    1    1    2    0    0 -0.69469109693E+01  0.12635835309E+02  0.20287122358E+03  0.20362872406E+03  0.10000000000E+02 0.  1.
</event>
<event>
 5    1  0.1800099E-008  0.3835586E+03  0.7957747E-01  0.3435808E+00
         13   -1    0    0    0    0  0.00000000000E+00  0.00000000000E+00  0.14999999963E+04  0.15000000000E+04  0.10566000000E+00 0. -1.
        994   -1    0    0    0    0 -0.00000000000E+00 -0.00000000000E+00  0.11368683772E-12  0.17120000000E+03  0.17120000000E+03 0.  0.
         13    1    1    2    0    0 -0.22342152796E+02  0.15406518821E+02  0.15655877211E+03  0.15889365281E+03  0.10566000000E+00 0. -1.
        994    1    1    2    0    0  0.87149391549E+01 -0.15790159149E+02  0.34229347037E+01  0.17218140368E+03  0.17120000000E+03 0.  0.
        998    1    1    2    0    0  0.13627213641E+02  0.38364032778E+00  0.13400182895E+04  0.13401249435E+04  0.10000000000E+02 0. -1.
</event>
<event>
 5    1  0.1800099E-008  0.3839928E+03  0.7957747E-01  0.3433955E+00
         13   -1    0    0    0    0  0.00000000000E+00  0.00000000000E+00  0.14999999963E+04  0.15000000000E+04  0.10566000000E+00 0. -1.
        994   -1    0    0    0    0 -0.00000000000E+00 -0.00000000000E+00  0.11368683772E-12  0.17120000000E+03  0.17120000000E+03 0.  0.
         13    1    1    2    0    0  0.16724870323E+02  0.10012445711E+01  0.70228860031E+02  0.72199914981E+02  0.10566000000E+00 0. -1.
        994    1    1    2    0    0  0.77893911160E+00  0.55186307132E+01  0.22335243859E+01  0.17130525579E+03  0.17120000000E+03 0.  0.
        998    1    1    2    0    0 -0.17503809434E+02 -0.65198752843E+01  0.14275376119E+04  0.14276948292E+04  0.10000000000E+02 0. -1.
</event>
<event>
 5    1  0.1800099E-008  0.3741301E+03  0.7957747E-01  0.3477122E+00
         13   -1    0    0    0    0  0.00000000000E+00  0.00000000000E+00  0.14999999963E+04  0.15000000000E+04  0.10566000000E+00 0. -1.
        994   -1    0    0    0    0 -0.00000000000E+00 -0.00000000000E+00  0.11368683772E-12  0.17120000000E+03  0.17120000000E+03 0.  0.
         13    1    1    2    0    0 -0.31365635131E+02 -0.65797497884E+02  0.32799178234E+03  0.33599365208E+03  0.10566000000E+00 0. -1.
        994    1    1    2    0    0  0.47665751945E+02  0.42123435425E+02  0.21048920698E+02  0.18384478449E+03  0.17120000000E+03 0.  0.
        998    1    1    2    0    0 -0.16300116815E+02  0.23674062459E+02  0.11509592932E+04  0.11513615634E+04  0.10000000000E+02 0. -1.
</event>
<event>
 5    1  0.1800099E-008  0.3765987E+03  0.7957747E-01  0.3466104E+00
         13   -1    0    0    0    0  0.00000000000E+00  0.00000000000E+00  0.14999999963E+04  0.15000000000E+04  0.10566000000E+00 0.  1.
        994   -1    0    0    0    0 -0.00000000000E+00 -0.00000000000E+00  0.11368683772E-12  0.17120000000E+03  0.17120000000E+03 0.  0.
         13    1    1    2    0    0 -0.24211463835E+02  0.19816944998E+02  0.75842002407E+02  0.82042225611E+02  0.10566000000E+00 0.  1.
        994    1    1    2    0    0  0.25607978830E+02 -0.27994951260E+02  0.10742397298E+02  0.17568245495E+03  0.17120000000E+03 0.  0.
        998    1    1    2    0    0 -0.13965149950E+01  0.81780062620E+01  0.14134155966E+04  0.14134753194E+04  0.10000000000E+02 0.  1.
</event>
<event>
 5    1  0.1800099E-008  0.3837067E+03  0.7957747E-01  0.3435176E+00
         13   -1    0    0    0    0  0.00000000000E+00  0.00000000000E+00  0.14999999963E+04  0.15000000000E+04  0.10566000000E+00 0. -1.
        994   -1    0    0    0    0 -0.00000000000E+00 -0.00000000000E+00  0.11368683772E-12  0.17120000000E+03  0.17120000000E+03 0.  0.
         13    1    1    2    0    0 -0.12438380932E+02 -0.82105339947E+01  0.46746261535E+02  0.49064756397E+02  0.10566000000E+00 0. -1.
        994    1    1    2    0    0  0.11961103460E+02  0.12419503208E+02  0.32560932781E+01  0.17209693257E+03  0.17120000000E+03 0.  0.
        998    1    1    2    0    0  0.47727747117E+00 -0.42089692133E+01  0.14499976415E+04  0.14500383110E+04  0.10000000000E+02 0. -1.
</event>
<event>
 5    1  0.1800099E-008  0.3852384E+03  0.7957747E-01  0.3428662E+00
         13   -1    0    0    0    0  0.00000000000E+00  0.00000000000E+00  0.14999999963E+04  0.15000000000E+04  0.10566000000E+00 0. -1.
        994   -1    0    0    0    0 -0.00000000000E+00 -0.00000000000E+00  0.11368683772E-12  0.17120000000E+03  0.17120000000E+03 0.  0.
         13    1    1    2    0    0  0.12494036861E+01 -0.14390752483E+02  0.79934101829E+02  0.81228853038E+02  0.10566000000E+00 0. -1.
        994    1    1    2    0    0 -0.32134143458E+00 -0.98904390475E+01  0.18336997048E+01  0.17149555825E+03  0.17120000000E+03 0.  0.
        998    1    1    2    0    0 -0.92806225157E+00  0.24281191530E+02  0.14182321947E+04  0.14184755887E+04  0.10000000000E+02 0. -1.
</event>
<event>
 5    1  0.1800099E-008  0.3860303E+03  0.7957747E-01  0.3425314E+00
         13   -1    0    0    0    0  0.00000000000E+00  0.00000000000E+00  0.14999999963E+04  0.15000000000E+04  0.10566000000E+00 0.  1.
        994   -1    0    0    0    0 -0.00000000000E+00 -0.00000000000E+00  0.11368683772E-12  0.17120000000E+03  0.17120000000E+03 0.  0.
         13    1    1    2    0    0 -0.64203716362E+01 -0.84384488213E+01  0.51432492515E+02  0.52514198469E+02  0.10566000000E+00 0.  1.
        994    1    1    2    0    0  0.81344413371E+01  0.65813495210E+00  0.13378050570E+01  0.17139962660E+03  0.17120000000E+03 0.  0.
        998    1    1    2    0    0 -0.17140697009E+01  0.77803138692E+01  0.14472296987E+04  0.14472861749E+04  0.10000000000E+02 0.  1.
</event>
<event>
 5    1  0.1800099E-008  0.3845462E+03  0.7957747E-01  0.3431599E+00
         13   -1    0    0    0    0  0.00000000000E+00  0.00000000000E+00  0.14999999963E+04  0.15000000000E+04  0.10566000000E+00 0. -1.
        994   -1    0    0    0    0 -0.00000000000E+00 -0.00000000000E+00  0.11368683772E-12  0.17120000000E+03  0.17120000000E+03 0.  0.
         13    1    1    2    0    0  0.78505288809E+01 -0.10791465417E+02  0.50024069856E+02  0.51773596153E+02  0.10566000000E+00 0. -1.
        994    1    1    2    0    0 -0.59822211477E+01 -0.42967425401E+01  0.20343072055E+01  0.17137043903E+03  0.17120000000E+03 0.  0.
        998    1    1    2    0    0 -0.18683077332E+01  0.15088207957E+02  0.14479416192E+04  0.14480559648E+04  0.10000000000E+02 0. -1.
</event>
<event>
 5    1  0.1800099E-008  0.3484524E+03  0.7957747E-01  0.3601186E+00
         13   -1    0    0    0    0  0.00000000000E+00  0.00000000000E+00  0.14999999963E+04  0.15000000000E+04  0.10566000000E+00 0. -1.
        994   -1    0    0    0    0 -0.00000000000E+00 -0.00000000000E+00  0.11368683772E-12  0.17120000000E+03  0.17120000000E+03 0.  0.
         13    1    1    2    0    0 -0.29022463724E+02 -0.19435974563E+03  0.10982875477E+04  0.11157300582E+04  0.10566000000E+00 0. -1.
        994    1    1    2    0    0  0.53359129888E+02  0.14655426471E+03  0.10588102620E+03  0.25464795495E+03  0.17120000000E+03 0.  0.
        998    1    1    2    0    0 -0.24336666164E+02  0.47805480912E+02  0.29583142233E+03  0.30082198683E+03  0.10000000000E+02 0. -1.
</event>
<event>
 5    1  0.1800099E-008  0.3850691E+03  0.7957747E-01  0.3429379E+00
         13   -1    0    0    0    0  0.00000000000E+00  0.00000000000E+00  0.14999999963E+04  0.15000000000E+04  0.10566000000E+00 0. -1.
        994   -1    0    0    0    0 -0.00000000000E+00 -0.00000000000E+00  0.11368683772E-12  0.17120000000E+03  0.17120000000E+03 0.  0.
         13    1    1    2    0    0  0.19907648986E+01  0.16124812380E+02  0.74111628904E+02  0.75871716878E+02  0.10566000000E+00 0. -1.
        994    1    1    2    0    0  0.33637207799E+01 -0.27831811964E+02  0.41841404776E+01  0.17353060654E+03  0.17120000000E+03 0.  0.
        998    1    1    2    0    0 -0.53544856785E+01  0.11706999584E+02  0.14217042269E+04  0.14217976766E+04  0.10000000000E+02 0. -1.
</event>
<event>
 5    1  0.1800099E-008  0.3775161E+03  0.7957747E-01  0.3462046E+00
         13   -1    0    0    0    0  0.00000000000E+00  0.00000000000E+00  0.14999999963E+04  0.15000000000E+04  0.10566000000E+00 0.  1.
        994   -1    0    0    0    0 -0.00000000000E+00 -0.00000000000E+00  0.11368683772E-12  0.17120000000E+03  0.17120000000E+03 0.  0.
         13    1    1    2    0    0  0.21882751707E+02 -0.22160738622E+02  0.85384779431E+02  0.90887429720E+02  0.10566000000E+00 0.  1.
        994    1    1    2    0    0 -0.19164404558E+02  0.18032327127E+02  0.77297643862E+01  0.17338289558E+03  0.17120000000E+03 0.  0.
        998    1    1    2    0    0 -0.27183471492E+01  0.41284114954E+01  0.14068854525E+04  0.14069296747E+04  0.10000000000E+02 0.  1.
</event>
<event>
 5    1  0.1800099E-008  0.3834060E+03  0.7957747E-01  0.3436461E+00
         13   -1    0    0    0    0  0.00000000000E+00  0.00000000000E+00  0.14999999963E+04  0.15000000000E+04  0.10566000000E+00 0. -1.
        994   -1    0    0    0    0 -0.00000000000E+00 -0.00000000000E+00  0.11368683772E-12  0.17120000000E+03  0.17120000000E+03 0.  0.
         13    1    1    2    0    0 -0.42448954472E+01 -0.97041902941E+01  0.22247147142E+02  0.24640153543E+02  0.10566000000E+00 0. -1.
        994    1    1    2    0    0  0.13252465742E+02  0.30990760919E+01  0.30361720576E+01  0.17176696557E+03  0.17120000000E+03 0.  0.
        998    1    1    2    0    0 -0.90075702947E+01  0.66051142021E+01  0.14747166771E+04  0.14747928809E+04  0.10000000000E+02 0. -1.
</event>
<event>
 5    1  0.1800099E-008  0.3702069E+03  0.7957747E-01  0.3494940E+00
         13   -1    0    0    0    0  0.00000000000E+00  0.00000000000E+00  0.14999999963E+04  0.15000000000E+04  0.10566000000E+00 0.  1.
        994   -1    0    0    0    0 -0.00000000000E+00 -0.00000000000E+00  0.11368683772E-12  0.17120000000E+03  0.17120000000E+03 0.  0.
         13    1    1    2    0    0  0.48864833313E+01  0.42692775184E+02  0.77522812182E+02  0.88636044276E+02  0.10566000000E+00 0.  1.
        994    1    1    2    0    0 -0.10396835097E+02 -0.35298463045E+02  0.15800409994E+02  0.17582141118E+03  0.17120000000E+03 0.  0.
        998    1    1    2    0    0  0.55103517658E+01 -0.73943121391E+01  0.14066767741E+04  0.14067425445E+04  0.10000000000E+02 0.  1.
</event>
<event>
 5    1  0.3154750E-008  0.3859504E+03  0.7957747E-01  0.3425651E+00
         13   -1    0    0    0    0  0.00000000000E+00  0.00000000000E+00  0.14999999963E+04  0.15000000000E+04  0.10566000000E+00 0. -1.
        994   -1    0    0    0    0 -0.00000000000E+00 -0.00000000000E+00  0.11368683772E-12  0.17120000000E+03  0.17120000000E+03 0.  0.
         13    1    1    2    0    0 -0.10045792831E+02 -0.12756231741E+01  0.45389501906E+02  0.46505518118E+02  0.10566000000E+00 0. -1.
        994    1    1    2    0    0  0.43483889759E+01  0.82187188313E+00  0.12232070814E+01  0.17126155493E+03  0.17120000000E+03 0.  0.
        998    1    1    2    0    0  0.56974038553E+01  0.45375129096E+00  0.14533872873E+04  0.14534329270E+04  0.10000000000E+02 0. -1.
</event>
<event>
 5    1  0.1800099E-008  0.3748159E+03  0.7957747E-01  0.3474046E+00
         13   -1    0    0    0    0  0.00000000000E+00  0.00000000000E+00  0.14999999963E+04  0.15000000000E+04  0.10566000000E+00 0. -1.
        994   -1    0    0    0    0 -0.00000000000E+00 -0.00000000000E+00  0.11368683772E-12  0.17120000000E+03  0.17120000000E+03 0.  0.
         13    1    1    2    0    0 -0.66239161217E+02 -0.58887610900E+01  0.39930165498E+03  0.40480134241E+03  0.10566000000E+00 0. -1.
        994    1    1    2    0    0  0.15652217714E+02  0.12160213850E+01  0.76120454595E+01  0.17208676260E+03  0.17120000000E+03 0.  0.
        998    1    1    2    0    0  0.50586943503E+02  0.46727397050E+01  0.10930862958E+04  0.10943118950E+04  0.10000000000E+02 0. -1.
</event>
<event>
 5    1  0.1800099E-008  0.3851663E+03  0.7957747E-01  0.3428967E+00
         13   -1    0    0    0    0  0.00000000000E+00  0.00000000000E+00  0.14999999963E+04  0.15000000000E+04  0.10566000000E+00 0. -1.
        994   -1    0    0    0    0 -0.00000000000E+00 -0.00000000000E+00  0.11368683772E-12  0.17120000000E+03  0.17120000000E+03 0.  0.
         13    1    1    2    0    0  0.15151248202E+02  0.11089318956E+02  0.10785098235E+03  0.10947318792E+03  0.10566000000E+00 0. -1.
        994    1    1    2    0    0 -0.14692624453E+02 -0.11558860958E+02  0.26971147775E+01  0.17223877295E+03  0.17120000000E+03 0.  0.
        998    1    1    2    0    0 -0.45862374888E+00  0.46954200222E+00  0.13894518992E+04  0.13894880391E+04  0.10000000000E+02 0.  0.
</event>
<event>
 5    1  0.1800099E-008  0.3851923E+03  0.7957747E-01  0.3428857E+00
         13   -1    0    0    0    0  0.00000000000E+00  0.00000000000E+00  0.14999999963E+04  0.15000000000E+04  0.10566000000E+00 0. -1.
        994   -1    0    0    0    0 -0.00000000000E+00 -0.00000000000E+00  0.11368683772E-12  0.17120000000E+03  0.17120000000E+03 0.  0.
         13    1    1    2    0    0  0.10619635129E+02  0.39798659810E-01  0.35869635824E+02  0.37408824793E+02  0.10566000000E+00 0. -1.
        994    1    1    2    0    0 -0.11739483734E+02  0.67044900563E+01  0.21355959145E+01  0.17174622684E+03  0.17120000000E+03 0.  0.
        998    1    1    2    0    0  0.11198486057E+01 -0.67442887161E+01  0.14619947645E+04  0.14620449484E+04  0.10000000000E+02 0. -1.
</event>
<event>
 5    1  0.1800099E-008  0.3836166E+03  0.7957747E-01  0.3435561E+00
         13   -1    0    0    0    0  0.00000000000E+00  0.00000000000E+00  0.14999999963E+04  0.15000000000E+04  0.10566000000E+00 0.  1.
        994   -1    0    0    0    0 -0.00000000000E+00 -0.00000000000E+00  0.11368683772E-12  0.17120000000E+03  0.17120000000E+03 0.  0.
         13    1    1    2    0    0  0.14321726559E+02  0.84425324459E+01  0.61736986606E+02  0.63936334622E+02  0.10566000000E+00 0.  1.
        994    1    1    2    0    0 -0.22682378370E+00 -0.43331709072E+01  0.23807478324E+01  0.17127152647E+03  0.17120000000E+03 0.  0.
        998    1    1    2    0    0 -0.14094902775E+02 -0.41093615387E+01  0.14358822618E+04  0.14359921389E+04  0.10000000000E+02 0.  1.
</event>
<event>
 5    1  0.1800099E-008  0.3841884E+03  0.7957747E-01  0.3433122E+00
         13   -1    0    0    0    0  0.00000000000E+00  0.00000000000E+00  0.14999999963E+04  0.15000000000E+04  0.10566000000E+00 0.  1.
        994   -1    0    0    0    0 -0.00000000000E+00 -0.00000000000E+00  0.11368683772E-12  0.17120000000E+03  0.17120000000E+03 0.  0.
         13    1    1    2    0    0 -0.19638895363E+02  0.19644161262E+01  0.10418802357E+03  0.10604103244E+03  0.10566000000E+00 0.  1.
        994    1    1    2    0    0  0.97317043156E+00  0.44019098985E+01  0.21006325432E+01  0.17127222930E+03  0.17120000000E+03 0.  0.
        998    1    1    2    0    0  0.18665724932E+02 -0.63663260247E+01  0.13937113402E+04  0.13938867383E+04  0.10000000000E+02 0.  1.
</event>
<event>
 5    1  0.1800099E-008  0.3805186E+03  0.7957747E-01  0.3448903E+00
         13   -1    0    0    0    0  0.00000000000E+00  0.00000000000E+00  0.14999999963E+04  0.15000000000E+04  0.10566000000E+00 0.  1.
        994   -1    0    0    0    0 -0.00000000000E+00 -0.00000000000E+00  0.11368683772E-12  0.17120000000E+03  0.17120000000E+03 0.  0.
         13    1    1    2    0    0 -0.14707870088E+02 -0.26013368393E+01  0.26976027381E+02  0.30835136017E+02  0.10566000000E+00 0.  1.
        994    1    1    2    0    0  0.14378790416E+02 -0.17134961230E+01  0.45716500368E+01  0.17187212010E+03  0.17120000000E+03 0.  0.
        998    1    1    2    0    0  0.32907967168E+00  0.43148329623E+01  0.14684523189E+04  0.14684927439E+04  0.10000000000E+02 0.  1.
</event>
<event>
 5    1  0.1800099E-008  0.3825694E+03  0.7957747E-01  0.3440046E+00
         13   -1    0    0    0    0  0.00000000000E+00  0.00000000000E+00  0.14999999963E+04  0.15000000000E+04  0.10566000000E+00 0. -1.
        994   -1    0    0    0    0 -0.00000000000E+00 -0.00000000000E+00  0.11368683772E-12  0.17120000000E+03  0.17120000000E+03 0.  0.
         13    1    1    2    0    0  0.11309372120E+02 -0.16229877839E+02  0.73970841834E+02  0.76570277772E+02  0.10566000000E+00 0. -1.
        994    1    1    2    0    0 -0.14218127442E+02 -0.13537540113E+02  0.41203357818E+01  0.17237121949E+03  0.17120000000E+03 0.  0.
        998    1    1    2    0    0  0.29087553214E+01  0.29767417953E+02  0.14219088187E+04  0.14222585027E+04  0.10000000000E+02 0. -1.
</event>
<event>
 5    1  0.1800099E-008  0.3818632E+03  0.7957747E-01  0.3443086E+00
         13   -1    0    0    0    0  0.00000000000E+00  0.00000000000E+00  0.14999999963E+04  0.15000000000E+04  0.10566000000E+00 0. -1.
        994   -1    0    0    0    0 -0.00000000000E+00 -0.00000000000E+00  0.11368683772E-12  0.17120000000E+03  0.17120000000E+03 0.  0.
         13    1    1    2    0    0  0.18864269112E+02 -0.62065720545E+01  0.61921717500E+02  0.65028397243E+02  0.10566000000E+00 0. -1.
        994    1    1    2    0    0 -0.13310672913E+02 -0.13600400458E+02  0.43997163083E+01  0.17231059866E+03  0.17120000000E+03 0.  0.
        998    1    1    2    0    0 -0.55535961996E+01  0.19806972513E+02  0.14336785625E+04  0.14338610041E+04  0.10000000000E+02 0. -1.
</event>
<event>
 5    1  0.1800099E-008  0.3829166E+03  0.7957747E-01  0.3438556E+00
         13   -1    0    0    0    0  0.00000000000E+00  0.00000000000E+00  0.14999999963E+04  0.15000000000E+04  0.10566000000E+00 0.  1.
        994   -1    0    0    0    0 -0.00000000000E+00 -0.00000000000E+00  0.11368683772E-12  0.17120000000E+03  0.17120000000E+03 0.  0.
         13    1    1    2    0    0 -0.66392395634E+01 -0.11480666758E+02  0.32033313007E+02  0.34670297337E+02  0.10566000000E+00 0.  1.
        994    1    1    2    0    0  0.58056541461E+01  0.73711973372E+01  0.29595856956E+01  0.17148247525E+03  0.17120000000E+03 0.  0.
        998    1    1    2    0    0  0.83358541731E+00  0.41094694210E+01  0.14650070976E+04  0.14650472274E+04  0.10000000000E+02 0.  0.
</event>
<event>
 5    1  0.1800099E-008  0.3822176E+03  0.7957747E-01  0.3441559E+00
         13   -1    0    0    0    0  0.00000000000E+00  0.00000000000E+00  0.14999999963E+04  0.15000000000E+04  0.10566000000E+00 0.  1.
        994   -1    0    0    0    0 -0.00000000000E+00 -0.00000000000E+00  0.11368683772E-12  0.17120000000E+03  0.17120000000E+03 0.  0.
         13    1    1    2    0    0 -0.12105620133E+02 -0.12070223043E+02  0.46701296942E+02  0.49731867280E+02  0.10566000000E+00 0.  1.
        994    1    1    2    0    0  0.10378472617E+02  0.10682485179E+02  0.37544015272E+01  0.17188764852E+03  0.17120000000E+03 0.  0.
        998    1    1    2    0    0  0.17271475164E+01  0.13877378645E+01  0.14495442978E+04  0.14495804842E+04  0.10000000000E+02 0.  1.
</event>
<event>
 5    1  0.1800099E-008  0.3846808E+03  0.7957747E-01  0.3431027E+00
         13   -1    0    0    0    0  0.00000000000E+00  0.00000000000E+00  0.14999999963E+04  0.15000000000E+04  0.10566000000E+00 0. -1.
        994   -1    0    0    0    0 -0.00000000000E+00 -0.00000000000E+00  0.11368683772E-12  0.17120000000E+03  0.17120000000E+03 0.  0.
         13    1    1    2    0    0 -0.49138115730E+01  0.12828523108E+02  0.53164286720E+02  0.54910555413E+02  0.10566000000E+00 0. -1.
        994    1    1    2    0    0  0.10492785635E+02 -0.36305914445E+01  0.21946323064E+01  0.17157370473E+03  0.17120000000E+03 0.  0.
        998    1    1    2    0    0 -0.55789740624E+01 -0.91979316638E+01  0.14446410773E+04  0.14447157399E+04  0.10000000000E+02 0. -1.
</event>
<event>
 5    1  0.1800099E-008  0.3726975E+03  0.7957747E-01  0.3483585E+00
         13   -1    0    0    0    0  0.00000000000E+00  0.00000000000E+00  0.14999999963E+04  0.15000000000E+04  0.10566000000E+00 0. -1.
        994   -1    0    0    0    0 -0.00000000000E+00 -0.00000000000E+00  0.11368683772E-12  0.17120000000E+03  0.17120000000E+03 0.  0.
         13    1    1    2    0    0 -0.93992366960E+01 -0.10541698711E+02  0.90898802876E+01  0.16796134968E+02  0.10566000000E+00 0. -1.
        994    1    1    2    0    0  0.82631087037E+01  0.94794659344E+01  0.84078070891E+01  0.17186701388E+03  0.17120000000E+03 0.  0.
        998    1    1    2    0    0  0.11361279923E+01  0.10622327766E+01  0.14825023089E+04  0.14825368512E+04  0.10000000000E+02 0. -1.
</event>
<event>
 5    1  0.1800099E-008  0.3691596E+03  0.7957747E-01  0.3499762E+00
         13   -1    0    0    0    0  0.00000000000E+00  0.00000000000E+00  0.14999999963E+04  0.15000000000E+04  0.10566000000E+00 0.  1.
        994   -1    0    0    0    0 -0.00000000000E+00 -0.00000000000E+00  0.11368683772E-12  0.17120000000E+03  0.17120000000E+03 0.  0.
         13    1    1    2    0    0  0.12190312494E+02 -0.10652048664E+02  0.76090131891E+01  0.17887931831E+02  0.10566000000E+00 0.  1.
        994    1    1    2    0    0 -0.22529249731E+02  0.43852226149E+01  0.12333529963E+02  0.17317145617E+03  0.17120000000E+03 0.  0.
        998    1    1    2    0    0  0.10338937237E+02  0.62668260494E+01  0.14800574531E+04  0.14801406120E+04  0.10000000000E+02 0.  1.
</event>
<event>
 5    1  0.1800099E-008  0.3857932E+03  0.7957747E-01  0.3426315E+00
         13   -1    0    0    0    0  0.00000000000E+00  0.00000000000E+00  0.14999999963E+04  0.15000000000E+04  0.10566000000E+00 0.  1.
        994   -1    0    0    0    0 -0.00000000000E+00 -0.00000000000E+00  0.11368683772E-12  0.17120000000E+03  0.17120000000E+03 0.  0.
         13    1    1    2    0    0 -0.15556195834E+02  0.32791713568E+01  0.91708782380E+02  0.93076635754E+02  0.10566000000E+00 0.  1.
        994    1    1    2    0    0  0.24799493998E+02  0.68945082925E+00  0.32583649655E+01  0.17301892147E+03  0.17120000000E+03 0.  0.
        998    1    1    2    0    0 -0.92432981640E+01 -0.39686221860E+01  0.14050328489E+04  0.14051044428E+04  0.10000000000E+02 0.  1.
</event>
<event>
 5    1  0.1800099E-008  0.3774086E+03  0.7957747E-01  0.3462520E+00
         13   -1    0    0    0    0  0.00000000000E+00  0.00000000000E+00  0.14999999963E+04  0.15000000000E+04  0.10566000000E+00 0.  1.
        994   -1    0    0    0    0 -0.00000000000E+00 -0.00000000000E+00  0.11368683772E-12  0.17120000000E+03  0.17120000000E+03 0.  0.
         13    1    1    2    0    0 -0.97186469561E+01  0.64707401615E+01 -0.23420844461E+01  0.11908782494E+02  0.10566000000E+00 0.  1.
        994    1    1    2    0    0  0.11405154988E+02  0.26731351431E+01  0.15403842310E+02  0.17229028287E+03  0.17120000000E+03 0.  0.
        998    1    1    2    0    0 -0.16865080322E+01 -0.91438753046E+01  0.14869382384E+04  0.14870009346E+04  0.10000000000E+02 0.  1.
</event>
<event>
 5    1  0.1800099E-008  0.2927397E+03  0.7957747E-01  0.3949254E+00
         13   -1    0    0    0    0  0.00000000000E+00  0.00000000000E+00  0.14999999963E+04  0.15000000000E+04  0.10566000000E+00 0. -1.
        994   -1    0    0    0    0 -0.00000000000E+00 -0.00000000000E+00  0.11368683772E-12  0.17120000000E+03  0.17120000000E+03 0.  0.
         13    1    1    2    0    0 -0.13392601117E+03 -0.16172189385E+03  0.58250184323E+03  0.61919185714E+03  0.10566000000E+00 0. -1.
        994    1    1    2    0    0  0.10630325470E+03  0.14217080817E+03  0.16063522201E+03  0.29432301168E+03  0.17120000000E+03 0.  0.
        998    1    1    2    0    0  0.27622756475E+02  0.19551085682E+02  0.75686293104E+03  0.75768513118E+03  0.10000000000E+02 0. -1.
</event>
<event>
 5    1  0.1800099E-008  0.3808444E+03  0.7957747E-01  0.3447490E+00
         13   -1    0    0    0    0  0.00000000000E+00  0.00000000000E+00  0.14999999963E+04  0.15000000000E+04  0.10566000000E+00 0. -1.
        994   -1    0    0    0    0 -0.00000000000E+00 -0.00000000000E+00  0.11368683772E-12  0.17120000000E+03  0.17120000000E+03 0.  0.
         13    1    1    2    0    0  0.24007753807E+02  0.10492005612E+02  0.96036907241E+02  0.99546738475E+02  0.10566000000E+00 0. -1.
        994    1    1    2    0    0 -0.10885642208E+02  0.80637127199E+01  0.43195071443E+01  0.17178946071E+03  0.17120000000E+03 0.  0.
        998    1    1    2    0    0 -0.13122111600E+02 -0.18555718331E+02  0.13996435819E+04  0.13998638008E+04  0.10000000000E+02 0. -1.
</event>
<event>
 5    1  0.1800099E-008  0.3777251E+03  0.7957747E-01  0.3461124E+00
         13   -1    0    0    0    0  0.00000000000E+00  0.00000000000E+00  0.14999999963E+04  0.15000000000E+04  0.10566000000E+00 0.  1.
        994   -1    0    0    0    0 -0.00000000000E+00 -0.00000000000E+00  0.11368683772E-12  0.17120000000E+03  0.17120000000E+03 0.  0.
         13    1    1    2    0    0  0.20909828761E+02 -0.63508085983E+01  0.41196586955E+02  0.46633932382E+02  0.10566000000E+00 0.  1.
        994    1    1    2    0    0 -0.29391066907E+02  0.17157551827E+01  0.82109916010E+01  0.17390698380E+03  0.17120000000E+03 0.  0.
        998    1    1    2    0    0  0.84812381457E+01  0.46350534155E+01  0.14505924177E+04  0.14506590838E+04  0.10000000000E+02 0.  1.
</event>
<event>
 5    1  0.1800099E-008  0.4041253E+03  0.7957747E-01  0.3352400E+00
         13   -1    0    0    0    0  0.00000000000E+00  0.00000000000E+00  0.14999999963E+04  0.15000000000E+04  0.10566000000E+00 0. -1.
        994   -1    0    0    0    0 -0.00000000000E+00 -0.00000000000E+00  0.11368683772E-12  0.17120000000E+03  0.17120000000E+03 0.  0.
         13    1    1    2    0    0 -0.14218966492E+02 -0.15080789973E+03  0.29209834660E+03  0.32903898991E+03  0.10566000000E+00 0. -1.
        994    1    1    2    0    0 -0.32332554860E+02  0.14980922268E+03  0.13157686351E+03  0.26478313450E+03  0.17120000000E+03 0.  0.
        998    1    1    2    0    0  0.46551521353E+02  0.99867705775E+00  0.10763247862E+04  0.10773778756E+04  0.10000000000E+02 0. -1.
</event>
<event>
 5    1  0.1800099E-008  0.3848053E+03  0.7957747E-01  0.3430498E+00
         13   -1    0    0    0    0  0.00000000000E+00  0.00000000000E+00  0.14999999963E+04  0.15000000000E+04  0.10566000000E+00 0.  1.
        994   -1    0    0    0    0 -0.00000000000E+00 -0.00000000000E+00  0.11368683772E-12  0.17120000000E+03  0.17120000000E+03 0.  0.
         13    1    1    2    0    0  0.14611949062E+02  0.53232179547E+01  0.76334865782E+02  0.77902943480E+02  0.10566000000E+00 0.  1.
        994    1    1    2    0    0  0.15906700522E+01  0.35432617223E+01  0.17764548045E+01  0.17125326486E+03  0.17120000000E+03 0.  0.
        998    1    1    2    0    0 -0.16202619114E+02 -0.88664796770E+01  0.14218886757E+04  0.14220437917E+04  0.10000000000E+02 0.  1.
</event>
<event>
 5    1  0.1800099E-008  0.3705581E+03  0.7957747E-01  0.3493330E+00
         13   -1    0    0    0    0  0.00000000000E+00  0.00000000000E+00  0.14999999963E+04  0.15000000000E+04  0.10566000000E+00 0.  1.
        994   -1    0    0    0    0 -0.00000000000E+00 -0.00000000000E+00  0.11368683772E-12  0.17120000000E+03  0.17120000000E+03 0.  0.
         13    1    1    2    0    0  0.37042883302E+00 -0.21606944430E+02  0.15661583521E+02  0.26688829640E+02  0.10566000000E+00 0.  1.
        994    1    1    2    0    0 -0.21832174343E+01  0.23331824257E+02  0.13160122892E+02  0.17329676655E+03  0.17120000000E+03 0.  0.
        998    1    1    2    0    0  0.18127886013E+01 -0.17248798267E+01  0.14711782899E+04  0.14712144038E+04  0.10000000000E+02 0.  1.
</event>
<event>
 5    1  0.1800099E-008  0.3783346E+03  0.7957747E-01  0.3458442E+00
         13   -1    0    0    0    0  0.00000000000E+00  0.00000000000E+00  0.14999999963E+04  0.15000000000E+04  0.10566000000E+00 0.  1.
        994   -1    0    0    0    0 -0.00000000000E+00 -0.00000000000E+00  0.11368683772E-12  0.17120000000E+03  0.17120000000E+03 0.  0.
         13    1    1    2    0    0 -0.17194546887E+02  0.33985953805E+02  0.14176526526E+03  0.14679270792E+03  0.10566000000E+00 0.  1.
        994    1    1    2    0    0  0.32280506187E+02 -0.12592013280E+02  0.90224991198E+01  0.17490407476E+03  0.17120000000E+03 0.  0.
        998    1    1    2    0    0 -0.15085959300E+02 -0.21393940525E+02  0.13492122319E+04  0.13495032173E+04  0.10000000000E+02 0.  1.
</event>
<event>
 5    1  0.1800099E-008  0.2883924E+03  0.7957747E-01  0.3982538E+00
         13   -1    0    0    0    0  0.00000000000E+00  0.00000000000E+00  0.14999999963E+04  0.15000000000E+04  0.10566000000E+00 0. -1.
        994   -1    0    0    0    0 -0.00000000000E+00 -0.00000000000E+00  0.11368683772E-12  0.17120000000E+03  0.17120000000E+03 0.  0.
         13    1    1    2    0    0  0.83536326362E+02  0.16657666948E+03  0.57550618170E+03  0.60492435972E+03  0.10566000000E+00 0. -1.
        994    1    1    2    0    0 -0.97379783824E+02 -0.13972763653E+03  0.13601943414E+03  0.27715945081E+03  0.17120000000E+03 0.  0.
        998    1    1    2    0    0  0.13843457461E+02 -0.26849032951E+02  0.78847438044E+03  0.78911618947E+03  0.10000000000E+02 0. -1.
</event>
<event>
 5    1  0.1800099E-008  0.3694632E+03  0.7957747E-01  0.3498362E+00
         13   -1    0    0    0    0  0.00000000000E+00  0.00000000000E+00  0.14999999963E+04  0.15000000000E+04  0.10566000000E+00 0. -1.
        994   -1    0    0    0    0 -0.00000000000E+00 -0.00000000000E+00  0.11368683772E-12  0.17120000000E+03  0.17120000000E+03 0.  0.
         13    1    1    2    0    0  0.18635703235E+02  0.22627304208E+02  0.35309324329E+02  0.45891653701E+02  0.10566000000E+00 0. -1.
        994    1    1    2    0    0 -0.33503339625E+02 -0.91059989952E+01  0.14873058702E+02  0.17531697254E+03  0.17120000000E+03 0.  0.
        998    1    1    2    0    0  0.14867636390E+02 -0.13521305213E+02  0.14498176132E+04  0.14499913738E+04  0.10000000000E+02 0. -1.
</event>
<event>
 5    1  0.1800099E-008  0.3693253E+03  0.7957747E-01  0.3498997E+00
         13   -1    0    0    0    0  0.00000000000E+00  0.00000000000E+00  0.14999999963E+04  0.15000000000E+04  0.10566000000E+00 0.  1.
        994   -1    0    0    0    0 -0.00000000000E+00 -0.00000000000E+00  0.11368683772E-12  0.17120000000E+03  0.17120000000E+03 0.  0.
         13    1    1    2    0    0 -0.14178614740E+02 -0.12737270148E+03  0.71110535687E+03  0.72256188519E+03  0.10566000000E+00 0.  1.
        994    1    1    2    0    0  0.62741708038E+02  0.92750031443E+02  0.54427853787E+02  0.21168590300E+03  0.17120000000E+03 0.  0.
        998    1    1    2    0    0 -0.48563093298E+02  0.34622670034E+02  0.73446678562E+03  0.73695221181E+03  0.10000000000E+02 0.  1.
</event>
<event>
 5    1  0.1800099E-008  0.3809035E+03  0.7957747E-01  0.3447234E+00
         13   -1    0    0    0    0  0.00000000000E+00  0.00000000000E+00  0.14999999963E+04  0.15000000000E+04  0.10566000000E+00 0. -1.
        994   -1    0    0    0    0 -0.00000000000E+00 -0.00000000000E+00  0.11368683772E-12  0.17120000000E+03  0.17120000000E+03 0.  0.
         13    1    1    2    0    0  0.20083642498E+02  0.73737682837E+01  0.63964369675E+02  0.67447586367E+02  0.10566000000E+00 0. -1.
        994    1    1    2    0    0 -0.34094597966E+01  0.15702082503E+01  0.37247437703E+01  0.17128165017E+03  0.17120000000E+03 0.  0.
        998    1    1    2    0    0 -0.16674182701E+02 -0.89439765340E+01  0.14323108828E+04  0.14324707635E+04  0.10000000000E+02 0. -1.
</event>
<event>
 5    1  0.1800099E-008  0.3710404E+03  0.7957747E-01  0.3491123E+00
         13   -1    0    0    0    0  0.00000000000E+00  0.00000000000E+00  0.14999999963E+04  0.15000000000E+04  0.10566000000E+00 0.  1.
        994   -1    0    0    0    0 -0.00000000000E+00 -0.00000000000E+00  0.11368683772E-12  0.17120000000E+03  0.17120000000E+03 0.  0.
         13    1    1    2    0    0  0.27875901375E+02  0.18556221823E+02  0.60654947886E+02  0.69285157955E+02  0.10566000000E+00 0.  1.
        994    1    1    2    0    0 -0.23702393392E+02 -0.68573976076E+01  0.10826690777E+02  0.17330748567E+03  0.17120000000E+03 0.  0.
        998    1    1    2    0    0 -0.41735079826E+01 -0.11698824215E+02  0.14285183576E+04  0.14286073564E+04  0.10000000000E+02 0.  1.
</event>
<event>
 5    1  0.1800099E-008  0.3857745E+03  0.7957747E-01  0.3426394E+00
         13   -1    0    0    0    0  0.00000000000E+00  0.00000000000E+00  0.14999999963E+04  0.15000000000E+04  0.10566000000E+00 0. -1.
        994   -1    0    0    0    0 -0.00000000000E+00 -0.00000000000E+00  0.11368683772E-12  0.17120000000E+03  0.17120000000E+03 0.  0.
         13    1    1    2    0    0 -0.19385064471E+01 -0.12929925070E+02  0.69498174283E+02  0.70717382321E+02  0.10566000000E+00 0. -1.
        994    1    1    2    0    0 -0.20261529672E+01  0.84239513026E+01  0.14923942854E+01  0.17142559754E+03  0.17120000000E+03 0.  0.
        998    1    1    2    0    0  0.39646594142E+01  0.45059737676E+01  0.14290094277E+04  0.14290570201E+04  0.10000000000E+02 0.  0.
</event>
<event>
 5    1  0.1800099E-008  0.3818928E+03  0.7957747E-01  0.3442958E+00
         13   -1    0    0    0    0  0.00000000000E+00  0.00000000000E+00  0.14999999963E+04  0.15000000000E+04  0.10566000000E+00 0. -1.
        994   -1    0    0    0    0 -0.00000000000E+00 -0.00000000000E+00  0.11368683772E-12  0.17120000000E+03  0.17120000000E+03 0.  0.
         13    1    1    2    0    0 -0.21996111722E+02  0.19223552188E+02  0.12643396684E+03  0.12976491446E+03  0.10566000000E+00 0. -1.
        994    1    1    2    0    0  0.20602784453E+02 -0.15166857876E+02  0.53580942340E+01  0.17318388343E+03  0.17120000000E+03 0.  0.
        998    1    1    2    0    0  0.13933272692E+01 -0.40566943121E+01  0.13682079352E+04  0.13682512021E+04  0.10000000000E+02 0. -1.
</event>
<event>
 5    1  0.1800099E-008  0.3770505E+03  0.7957747E-01  0.3464103E+00
         13   -1    0    0    0    0  0.00000000000E+00  0.00000000000E+00  0.14999999963E+04  0.15000000000E+04  0.10566000000E+00 0.  1.
        994   -1    0    0    0    0 -0.00000000000E+00 -0.00000000000E+00  0.11368683772E-12  0.17120000000E+03  0.17120000000E+03 0.  0.
         13    1    1    2    0    0  0.19328408142E+02 -0.17177177193E+02  0.56143408700E+02  0.61812104657E+02  0.10566000000E+00 0.  1.
        994    1    1    2    0    0 -0.19613337522E+02  0.11399172553E+02  0.73687338807E+01  0.17285358655E+03  0.17120000000E+03 0.  0.
        998    1    1    2    0    0  0.28492938031E+00  0.57780046400E+01  0.14364878537E+04  0.14365343088E+04  0.10000000000E+02 0.  1.
</event>
<event>
 5    1  0.1800099E-008  0.3838835E+03  0.7957747E-01  0.3434421E+00
         13   -1    0    0    0    0  0.00000000000E+00  0.00000000000E+00  0.14999999963E+04  0.15000000000E+04  0.10566000000E+00 0. -1.
        994   -1    0    0    0    0 -0.00000000000E+00 -0.00000000000E+00  0.11368683772E-12  0.17120000000E+03  0.17120000000E+03 0.  0.
         13    1    1    2    0    0  0.19049170666E+02  0.13791748956E+02  0.11642280974E+03  0.11877442921E+03  0.10566000000E+00 0. -1.
        994    1    1    2    0    0 -0.19035020755E+02 -0.16949055097E+02  0.43325014645E+01  0.17314102071E+03  0.17120000000E+03 0.  0.
        998    1    1    2    0    0 -0.14149911200E-01  0.31573061414E+01  0.13792446851E+04  0.13792845501E+04  0.10000000000E+02 0. -1.
</event>
<event>
 5    1  0.1800099E-008  0.3732127E+03  0.7957747E-01  0.3481255E+00
         13   -1    0    0    0    0  0.00000000000E+00  0.00000000000E+00  0.14999999963E+04  0.15000000000E+04  0.10566000000E+00 0. -1.
        994   -1    0    0    0    0 -0.00000000000E+00 -0.00000000000E+00  0.11368683772E-12  0.17120000000E+03  0.17120000000E+03 0.  0.
         13    1    1    2    0    0  0.19492268747E+02  0.10288927888E+02  0.28692199014E+02  0.36180989847E+02  0.10566000000E+00 0. -1.
        994    1    1    2    0    0 -0.16000285513E+02 -0.60334026917E+01  0.86000149774E+01  0.17226668669E+03  0.17120000000E+03 0.  0.
        998    1    1    2    0    0 -0.34919832341E+01 -0.42555251966E+01  0.14627077823E+04  0.14627523235E+04  0.10000000000E+02 0. -1.
</event>
<event>
 5    1  0.1800099E-008  0.3829799E+03  0.7957747E-01  0.3438285E+00
         13   -1    0    0    0    0  0.00000000000E+00  0.00000000000E+00  0.14999999963E+04  0.15000000000E+04  0.10566000000E+00 0.  1.
        994   -1    0    0    0    0 -0.00000000000E+00 -0.00000000000E+00  0.11368683772E-12  0.17120000000E+03  0.17120000000E+03 0.  0.
         13    1    1    2    0    0 -0.27640895106E+02 -0.16785834430E+02  0.18119146963E+03  0.18405472868E+03  0.10566000000E+00 0.  1.
        994    1    1    2    0    0  0.24857447969E+02  0.15263218530E+02  0.54581129257E+01  0.17375295553E+03  0.17120000000E+03 0.  0.
        998    1    1    2    0    0  0.27834471372E+01  0.15226158998E+01  0.13133504137E+04  0.13133923158E+04  0.10000000000E+02 0.  1.
</event>
<event>
 5    1  0.1800099E-008  0.3841978E+03  0.7957747E-01  0.3433082E+00
         13   -1    0    0    0    0  0.00000000000E+00  0.00000000000E+00  0.14999999963E+04  0.15000000000E+04  0.10566000000E+00 0. -1.
        994   -1    0    0    0    0 -0.00000000000E+00 -0.00000000000E+00  0.11368683772E-12  0.17120000000E+03  0.17120000000E+03 0.  0.
         13    1    1    2    0    0 -0.17921646172E+02 -0.23272698817E+01  0.76806923035E+02  0.78904475011E+02  0.10566000000E+00 0. -1.
        994    1    1    2    0    0  0.16702183998E+02  0.17133212577E+02  0.39189047147E+01  0.17290837961E+03  0.17120000000E+03 0.  0.
        998    1    1    2    0    0  0.12194621739E+01 -0.14805942696E+02  0.14192741685E+04  0.14193871454E+04  0.10000000000E+02 0. -1.
</event>
<event>
 5    1  0.1800099E-008  0.3810076E+03  0.7957747E-01  0.3446783E+00
         13   -1    0    0    0    0  0.00000000000E+00  0.00000000000E+00  0.14999999963E+04  0.15000000000E+04  0.10566000000E+00 0. -1.
        994   -1    0    0    0    0 -0.00000000000E+00 -0.00000000000E+00  0.11368683772E-12  0.17120000000E+03  0.17120000000E+03 0.  0.
         13    1    1    2    0    0  0.25217251064E+02 -0.33146482323E+01  0.90661131770E+02  0.94161290465E+02  0.10566000000E+00 0. -1.
        994    1    1    2    0    0 -0.99600666812E+01  0.66453857583E+00  0.39574718950E+01  0.17153642798E+03  0.17120000000E+03 0.  0.
        998    1    1    2    0    0 -0.15257184383E+02  0.26501096565E+01  0.14053813926E+04  0.14055022816E+04  0.10000000000E+02 0. -1.
</event>
<event>
 5    1  0.1800099E-008  0.3823656E+03  0.7957747E-01  0.3440922E+00
         13   -1    0    0    0    0  0.00000000000E+00  0.00000000000E+00  0.14999999963E+04  0.15000000000E+04  0.10566000000E+00 0. -1.
        994   -1    0    0    0    0 -0.00000000000E+00 -0.00000000000E+00  0.11368683772E-12  0.17120000000E+03  0.17120000000E+03 0.  0.
         13    1    1    2    0    0  0.13183234090E+02  0.30038347024E+01  0.31607834799E+02  0.34378584449E+02  0.10566000000E+00 0. -1.
        994    1    1    2    0    0  0.44433563848E+01  0.54301876388E+01  0.31070397643E+01  0.17137188816E+03  0.17120000000E+03 0.  0.
        998    1    1    2    0    0 -0.17626590475E+02 -0.84340223412E+01  0.14652851217E+04  0.14654495274E+04  0.10000000000E+02 0. -1.
</event>
<event>
 5    1  0.1800099E-008  0.3843634E+03  0.7957747E-01  0.3432376E+00
         13   -1    0    0    0    0  0.00000000000E+00  0.00000000000E+00  0.14999999963E+04  0.15000000000E+04  0.10566000000E+00 0. -1.
        994   -1    0    0    0    0 -0.00000000000E+00 -0.00000000000E+00  0.11368683772E-12  0.17120000000E+03  0.17120000000E+03 0.  0.
         13    1    1    2    0    0  0.15376798941E+02 -0.18569038242E+02  0.13807691028E+03  0.14016597106E+03  0.10566000000E+00 0. -1.
        994    1    1    2    0    0 -0.27183568890E+02  0.88659682617E+01  0.46453651599E+01  0.17363343926E+03  0.17120000000E+03 0.  0.
        998    1    1    2    0    0  0.11806769949E+02  0.97030699805E+01  0.13572777208E+04  0.13574005897E+04  0.10000000000E+02 0. -1.
</event>
<event>
 5    1  0.1800099E-008  0.3852876E+03  0.7957747E-01  0.3428453E+00
         13   -1    0    0    0    0  0.00000000000E+00  0.00000000000E+00  0.14999999963E+04  0.15000000000E+04  0.10566000000E+00 0.  1.
        994   -1    0    0    0    0 -0.00000000000E+00 -0.00000000000E+00  0.11368683772E-12  0.17120000000E+03  0.17120000000E+03 0.  0.
         13    1    1    2    0    0  0.11098148110E+02  0.10997648431E+01  0.41568766533E+02  0.43038957809E+02  0.10566000000E+00 0.  1.
        994    1    1    2    0    0 -0.11957794763E+02  0.25819110958E+02  0.41520144167E+01  0.17359808343E+03  0.17120000000E+03 0.  0.
        998    1    1    2    0    0  0.85964665298E+00 -0.26918875801E+02  0.14542792153E+04  0.14545629588E+04  0.10000000000E+02 0.  1.
</event>
<event>
 5    1  0.1800099E-008  0.3850875E+03  0.7957747E-01  0.3429301E+00
         13   -1    0    0    0    0  0.00000000000E+00  0.00000000000E+00  0.14999999963E+04  0.15000000000E+04  0.10566000000E+00 0. -1.
        994   -1    0    0    0    0 -0.00000000000E+00 -0.00000000000E+00  0.11368683772E-12  0.17120000000E+03  0.17120000000E+03 0.  0.
         13    1    1    2    0    0 -0.12518893497E+02 -0.49391642349E+01  0.55106825714E+02  0.56726461568E+02  0.10566000000E+00 0. -1.
        994    1    1    2    0    0  0.12892376624E+02  0.82044689430E+01  0.23548429059E+01  0.17189680617E+03  0.17120000000E+03 0.  0.
        998    1    1    2    0    0 -0.37348312754E+00 -0.32653047081E+01  0.14425383277E+04  0.14425767323E+04  0.10000000000E+02 0. -1.
</event>
<event>
 5    1  0.1800099E-008  0.3822089E+03  0.7957747E-01  0.3441596E+00
         13   -1    0    0    0    0  0.00000000000E+00  0.00000000000E+00  0.14999999963E+04  0.15000000000E+04  0.10566000000E+00 0. -1.
        994   -1    0    0    0    0 -0.00000000000E+00 -0.00000000000E+00  0.11368683772E-12  0.17120000000E+03  0.17120000000E+03 0.  0.
         13    1    1    2    0    0 -0.26400120505E+02 -0.13319621856E+02  0.17573674969E+03  0.17820716889E+03  0.10566000000E+00 0. -1.
        994    1    1    2    0    0 -0.50222749967E+01 -0.53577674835E+01  0.32012154265E+01  0.17138732946E+03  0.17120000000E+03 0.  0.
        998    1    1    2    0    0  0.31422395502E+02  0.18677389339E+02  0.13210620312E+04  0.13216055017E+04  0.10000000000E+02 0. -1.
</event>
<event>
 5    1  0.1800099E-008  0.3860844E+03  0.7957747E-01  0.3425086E+00
         13   -1    0    0    0    0  0.00000000000E+00  0.00000000000E+00  0.14999999963E+04  0.15000000000E+04  0.10566000000E+00 0.  1.
        994   -1    0    0    0    0 -0.00000000000E+00 -0.00000000000E+00  0.11368683772E-12  0.17120000000E+03  0.17120000000E+03 0.  0.
         13    1    1    2    0    0 -0.76030936441E+01  0.79999553554E+01  0.55990343559E+02  0.57067819780E+02  0.10566000000E+00 0.  1.
        994    1    1    2    0    0  0.81930915480E+01 -0.41204564461E+01  0.13683858600E+01  0.17145091831E+03  0.17120000000E+03 0.  0.
        998    1    1    2    0    0 -0.58999790393E+00 -0.38794989092E+01  0.14426412669E+04  0.14426812619E+04  0.10000000000E+02 0.  1.
</event>
<event>
 5    1  0.1800099E-008  0.3720784E+03  0.7957747E-01  0.3486393E+00
         13   -1    0    0    0    0  0.00000000000E+00  0.00000000000E+00  0.14999999963E+04  0.15000000000E+04  0.10566000000E+00 0. -1.
        994   -1    0    0    0    0 -0.00000000000E+00 -0.00000000000E+00  0.11368683772E-12  0.17120000000E+03  0.17120000000E+03 0.  0.
         13    1    1    2    0    0  0.50457573634E+01  0.90585139274E+02  0.45119000831E+03  0.46022120973E+03  0.10566000000E+00 0. -1.
        994    1    1    2    0    0 -0.63238383810E+02 -0.66891016122E+02  0.37862857010E+02  0.19803165698E+03  0.17120000000E+03 0.  0.
        998    1    1    2    0    0  0.58192626447E+02 -0.23694123151E+02  0.10109471310E+04  0.10129471333E+04  0.10000000000E+02 0. -1.
</event>
<event>
 5    1  0.1800099E-008  0.3766062E+03  0.7957747E-01  0.3466070E+00
         13   -1    0    0    0    0  0.00000000000E+00  0.00000000000E+00  0.14999999963E+04  0.15000000000E+04  0.10566000000E+00 0. -1.
        994   -1    0    0    0    0 -0.00000000000E+00 -0.00000000000E+00  0.11368683772E-12  0.17120000000E+03  0.17120000000E+03 0.  0.
         13    1    1    2    0    0 -0.10074889232E+03 -0.75427622774E+01  0.43062817908E+03  0.44232100600E+03  0.10566000000E+00 0. -1.
        994    1    1    2    0    0  0.13372369131E+03  0.41842998298E+02  0.75409446602E+02  0.23372823270E+03  0.17120000000E+03 0.  0.
        998    1    1    2    0    0 -0.32974798984E+02 -0.34300236020E+02  0.99396237059E+03  0.99515076130E+03  0.10000000000E+02 0. -1.
</event>
<event>
 5    1  0.1800099E-008  0.3810073E+03  0.7957747E-01  0.3446784E+00
         13   -1    0    0    0    0  0.00000000000E+00  0.00000000000E+00  0.14999999963E+04  0.15000000000E+04  0.10566000000E+00 0.  1.
        994   -1    0    0    0    0 -0.00000000000E+00 -0.00000000000E+00  0.11368683772E-12  0.17120000000E+03  0.17120000000E+03 0.  0.
         13    1    1    2    0    0 -0.47624499976E+02  0.72806182719E+01  0.26599756527E+03  0.27032538966E+03  0.10566000000E+00 0.  1.
        994    1    1    2    0    0  0.47758726443E+02 -0.36509064362E+01  0.11307557834E+02  0.17813344979E+03  0.17120000000E+03 0.  0.
        998    1    1    2    0    0 -0.13422646693E+00 -0.36297118357E+01  0.12226948732E+04  0.12227411605E+04  0.10000000000E+02 0.  1.
</event>
<event>
 5    1  0.1800099E-008  0.3796513E+03  0.7957747E-01  0.3452678E+00
         13   -1    0    0    0    0  0.00000000000E+00  0.00000000000E+00  0.14999999963E+04  0.15000000000E+04  0.10566000000E+00 0.  1.
        994   -1    0    0    0    0 -0.00000000000E+00 -0.00000000000E+00  0.11368683772E-12  0.17120000000E+03  0.17120000000E+03 0.  0.
         13    1    1    2    0    0 -0.35723038579E+02 -0.33700407971E+02  0.28844362354E+03  0.29259457976E+03  0.10566000000E+00 0.  1.
        994    1    1    2    0    0  0.55175563746E+02 -0.16390155379E+02  0.15477911146E+02  0.18127875154E+03  0.17120000000E+03 0.  0.
        998    1    1    2    0    0 -0.19452525167E+02  0.50090563350E+02  0.11960784616E+04  0.11973266687E+04  0.10000000000E+02 0.  1.
</event>
<event>
 5    1  0.1800099E-008  0.3764272E+03  0.7957747E-01  0.3466865E+00
         13   -1    0    0    0    0  0.00000000000E+00  0.00000000000E+00  0.14999999963E+04  0.15000000000E+04  0.10566000000E+00 0.  1.
        994   -1    0    0    0    0 -0.00000000000E+00 -0.00000000000E+00  0.11368683772E-12  0.17120000000E+03  0.17120000000E+03 0.  0.
         13    1    1    2    0    0  0.31240403833E+02 -0.29080517850E+02  0.17066275520E+03  0.17591880663E+03  0.10566000000E+00 0.  1.
        994    1    1    2    0    0 -0.15115866534E+02 -0.95053375958E+01  0.70270205384E+01  0.17227205195E+03  0.17120000000E+03 0.  0.
        998    1    1    2    0    0 -0.16124537300E+02  0.38585855446E+02  0.13223102205E+04  0.13230091414E+04  0.10000000000E+02 0.  1.
</event>
<event>
 5    1  0.1800099E-008  0.3807276E+03  0.7957747E-01  0.3447996E+00
         13   -1    0    0    0    0  0.00000000000E+00  0.00000000000E+00  0.14999999963E+04  0.15000000000E+04  0.10566000000E+00 0.  1.
        994   -1    0    0    0    0 -0.00000000000E+00 -0.00000000000E+00  0.11368683772E-12  0.17120000000E+03  0.17120000000E+03 0.  0.
         13    1    1    2    0    0  0.21727101665E+02 -0.30397848208E+02  0.21072937780E+03  0.21401630301E+03  0.10566000000E+00 0.  1.
        994    1    1    2    0    0 -0.14047683766E+01  0.51384861626E+01  0.38609411385E+01  0.17132636773E+03  0.17120000000E+03 0.  0.
        998    1    1    2    0    0 -0.20322333288E+02  0.25259362046E+02  0.12854096773E+04  0.12858573293E+04  0.10000000000E+02 0.  1.
</event>
<event>
 5    1  0.1800099E-008  0.3862533E+03  0.7957747E-01  0.3424374E+00
         13   -1    0    0    0    0  0.00000000000E+00  0.00000000000E+00  0.14999999963E+04  0.15000000000E+04  0.10566000000E+00 0. -1.
        994   -1    0    0    0    0 -0.00000000000E+00 -0.00000000000E+00  0.11368683772E-12  0.17120000000E+03  0.17120000000E+03 0.  0.
         13    1    1    2    0    0 -0.55393397525E+02 -0.86090464045E+02  0.13063107153E+03  0.16596531114E+03  0.10566000000E+00 0. -1.
        994    1    1    2    0    0  0.25052177221E+03  0.86109971249E+02  0.36661922148E+03  0.48362710745E+03  0.17120000000E+03 0.  0.
        998    1    1    2    0    0 -0.19512837469E+03 -0.19507204175E-01  0.10027497033E+04  0.10216075814E+04  0.10000000000E+02 0. -1.
</event>
<event>
 5    1  0.1800099E-008  0.3805008E+03  0.7957747E-01  0.3448981E+00
         13   -1    0    0    0    0  0.00000000000E+00  0.00000000000E+00  0.14999999963E+04  0.15000000000E+04  0.10566000000E+00 0.  1.
        994   -1    0    0    0    0 -0.00000000000E+00 -0.00000000000E+00  0.11368683772E-12  0.17120000000E+03  0.17120000000E+03 0.  0.
         13    1    1    2    0    0  0.15579048886E+02  0.77483711694E-01  0.29310743019E+02  0.33194029407E+02  0.10566000000E+00 0.  1.
        994    1    1    2    0    0 -0.15371249534E+02  0.45617193776E+00  0.46702094687E+01  0.17195270938E+03  0.17120000000E+03 0.  0.
        998    1    1    2    0    0 -0.20779935136E+00 -0.53365564946E+00  0.14660190438E+04  0.14660532612E+04  0.10000000000E+02 0.  1.
</event>
<event>
 5    1  0.1800099E-008  0.3826730E+03  0.7957747E-01  0.3439602E+00
         13   -1    0    0    0    0  0.00000000000E+00  0.00000000000E+00  0.14999999963E+04  0.15000000000E+04  0.10566000000E+00 0. -1.
        994   -1    0    0    0    0 -0.00000000000E+00 -0.00000000000E+00  0.11368683772E-12  0.17120000000E+03  0.17120000000E+03 0.  0.
         13    1    1    2    0    0  0.63210185532E-02 -0.17584702696E+02  0.53155040628E+02  0.55988314111E+02  0.10566000000E+00 0. -1.
        994    1    1    2    0    0 -0.59871204419E+00  0.17227360698E+02  0.37751198298E+01  0.17210703630E+03  0.17120000000E+03 0.  0.
        998    1    1    2    0    0  0.59239102564E+00  0.35734199837E+00  0.14430698358E+04  0.14431046496E+04  0.10000000000E+02 0. -1.
</event>
<event>
 5    1  0.1800099E-008  0.3835949E+03  0.7957747E-01  0.3435653E+00
         13   -1    0    0    0    0  0.00000000000E+00  0.00000000000E+00  0.14999999963E+04  0.15000000000E+04  0.10566000000E+00 0.  1.
        994   -1    0    0    0    0 -0.00000000000E+00 -0.00000000000E+00  0.11368683772E-12  0.17120000000E+03  0.17120000000E+03 0.  0.
         13    1    1    2    0    0  0.97237864786E+01  0.93036394900E+01  0.37374107922E+02  0.39723353814E+02  0.10566000000E+00 0.  1.
        994    1    1    2    0    0 -0.83156785536E+01 -0.12156284166E+02  0.30463434505E+01  0.17185937846E+03  0.17120000000E+03 0.  0.
        998    1    1    2    0    0 -0.14081079249E+01  0.28526446759E+01  0.14595795449E+04  0.14596172677E+04  0.10000000000E+02 0.  1.
</event>
<event>
 5    1  0.1800099E-008  0.3834968E+03  0.7957747E-01  0.3436072E+00
         13   -1    0    0    0    0  0.00000000000E+00  0.00000000000E+00  0.14999999963E+04  0.15000000000E+04  0.10566000000E+00 0. -1.
        994   -1    0    0    0    0 -0.00000000000E+00 -0.00000000000E+00  0.11368683772E-12  0.17120000000E+03  0.17120000000E+03 0.  0.
         13    1    1    2    0    0 -0.90125024888E+01 -0.27462592531E+02  0.16803469624E+03  0.17050246184E+03  0.10566000000E+00 0. -1.
        994    1    1    2    0    0 -0.12821122608E+02  0.28094763507E+02  0.55363947300E+01  0.17405110913E+03  0.17120000000E+03 0.  0.
        998    1    1    2    0    0  0.21833625096E+02 -0.63217097681E+00  0.13264289053E+04  0.13266464290E+04  0.10000000000E+02 0. -1.
</event>
<event>
 5    1  0.1800099E-008  0.3756363E+03  0.7957747E-01  0.3470382E+00
         13   -1    0    0    0    0  0.00000000000E+00  0.00000000000E+00  0.14999999963E+04  0.15000000000E+04  0.10566000000E+00 0.  1.
        994   -1    0    0    0    0 -0.00000000000E+00 -0.00000000000E+00  0.11368683772E-12  0.17120000000E+03  0.17120000000E+03 0.  0.
         13    1    1    2    0    0  0.18814104006E+03 -0.12317723781E+03  0.12246340857E+04  0.12451097694E+04  0.10566000000E+00 0.  1.
        994    1    1    2    0    0 -0.17287437141E+03  0.12886755936E+03  0.18026176135E+03  0.32908378683E+03  0.17120000000E+03 0.  0.
        998    1    1    2    0    0 -0.15266668652E+02 -0.56903215501E+01  0.95104149248E+02  0.97006443782E+02  0.10000000000E+02 0. -1.
</event>
<event>
 5    1  0.1800099E-008  0.3739429E+03  0.7957747E-01  0.3477964E+00
         13   -1    0    0    0    0  0.00000000000E+00  0.00000000000E+00  0.14999999963E+04  0.15000000000E+04  0.10566000000E+00 0. -1.
        994   -1    0    0    0    0 -0.00000000000E+00 -0.00000000000E+00  0.11368683772E-12  0.17120000000E+03  0.17120000000E+03 0.  0.
         13    1    1    2    0    0  0.39344163879E+02 -0.31020325450E+02  0.25030088896E+03  0.25526607687E+03  0.10566000000E+00 0. -1.
        994    1    1    2    0    0 -0.66548231253E-01 -0.38868488708E+02  0.12393816977E+02  0.17599377984E+03  0.17120000000E+03 0.  0.
        998    1    1    2    0    0 -0.39277615648E+02  0.69888814158E+02  0.12373052903E+04  0.12399401433E+04  0.10000000000E+02 0. -1.
</event>
<event>
 5    1  0.1800099E-008  0.3813973E+03  0.7957747E-01  0.3445097E+00
         13   -1    0    0    0    0  0.00000000000E+00  0.00000000000E+00  0.14999999963E+04  0.15000000000E+04  0.10566000000E+00 0. -1.
        994   -1    0    0    0    0 -0.00000000000E+00 -0.00000000000E+00  0.11368683772E-12  0.17120000000E+03  0.17120000000E+03 0.  0.
         13    1    1    2    0    0  0.13589529562E+03  0.13752966006E+03  0.98545760432E+03  0.10042453086E+04  0.10566000000E+00 0. -1.
        994    1    1    2    0    0 -0.13829667693E+03 -0.15001356173E+03  0.15725919869E+03  0.30930556918E+03  0.17120000000E+03 0.  0.
        998    1    1    2    0    0  0.24013813005E+01  0.12483901675E+02  0.35728319327E+03  0.35764912223E+03  0.10000000000E+02 0. -1.
</event>
<event>
 5    1  0.1800099E-008  0.3761407E+03  0.7957747E-01  0.3468137E+00
         13   -1    0    0    0    0  0.00000000000E+00  0.00000000000E+00  0.14999999963E+04  0.15000000000E+04  0.10566000000E+00 0. -1.
        994   -1    0    0    0    0 -0.00000000000E+00 -0.00000000000E+00  0.11368683772E-12  0.17120000000E+03  0.17120000000E+03 0.  0.
         13    1    1    2    0    0 -0.33527027996E+02  0.33378016619E+02  0.24282773393E+03  0.24739335709E+03  0.10566000000E+00 0. -1.
        994    1    1    2    0    0 -0.73380050293E+01  0.10514998700E+02  0.66510378027E+01  0.17180828798E+03  0.17120000000E+03 0.  0.
        998    1    1    2    0    0  0.40865033025E+02 -0.43893015319E+02  0.12505212245E+04  0.12519983549E+04  0.10000000000E+02 0. -1.
</event>
<event>
 5    1  0.1800099E-008  0.3820232E+03  0.7957747E-01  0.3442396E+00
         13   -1    0    0    0    0  0.00000000000E+00  0.00000000000E+00  0.14999999963E+04  0.15000000000E+04  0.10566000000E+00 0. -1.
        994   -1    0    0    0    0 -0.00000000000E+00 -0.00000000000E+00  0.11368683772E-12  0.17120000000E+03  0.17120000000E+03 0.  0.
         13    1    1    2    0    0 -0.63207889147E+01  0.35541625176E+02  0.18611067531E+03  0.18957941376E+03  0.10566000000E+00 0. -1.
        994    1    1    2    0    0  0.51522735927E+01 -0.34744791736E+02  0.72230558719E+01  0.17491529096E+03  0.17120000000E+03 0.  0.
        998    1    1    2    0    0  0.11685153220E+01 -0.79683344088E+00  0.13066662651E+04  0.13067052953E+04  0.10000000000E+02 0.  0.
</event>
<event>
 5    1  0.1800099E-008  0.3702304E+03  0.7957747E-01  0.3494833E+00
         13   -1    0    0    0    0  0.00000000000E+00  0.00000000000E+00  0.14999999963E+04  0.15000000000E+04  0.10566000000E+00 0.  1.
        994   -1    0    0    0    0 -0.00000000000E+00 -0.00000000000E+00  0.11368683772E-12  0.17120000000E+03  0.17120000000E+03 0.  0.
         13    1    1    2    0    0 -0.24184831191E+02 -0.24365713036E+02  0.62081783136E+02  0.70941898712E+02  0.10566000000E+00 0.  1.
        994    1    1    2    0    0  0.20572026610E+02  0.31197815526E+01  0.10645900889E+02  0.17278806823E+03  0.17120000000E+03 0.  0.
        998    1    1    2    0    0  0.36128045804E+01  0.21245931484E+02  0.14272723123E+04  0.14274700331E+04  0.10000000000E+02 0.  1.
</event>
<event>
 5    1  0.1800099E-008  0.3803035E+03  0.7957747E-01  0.3449838E+00
         13   -1    0    0    0    0  0.00000000000E+00  0.00000000000E+00  0.14999999963E+04  0.15000000000E+04  0.10566000000E+00 0.  1.
        994   -1    0    0    0    0 -0.00000000000E+00 -0.00000000000E+00  0.11368683772E-12  0.17120000000E+03  0.17120000000E+03 0.  0.
         13    1    1    2    0    0 -0.17868859894E+02  0.53218445653E+02  0.30370731279E+03  0.30885213634E+03  0.10566000000E+00 0.  1.
        994    1    1    2    0    0 -0.51918367523E+02 -0.95160934119E+02  0.44276898520E+02  0.20741505252E+03  0.17120000000E+03 0.  0.
        998    1    1    2    0    0  0.69787227417E+02  0.41942488466E+02  0.11520157850E+04  0.11549328111E+04  0.10000000000E+02 0.  1.
</event>
<event>
 5    1  0.1800099E-008  0.3833120E+03  0.7957747E-01  0.3436863E+00
         13   -1    0    0    0    0  0.00000000000E+00  0.00000000000E+00  0.14999999963E+04  0.15000000000E+04  0.10566000000E+00 0.  1.
        994   -1    0    0    0    0 -0.00000000000E+00 -0.00000000000E+00  0.11368683772E-12  0.17120000000E+03  0.17120000000E+03 0.  0.
         13    1    1    2    0    0  0.22113088997E+02 -0.84310922421E+01  0.11928066011E+03  0.12160575259E+03  0.10566000000E+00 0.  1.
        994    1    1    2    0    0 -0.70969172610E+01 -0.12700842428E+00  0.26371220563E+01  0.17136737373E+03  0.17120000000E+03 0.  0.
        998    1    1    2    0    0 -0.15016171736E+02  0.85581006664E+01  0.13780822141E+04  0.13782268737E+04  0.10000000000E+02 0.  1.
</event>
<event>
 5    1  0.1800099E-008  0.3834431E+03  0.7957747E-01  0.3436302E+00
         13   -1    0    0    0    0  0.00000000000E+00  0.00000000000E+00  0.14999999963E+04  0.15000000000E+04  0.10566000000E+00 0.  1.
        994   -1    0    0    0    0 -0.00000000000E+00 -0.00000000000E+00  0.11368683772E-12  0.17120000000E+03  0.17120000000E+03 0.  0.
         13    1    1    2    0    0 -0.11815931370E+02  0.16233538575E+02  0.88464252144E+02  0.90714271646E+02  0.10566000000E+00 0.  1.
        994    1    1    2    0    0 -0.28467486269E+02 -0.26390772827E+02  0.74017885689E+01  0.17570172776E+03  0.17120000000E+03 0.  0.
        998    1    1    2    0    0  0.40283417639E+02  0.10157234251E+02  0.14041339556E+04  0.14047840006E+04  0.10000000000E+02 0.  1.
</event>
<event>
 5    1  0.1800099E-008  0.3854503E+03  0.7957747E-01  0.3427765E+00
         13   -1    0    0    0    0  0.00000000000E+00  0.00000000000E+00  0.14999999963E+04  0.15000000000E+04  0.10566000000E+00 0. -1.
        994   -1    0    0    0    0 -0.00000000000E+00 -0.00000000000E+00  0.11368683772E-12  0.17120000000E+03  0.17120000000E+03 0.  0.
         13    1    1    2    0    0  0.98368612468E+01  0.46460630349E+01  0.41689193588E+02  0.43085377647E+02  0.10566000000E+00 0. -1.
        994    1    1    2    0    0 -0.72063713035E+01 -0.69523857312E+01  0.17360825430E+01  0.17150137445E+03  0.17120000000E+03 0.  0.
        998    1    1    2    0    0 -0.26304899433E+01  0.23063226963E+01  0.14565747201E+04  0.14566132479E+04  0.10000000000E+02 0. -1.
</event>
<event>
 5    1  0.1800099E-008  0.3856634E+03  0.7957747E-01  0.3426864E+00
         13   -1    0    0    0    0  0.00000000000E+00  0.00000000000E+00  0.14999999963E+04  0.15000000000E+04  0.10566000000E+00 0.  1.
        994   -1    0    0    0    0 -0.00000000000E+00 -0.00000000000E+00  0.11368683772E-12  0.17120000000E+03  0.17120000000E+03 0.  0.
         13    1    1    2    0    0 -0.79457218991E+01  0.98099840553E+01  0.61434969679E+02  0.62718712895E+02  0.10566000000E+00 0.  1.
        994    1    1    2    0    0  0.12157773700E+02 -0.18073454884E+01  0.17970720067E+01  0.17165007261E+03  0.17120000000E+03 0.  0.
        998    1    1    2    0    0 -0.42120518008E+01 -0.80026385669E+01  0.14367679546E+04  0.14368312145E+04  0.10000000000E+02 0.  1.
</event>
<event>
 5    1  0.1800099E-008  0.4119221E+03  0.7957747E-01  0.3322946E+00
         13   -1    0    0    0    0  0.00000000000E+00  0.00000000000E+00  0.14999999963E+04  0.15000000000E+04  0.10566000000E+00 0.  1.
        994   -1    0    0    0    0 -0.00000000000E+00 -0.00000000000E+00  0.11368683772E-12  0.17120000000E+03  0.17120000000E+03 0.  0.
         13    1    1    2    0    0  0.43230605618E+02 -0.54612880952E+02  0.41280815660E+02  0.80966467958E+02  0.10566000000E+00 0.  1.
        994    1    1    2    0    0 -0.56788454188E+02  0.14726076795E+03  0.14750163625E+03  0.27563895770E+03  0.17120000000E+03 0.  0.
        998    1    1    2    0    0  0.13557848569E+02 -0.92647886999E+02  0.13112175444E+04  0.13145945743E+04  0.10000000000E+02 0.  1.
</event>
<event>
 5    1  0.1800099E-008  0.3760629E+03  0.7957747E-01  0.3468483E+00
         13   -1    0    0    0    0  0.00000000000E+00  0.00000000000E+00  0.14999999963E+04  0.15000000000E+04  0.10566000000E+00 0. -1.
        994   -1    0    0    0    0 -0.00000000000E+00 -0.00000000000E+00  0.11368683772E-12  0.17120000000E+03  0.17120000000E+03 0.  0.
         13    1    1    2    0    0  0.52631006220E+02 -0.50168809810E+02  0.15320411744E+03  0.16958315087E+03  0.10566000000E+00 0. -1.
        994    1    1    2    0    0 -0.85768514541E+02  0.38221221018E+02  0.46389603755E+02  0.20069512988E+03  0.17120000000E+03 0.  0.
        998    1    1    2    0    0  0.33137508321E+02  0.11947588792E+02  0.13004062751E+04  0.13009217193E+04  0.10000000000E+02 0. -1.
</event>
<event>
 5    1  0.1800099E-008  0.3859584E+03  0.7957747E-01  0.3425618E+00
         13   -1    0    0    0    0  0.00000000000E+00  0.00000000000E+00  0.14999999963E+04  0.15000000000E+04  0.10566000000E+00 0. -1.
        994   -1    0    0    0    0 -0.00000000000E+00 -0.00000000000E+00  0.11368683772E-12  0.17120000000E+03  0.17120000000E+03 0.  0.
         13    1    1    2    0    0  0.53291615347E+01 -0.11250342435E+02  0.68008599492E+02  0.69138635628E+02  0.10566000000E+00 0. -1.
        994    1    1    2    0    0 -0.30973862340E+01  0.72878881071E+01  0.13606529281E+01  0.17138844328E+03  0.17120000000E+03 0.  0.
        998    1    1    2    0    0 -0.22317753008E+01  0.39624543277E+01  0.14306307439E+04  0.14306729211E+04  0.10000000000E+02 0. -1.
</event>
<event>
 5    1  0.1800099E-008  0.3842210E+03  0.7957747E-01  0.3432983E+00
         13   -1    0    0    0    0  0.00000000000E+00  0.00000000000E+00  0.14999999963E+04  0.15000000000E+04  0.10566000000E+00 0. -1.
        994   -1    0    0    0    0 -0.00000000000E+00 -0.00000000000E+00  0.11368683772E-12  0.17120000000E+03  0.17120000000E+03 0.  0.
         13    1    1    2    0    0 -0.50712535645E+00  0.22000865167E+02  0.11011920889E+03  0.11229668995E+03  0.10566000000E+00 0. -1.
        994    1    1    2    0    0  0.21329601250E+01 -0.24954930420E+02  0.40883167494E+01  0.17307065726E+03  0.17120000000E+03 0.  0.
        998    1    1    2    0    0 -0.16258347685E+01  0.29540652526E+01  0.13857924706E+04  0.13858326528E+04  0.10000000000E+02 0. -1.
</event>
<event>
 5    1  0.1800099E-008  0.4090791E+03  0.7957747E-01  0.3333557E+00
         13   -1    0    0    0    0  0.00000000000E+00  0.00000000000E+00  0.14999999963E+04  0.15000000000E+04  0.10566000000E+00 0.  1.
        994   -1    0    0    0    0 -0.00000000000E+00 -0.00000000000E+00  0.11368683772E-12  0.17120000000E+03  0.17120000000E+03 0.  0.
         13    1    1    2    0    0  0.12383889447E+00 -0.22499190804E+02 -0.74112223192E+01  0.23688948968E+02  0.10566000000E+00 0.  1.
        994    1    1    2    0    0 -0.17586861618E+02  0.58501520869E+02  0.48654354815E+02  0.18817123023E+03  0.17120000000E+03 0.  0.
        998    1    1    2    0    0  0.17463022723E+02 -0.36002330065E+02  0.14587568638E+04  0.14593398208E+04  0.10000000000E+02 0.  1.
</event>
<event>
 5    1  0.1800099E-008  0.3845403E+03  0.7957747E-01  0.3431624E+00
         13   -1    0    0    0    0  0.00000000000E+00  0.00000000000E+00  0.14999999963E+04  0.15000000000E+04  0.10566000000E+00 0.  1.
        994   -1    0    0    0    0 -0.00000000000E+00 -0.00000000000E+00  0.11368683772E-12  0.17120000000E+03  0.17120000000E+03 0.  0.
         13    1    1    2    0    0 -0.12189802710E+02 -0.32818441404E+01  0.41344631326E+02  0.43229058452E+02  0.10566000000E+00 0.  1.
        994    1    1    2    0    0  0.13544662536E+02  0.57117975196E+01  0.25705694738E+01  0.17184914996E+03  0.17120000000E+03 0.  0.
        998    1    1    2    0    0 -0.13548598256E+01 -0.24299533792E+01  0.14560847955E+04  0.14561217916E+04  0.10000000000E+02 0.  1.
</event>
<event>
 5    1  0.1800099E-008  0.3796194E+03  0.7957747E-01  0.3452817E+00
         13   -1    0    0    0    0  0.00000000000E+00  0.00000000000E+00  0.14999999963E+04  0.15000000000E+04  0.10566000000E+00 0.  1.
        994   -1    0    0    0    0 -0.00000000000E+00 -0.00000000000E+00  0.11368683772E-12  0.17120000000E+03  0.17120000000E+03 0.  0.
         13    1    1    2    0    0 -0.15749068113E+02  0.31079018728E+01  0.27352875243E+02  0.31715660936E+02  0.10566000000E+00 0.  1.
        994    1    1    2    0    0  0.19213985075E+02 -0.32059073336E+01  0.55964794569E+01  0.17239552096E+03  0.17120000000E+03 0.  0.
        998    1    1    2    0    0 -0.34649169618E+01  0.98005460726E-01  0.14670506416E+04  0.14670888181E+04  0.10000000000E+02 0.  1.
</event>
<event>
 5    1  0.1800099E-008  0.3844525E+03  0.7957747E-01  0.3431998E+00
         13   -1    0    0    0    0  0.00000000000E+00  0.00000000000E+00  0.14999999963E+04  0.15000000000E+04  0.10566000000E+00 0.  1.
        994   -1    0    0    0    0 -0.00000000000E+00 -0.00000000000E+00  0.11368683772E-12  0.17120000000E+03  0.17120000000E+03 0.  0.
         13    1    1    2    0    0 -0.11831654502E+02 -0.55191562631E+01  0.43357440256E+02  0.45280546857E+02  0.10566000000E+00 0.  1.
        994    1    1    2    0    0  0.13453508045E+02  0.42746453756E+01  0.25589773311E+01  0.17180005191E+03  0.17120000000E+03 0.  0.
        998    1    1    2    0    0 -0.16218535428E+01  0.12445108876E+01  0.14540835787E+04  0.14541194012E+04  0.10000000000E+02 0.  1.
</event>
<event>
 5    1  0.1800099E-008  0.4161354E+03  0.7957747E-01  0.3307483E+00
         13   -1    0    0    0    0  0.00000000000E+00  0.00000000000E+00  0.14999999963E+04  0.15000000000E+04  0.10566000000E+00 0.  1.
        994   -1    0    0    0    0 -0.00000000000E+00 -0.00000000000E+00  0.11368683772E-12  0.17120000000E+03  0.17120000000E+03 0.  0.
         13    1    1    2    0    0  0.75826918399E+02 -0.48558823473E+02  0.90255645485E+02  0.12749028825E+03  0.10566000000E+00 0.  1.
        994    1    1    2    0    0 -0.79039545066E+02  0.43798158990E+02  0.72962267716E+02  0.20687788892E+03  0.17120000000E+03 0.  0.
        998    1    1    2    0    0  0.32126266671E+01  0.47606644836E+01  0.13367820831E+04  0.13368318228E+04  0.10000000000E+02 0.  1.
</event>
<event>
 5    1  0.1800099E-008  0.3814670E+03  0.7957747E-01  0.3444796E+00
         13   -1    0    0    0    0  0.00000000000E+00  0.00000000000E+00  0.14999999963E+04  0.15000000000E+04  0.10566000000E+00 0. -1.
        994   -1    0    0    0    0 -0.00000000000E+00 -0.00000000000E+00  0.11368683772E-12  0.17120000000E+03  0.17120000000E+03 0.  0.
         13    1    1    2    0    0 -0.40487795666E+01 -0.31534185048E+02  0.13889035143E+03  0.14248276502E+03  0.10566000000E+00 0. -1.
        994    1    1    2    0    0  0.50008907341E+01  0.27874324245E+02  0.60670595384E+01  0.17363247413E+03  0.17120000000E+03 0.  0.
        998    1    1    2    0    0 -0.95211116758E+00  0.36598608027E+01  0.13550425853E+04  0.13550847609E+04  0.10000000000E+02 0. -1.
</event>
<event>
 5    1  0.1800099E-008  0.3813939E+03  0.7957747E-01  0.3445112E+00
         13   -1    0    0    0    0  0.00000000000E+00  0.00000000000E+00  0.14999999963E+04  0.15000000000E+04  0.10566000000E+00 0. -1.
        994   -1    0    0    0    0 -0.00000000000E+00 -0.00000000000E+00  0.11368683772E-12  0.17120000000E+03  0.17120000000E+03 0.  0.
         13    1    1    2    0    0  0.36020354820E+01  0.12893048981E+02  0.24499707218E+02  0.27918670983E+02  0.10566000000E+00 0. -1.
        994    1    1    2    0    0  0.24620661751E+01 -0.14017138572E+02  0.41054323343E+01  0.17183956622E+03  0.17120000000E+03 0.  0.
        998    1    1    2    0    0 -0.60641016571E+01  0.11240895908E+01  0.14713948567E+04  0.14714417628E+04  0.10000000000E+02 0. -1.
</event>
<event>
 5    1  0.1800099E-008  0.3830756E+03  0.7957747E-01  0.3437875E+00
         13   -1    0    0    0    0  0.00000000000E+00  0.00000000000E+00  0.14999999963E+04  0.15000000000E+04  0.10566000000E+00 0. -1.
        994   -1    0    0    0    0 -0.00000000000E+00 -0.00000000000E+00  0.11368683772E-12  0.17120000000E+03  0.17120000000E+03 0.  0.
         13    1    1    2    0    0  0.28934272001E+01 -0.10382838058E+02  0.24301523634E+02  0.26584778766E+02  0.10566000000E+00 0. -1.
        994    1    1    2    0    0  0.56785088822E+02 -0.13833294519E+02  0.13976158964E+02  0.18144056704E+03  0.17120000000E+03 0.  0.
        998    1    1    2    0    0 -0.59678516022E+02  0.24216132577E+02  0.14617223137E+04  0.14631746542E+04  0.10000000000E+02 0. -1.
</event>
<event>
 5    1  0.1800099E-008  0.3844241E+03  0.7957747E-01  0.3432118E+00
         13   -1    0    0    0    0  0.00000000000E+00  0.00000000000E+00  0.14999999963E+04  0.15000000000E+04  0.10566000000E+00 0. -1.
        994   -1    0    0    0    0 -0.00000000000E+00 -0.00000000000E+00  0.11368683772E-12  0.17120000000E+03  0.17120000000E+03 0.  0.
         13    1    1    2    0    0 -0.64623535632E+00  0.16129366690E+02  0.66550377774E+02  0.68480201780E+02  0.10566000000E+00 0. -1.
        994    1    1    2    0    0  0.42263102320E+01 -0.13360803125E+02  0.25636104138E+01  0.17179169030E+03  0.17120000000E+03 0.  0.
        998    1    1    2    0    0 -0.35800748756E+01 -0.27685635657E+01  0.14308860081E+04  0.14309281079E+04  0.10000000000E+02 0. -1.
</event>
<event>
 5    1  0.1800099E-008  0.3813254E+03  0.7957747E-01  0.3445408E+00
         13   -1    0    0    0    0  0.00000000000E+00  0.00000000000E+00  0.14999999963E+04  0.15000000000E+04  0.10566000000E+00 0.  1.
        994   -1    0    0    0    0 -0.00000000000E+00 -0.00000000000E+00  0.11368683772E-12  0.17120000000E+03  0.17120000000E+03 0.  0.
         13    1    1    2    0    0  0.20782333248E+02  0.22504378898E+02  0.15014162355E+03  0.15323469167E+03  0.10566000000E+00 0.  1.
        994    1    1    2    0    0 -0.42726977806E+01  0.10308064330E+01  0.35298804341E+01  0.17129278608E+03  0.17120000000E+03 0.  0.
        998    1    1    2    0    0 -0.16509635467E+02 -0.23535185331E+02  0.13463284923E+04  0.13466725222E+04  0.10000000000E+02 0.  1.
</event>
<event>
 5    1  0.1800099E-008  0.3865076E+03  0.7957747E-01  0.3423303E+00
         13   -1    0    0    0    0  0.00000000000E+00  0.00000000000E+00  0.14999999963E+04  0.15000000000E+04  0.10566000000E+00 0.  1.
        994   -1    0    0    0    0 -0.00000000000E+00 -0.00000000000E+00  0.11368683772E-12  0.17120000000E+03  0.17120000000E+03 0.  0.
         13    1    1    2    0    0 -0.68237129083E+01 -0.82980916956E+01  0.64724173166E+02  0.65609840266E+02  0.10566000000E+00 0.  1.
        994    1    1    2    0    0 -0.78267100344E+01  0.21383662444E+02  0.25822461233E+01  0.17272702859E+03  0.17120000000E+03 0.  0.
        998    1    1    2    0    0  0.14650422943E+02 -0.13085570749E+02  0.14326935770E+04  0.14328631311E+04  0.10000000000E+02 0.  1.
</event>
<event>
 5    1  0.1800099E-008  0.3836707E+03  0.7957747E-01  0.3435330E+00
         13   -1    0    0    0    0  0.00000000000E+00  0.00000000000E+00  0.14999999963E+04  0.15000000000E+04  0.10566000000E+00 0.  1.
        994   -1    0    0    0    0 -0.00000000000E+00 -0.00000000000E+00  0.11368683772E-12  0.17120000000E+03  0.17120000000E+03 0.  0.
         13    1    1    2    0    0  0.46784376695E+00 -0.13847901981E+03  0.41973686834E+03  0.44199061937E+03  0.10566000000E+00 0.  1.
        994    1    1    2    0    0  0.25604341570E+02  0.11594825734E+03  0.72193668971E+02  0.22050157942E+03  0.17120000000E+03 0.  0.
        998    1    1    2    0    0 -0.26072185336E+02  0.22530762470E+02  0.10080694590E+04  0.10087078012E+04  0.10000000000E+02 0. -1.
</event>
<event>
 5    1  0.1800099E-008  0.3778567E+03  0.7957747E-01  0.3460544E+00
         13   -1    0    0    0    0  0.00000000000E+00  0.00000000000E+00  0.14999999963E+04  0.15000000000E+04  0.10566000000E+00 0.  1.
        994   -1    0    0    0    0 -0.00000000000E+00 -0.00000000000E+00  0.11368683772E-12  0.17120000000E+03  0.17120000000E+03 0.  0.
         13    1    1    2    0    0 -0.69030827843E+00  0.69636760229E+02  0.36342856757E+03  0.37004065965E+03  0.10566000000E+00 0.  1.
        994    1    1    2    0    0  0.18907575318E+02 -0.66589851731E+02  0.21525127185E+02  0.18591523837E+03  0.17120000000E+03 0.  0.
        998    1    1    2    0    0 -0.18217267040E+02 -0.30469084973E+01  0.11150463015E+04  0.11152441020E+04  0.10000000000E+02 0. -1.
</event>
<event>
 5    1  0.1800099E-008  0.3850160E+03  0.7957747E-01  0.3429605E+00
         13   -1    0    0    0    0  0.00000000000E+00  0.00000000000E+00  0.14999999963E+04  0.15000000000E+04  0.10566000000E+00 0. -1.
        994   -1    0    0    0    0 -0.00000000000E+00 -0.00000000000E+00  0.11368683772E-12  0.17120000000E+03  0.17120000000E+03 0.  0.
         13    1    1    2    0    0 -0.97123132401E+01  0.59221551792E+01  0.39560003129E+02  0.41163162683E+02  0.10566000000E+00 0. -1.
        994    1    1    2    0    0  0.73900232067E+01 -0.45556610201E+01  0.18700960199E+01  0.17143017164E+03  0.17120000000E+03 0.  0.
        998    1    1    2    0    0  0.23222900334E+01 -0.13664941590E+01  0.14585698971E+04  0.14586066657E+04  0.10000000000E+02 0. -1.
</event>
<event>
 5    1  0.1800099E-008  0.3765561E+03  0.7957747E-01  0.3466293E+00
         13   -1    0    0    0    0  0.00000000000E+00  0.00000000000E+00  0.14999999963E+04  0.15000000000E+04  0.10566000000E+00 0. -1.
        994   -1    0    0    0    0 -0.00000000000E+00 -0.00000000000E+00  0.11368683772E-12  0.17120000000E+03  0.17120000000E+03 0.  0.
         13    1    1    2    0    0  0.13682273962E+03  0.92521377185E+01  0.79335611917E+03  0.80512111333E+03  0.10566000000E+00 0. -1.
        994    1    1    2    0    0 -0.12982252939E+03 -0.83534821054E+01  0.65437660421E+02  0.22475586133E+03  0.17120000000E+03 0.  0.
        998    1    1    2    0    0 -0.70002102324E+01 -0.89865561311E+00  0.64120621669E+03  0.64132302535E+03  0.10000000000E+02 0. -1.
</event>
<event>
 5    1  0.1800099E-008  0.3712126E+03  0.7957747E-01  0.3490336E+00
         13   -1    0    0    0    0  0.00000000000E+00  0.00000000000E+00  0.14999999963E+04  0.15000000000E+04  0.10566000000E+00 0.  1.
        994   -1    0    0    0    0 -0.00000000000E+00 -0.00000000000E+00  0.11368683772E-12  0.17120000000E+03  0.17120000000E+03 0.  0.
         13    1    1    2    0    0  0.32184086584E+02  0.98768547065E+02  0.43666991985E+03  0.44885595839E+03  0.10566000000E+00 0.  1.
        994    1    1    2    0    0 -0.31778873380E+02 -0.61149053696E+02  0.28447095850E+02  0.18672916436E+03  0.17120000000E+03 0.  0.
        998    1    1    2    0    0 -0.40521320490E+00 -0.37619493369E+02  0.10348829806E+04  0.10356148772E+04  0.10000000000E+02 0.  1.
</event>
<event>
 5    1  0.1800099E-008  0.3775283E+03  0.7957747E-01  0.3461992E+00
         13   -1    0    0    0    0  0.00000000000E+00  0.00000000000E+00  0.14999999963E+04  0.15000000000E+04  0.10566000000E+00 0. -1.
        994   -1    0    0    0    0 -0.00000000000E+00 -0.00000000000E+00  0.11368683772E-12  0.17120000000E+03  0.17120000000E+03 0.  0.
         13    1    1    2    0    0  0.14296899716E+02 -0.32591034539E+02  0.10984449173E+03  0.11546601405E+03  0.10566000000E+00 0. -1.
        994    1    1    2    0    0 -0.13231406532E+02  0.29433045776E+02  0.89039782220E+01  0.17444224010E+03  0.17120000000E+03 0.  0.
        998    1    1    2    0    0 -0.10654931841E+01  0.31579887627E+01  0.13812515263E+04  0.13812917458E+04  0.10000000000E+02 0. -1.
</event>
<event>
 5    1  0.1800099E-008  0.3771818E+03  0.7957747E-01  0.3463522E+00
         13   -1    0    0    0    0  0.00000000000E+00  0.00000000000E+00  0.14999999963E+04  0.15000000000E+04  0.10566000000E+00 0. -1.
        994   -1    0    0    0    0 -0.00000000000E+00 -0.00000000000E+00  0.11368683772E-12  0.17120000000E+03  0.17120000000E+03 0.  0.
         13    1    1    2    0    0 -0.94283664613E+01 -0.35046117392E+02  0.14476288485E+03  0.14924285052E+03  0.10566000000E+00 0. -1.
        994    1    1    2    0    0  0.67949831371E+02 -0.30447776059E+02  0.24505686820E+02  0.18829289773E+03  0.17120000000E+03 0.  0.
        998    1    1    2    0    0 -0.58521464910E+02  0.65493893451E+02  0.13307314246E+04  0.13336642517E+04  0.10000000000E+02 0. -1.
</event>
<event>
 5    1  0.1800099E-008  0.3822842E+03  0.7957747E-01  0.3441273E+00
         13   -1    0    0    0    0  0.00000000000E+00  0.00000000000E+00  0.14999999963E+04  0.15000000000E+04  0.10566000000E+00 0. -1.
        994   -1    0    0    0    0 -0.00000000000E+00 -0.00000000000E+00  0.11368683772E-12  0.17120000000E+03  0.17120000000E+03 0.  0.
         13    1    1    2    0    0  0.11192248554E+02 -0.20269437511E+02  0.82667630366E+02  0.85849081527E+02  0.10566000000E+00 0. -1.
        994    1    1    2    0    0 -0.80269335921E+01  0.27572708332E+02  0.57255419108E+01  0.17368623359E+03  0.17120000000E+03 0.  0.
        998    1    1    2    0    0 -0.31653149614E+01 -0.73032708214E+01  0.14116068240E+04  0.14116646849E+04  0.10000000000E+02 0. -1.
</event>
<event>
 5    1  0.1800099E-008  0.3920373E+03  0.7957747E-01  0.3400364E+00
         13   -1    0    0    0    0  0.00000000000E+00  0.00000000000E+00  0.14999999963E+04  0.15000000000E+04  0.10566000000E+00 0.  1.
        994   -1    0    0    0    0 -0.00000000000E+00 -0.00000000000E+00  0.11368683772E-12  0.17120000000E+03  0.17120000000E+03 0.  0.
         13    1    1    2    0    0 -0.35789123039E+02  0.52455386194E+02  0.62603267218E+02  0.89171795423E+02  0.10566000000E+00 0.  1.
        994    1    1    2    0    0  0.60212207952E+02 -0.11195784202E+03  0.87382569853E+02  0.23044570270E+03  0.17120000000E+03 0.  0.
        998    1    1    2    0    0 -0.24423084914E+02  0.59502455831E+02  0.13500141592E+04  0.13515825019E+04  0.10000000000E+02 0.  1.
</event>
<event>
 5    1  0.1800099E-008  0.3838777E+03  0.7957747E-01  0.3434446E+00
         13   -1    0    0    0    0  0.00000000000E+00  0.00000000000E+00  0.14999999963E+04  0.15000000000E+04  0.10566000000E+00 0.  1.
        994   -1    0    0    0    0 -0.00000000000E+00 -0.00000000000E+00  0.11368683772E-12  0.17120000000E+03  0.17120000000E+03 0.  0.
         13    1    1    2    0    0 -0.13829766033E+02 -0.71754446818E+00  0.50109631648E+02  0.51988110627E+02  0.10566000000E+00 0.  1.
        994    1    1    2    0    0 -0.19949486253E+02 -0.28307917126E+01  0.35295706839E+01  0.17241778694E+03  0.17120000000E+03 0.  0.
        998    1    1    2    0    0  0.33779252286E+02  0.35483361807E+01  0.14463607939E+04  0.14467941024E+04  0.10000000000E+02 0.  1.
</event>
<event>
 5    1  0.1800099E-008  0.3751886E+03  0.7957747E-01  0.3472380E+00
         13   -1    0    0    0    0  0.00000000000E+00  0.00000000000E+00  0.14999999963E+04  0.15000000000E+04  0.10566000000E+00 0. -1.
        994   -1    0    0    0    0 -0.00000000000E+00 -0.00000000000E+00  0.11368683772E-12  0.17120000000E+03  0.17120000000E+03 0.  0.
         13    1    1    2    0    0  0.60947101223E+00 -0.34881592629E+02  0.86418481310E+02  0.93194753260E+02  0.10566000000E+00 0. -1.
        994    1    1    2    0    0 -0.30427774529E+01  0.32046332597E+02  0.10110074563E+02  0.17449320771E+03  0.17120000000E+03 0.  0.
        998    1    1    2    0    0  0.24333064406E+01  0.28352600323E+01  0.14034714404E+04  0.14035120390E+04  0.10000000000E+02 0. -1.
</event>
<event>
 5    1  0.7435961E-008  0.3866543E+03  0.7957747E-01  0.3422686E+00
         13   -1    0    0    0    0  0.00000000000E+00  0.00000000000E+00  0.14999999963E+04  0.15000000000E+04  0.10566000000E+00 0.  1.
        994   -1    0    0    0    0 -0.00000000000E+00 -0.00000000000E+00  0.11368683772E-12  0.17120000000E+03  0.17120000000E+03 0.  0.
         13    1    1    2    0    0  0.36165141970E+01  0.93996603410E+01  0.60899502023E+02  0.61726763240E+02  0.10566000000E+00 0.  1.
        994    1    1    2    0    0 -0.36794581387E+01 -0.12399219984E+02  0.13583913999E+01  0.17169322729E+03  0.17120000000E+03 0.  0.
        998    1    1    2    0    0  0.62943941740E-01  0.29995596426E+01  0.14377421029E+04  0.14377800095E+04  0.10000000000E+02 0.  1.
</event>
<event>
 5    1  0.1800099E-008  0.3814950E+03  0.7957747E-01  0.3444675E+00
         13   -1    0    0    0    0  0.00000000000E+00  0.00000000000E+00  0.14999999963E+04  0.15000000000E+04  0.10566000000E+00 0. -1.
        994   -1    0    0    0    0 -0.00000000000E+00 -0.00000000000E+00  0.11368683772E-12  0.17120000000E+03  0.17120000000E+03 0.  0.
         13    1    1    2    0    0 -0.82520230522E+02  0.70258280564E+02  0.35055442122E+03  0.36692537093E+03  0.10566000000E+00 0. -1.
        994    1    1    2    0    0  0.72353916299E+02 -0.64414384499E+01  0.36638398283E+02  0.18954786615E+03  0.17120000000E+03 0.  0.
        998    1    1    2    0    0  0.10166314223E+02 -0.63816842115E+02  0.11128071768E+04  0.11147267629E+04  0.10000000000E+02 0. -1.
</event>
<event>
 5    1  0.1800099E-008  0.3821478E+03  0.7957747E-01  0.3441859E+00
         13   -1    0    0    0    0  0.00000000000E+00  0.00000000000E+00  0.14999999963E+04  0.15000000000E+04  0.10566000000E+00 0.  1.
        994   -1    0    0    0    0 -0.00000000000E+00 -0.00000000000E+00  0.11368683772E-12  0.17120000000E+03  0.17120000000E+03 0.  0.
         13    1    1    2    0    0 -0.16805626016E+00 -0.16724701233E+02  0.45073355434E+02  0.48076630584E+02  0.10566000000E+00 0.  1.
        994    1    1    2    0    0 -0.40889856139E+01  0.94928462455E+01  0.34075530499E+01  0.17154557806E+03  0.17120000000E+03 0.  0.
        998    1    1    2    0    0  0.42570418740E+01  0.72318549875E+01  0.14515190878E+04  0.14515777914E+04  0.10000000000E+02 0.  1.
</event>
<event>
 5    1  0.1800099E-008  0.3811341E+03  0.7957747E-01  0.3446235E+00
         13   -1    0    0    0    0  0.00000000000E+00  0.00000000000E+00  0.14999999963E+04  0.15000000000E+04  0.10566000000E+00 0. -1.
        994   -1    0    0    0    0 -0.00000000000E+00 -0.00000000000E+00  0.11368683772E-12  0.17120000000E+03  0.17120000000E+03 0.  0.
         13    1    1    2    0    0  0.72251717190E+01 -0.11094004974E+02  0.21413825426E+02  0.25176241501E+02  0.10566000000E+00 0. -1.
        994    1    1    2    0    0 -0.61588125360E+01  0.39426608642E+02  0.88833546403E+01  0.17601347230E+03  0.17120000000E+03 0.  0.
        998    1    1    2    0    0 -0.10663591830E+01 -0.28332603668E+02  0.14697028162E+04  0.14700102862E+04  0.10000000000E+02 0. -1.
</event>
<event>
 5    1  0.1800099E-008  0.3707516E+03  0.7957747E-01  0.3492444E+00
         13   -1    0    0    0    0  0.00000000000E+00  0.00000000000E+00  0.14999999963E+04  0.15000000000E+04  0.10566000000E+00 0.  1.
        994   -1    0    0    0    0 -0.00000000000E+00 -0.00000000000E+00  0.11368683772E-12  0.17120000000E+03  0.17120000000E+03 0.  0.
         13    1    1    2    0    0  0.31769549447E+01 -0.49514026909E+02  0.16730704295E+03  0.17450899600E+03  0.10566000000E+00 0.  1.
        994    1    1    2    0    0  0.28842913560E+02 -0.10232922738E+02  0.12113704849E+02  0.17433533267E+03  0.17120000000E+03 0.  0.
        998    1    1    2    0    0 -0.32019868504E+02  0.59746949647E+02  0.13205792485E+04  0.13223556713E+04  0.10000000000E+02 0.  1.
</event>
<event>
 5    1  0.1800099E-008  0.3816698E+03  0.7957747E-01  0.3443920E+00
         13   -1    0    0    0    0  0.00000000000E+00  0.00000000000E+00  0.14999999963E+04  0.15000000000E+04  0.10566000000E+00 0.  1.
        994   -1    0    0    0    0 -0.00000000000E+00 -0.00000000000E+00  0.11368683772E-12  0.17120000000E+03  0.17120000000E+03 0.  0.
         13    1    1    2    0    0  0.86650975124E-01 -0.10007602656E+02  0.13752027253E+02  0.17008498961E+02  0.10566000000E+00 0.  1.
        994    1    1    2    0    0 -0.50395124175E-01  0.92925092778E+01  0.35797446025E+01  0.17148938113E+03  0.17120000000E+03 0.  0.
        998    1    1    2    0    0 -0.36255850949E-01  0.71509337812E+00  0.14826682244E+04  0.14827021199E+04  0.10000000000E+02 0.  1.
</event>
<event>
 5    1  0.1800099E-008  0.3818672E+03  0.7957747E-01  0.3443068E+00
         13   -1    0    0    0    0  0.00000000000E+00  0.00000000000E+00  0.14999999963E+04  0.15000000000E+04  0.10566000000E+00 0. -1.
        994   -1    0    0    0    0 -0.00000000000E+00 -0.00000000000E+00  0.11368683772E-12  0.17120000000E+03  0.17120000000E+03 0.  0.
         13    1    1    2    0    0 -0.33909625179E+02  0.54781536684E+01  0.15934996496E+03  0.16301010810E+03  0.10566000000E+00 0. -1.
        994    1    1    2    0    0  0.39110249294E+02 -0.86096003415E+01  0.85402312091E+01  0.17602872597E+03  0.17120000000E+03 0.  0.
        998    1    1    2    0    0 -0.52006241155E+01  0.31314466732E+01  0.13321098001E+04  0.13321611659E+04  0.10000000000E+02 0. -1.
</event>
<event>
 5    1  0.1800099E-008  0.3840385E+03  0.7957747E-01  0.3433760E+00
         13   -1    0    0    0    0  0.00000000000E+00  0.00000000000E+00  0.14999999963E+04  0.15000000000E+04  0.10566000000E+00 0. -1.
        994   -1    0    0    0    0 -0.00000000000E+00 -0.00000000000E+00  0.11368683772E-12  0.17120000000E+03  0.17120000000E+03 0.  0.
         13    1    1    2    0    0 -0.23556345449E+02  0.10043880480E+02  0.13550520857E+03  0.13790378407E+03  0.10566000000E+00 0. -1.
        994    1    1    2    0    0  0.36591220098E+02  0.18763534570E+01  0.65495041964E+01  0.17519924114E+03  0.17120000000E+03 0.  0.
        998    1    1    2    0    0 -0.13034874649E+02 -0.11920233937E+02  0.13579452835E+04  0.13580969748E+04  0.10000000000E+02 0. -1.
</event>
<event>
 5    1  0.1800099E-008  0.3757173E+03  0.7957747E-01  0.3470021E+00
         13   -1    0    0    0    0  0.00000000000E+00  0.00000000000E+00  0.14999999963E+04  0.15000000000E+04  0.10566000000E+00 0.  1.
        994   -1    0    0    0    0 -0.00000000000E+00 -0.00000000000E+00  0.11368683772E-12  0.17120000000E+03  0.17120000000E+03 0.  0.
         13    1    1    2    0    0 -0.69239456780E+01  0.51206005808E+02  0.28949798212E+03  0.29407327126E+03  0.10566000000E+00 0.  1.
        994    1    1    2    0    0  0.12622698597E+02  0.12241871973E+02  0.73600306897E+01  0.17225796353E+03  0.17120000000E+03 0.  0.
        998    1    1    2    0    0 -0.56987529188E+01 -0.63447877781E+02  0.12031419835E+04  0.12048687652E+04  0.10000000000E+02 0.  1.
</event>
<event>
 5    1  0.1800099E-008  0.3827393E+03  0.7957747E-01  0.3439317E+00
         13   -1    0    0    0    0  0.00000000000E+00  0.00000000000E+00  0.14999999963E+04  0.15000000000E+04  0.10566000000E+00 0.  1.
        994   -1    0    0    0    0 -0.00000000000E+00 -0.00000000000E+00  0.11368683772E-12  0.17120000000E+03  0.17120000000E+03 0.  0.
         13    1    1    2    0    0 -0.17399893234E+02 -0.17873906310E+02  0.11751847401E+03  0.12013673755E+03  0.10566000000E+00 0.  1.
        994    1    1    2    0    0  0.32032343037E+01  0.82523261279E+01  0.30163466702E+01  0.17145524181E+03  0.17120000000E+03 0.  0.
        998    1    1    2    0    0  0.14196658930E+02  0.96215801821E+01  0.13794651756E+04  0.13796080206E+04  0.10000000000E+02 0.  1.
</event>
<event>
 5    1  0.1800099E-008  0.3787167E+03  0.7957747E-01  0.3456765E+00
         13   -1    0    0    0    0  0.00000000000E+00  0.00000000000E+00  0.14999999963E+04  0.15000000000E+04  0.10566000000E+00 0. -1.
        994   -1    0    0    0    0 -0.00000000000E+00 -0.00000000000E+00  0.11368683772E-12  0.17120000000E+03  0.17120000000E+03 0.  0.
         13    1    1    2    0    0  0.42769067801E+02  0.50719064126E+02  0.34333322423E+03  0.34968461598E+03  0.10566000000E+00 0. -1.
        994    1    1    2    0    0 -0.58254105420E+02 -0.42669579729E+02  0.22491543596E+02  0.18716181065E+03  0.17120000000E+03 0.  0.
        998    1    1    2    0    0  0.15485037619E+02 -0.80494843969E+01  0.11341752285E+04  0.11343535734E+04  0.10000000000E+02 0. -1.
</event>
<event>
 5    1  0.1800099E-008  0.3841625E+03  0.7957747E-01  0.3433232E+00
         13   -1    0    0    0    0  0.00000000000E+00  0.00000000000E+00  0.14999999963E+04  0.15000000000E+04  0.10566000000E+00 0.  1.
        994   -1    0    0    0    0 -0.00000000000E+00 -0.00000000000E+00  0.11368683772E-12  0.17120000000E+03  0.17120000000E+03 0.  0.
         13    1    1    2    0    0 -0.17193752358E+01  0.11270698657E+02  0.31592810824E+02  0.33587226132E+02  0.10566000000E+00 0.  1.
        994    1    1    2    0    0 -0.52788711106E+01 -0.58495101186E+01  0.22512450677E+01  0.17139600740E+03  0.17120000000E+03 0.  0.
        998    1    1    2    0    0  0.69982463464E+01 -0.54211885381E+01  0.14661559404E+04  0.14662167665E+04  0.10000000000E+02 0.  1.
</event>
<event>
 5    1  0.1800099E-008  0.3853709E+03  0.7957747E-01  0.3428101E+00
         13   -1    0    0    0    0  0.00000000000E+00  0.00000000000E+00  0.14999999963E+04  0.15000000000E+04  0.10566000000E+00 0.  1.
        994   -1    0    0    0    0 -0.00000000000E+00 -0.00000000000E+00  0.11368683772E-12  0.17120000000E+03  0.17120000000E+03 0.  0.
         13    1    1    2    0    0 -0.94056720281E+01  0.86720593415E+01  0.56806602687E+02  0.58229481815E+02  0.10566000000E+00 0.  1.
        994    1    1    2    0    0  0.26379094064E+01 -0.96636863661E+01  0.17758000648E+01  0.17150200834E+03  0.17120000000E+03 0.  0.
        998    1    1    2    0    0  0.67677626218E+01  0.99162702463E+00  0.14414175935E+04  0.14414685098E+04  0.10000000000E+02 0.  1.
</event>
<event>
 5    1  0.1800099E-008  0.3734055E+03  0.7957747E-01  0.3480385E+00
         13   -1    0    0    0    0  0.00000000000E+00  0.00000000000E+00  0.14999999963E+04  0.15000000000E+04  0.10566000000E+00 0.  1.
        994   -1    0    0    0    0 -0.00000000000E+00 -0.00000000000E+00  0.11368683772E-12  0.17120000000E+03  0.17120000000E+03 0.  0.
         13    1    1    2    0    0 -0.96668389343E+01 -0.22418637885E+02  0.35979572985E+02  0.43480845620E+02  0.10566000000E+00 0.  1.
        994    1    1    2    0    0  0.12386236420E+02  0.20671901956E+02  0.94871249410E+01  0.17314789032E+03  0.17120000000E+03 0.  0.
        998    1    1    2    0    0 -0.27193974857E+01  0.17467359287E+01  0.14545332984E+04  0.14545712641E+04  0.10000000000E+02 0.  1.
</event>
<event>
 5    1  0.1800099E-008  0.3784657E+03  0.7957747E-01  0.3457867E+00
         13   -1    0    0    0    0  0.00000000000E+00  0.00000000000E+00  0.14999999963E+04  0.15000000000E+04  0.10566000000E+00 0. -1.
        994   -1    0    0    0    0 -0.00000000000E+00 -0.00000000000E+00  0.11368683772E-12  0.17120000000E+03  0.17120000000E+03 0.  0.
         13    1    1    2    0    0  0.21122358313E+02  0.12391913185E+02  0.62424573857E+02  0.67056335408E+02  0.10566000000E+00 0. -1.
        994    1    1    2    0    0 -0.43796922668E+01  0.32095742516E+01  0.50087380435E+01  0.17135930243E+03  0.17120000000E+03 0.  0.
        998    1    1    2    0    0 -0.16742666046E+02 -0.15601487437E+02  0.14325666844E+04  0.14327843622E+04  0.10000000000E+02 0. -1.
</event>
<event>
 5    1  0.1800099E-008  0.3860918E+03  0.7957747E-01  0.3425055E+00
         13   -1    0    0    0    0  0.00000000000E+00  0.00000000000E+00  0.14999999963E+04  0.15000000000E+04  0.10566000000E+00 0. -1.
        994   -1    0    0    0    0 -0.00000000000E+00 -0.00000000000E+00  0.11368683772E-12  0.17120000000E+03  0.17120000000E+03 0.  0.
         13    1    1    2    0    0 -0.95012185407E+01  0.46707405429E+01  0.52717232153E+02  0.53769942356E+02  0.10566000000E+00 0. -1.
        994    1    1    2    0    0  0.22031182939E+01 -0.82729893376E+01  0.13292753985E+01  0.17141908603E+03  0.17120000000E+03 0.  0.
        998    1    1    2    0    0  0.72981002468E+01  0.36022487947E+01  0.14459534887E+04  0.14460109716E+04  0.10000000000E+02 0. -1.
</event>
<event>
 5    1  0.1800099E-008  0.3764506E+03  0.7957747E-01  0.3466760E+00
         13   -1    0    0    0    0  0.00000000000E+00  0.00000000000E+00  0.14999999963E+04  0.15000000000E+04  0.10566000000E+00 0.  1.
        994   -1    0    0    0    0 -0.00000000000E+00 -0.00000000000E+00  0.11368683772E-12  0.17120000000E+03  0.17120000000E+03 0.  0.
         13    1    1    2    0    0 -0.31172338649E+02  0.13871072542E+02  0.10109642218E+03  0.10669873051E+03  0.10566000000E+00 0.  1.
        994    1    1    2    0    0  0.79450432282E+01 -0.46720049472E+01  0.62230867579E+01  0.17156082930E+03  0.17120000000E+03 0.  0.
        998    1    1    2    0    0  0.23227295421E+02 -0.91990675948E+01  0.13926804873E+04  0.13929404402E+04  0.10000000000E+02 0.  1.
</event>
<event>
 5    1  0.1800099E-008  0.3845605E+03  0.7957747E-01  0.3431538E+00
         13   -1    0    0    0    0  0.00000000000E+00  0.00000000000E+00  0.14999999963E+04  0.15000000000E+04  0.10566000000E+00 0. -1.
        994   -1    0    0    0    0 -0.00000000000E+00 -0.00000000000E+00  0.11368683772E-12  0.17120000000E+03  0.17120000000E+03 0.  0.
         13    1    1    2    0    0 -0.17900584362E+02  0.10687098009E+02  0.11781611880E+03  0.11964653776E+03  0.10566000000E+00 0. -1.
        994    1    1    2    0    0  0.57468409384E+01 -0.15190641539E+02  0.27176872433E+01  0.17199013808E+03  0.17120000000E+03 0.  0.
        998    1    1    2    0    0  0.12153743424E+02  0.45035435306E+01  0.13794661902E+04  0.13795633242E+04  0.10000000000E+02 0. -1.
</event>
<event>
 5    1  0.1800099E-008  0.3755014E+03  0.7957747E-01  0.3470983E+00
         13   -1    0    0    0    0  0.00000000000E+00  0.00000000000E+00  0.14999999963E+04  0.15000000000E+04  0.10566000000E+00 0. -1.
        994   -1    0    0    0    0 -0.00000000000E+00 -0.00000000000E+00  0.11368683772E-12  0.17120000000E+03  0.17120000000E+03 0.  0.
         13    1    1    2    0    0  0.13762099301E+02 -0.23000642549E+02  0.55274556888E+02  0.61430552154E+02  0.10566000000E+00 0. -1.
        994    1    1    2    0    0 -0.18793060906E+02 -0.25205558932E+01  0.76424789632E+01  0.17241629803E+03  0.17120000000E+03 0.  0.
        998    1    1    2    0    0  0.50309616045E+01  0.25521198442E+02  0.14370829604E+04  0.14373531498E+04  0.10000000000E+02 0. -1.
</event>
<event>
 5    1  0.1800099E-008  0.3840751E+03  0.7957747E-01  0.3433604E+00
         13   -1    0    0    0    0  0.00000000000E+00  0.00000000000E+00  0.14999999963E+04  0.15000000000E+04  0.10566000000E+00 0.  1.
        994   -1    0    0    0    0 -0.00000000000E+00 -0.00000000000E+00  0.11368683772E-12  0.17120000000E+03  0.17120000000E+03 0.  0.
         13    1    1    2    0    0  0.90713322238E+01 -0.43308971608E+01  0.24423032544E+02  0.26411009470E+02  0.10566000000E+00 0.  1.
        994    1    1    2    0    0 -0.96926098656E+00 -0.91496522246E+01  0.23692978016E+01  0.17146343393E+03  0.17120000000E+03 0.  0.
        998    1    1    2    0    0 -0.81020712372E+01  0.13480549385E+02  0.14732076659E+04  0.14733255566E+04  0.10000000000E+02 0.  1.
</event>
<event>
 5    1  0.1800099E-008  0.3755932E+03  0.7957747E-01  0.3470574E+00
         13   -1    0    0    0    0  0.00000000000E+00  0.00000000000E+00  0.14999999963E+04  0.15000000000E+04  0.10566000000E+00 0. -1.
        994   -1    0    0    0    0 -0.00000000000E+00 -0.00000000000E+00  0.11368683772E-12  0.17120000000E+03  0.17120000000E+03 0.  0.
         13    1    1    2    0    0 -0.51378173789E+02  0.22919191654E+02  0.20682391114E+03  0.21433886132E+03  0.10566000000E+00 0. -1.
        994    1    1    2    0    0  0.58422267554E+02 -0.19064147442E+02  0.19295798526E+02  0.18291629480E+03  0.17120000000E+03 0.  0.
        998    1    1    2    0    0 -0.70440937643E+01 -0.38550442120E+01  0.12738802866E+04  0.12739448439E+04  0.10000000000E+02 0. -1.
</event>
<event>
 5    1  0.1800099E-008  0.3723781E+03  0.7957747E-01  0.3485032E+00
         13   -1    0    0    0    0  0.00000000000E+00  0.00000000000E+00  0.14999999963E+04  0.15000000000E+04  0.10566000000E+00 0. -1.
        994   -1    0    0    0    0 -0.00000000000E+00 -0.00000000000E+00  0.11368683772E-12  0.17120000000E+03  0.17120000000E+03 0.  0.
         13    1    1    2    0    0 -0.56831131816E+02  0.36448247369E+02  0.37351178613E+03  0.37956464248E+03  0.10566000000E+00 0. -1.
        994    1    1    2    0    0 -0.10129198331E+02 -0.27350000348E+02  0.10954133769E+02  0.17401165543E+03  0.17120000000E+03 0.  0.
        998    1    1    2    0    0  0.66960330147E+02 -0.90982470210E+01  0.11155340764E+04  0.11176237021E+04  0.10000000000E+02 0. -1.
</event>
<event>
 5    1  0.1800099E-008  0.3784270E+03  0.7957747E-01  0.3458036E+00
         13   -1    0    0    0    0  0.00000000000E+00  0.00000000000E+00  0.14999999963E+04  0.15000000000E+04  0.10566000000E+00 0. -1.
        994   -1    0    0    0    0 -0.00000000000E+00 -0.00000000000E+00  0.11368683772E-12  0.17120000000E+03  0.17120000000E+03 0.  0.
         13    1    1    2    0    0 -0.10759588829E+02  0.63193454679E+00  0.95053513000E+01  0.14371185074E+02  0.10566000000E+00 0. -1.
        994    1    1    2    0    0  0.11256507580E+02  0.59859701753E+01  0.54756856821E+01  0.17176135752E+03  0.17120000000E+03 0.  0.
        998    1    1    2    0    0 -0.49691875125E+00 -0.66179047221E+01  0.14850189593E+04  0.14850674574E+04  0.10000000000E+02 0. -1.
</event>
<event>
 5    1  0.1800099E-008  0.3753440E+03  0.7957747E-01  0.3471686E+00
         13   -1    0    0    0    0  0.00000000000E+00  0.00000000000E+00  0.14999999963E+04  0.15000000000E+04  0.10566000000E+00 0. -1.
        994   -1    0    0    0    0 -0.00000000000E+00 -0.00000000000E+00  0.11368683772E-12  0.17120000000E+03  0.17120000000E+03 0.  0.
         13    1    1    2    0    0 -0.47110939413E+02  0.21372425310E+01  0.14911221541E+03  0.15639204700E+03  0.10566000000E+00 0. -1.
        994    1    1    2    0    0  0.51797075132E+02 -0.66596986114E+01  0.15818905362E+02  0.17968574330E+03  0.17120000000E+03 0.  0.
        998    1    1    2    0    0 -0.46861357192E+01  0.45224560804E+01  0.13350688755E+04  0.13351222097E+04  0.10000000000E+02 0. -1.
</event>
<event>
 5    1  0.1800099E-008  0.3847884E+03  0.7957747E-01  0.3430570E+00
         13   -1    0    0    0    0  0.00000000000E+00  0.00000000000E+00  0.14999999963E+04  0.15000000000E+04  0.10566000000E+00 0. -1.
        994   -1    0    0    0    0 -0.00000000000E+00 -0.00000000000E+00  0.11368683772E-12  0.17120000000E+03  0.17120000000E+03 0.  0.
         13    1    1    2    0    0  0.37625106033E+01  0.13890860577E+02  0.62555692389E+02  0.64189861410E+02  0.10566000000E+00 0. -1.
        994    1    1    2    0    0  0.32760924663E+01 -0.24238950334E+01  0.17898899754E+01  0.17125785166E+03  0.17120000000E+03 0.  0.
        998    1    1    2    0    0 -0.70386030696E+01 -0.11466965544E+02  0.14356544139E+04  0.14357522869E+04  0.10000000000E+02 0. -1.
</event>
<event>
 5    1  0.1800099E-008  0.3819983E+03  0.7957747E-01  0.3442503E+00
         13   -1    0    0    0    0  0.00000000000E+00  0.00000000000E+00  0.14999999963E+04  0.15000000000E+04  0.10566000000E+00 0.  1.
        994   -1    0    0    0    0 -0.00000000000E+00 -0.00000000000E+00  0.11368683772E-12  0.17120000000E+03  0.17120000000E+03 0.  0.
         13    1    1    2    0    0  0.28969875845E+01 -0.15671297364E+02  0.38481855055E+02  0.41651487737E+02  0.10566000000E+00 0.  1.
        994    1    1    2    0    0 -0.36475992249E+01  0.17242618727E+02  0.41600200568E+01  0.17215504247E+03  0.17120000000E+03 0.  0.
        998    1    1    2    0    0  0.75061164040E+00 -0.15713213621E+01  0.14573581212E+04  0.14573934698E+04  0.10000000000E+02 0.  1.
</event>
<event>
 5    1  0.1800099E-008  0.3824877E+03  0.7957747E-01  0.3440398E+00
         13   -1    0    0    0    0  0.00000000000E+00  0.00000000000E+00  0.14999999963E+04  0.15000000000E+04  0.10566000000E+00 0. -1.
        994   -1    0    0    0    0 -0.00000000000E+00 -0.00000000000E+00  0.11368683772E-12  0.17120000000E+03  0.17120000000E+03 0.  0.
         13    1    1    2    0    0 -0.14278584301E+02 -0.81208671037E+01  0.45522694151E+02  0.48395798360E+02  0.10566000000E+00 0. -1.
        994    1    1    2    0    0  0.82262221995E+01  0.11106046684E+02  0.35162064419E+01  0.17179295303E+03  0.17120000000E+03 0.  0.
        998    1    1    2    0    0  0.60523621011E+01 -0.29851795807E+01  0.14509610957E+04  0.14510112486E+04  0.10000000000E+02 0. -1.
</event>
<event>
 5    1  0.1800099E-008  0.3849616E+03  0.7957747E-01  0.3429835E+00
         13   -1    0    0    0    0  0.00000000000E+00  0.00000000000E+00  0.14999999963E+04  0.15000000000E+04  0.10566000000E+00 0.  1.
        994   -1    0    0    0    0 -0.00000000000E+00 -0.00000000000E+00  0.11368683772E-12  0.17120000000E+03  0.17120000000E+03 0.  0.
         13    1    1    2    0    0 -0.10757585415E+02  0.50093467692E+00  0.36096823080E+02  0.37669196700E+02  0.10566000000E+00 0.  1.
        994    1    1    2    0    0  0.34305436526E+00 -0.80258920344E+01  0.18615003769E+01  0.17139847669E+03  0.17120000000E+03 0.  0.
        998    1    1    2    0    0  0.10414531050E+02  0.75249573575E+01  0.14620416728E+04  0.14621323266E+04  0.10000000000E+02 0.  1.
</event>
<event>
 5    1  0.2200474E-008  0.3864764E+03  0.7957747E-01  0.3423435E+00
         13   -1    0    0    0    0  0.00000000000E+00  0.00000000000E+00  0.14999999963E+04  0.15000000000E+04  0.10566000000E+00 0. -1.
        994   -1    0    0    0    0 -0.00000000000E+00 -0.00000000000E+00  0.11368683772E-12  0.17120000000E+03  0.17120000000E+03 0.  0.
         13    1    1    2    0    0 -0.37607120525E+01  0.96608986715E+01  0.61088991806E+02  0.61962504809E+02  0.10566000000E+00 0. -1.
        994    1    1    2    0    0  0.80478955381E+01 -0.43350716991E+01  0.11724228511E+01  0.17144788142E+03  0.17120000000E+03 0.  0.
        998    1    1    2    0    0 -0.42871834857E+01 -0.53258269724E+01  0.14377385816E+04  0.14377896138E+04  0.10000000000E+02 0. -1.
</event>
<event>
 5    1  0.1800099E-008  0.3766002E+03  0.7957747E-01  0.3466097E+00
         13   -1    0    0    0    0  0.00000000000E+00  0.00000000000E+00  0.14999999963E+04  0.15000000000E+04  0.10566000000E+00 0. -1.
        994   -1    0    0    0    0 -0.00000000000E+00 -0.00000000000E+00  0.11368683772E-12  0.17120000000E+03  0.17120000000E+03 0.  0.
         13    1    1    2    0    0 -0.25339255060E+02 -0.49284896104E+02  0.23552241962E+03  0.24195433482E+03  0.10566000000E+00 0. -1.
        994    1    1    2    0    0  0.43087274584E+02  0.30746157097E+02  0.15391564463E+02  0.17985599702E+03  0.17120000000E+03 0.  0.
        998    1    1    2    0    0 -0.17748019524E+02  0.18538739007E+02  0.12490860122E+04  0.12493896682E+04  0.10000000000E+02 0. -1.
</event>
<event>
 5    1  0.1800099E-008  0.3844705E+03  0.7957747E-01  0.3431921E+00
         13   -1    0    0    0    0  0.00000000000E+00  0.00000000000E+00  0.14999999963E+04  0.15000000000E+04  0.10566000000E+00 0.  1.
        994   -1    0    0    0    0 -0.00000000000E+00 -0.00000000000E+00  0.11368683772E-12  0.17120000000E+03  0.17120000000E+03 0.  0.
         13    1    1    2    0    0  0.55311867329E+01 -0.51719826953E+02  0.55269314464E+02  0.75896263493E+02  0.10566000000E+00 0.  1.
        994    1    1    2    0    0  0.64001192946E+01  0.97393260697E+02  0.54813482633E+02  0.20454917901E+03  0.17120000000E+03 0.  0.
        998    1    1    2    0    0 -0.11931306028E+02 -0.45673433744E+02  0.13899171992E+04  0.13907545575E+04  0.10000000000E+02 0.  1.
</event>
<event>
 5    1  0.1800099E-008  0.3826587E+03  0.7957747E-01  0.3439663E+00
         13   -1    0    0    0    0  0.00000000000E+00  0.00000000000E+00  0.14999999963E+04  0.15000000000E+04  0.10566000000E+00 0. -1.
        994   -1    0    0    0    0 -0.00000000000E+00 -0.00000000000E+00  0.11368683772E-12  0.17120000000E+03  0.17120000000E+03 0.  0.
         13    1    1    2    0    0  0.19659574132E+02  0.18506983783E+01  0.66443708093E+02  0.69315953782E+02  0.10566000000E+00 0. -1.
        994    1    1    2    0    0 -0.19343144812E+02 -0.57863877998E+01  0.41490215922E+01  0.17243634743E+03  0.17120000000E+03 0.  0.
        998    1    1    2    0    0 -0.31642931945E+00  0.39356894216E+01  0.14294072666E+04  0.14294476988E+04  0.10000000000E+02 0. -1.
</event>
<event>
 5    1  0.1800099E-008  0.3848785E+03  0.7957747E-01  0.3430188E+00
         13   -1    0    0    0    0  0.00000000000E+00  0.00000000000E+00  0.14999999963E+04  0.15000000000E+04  0.10566000000E+00 0. -1.
        994   -1    0    0    0    0 -0.00000000000E+00 -0.00000000000E+00  0.11368683772E-12  0.17120000000E+03  0.17120000000E+03 0.  0.
         13    1    1    2    0    0 -0.86355745031E+01  0.58653004410E+01  0.31623084037E+02  0.33301734254E+02  0.10566000000E+00 0. -1.
        994    1    1    2    0    0  0.88781607394E+01 -0.39590789489E+01  0.20014420471E+01  0.17148743923E+03  0.17120000000E+03 0.  0.
        998    1    1    2    0    0 -0.24258623630E+00 -0.19062214921E+01  0.14663754702E+04  0.14664108265E+04  0.10000000000E+02 0.  0.
</event>
<event>
 5    1  0.1800099E-008  0.3859193E+03  0.7957747E-01  0.3425783E+00
         13   -1    0    0    0    0  0.00000000000E+00  0.00000000000E+00  0.14999999963E+04  0.15000000000E+04  0.10566000000E+00 0. -1.
        994   -1    0    0    0    0 -0.00000000000E+00 -0.00000000000E+00  0.11368683772E-12  0.17120000000E+03  0.17120000000E+03 0.  0.
         13    1    1    2    0    0  0.12883838617E+02 -0.55853013640E+01  0.77861062221E+02  0.79117286752E+02  0.10566000000E+00 0. -1.
        994    1    1    2    0    0 -0.18102874017E+02  0.82803454979E+01  0.24748267570E+01  0.17237123582E+03  0.17120000000E+03 0.  0.
        998    1    1    2    0    0  0.52190353997E+01 -0.26950441339E+01  0.14196641073E+04  0.14197114774E+04  0.10000000000E+02 0. -1.
</event>
<event>
 5    1  0.1800099E-008  0.3846097E+03  0.7957747E-01  0.3431329E+00
         13   -1    0    0    0    0  0.00000000000E+00  0.00000000000E+00  0.14999999963E+04  0.15000000000E+04  0.10566000000E+00 0.  1.
        994   -1    0    0    0    0 -0.00000000000E+00 -0.00000000000E+00  0.11368683772E-12  0.17120000000E+03  0.17120000000E+03 0.  0.
         13    1    1    2    0    0 -0.14077749247E+02  0.44548379685E+01  0.60722601905E+02  0.62492192723E+02  0.10566000000E+00 0.  1.
        994    1    1    2    0    0  0.63619379931E+01 -0.12966981026E+01  0.19628707097E+01  0.17133431805E+03  0.17120000000E+03 0.  0.
        998    1    1    2    0    0  0.77158112539E+01 -0.31581398658E+01  0.14373145237E+04  0.14373734892E+04  0.10000000000E+02 0.  1.
</event>
<event>
 5    1  0.1800099E-008  0.3831096E+03  0.7957747E-01  0.3437729E+00
         13   -1    0    0    0    0  0.00000000000E+00  0.00000000000E+00  0.14999999963E+04  0.15000000000E+04  0.10566000000E+00 0.  1.
        994   -1    0    0    0    0 -0.00000000000E+00 -0.00000000000E+00  0.11368683772E-12  0.17120000000E+03  0.17120000000E+03 0.  0.
         13    1    1    2    0    0  0.12084640448E+02  0.29157641349E+02  0.18784293130E+03  0.19047620478E+03  0.10566000000E+00 0.  1.
        994    1    1    2    0    0 -0.42334759561E+01 -0.21609683468E+02  0.41777590879E+01  0.17266092323E+03  0.17120000000E+03 0.  0.
        998    1    1    2    0    0 -0.78511644915E+01 -0.75479578812E+01  0.13079793059E+04  0.13080628720E+04  0.10000000000E+02 0.  1.
</event>
<event>
 5    1  0.1800099E-008  0.3854136E+03  0.7957747E-01  0.3427920E+00
         13   -1    0    0    0    0  0.00000000000E+00  0.00000000000E+00  0.14999999963E+04  0.15000000000E+04  0.10566000000E+00 0.  1.
        994   -1    0    0    0    0 -0.00000000000E+00 -0.00000000000E+00  0.11368683772E-12  0.17120000000E+03  0.17120000000E+03 0.  0.
         13    1    1    2    0    0  0.10257008254E+02  0.68960470418E+01  0.55174101956E+02  0.56541616300E+02  0.10566000000E+00 0.  1.
        994    1    1    2    0    0 -0.57888300229E+01  0.98863082450E+00  0.15382063271E+01  0.17130760060E+03  0.17120000000E+03 0.  0.
        998    1    1    2    0    0 -0.44681782310E+01 -0.78846778663E+01  0.14432876880E+04  0.14433507831E+04  0.10000000000E+02 0.  1.
</event>
<event>
 5    1  0.1800099E-008  0.3796561E+03  0.7957747E-01  0.3452657E+00
         13   -1    0    0    0    0  0.00000000000E+00  0.00000000000E+00  0.14999999963E+04  0.15000000000E+04  0.10566000000E+00 0. -1.
        994   -1    0    0    0    0 -0.00000000000E+00 -0.00000000000E+00  0.11368683772E-12  0.17120000000E+03  0.17120000000E+03 0.  0.
         13    1    1    2    0    0 -0.15957699151E+02 -0.38893047040E+02  0.17755506421E+03  0.18246404923E+03  0.10566000000E+00 0. -1.
        994    1    1    2    0    0  0.77322518182E+01  0.45622612706E+02  0.11506397161E+02  0.17771619984E+03  0.17120000000E+03 0.  0.
        998    1    1    2    0    0  0.82254473325E+01 -0.67295656665E+01  0.13109385349E+04  0.13110197509E+04  0.10000000000E+02 0. -1.
</event>
<event>
 5    1  0.1800099E-008  0.3857707E+03  0.7957747E-01  0.3426410E+00
         13   -1    0    0    0    0  0.00000000000E+00  0.00000000000E+00  0.14999999963E+04  0.15000000000E+04  0.10566000000E+00 0. -1.
        994   -1    0    0    0    0 -0.00000000000E+00 -0.00000000000E+00  0.11368683772E-12  0.17120000000E+03  0.17120000000E+03 0.  0.
         13    1    1    2    0    0 -0.11576898084E+02 -0.35142357924E+01  0.67895628994E+02  0.68965223287E+02  0.10566000000E+00 0. -1.
        994    1    1    2    0    0 -0.11669151014E+02  0.35412153672E+01  0.17359682166E+01  0.17164254390E+03  0.17120000000E+03 0.  0.
        998    1    1    2    0    0  0.23246049097E+02 -0.26979574835E-01  0.14303683991E+04  0.14305922328E+04  0.10000000000E+02 0. -1.
</event>
<event>
 5    1  0.1800099E-008  0.3715005E+03  0.7957747E-01  0.3489023E+00
         13   -1    0    0    0    0  0.00000000000E+00  0.00000000000E+00  0.14999999963E+04  0.15000000000E+04  0.10566000000E+00 0.  1.
        994   -1    0    0    0    0 -0.00000000000E+00 -0.00000000000E+00  0.11368683772E-12  0.17120000000E+03  0.17120000000E+03 0.  0.
         13    1    1    2    0    0 -0.18012910567E+02  0.39726769083E+02  0.74347569353E+02  0.86198917403E+02  0.10566000000E+00 0.  1.
        994    1    1    2    0    0  0.12602900447E+02 -0.37523626544E+02  0.17261261767E+02  0.17656230290E+03  0.17120000000E+03 0.  0.
        998    1    1    2    0    0  0.54100101206E+01 -0.22031425390E+01  0.14083911652E+04  0.14084387797E+04  0.10000000000E+02 0.  1.
</event>
<event>
 5    1  0.1800099E-008  0.3858164E+03  0.7957747E-01  0.3426217E+00
         13   -1    0    0    0    0  0.00000000000E+00  0.00000000000E+00  0.14999999963E+04  0.15000000000E+04  0.10566000000E+00 0. -1.
        994   -1    0    0    0    0 -0.00000000000E+00 -0.00000000000E+00  0.11368683772E-12  0.17120000000E+03  0.17120000000E+03 0.  0.
         13    1    1    2    0    0 -0.72184416847E+01 -0.69233292615E+01  0.44782508800E+02  0.45885974403E+02  0.10566000000E+00 0. -1.
        994    1    1    2    0    0 -0.33253904281E+01 -0.66690067384E+01  0.14075168865E+01  0.17136789366E+03  0.17120000000E+03 0.  0.
        998    1    1    2    0    0  0.10543832113E+02  0.13592336000E+02  0.14538099706E+04  0.14539461319E+04  0.10000000000E+02 0. -1.
</event>
<event>
 5    1  0.1800099E-008  0.3845121E+03  0.7957747E-01  0.3431744E+00
         13   -1    0    0    0    0  0.00000000000E+00  0.00000000000E+00  0.14999999963E+04  0.15000000000E+04  0.10566000000E+00 0. -1.
        994   -1    0    0    0    0 -0.00000000000E+00 -0.00000000000E+00  0.11368683772E-12  0.17120000000E+03  0.17120000000E+03 0.  0.
         13    1    1    2    0    0  0.33247669419E+01  0.11252946213E+02  0.36235231872E+02  0.38087872959E+02  0.10566000000E+00 0. -1.
        994    1    1    2    0    0 -0.35450994506E+01 -0.83012178359E+01  0.21410071643E+01  0.17145116465E+03  0.17120000000E+03 0.  0.
        998    1    1    2    0    0  0.22033250873E+00 -0.29517283769E+01  0.14616237572E+04  0.14616609624E+04  0.10000000000E+02 0. -1.
</event>
<event>
 5    1  0.1800099E-008  0.3834441E+03  0.7957747E-01  0.3436298E+00
         13   -1    0    0    0    0  0.00000000000E+00  0.00000000000E+00  0.14999999963E+04  0.15000000000E+04  0.10566000000E+00 0.  1.
        994   -1    0    0    0    0 -0.00000000000E+00 -0.00000000000E+00  0.11368683772E-12  0.17120000000E+03  0.17120000000E+03 0.  0.
         13    1    1    2    0    0  0.73575814289E+01  0.85193974616E+01  0.26570705819E+02  0.28857021838E+02  0.10566000000E+00 0.  1.
        994    1    1    2    0    0  0.13791679406E+01  0.30096722032E+01  0.24408275540E+01  0.17124940254E+03  0.17120000000E+03 0.  0.
        998    1    1    2    0    0 -0.87367493695E+01 -0.11529069665E+02  0.14709884629E+04  0.14710935756E+04  0.10000000000E+02 0.  1.
</event>
<event>
 5    1  0.1800099E-008  0.3841440E+03  0.7957747E-01  0.3433311E+00
         13   -1    0    0    0    0  0.00000000000E+00  0.00000000000E+00  0.14999999963E+04  0.15000000000E+04  0.10566000000E+00 0. -1.
        994   -1    0    0    0    0 -0.00000000000E+00 -0.00000000000E+00  0.11368683772E-12  0.17120000000E+03  0.17120000000E+03 0.  0.
         13    1    1    2    0    0 -0.50095922162E+00  0.10978605925E+02  0.28870696370E+02  0.30891892482E+02  0.10566000000E+00 0. -1.
        994    1    1    2    0    0  0.49701322658E+01 -0.68838085943E+01  0.22934930514E+01  0.17142575403E+03  0.17120000000E+03 0.  0.
        998    1    1    2    0    0 -0.44691730442E+01 -0.40947973305E+01  0.14688358069E+04  0.14688823535E+04  0.10000000000E+02 0. -1.
</event>
<event>
 5    1  0.1800099E-008  0.3838980E+03  0.7957747E-01  0.3434360E+00
         13   -1    0    0    0    0  0.00000000000E+00  0.00000000000E+00  0.14999999963E+04  0.15000000000E+04  0.10566000000E+00 0.  1.
        994   -1    0    0    0    0 -0.00000000000E+00 -0.00000000000E+00  0.11368683772E-12  0.17120000000E+03  0.17120000000E+03 0.  0.
         13    1    1    2    0    0 -0.20175409803E+01  0.13098121123E+02  0.39334935595E+02  0.41507584498E+02  0.10566000000E+00 0.  1.
        994    1    1    2    0    0  0.19782956722E+01 -0.11200926514E+02  0.26053815502E+01  0.17159720983E+03  0.17120000000E+03 0.  0.
        998    1    1    2    0    0  0.39245308129E-01 -0.18971946088E+01  0.14580596791E+04  0.14580952057E+04  0.10000000000E+02 0.  1.
</event>
<event>
 5    1  0.1800099E-008  0.3797890E+03  0.7957747E-01  0.3452078E+00
         13   -1    0    0    0    0  0.00000000000E+00  0.00000000000E+00  0.14999999963E+04  0.15000000000E+04  0.10566000000E+00 0. -1.
        994   -1    0    0    0    0 -0.00000000000E+00 -0.00000000000E+00  0.11368683772E-12  0.17120000000E+03  0.17120000000E+03 0.  0.
         13    1    1    2    0    0  0.14380463588E+02  0.63871194925E+01  0.29771593998E+02  0.33674203801E+02  0.10566000000E+00 0. -1.
        994    1    1    2    0    0  0.10670075024E+02  0.14166364139E+02  0.52925791439E+01  0.17219752544E+03  0.17120000000E+03 0.  0.
        998    1    1    2    0    0 -0.25050538611E+02 -0.20553483631E+02  0.14649358231E+04  0.14653282708E+04  0.10000000000E+02 0. -1.
</event>
<event>
 5    1  0.1800099E-008  0.3722823E+03  0.7957747E-01  0.3485467E+00
         13   -1    0    0    0    0  0.00000000000E+00  0.00000000000E+00  0.14999999963E+04  0.15000000000E+04  0.10566000000E+00 0. -1.
        994   -1    0    0    0    0 -0.00000000000E+00 -0.00000000000E+00  0.11368683772E-12  0.17120000000E+03  0.17120000000E+03 0.  0.
         13    1    1    2    0    0  0.21251103040E+02  0.39793734275E+02  0.12897040468E+03  0.13663281859E+03  0.10566000000E+00 0. -1.
        994    1    1    2    0    0 -0.33327732752E+02 -0.18301333782E+01  0.11912663602E+02  0.17482974207E+03  0.17120000000E+03 0.  0.
        998    1    1    2    0    0  0.12076629712E+02 -0.37963600897E+02  0.13591169280E+04  0.13597374393E+04  0.10000000000E+02 0. -1.
</event>
<event>
 5    1  0.1800099E-008  0.3775708E+03  0.7957747E-01  0.3461804E+00
         13   -1    0    0    0    0  0.00000000000E+00  0.00000000000E+00  0.14999999963E+04  0.15000000000E+04  0.10566000000E+00 0. -1.
        994   -1    0    0    0    0 -0.00000000000E+00 -0.00000000000E+00  0.11368683772E-12  0.17120000000E+03  0.17120000000E+03 0.  0.
         13    1    1    2    0    0  0.31539131124E+02 -0.35201808562E+01  0.10329494962E+03  0.10806001225E+03  0.10566000000E+00 0. -1.
        994    1    1    2    0    0  0.59701169386E+01  0.75698106576E+01  0.56777203651E+01  0.17156520871E+03  0.17120000000E+03 0.  0.
        998    1    1    2    0    0 -0.37509248062E+02 -0.40496298014E+01  0.13910273263E+04  0.13915747790E+04  0.10000000000E+02 0. -1.
</event>
<event>
 5    1  0.1800099E-008  0.4061998E+03  0.7957747E-01  0.3344454E+00
         13   -1    0    0    0    0  0.00000000000E+00  0.00000000000E+00  0.14999999963E+04  0.15000000000E+04  0.10566000000E+00 0.  1.
        994   -1    0    0    0    0 -0.00000000000E+00 -0.00000000000E+00  0.11368683772E-12  0.17120000000E+03  0.17120000000E+03 0.  0.
         13    1    1    2    0    0 -0.80605181959E+01  0.23362957599E+02 -0.38071937558E+01  0.25006111847E+02  0.10566000000E+00 0.  1.
        994    1    1    2    0    0  0.39926834900E+01 -0.21328599946E+02  0.33432715630E+02  0.17577837515E+03  0.17120000000E+03 0.  0.
        998    1    1    2    0    0  0.40678347059E+01 -0.20343576534E+01  0.14703744744E+04  0.14704155130E+04  0.10000000000E+02 0.  1.
</event>
<event>
 5    1  0.1800099E-008  0.3748559E+03  0.7957747E-01  0.3473868E+00
         13   -1    0    0    0    0  0.00000000000E+00  0.00000000000E+00  0.14999999963E+04  0.15000000000E+04  0.10566000000E+00 0. -1.
        994   -1    0    0    0    0 -0.00000000000E+00 -0.00000000000E+00  0.11368683772E-12  0.17120000000E+03  0.17120000000E+03 0.  0.
         13    1    1    2    0    0  0.34297685416E+02  0.71763637022E+02  0.35032283560E+03  0.35923871051E+03  0.10566000000E+00 0. -1.
        994    1    1    2    0    0 -0.40801980506E+02 -0.70759915216E+02  0.29792328841E+02  0.19201247374E+03  0.17120000000E+03 0.  0.
        998    1    1    2    0    0  0.65042950902E+01 -0.10037218055E+01  0.11198848318E+04  0.11199488157E+04  0.10000000000E+02 0. -1.
</event>
<event>
 5    1  0.1800099E-008  0.3810843E+03  0.7957747E-01  0.3446451E+00
         13   -1    0    0    0    0  0.00000000000E+00  0.00000000000E+00  0.14999999963E+04  0.15000000000E+04  0.10566000000E+00 0.  1.
        994   -1    0    0    0    0 -0.00000000000E+00 -0.00000000000E+00  0.11368683772E-12  0.17120000000E+03  0.17120000000E+03 0.  0.
         13    1    1    2    0    0 -0.31586901553E+01 -0.17201388233E+02  0.44371537196E+02  0.47693915312E+02  0.10566000000E+00 0.  1.
        994    1    1    2    0    0 -0.37967063058E+00 -0.72693879063E+01  0.37633337712E+01  0.17139600588E+03  0.17120000000E+03 0.  0.
        998    1    1    2    0    0  0.35383607859E+01  0.24470776139E+02  0.14518651253E+04  0.14521100788E+04  0.10000000000E+02 0.  1.
</event>
<event>
 5    1  0.1800099E-008  0.3852778E+03  0.7957747E-01  0.3428495E+00
         13   -1    0    0    0    0  0.00000000000E+00  0.00000000000E+00  0.14999999963E+04  0.15000000000E+04  0.10566000000E+00 0. -1.
        994   -1    0    0    0    0 -0.00000000000E+00 -0.00000000000E+00  0.11368683772E-12  0.17120000000E+03  0.17120000000E+03 0.  0.
         13    1    1    2    0    0  0.11684670220E+02  0.59128740893E+01  0.55103392532E+02  0.56638225879E+02  0.10566000000E+00 0. -1.
        994    1    1    2    0    0 -0.14427389396E+02 -0.70347339367E+01  0.23392426658E+01  0.17196670929E+03  0.17120000000E+03 0.  0.
        998    1    1    2    0    0  0.27427191756E+01  0.11218598474E+01  0.14425573611E+04  0.14425950648E+04  0.10000000000E+02 0. -1.
</event>
<event>
 5    1  0.1800099E-008  0.3846642E+03  0.7957747E-01  0.3431098E+00
         13   -1    0    0    0    0  0.00000000000E+00  0.00000000000E+00  0.14999999963E+04  0.15000000000E+04  0.10566000000E+00 0. -1.
        994   -1    0    0    0    0 -0.00000000000E+00 -0.00000000000E+00  0.11368683772E-12  0.17120000000E+03  0.17120000000E+03 0.  0.
         13    1    1    2    0    0 -0.11509675055E+02 -0.58857551140E+01  0.44633590385E+02  0.46468088920E+02  0.10566000000E+00 0. -1.
        994    1    1    2    0    0  0.13162772476E+02  0.89631957954E+01  0.26323124820E+01  0.17195920018E+03  0.17120000000E+03 0.  0.
        998    1    1    2    0    0 -0.16530974208E+01 -0.30774406814E+01  0.14527340934E+04  0.14527727109E+04  0.10000000000E+02 0. -1.
</event>
<event>
 5    1  0.1800099E-008  0.3833724E+03  0.7957747E-01  0.3436604E+00
         13   -1    0    0    0    0  0.00000000000E+00  0.00000000000E+00  0.14999999963E+04  0.15000000000E+04  0.10566000000E+00 0.  1.
        994   -1    0    0    0    0 -0.00000000000E+00 -0.00000000000E+00  0.11368683772E-12  0.17120000000E+03  0.17120000000E+03 0.  0.
         13    1    1    2    0    0 -0.14360094050E+02 -0.12951448463E+02  0.77347515664E+02  0.79728299003E+02  0.10566000000E+00 0.  1.
        994    1    1    2    0    0  0.39962091606E+01  0.93933289819E+01  0.27849493508E+01  0.17152667507E+03  0.17120000000E+03 0.  0.
        998    1    1    2    0    0  0.10363884890E+02  0.35581194810E+01  0.14198675313E+04  0.14199450259E+04  0.10000000000E+02 0.  0.
</event>
<event>
 5    1  0.1800099E-008  0.3820721E+03  0.7957747E-01  0.3442186E+00
         13   -1    0    0    0    0  0.00000000000E+00  0.00000000000E+00  0.14999999963E+04  0.15000000000E+04  0.10566000000E+00 0. -1.
        994   -1    0    0    0    0 -0.00000000000E+00 -0.00000000000E+00  0.11368683772E-12  0.17120000000E+03  0.17120000000E+03 0.  0.
         13    1    1    2    0    0  0.45445135495E+01 -0.37710219842E+02  0.20224732011E+03  0.20578314542E+03  0.10566000000E+00 0. -1.
        994    1    1    2    0    0 -0.16564504115E+01  0.38828144982E+02  0.81217941723E+01  0.17574348412E+03  0.17120000000E+03 0.  0.
        998    1    1    2    0    0 -0.28880631380E+01 -0.11179251396E+01  0.12896308820E+04  0.12896733705E+04  0.10000000000E+02 0. -1.
</event>
<event>
 5    1  0.1800099E-008  0.3820412E+03  0.7957747E-01  0.3442318E+00
         13   -1    0    0    0    0  0.00000000000E+00  0.00000000000E+00  0.14999999963E+04  0.15000000000E+04  0.10566000000E+00 0.  1.
        994   -1    0    0    0    0 -0.00000000000E+00 -0.00000000000E+00  0.11368683772E-12  0.17120000000E+03  0.17120000000E+03 0.  0.
         13    1    1    2    0    0 -0.19331783171E+02 -0.48366820526E+01  0.63699094400E+02  0.66743517477E+02  0.10566000000E+00 0.  1.
        994    1    1    2    0    0  0.12309737046E+02 -0.72588899852E+01  0.37846832885E+01  0.17183708836E+03  0.17120000000E+03 0.  0.
        998    1    1    2    0    0  0.70220461250E+01  0.12095572038E+02  0.14325162186E+04  0.14326193942E+04  0.10000000000E+02 0.  1.
</event>
<event>
 5    1  0.1800099E-008  0.3807963E+03  0.7957747E-01  0.3447698E+00
         13   -1    0    0    0    0  0.00000000000E+00  0.00000000000E+00  0.14999999963E+04  0.15000000000E+04  0.10566000000E+00 0. -1.
        994   -1    0    0    0    0 -0.00000000000E+00 -0.00000000000E+00  0.11368683772E-12  0.17120000000E+03  0.17120000000E+03 0.  0.
         13    1    1    2    0    0 -0.12142322444E+01  0.14217783421E+02  0.25495645535E+02  0.29217440521E+02  0.10566000000E+00 0. -1.
        994    1    1    2    0    0 -0.24837581312E+01 -0.14035292280E+02  0.44093542901E+01  0.17184888969E+03  0.17120000000E+03 0.  0.
        998    1    1    2    0    0  0.36979903757E+01 -0.18249114080E+00  0.14700949965E+04  0.14701336698E+04  0.10000000000E+02 0. -1.
</event>
<event>
 5    1  0.1800099E-008  0.3844826E+03  0.7957747E-01  0.3431869E+00
         13   -1    0    0    0    0  0.00000000000E+00  0.00000000000E+00  0.14999999963E+04  0.15000000000E+04  0.10566000000E+00 0. -1.
        994   -1    0    0    0    0 -0.00000000000E+00 -0.00000000000E+00  0.11368683772E-12  0.17120000000E+03  0.17120000000E+03 0.  0.
         13    1    1    2    0    0 -0.99964979390E+01 -0.25922188862E+01  0.27791321959E+02  0.29648242951E+02  0.10566000000E+00 0. -1.
        994    1    1    2    0    0  0.75233006874E+01 -0.36302015648E+00  0.20741383224E+01  0.17137816047E+03  0.17120000000E+03 0.  0.
        998    1    1    2    0    0  0.24731972516E+01  0.29552390426E+01  0.14701345360E+04  0.14701735966E+04  0.10000000000E+02 0. -1.
</event>
<event>
 5    1  0.1800099E-008  0.3825137E+03  0.7957747E-01  0.3440286E+00
         13   -1    0    0    0    0  0.00000000000E+00  0.00000000000E+00  0.14999999963E+04  0.15000000000E+04  0.10566000000E+00 0.  1.
        994   -1    0    0    0    0 -0.00000000000E+00 -0.00000000000E+00  0.11368683772E-12  0.17120000000E+03  0.17120000000E+03 0.  0.
         13    1    1    2    0    0 -0.27184803613E+02  0.14525676502E+02  0.20657299657E+02  0.37104501324E+02  0.10566000000E+00 0.  1.
        994    1    1    2    0    0 -0.19435533825E+02 -0.32348886968E+02  0.22941276605E+02  0.17680478680E+03  0.17120000000E+03 0.  0.
        998    1    1    2    0    0  0.46620337438E+02  0.17823210466E+02  0.14564014200E+04  0.14572907119E+04  0.10000000000E+02 0.  1.
</event>
<event>
 5    1  0.1800099E-008  0.3854765E+03  0.7957747E-01  0.3427654E+00
         13   -1    0    0    0    0  0.00000000000E+00  0.00000000000E+00  0.14999999963E+04  0.15000000000E+04  0.10566000000E+00 0. -1.
        994   -1    0    0    0    0 -0.00000000000E+00 -0.00000000000E+00  0.11368683772E-12  0.17120000000E+03  0.17120000000E+03 0.  0.
         13    1    1    2    0    0  0.41189290141E+01 -0.16833262425E+02  0.99416362668E+02  0.10091555197E+03  0.10566000000E+00 0. -1.
        994    1    1    2    0    0  0.27466836341E+01  0.22699487374E+02  0.31123317391E+01  0.17274819133E+03  0.17120000000E+03 0.  0.
        998    1    1    2    0    0 -0.68656126482E+01 -0.58662249497E+01  0.13974713019E+04  0.13975362567E+04  0.10000000000E+02 0. -1.
</event>
<event>
 5    1  0.1800099E-008  0.3823943E+03  0.7957747E-01  0.3440799E+00
         13   -1    0    0    0    0  0.00000000000E+00  0.00000000000E+00  0.14999999963E+04  0.15000000000E+04  0.10566000000E+00 0. -1.
        994   -1    0    0    0    0 -0.00000000000E+00 -0.00000000000E+00  0.11368683772E-12  0.17120000000E+03  0.17120000000E+03 0.  0.
         13    1    1    2    0    0 -0.10291854796E+00  0.11985880908E+02  0.24204739280E+02  0.27010229562E+02  0.10566000000E+00 0. -1.
        994    1    1    2    0    0 -0.57453186916E+01  0.19308782034E+01  0.30512279065E+01  0.17133443019E+03  0.17120000000E+03 0.  0.
        998    1    1    2    0    0  0.58482372395E+01 -0.13916759111E+02  0.14727440291E+04  0.14728553402E+04  0.10000000000E+02 0. -1.
</event>
<event>
 5    1  0.1800099E-008  0.4135087E+03  0.7957747E-01  0.3317087E+00
         13   -1    0    0    0    0  0.00000000000E+00  0.00000000000E+00  0.14999999963E+04  0.15000000000E+04  0.10566000000E+00 0.  1.
        994   -1    0    0    0    0 -0.00000000000E+00 -0.00000000000E+00  0.11368683772E-12  0.17120000000E+03  0.17120000000E+03 0.  0.
         13    1    1    2    0    0 -0.34423173710E+02  0.45880041050E+02  0.32732279984E+02  0.66040490398E+02  0.10566000000E+00 0.  1.
        994    1    1    2    0    0  0.16906864181E+02 -0.47853230355E+02  0.46864523478E+02  0.18461174739E+03  0.17120000000E+03 0.  0.
        998    1    1    2    0    0  0.17516309529E+02  0.19731893058E+01  0.14204031928E+04  0.14205477622E+04  0.10000000000E+02 0.  1.
</event>
<event>
 5    1  0.1800099E-008  0.3733980E+03  0.7957747E-01  0.3480418E+00
         13   -1    0    0    0    0  0.00000000000E+00  0.00000000000E+00  0.14999999963E+04  0.15000000000E+04  0.10566000000E+00 0. -1.
        994   -1    0    0    0    0 -0.00000000000E+00 -0.00000000000E+00  0.11368683772E-12  0.17120000000E+03  0.17120000000E+03 0.  0.
         13    1    1    2    0    0 -0.38651844746E+01  0.14645952052E+02  0.11254079789E+02  0.18870851556E+02  0.10566000000E+00 0. -1.
        994    1    1    2    0    0  0.76702491565E+01 -0.35523064637E+02  0.12030863028E+02  0.17542777006E+03  0.17120000000E+03 0.  0.
        998    1    1    2    0    0 -0.38050646819E+01  0.20877112585E+02  0.14767150535E+04  0.14769013784E+04  0.10000000000E+02 0. -1.
</event>
<event>
 5    1  0.1800099E-008  0.4098765E+03  0.7957747E-01  0.3330566E+00
         13   -1    0    0    0    0  0.00000000000E+00  0.00000000000E+00  0.14999999963E+04  0.15000000000E+04  0.10566000000E+00 0. -1.
        994   -1    0    0    0    0 -0.00000000000E+00 -0.00000000000E+00  0.11368683772E-12  0.17120000000E+03  0.17120000000E+03 0.  0.
         13    1    1    2    0    0  0.94472955684E+02 -0.13270183671E+02  0.12082865337E+03  0.15395067967E+03  0.10566000000E+00 0. -1.
        994    1    1    2    0    0 -0.78693811301E+02  0.15459530707E+02  0.60577738410E+02  0.19852157419E+03  0.17120000000E+03 0.  0.
        998    1    1    2    0    0 -0.15779144383E+02 -0.21893470356E+01  0.13185936045E+04  0.13187277461E+04  0.10000000000E+02 0. -1.
</event>
<event>
 5    1  0.1800099E-008  0.3798601E+03  0.7957747E-01  0.3451768E+00
         13   -1    0    0    0    0  0.00000000000E+00  0.00000000000E+00  0.14999999963E+04  0.15000000000E+04  0.10566000000E+00 0. -1.
        994   -1    0    0    0    0 -0.00000000000E+00 -0.00000000000E+00  0.11368683772E-12  0.17120000000E+03  0.17120000000E+03 0.  0.
         13    1    1    2    0    0  0.15818774923E+02  0.31037851640E+02  0.16317976755E+03  0.16685691348E+03  0.10566000000E+00 0. -1.
        994    1    1    2    0    0  0.20534443325E+01 -0.18196320822E+01  0.42289428831E+01  0.17127420020E+03  0.17120000000E+03 0.  0.
        998    1    1    2    0    0 -0.17872219255E+02 -0.29218219558E+02  0.13325912858E+04  0.13330688863E+04  0.10000000000E+02 0. -1.
</event>
<event>
 5    1  0.1800099E-008  0.3806134E+03  0.7957747E-01  0.3448492E+00
         13   -1    0    0    0    0  0.00000000000E+00  0.00000000000E+00  0.14999999963E+04  0.15000000000E+04  0.10566000000E+00 0.  1.
        994   -1    0    0    0    0 -0.00000000000E+00 -0.00000000000E+00  0.11368683772E-12  0.17120000000E+03  0.17120000000E+03 0.  0.
         13    1    1    2    0    0  0.19839035981E+02 -0.66899845618E+01  0.54276362138E+02  0.58174546780E+02  0.10566000000E+00 0.  1.
        994    1    1    2    0    0 -0.19155767354E+02  0.91208542904E+01  0.53269658981E+01  0.17259185952E+03  0.17120000000E+03 0.  0.
        998    1    1    2    0    0 -0.68326862631E+00 -0.24308697286E+01  0.14403966682E+04  0.14404335937E+04  0.10000000000E+02 0.  1.
</event>
<event>
 5    1  0.1800099E-008  0.3861733E+03  0.7957747E-01  0.3424711E+00
         13   -1    0    0    0    0  0.00000000000E+00  0.00000000000E+00  0.14999999963E+04  0.15000000000E+04  0.10566000000E+00 0. -1.
        994   -1    0    0    0    0 -0.00000000000E+00 -0.00000000000E+00  0.11368683772E-12  0.17120000000E+03  0.17120000000E+03 0.  0.
         13    1    1    2    0    0  0.86603913916E+01 -0.84235557835E+01  0.67441568018E+02  0.68515216790E+02  0.10566000000E+00 0. -1.
        994    1    1    2    0    0 -0.12225469959E+02  0.72771554503E+01  0.17121817478E+01  0.17179869229E+03  0.17120000000E+03 0.  0.
        998    1    1    2    0    0  0.35650785674E+01  0.11464003331E+01  0.14308462465E+04  0.14308860909E+04  0.10000000000E+02 0. -1.
</event>
<event>
 5    1  0.1800099E-008  0.3761779E+03  0.7957747E-01  0.3467971E+00
         13   -1    0    0    0    0  0.00000000000E+00  0.00000000000E+00  0.14999999963E+04  0.15000000000E+04  0.10566000000E+00 0.  1.
        994   -1    0    0    0    0 -0.00000000000E+00 -0.00000000000E+00  0.11368683772E-12  0.17120000000E+03  0.17120000000E+03 0.  0.
         13    1    1    2    0    0 -0.33590381376E+02  0.29312202580E+02  0.20977811833E+03  0.21446302486E+03  0.10566000000E+00 0.  1.
        994    1    1    2    0    0 -0.60608040587E+01  0.13233234519E+02  0.67926684298E+01  0.17195183101E+03  0.17120000000E+03 0.  0.
        998    1    1    2    0    0  0.39651185435E+02 -0.42545437100E+02  0.12834292095E+04  0.12847851441E+04  0.10000000000E+02 0.  1.
</event>
<event>
 5    1  0.1800099E-008  0.3843344E+03  0.7957747E-01  0.3432500E+00
         13   -1    0    0    0    0  0.00000000000E+00  0.00000000000E+00  0.14999999963E+04  0.15000000000E+04  0.10566000000E+00 0. -1.
        994   -1    0    0    0    0 -0.00000000000E+00 -0.00000000000E+00  0.11368683772E-12  0.17120000000E+03  0.17120000000E+03 0.  0.
         13    1    1    2    0    0 -0.18046077141E+02 -0.19746090114E+01  0.81963285356E+02  0.83949695004E+02  0.10566000000E+00 0. -1.
        994    1    1    2    0    0  0.14893886361E+02  0.14393653095E+01  0.26992087415E+01  0.17187386465E+03  0.17120000000E+03 0.  0.
        998    1    1    2    0    0  0.31521907808E+01  0.53524370189E+00  0.14153375022E+04  0.14153764403E+04  0.10000000000E+02 0. -1.
</event>
<event>
 5    1  0.1800099E-008  0.3832426E+03  0.7957747E-01  0.3437160E+00
         13   -1    0    0    0    0  0.00000000000E+00  0.00000000000E+00  0.14999999963E+04  0.15000000000E+04  0.10566000000E+00 0.  1.
        994   -1    0    0    0    0 -0.00000000000E+00 -0.00000000000E+00  0.11368683772E-12  0.17120000000E+03  0.17120000000E+03 0.  0.
         13    1    1    2    0    0  0.31343865090E+02  0.42589410030E+01  0.18689369566E+03  0.18955168451E+03  0.10566000000E+00 0.  1.
        994    1    1    2    0    0 -0.24632951148E+02 -0.97234155133E+01  0.48282566786E+01  0.17330343088E+03  0.17120000000E+03 0.  0.
        998    1    1    2    0    0 -0.67109139425E+01  0.54644745103E+01  0.13082780439E+04  0.13083448846E+04  0.10000000000E+02 0.  0.
</event>
<event>
 5    1  0.1800099E-008  0.3748833E+03  0.7957747E-01  0.3473745E+00
         13   -1    0    0    0    0  0.00000000000E+00  0.00000000000E+00  0.14999999963E+04  0.15000000000E+04  0.10566000000E+00 0. -1.
        994   -1    0    0    0    0 -0.00000000000E+00 -0.00000000000E+00  0.11368683772E-12  0.17120000000E+03  0.17120000000E+03 0.  0.
         13    1    1    2    0    0  0.20489235705E+02  0.64840510029E+01  0.32040850818E+02  0.38580811064E+02  0.10566000000E+00 0. -1.
        994    1    1    2    0    0 -0.13111130546E+02  0.13487973850E+02  0.79427595687E+01  0.17241332493E+03  0.17120000000E+03 0.  0.
        998    1    1    2    0    0 -0.73781051599E+01 -0.19972024853E+02  0.14600163859E+04  0.14602058640E+04  0.10000000000E+02 0. -1.
</event>
<event>
 5    1  0.1800099E-008  0.3844343E+03  0.7957747E-01  0.3432075E+00
         13   -1    0    0    0    0  0.00000000000E+00  0.00000000000E+00  0.14999999963E+04  0.15000000000E+04  0.10566000000E+00 0.  1.
        994   -1    0    0    0    0 -0.00000000000E+00 -0.00000000000E+00  0.11368683772E-12  0.17120000000E+03  0.17120000000E+03 0.  0.
         13    1    1    2    0    0  0.81512744654E+00 -0.14424305847E+02  0.54112870598E+02  0.56008382947E+02  0.10566000000E+00 0.  1.
        994    1    1    2    0    0  0.56320124691E+01  0.10636376789E+02  0.23886631495E+01  0.17163914993E+03  0.17120000000E+03 0.  0.
        998    1    1    2    0    0 -0.64471399157E+01  0.37879290572E+01  0.14434984625E+04  0.14435524671E+04  0.10000000000E+02 0.  1.
</event>
<event>
 5    1  0.1800099E-008  0.3848484E+03  0.7957747E-01  0.3430315E+00
         13   -1    0    0    0    0  0.00000000000E+00  0.00000000000E+00  0.14999999963E+04  0.15000000000E+04  0.10566000000E+00 0. -1.
        994   -1    0    0    0    0 -0.00000000000E+00 -0.00000000000E+00  0.11368683772E-12  0.17120000000E+03  0.17120000000E+03 0.  0.
         13    1    1    2    0    0 -0.10480778945E+02  0.92951663298E+01  0.56463676380E+02  0.58175637158E+02  0.10566000000E+00 0. -1.
        994    1    1    2    0    0  0.74915384432E+01 -0.10056055366E+02  0.22229771841E+01  0.17167302941E+03  0.17120000000E+03 0.  0.
        998    1    1    2    0    0  0.29892405017E+01  0.76088903580E+00  0.14413133427E+04  0.14413513334E+04  0.10000000000E+02 0. -1.
</event>
<event>
 5    1  0.1800099E-008  0.3856300E+03  0.7957747E-01  0.3427005E+00
         13   -1    0    0    0    0  0.00000000000E+00  0.00000000000E+00  0.14999999963E+04  0.15000000000E+04  0.10566000000E+00 0.  1.
        994   -1    0    0    0    0 -0.00000000000E+00 -0.00000000000E+00  0.11368683772E-12  0.17120000000E+03  0.17120000000E+03 0.  0.
         13    1    1    2    0    0  0.15976055102E+02  0.41662420855E+01  0.96409432763E+02  0.97812994021E+02  0.10566000000E+00 0.  1.
        994    1    1    2    0    0 -0.19514044610E+02 -0.31484993325E+01  0.26010275453E+01  0.17235694453E+03  0.17120000000E+03 0.  0.
        998    1    1    2    0    0  0.35379895078E+01 -0.10177427529E+01  0.14009895360E+04  0.14010300614E+04  0.10000000000E+02 0.  1.
</event>
<event>
 5    1  0.1800099E-008  0.3789735E+03  0.7957747E-01  0.3455640E+00
         13   -1    0    0    0    0  0.00000000000E+00  0.00000000000E+00  0.14999999963E+04  0.15000000000E+04  0.10566000000E+00 0.  1.
        994   -1    0    0    0    0 -0.00000000000E+00 -0.00000000000E+00  0.11368683772E-12  0.17120000000E+03  0.17120000000E+03 0.  0.
         13    1    1    2    0    0 -0.27653355343E+01 -0.42173227268E+02  0.21716797982E+03  0.22124233501E+03  0.10566000000E+00 0.  1.
        994    1    1    2    0    0  0.98957278167E+01  0.63156256459E+01  0.51146284001E+01  0.17167822221E+03  0.17120000000E+03 0.  0.
        998    1    1    2    0    0 -0.71303922825E+01  0.35857601622E+02  0.12777173881E+04  0.12782794428E+04  0.10000000000E+02 0.  1.
</event>
<event>
 5    1  0.1800099E-008  0.3839573E+03  0.7957747E-01  0.3434107E+00
         13   -1    0    0    0    0  0.00000000000E+00  0.00000000000E+00  0.14999999963E+04  0.15000000000E+04  0.10566000000E+00 0.  1.
        994   -1    0    0    0    0 -0.00000000000E+00 -0.00000000000E+00  0.11368683772E-12  0.17120000000E+03  0.17120000000E+03 0.  0.
         13    1    1    2    0    0  0.42494911283E+01  0.93246399507E+01  0.24702493569E+02  0.26743811202E+02  0.10566000000E+00 0.  1.
        994    1    1    2    0    0 -0.64873570268E+00  0.41378725583E+01  0.22066132461E+01  0.17126544307E+03  0.17120000000E+03 0.  0.
        998    1    1    2    0    0 -0.36007554256E+01 -0.13462512509E+02  0.14730908895E+04  0.14731907457E+04  0.10000000000E+02 0.  1.
</event>
<event>
 5    1  0.1800099E-008  0.3725086E+03  0.7957747E-01  0.3484441E+00
         13   -1    0    0    0    0  0.00000000000E+00  0.00000000000E+00  0.14999999963E+04  0.15000000000E+04  0.10566000000E+00 0. -1.
        994   -1    0    0    0    0 -0.00000000000E+00 -0.00000000000E+00  0.11368683772E-12  0.17120000000E+03  0.17120000000E+03 0.  0.
         13    1    1    2    0    0  0.10653366057E+02 -0.59529271248E+01  0.57269793704E+01  0.13481135206E+02  0.10566000000E+00 0. -1.
        994    1    1    2    0    0 -0.10990680001E+02 -0.54161797890E+01  0.84785241449E+01  0.17184718625E+03  0.17120000000E+03 0.  0.
        998    1    1    2    0    0  0.33731394384E+00  0.11369106914E+02  0.14857944928E+04  0.14858716785E+04  0.10000000000E+02 0. -1.
</event>
<event>
 5    1  0.1800099E-008  0.3787838E+03  0.7957747E-01  0.3456471E+00
         13   -1    0    0    0    0  0.00000000000E+00  0.00000000000E+00  0.14999999963E+04  0.15000000000E+04  0.10566000000E+00 0.  1.
        994   -1    0    0    0    0 -0.00000000000E+00 -0.00000000000E+00  0.11368683772E-12  0.17120000000E+03  0.17120000000E+03 0.  0.
         13    1    1    2    0    0 -0.57774679520E+01 -0.13995166263E+02  0.21452628528E+02  0.26257765508E+02  0.10566000000E+00 0.  1.
        994    1    1    2    0    0  0.42107455097E+02  0.63671056920E+01  0.10859676094E+02  0.17675109724E+03  0.17120000000E+03 0.  0.
        998    1    1    2    0    0 -0.36329987145E+02  0.76280605707E+01  0.14676876917E+04  0.14681911373E+04  0.10000000000E+02 0.  1.
</event>
<event>
 5    1  0.1800099E-008  0.3715788E+03  0.7957747E-01  0.3488666E+00
         13   -1    0    0    0    0  0.00000000000E+00  0.00000000000E+00  0.14999999963E+04  0.15000000000E+04  0.10566000000E+00 0. -1.
        994   -1    0    0    0    0 -0.00000000000E+00 -0.00000000000E+00  0.11368683772E-12  0.17120000000E+03  0.17120000000E+03 0.  0.
         13    1    1    2    0    0  0.18380346750E+01 -0.53814967064E+02  0.10987421410E+03  0.12235923807E+03  0.10566000000E+00 0. -1.
        994    1    1    2    0    0 -0.48003774225E+01  0.56220323674E+02  0.23053885492E+02  0.18172696568E+03  0.17120000000E+03 0.  0.
        998    1    1    2    0    0  0.29623427475E+01 -0.24053566100E+01  0.13670718967E+04  0.13671137963E+04  0.10000000000E+02 0. -1.
</event>
<event>
 5    1  0.1800099E-008  0.4205239E+03  0.7957747E-01  0.3291701E+00
         13   -1    0    0    0    0  0.00000000000E+00  0.00000000000E+00  0.14999999963E+04  0.15000000000E+04  0.10566000000E+00 0. -1.
        994   -1    0    0    0    0 -0.00000000000E+00 -0.00000000000E+00  0.11368683772E-12  0.17120000000E+03  0.17120000000E+03 0.  0.
         13    1    1    2    0    0  0.22952099441E+02  0.10918695029E+03  0.17023487484E+03  0.20353995371E+03  0.10566000000E+00 0. -1.
        994    1    1    2    0    0  0.43665536237E+02 -0.34316432969E+02  0.53976339907E+02  0.18790205400E+03  0.17120000000E+03 0.  0.
        998    1    1    2    0    0 -0.66617635678E+02 -0.74870517317E+02  0.12757887815E+04  0.12797579923E+04  0.10000000000E+02 0. -1.
</event>
<event>
 5    1  0.1800099E-008  0.3852211E+03  0.7957747E-01  0.3428735E+00
         13   -1    0    0    0    0  0.00000000000E+00  0.00000000000E+00  0.14999999963E+04  0.15000000000E+04  0.10566000000E+00 0. -1.
        994   -1    0    0    0    0 -0.00000000000E+00 -0.00000000000E+00  0.11368683772E-12  0.17120000000E+03  0.17120000000E+03 0.  0.
         13    1    1    2    0    0 -0.16914012940E+02  0.10267816397E+01  0.99548615142E+02  0.10098057266E+03  0.10566000000E+00 0. -1.
        994    1    1    2    0    0  0.43155714726E+01 -0.88816768321E+01  0.18409221795E+01  0.17149442363E+03  0.17120000000E+03 0.  0.
        998    1    1    2    0    0  0.12598441467E+02  0.78548951924E+01  0.13986104590E+04  0.13987250037E+04  0.10000000000E+02 0. -1.
</event>
<event>
 5    1  0.1800099E-008  0.3828189E+03  0.7957747E-01  0.3438975E+00
         13   -1    0    0    0    0  0.00000000000E+00  0.00000000000E+00  0.14999999963E+04  0.15000000000E+04  0.10566000000E+00 0.  1.
        994   -1    0    0    0    0 -0.00000000000E+00 -0.00000000000E+00  0.11368683772E-12  0.17120000000E+03  0.17120000000E+03 0.  0.
         13    1    1    2    0    0  0.15258475579E+02  0.91951143970E+01  0.56831372078E+02  0.59558267453E+02  0.10566000000E+00 0.  1.
        994    1    1    2    0    0 -0.10697435953E+02 -0.10151459998E+02  0.34375536698E+01  0.17186839166E+03  0.17120000000E+03 0.  0.
        998    1    1    2    0    0 -0.45610396259E+01  0.95634560132E+00  0.14397310705E+04  0.14397733409E+04  0.10000000000E+02 0.  1.
</event>
<event>
 5    1  0.1800099E-008  0.3741464E+03  0.7957747E-01  0.3477049E+00
         13   -1    0    0    0    0  0.00000000000E+00  0.00000000000E+00  0.14999999963E+04  0.15000000000E+04  0.10566000000E+00 0.  1.
        994   -1    0    0    0    0 -0.00000000000E+00 -0.00000000000E+00  0.11368683772E-12  0.17120000000E+03  0.17120000000E+03 0.  0.
         13    1    1    2    0    0 -0.99329652553E+01  0.59213278521E+02  0.31075910395E+03  0.31650609473E+03  0.10566000000E+00 0.  1.
        994    1    1    2    0    0  0.27278722409E+02 -0.34453645675E+01  0.96992621864E+01  0.17366495018E+03  0.17120000000E+03 0.  0.
        998    1    1    2    0    0 -0.17345757153E+02 -0.55767913954E+02  0.11795416301E+04  0.11810289551E+04  0.10000000000E+02 0.  1.
</event>
<event>
 5    1  0.1800099E-008  0.3761348E+03  0.7957747E-01  0.3468163E+00
         13   -1    0    0    0    0  0.00000000000E+00  0.00000000000E+00  0.14999999963E+04  0.15000000000E+04  0.10566000000E+00 0.  1.
        994   -1    0    0    0    0 -0.00000000000E+00 -0.00000000000E+00  0.11368683772E-12  0.17120000000E+03  0.17120000000E+03 0.  0.
         13    1    1    2    0    0  0.41349340177E+02  0.68550475876E+01  0.13441180083E+03  0.14079525197E+03  0.10566000000E+00 0.  1.
        994    1    1    2    0    0 -0.34726089928E+02 -0.94177125907E+01  0.10493475892E+02  0.17525452253E+03  0.17120000000E+03 0.  0.
        998    1    1    2    0    0 -0.66232502489E+01  0.25626650031E+01  0.13550947196E+04  0.13551502255E+04  0.10000000000E+02 0.  1.
</event>
<event>
 5    1  0.1800099E-008  0.3794079E+03  0.7957747E-01  0.3453741E+00
         13   -1    0    0    0    0  0.00000000000E+00  0.00000000000E+00  0.14999999963E+04  0.15000000000E+04  0.10566000000E+00 0. -1.
        994   -1    0    0    0    0 -0.00000000000E+00 -0.00000000000E+00  0.11368683772E-12  0.17120000000E+03  0.17120000000E+03 0.  0.
         13    1    1    2    0    0 -0.15968619680E+02 -0.45988857055E+01  0.13768700621E+01  0.16674936264E+02  0.10566000000E+00 0. -1.
        994    1    1    2    0    0  0.15456424063E+02 -0.19327009146E+01  0.16880244512E+02  0.17273395449E+03  0.17120000000E+03 0.  0.
        998    1    1    2    0    0  0.51219561720E+00  0.65315866201E+01  0.14817428817E+04  0.14817911092E+04  0.10000000000E+02 0. -1.
</event>
<event>
 5    1  0.1800099E-008  0.3798648E+03  0.7957747E-01  0.3451747E+00
         13   -1    0    0    0    0  0.00000000000E+00  0.00000000000E+00  0.14999999963E+04  0.15000000000E+04  0.10566000000E+00 0. -1.
        994   -1    0    0    0    0 -0.00000000000E+00 -0.00000000000E+00  0.11368683772E-12  0.17120000000E+03  0.17120000000E+03 0.  0.
         13    1    1    2    0    0  0.24039175477E+02  0.93611617766E+01  0.77759032187E+02  0.81926745072E+02  0.10566000000E+00 0. -1.
        994    1    1    2    0    0 -0.15899968788E+02 -0.31557390426E+01  0.50807028384E+01  0.17204075458E+03  0.17120000000E+03 0.  0.
        998    1    1    2    0    0 -0.81392066894E+01 -0.62054227340E+01  0.14171602613E+04  0.14172325003E+04  0.10000000000E+02 0. -1.
</event>
<event>
 5    1  0.1800099E-008  0.3758485E+03  0.7957747E-01  0.3469437E+00
         13   -1    0    0    0    0  0.00000000000E+00  0.00000000000E+00  0.14999999963E+04  0.15000000000E+04  0.10566000000E+00 0. -1.
        994   -1    0    0    0    0 -0.00000000000E+00 -0.00000000000E+00  0.11368683772E-12  0.17120000000E+03  0.17120000000E+03 0.  0.
         13    1    1    2    0    0 -0.94013707122E+01  0.17096786474E+02  0.27759184544E+02  0.33930360587E+02  0.10566000000E+00 0. -1.
        994    1    1    2    0    0  0.72396261100E+01 -0.13493490042E+02  0.70388546605E+01  0.17202753249E+03  0.17120000000E+03 0.  0.
        998    1    1    2    0    0  0.21617446022E+01 -0.36032964313E+01  0.14652019571E+04  0.14652421069E+04  0.10000000000E+02 0. -1.
</event>
<event>
 5    1  0.1800099E-008  0.3690025E+03  0.7957747E-01  0.3500488E+00
         13   -1    0    0    0    0  0.00000000000E+00  0.00000000000E+00  0.14999999963E+04  0.15000000000E+04  0.10566000000E+00 0.  1.
        994   -1    0    0    0    0 -0.00000000000E+00 -0.00000000000E+00  0.11368683772E-12  0.17120000000E+03  0.17120000000E+03 0.  0.
         13    1    1    2    0    0 -0.22650031314E+02  0.38228170245E+02  0.87636879952E+02  0.98258082673E+02  0.10566000000E+00 0.  1.
        994    1    1    2    0    0  0.44024763284E+02 -0.20185183582E+02  0.18629048789E+02  0.17889131582E+03  0.17120000000E+03 0.  0.
        998    1    1    2    0    0 -0.21374731969E+02 -0.18042986664E+02  0.13937340675E+04  0.13940506015E+04  0.10000000000E+02 0.  1.
</event>
<event>
 5    1  0.1800099E-008  0.3843944E+03  0.7957747E-01  0.3432245E+00
         13   -1    0    0    0    0  0.00000000000E+00  0.00000000000E+00  0.14999999963E+04  0.15000000000E+04  0.10566000000E+00 0. -1.
        994   -1    0    0    0    0 -0.00000000000E+00 -0.00000000000E+00  0.11368683772E-12  0.17120000000E+03  0.17120000000E+03 0.  0.
         13    1    1    2    0    0 -0.16319463682E+02 -0.12901892163E+02  0.10834031772E+03  0.11031962348E+03  0.10566000000E+00 0. -1.
        994    1    1    2    0    0  0.10786482740E+02  0.14120868333E+02  0.29722130407E+01  0.17214534900E+03  0.17120000000E+03 0.  0.
        998    1    1    2    0    0  0.55329809427E+01 -0.12189761697E+01  0.13886874655E+04  0.13887350275E+04  0.10000000000E+02 0. -1.
</event>
<event>
 5    1  0.1800099E-008  0.3859235E+03  0.7957747E-01  0.3425765E+00
         13   -1    0    0    0    0  0.00000000000E+00  0.00000000000E+00  0.14999999963E+04  0.15000000000E+04  0.10566000000E+00 0. -1.
        994   -1    0    0    0    0 -0.00000000000E+00 -0.00000000000E+00  0.11368683772E-12  0.17120000000E+03  0.17120000000E+03 0.  0.
         13    1    1    2    0    0  0.11696125935E+02  0.10806369740E+01  0.62075179464E+02  0.63176785354E+02  0.10566000000E+00 0. -1.
        994    1    1    2    0    0 -0.13232253756E+01 -0.82018735929E+01  0.13986769754E+01  0.17140717007E+03  0.17120000000E+03 0.  0.
        998    1    1    2    0    0 -0.10372900559E+02  0.71212366189E+01  0.14365261398E+04  0.14366160446E+04  0.10000000000E+02 0. -1.
</event>
<event>
 5    1  0.1800099E-008  0.3790534E+03  0.7957747E-01  0.3455291E+00
         13   -1    0    0    0    0  0.00000000000E+00  0.00000000000E+00  0.14999999963E+04  0.15000000000E+04  0.10566000000E+00 0.  1.
        994   -1    0    0    0    0 -0.00000000000E+00 -0.00000000000E+00  0.11368683772E-12  0.17120000000E+03  0.17120000000E+03 0.  0.
         13    1    1    2    0    0 -0.92618622909E+01  0.23798022568E+02  0.67360936545E+02  0.72039120674E+02  0.10566000000E+00 0.  1.
        994    1    1    2    0    0 -0.27806380315E+01 -0.24834347519E+02  0.67086979993E+01  0.17314422714E+03  0.17120000000E+03 0.  0.
        998    1    1    2    0    0  0.12042500322E+02  0.10363249509E+01  0.14259303617E+04  0.14260166522E+04  0.10000000000E+02 0.  1.
</event>
<event>
 5    1  0.1800099E-008  0.2957265E+03  0.7957747E-01  0.3927009E+00
         13   -1    0    0    0    0  0.00000000000E+00  0.00000000000E+00  0.14999999963E+04  0.15000000000E+04  0.10566000000E+00 0. -1.
        994   -1    0    0    0    0 -0.00000000000E+00 -0.00000000000E+00  0.11368683772E-12  0.17120000000E+03  0.17120000000E+03 0.  0.
         13    1    1    2    0    0  0.55472313918E+02 -0.18395048584E+03  0.55588287794E+03  0.58815027332E+03  0.10566000000E+00 0. -1.
        994    1    1    2    0    0 -0.12521614310E+03  0.19193771033E+03  0.23447695039E+03  0.36987571887E+03  0.17120000000E+03 0.  0.
        998    1    1    2    0    0  0.69743829183E+02 -0.79872244916E+01  0.70964016795E+03  0.71317400782E+03  0.10000000000E+02 0. -1.
</event>
<event>
 5    1  0.1800099E-008  0.3751274E+03  0.7957747E-01  0.3472653E+00
         13   -1    0    0    0    0  0.00000000000E+00  0.00000000000E+00  0.14999999963E+04  0.15000000000E+04  0.10566000000E+00 0.  1.
        994   -1    0    0    0    0 -0.00000000000E+00 -0.00000000000E+00  0.11368683772E-12  0.17120000000E+03  0.17120000000E+03 0.  0.
         13    1    1    2    0    0  0.21638186802E+02  0.16170838557E+02  0.56798554686E+02  0.62895104151E+02  0.10566000000E+00 0.  1.
        994    1    1    2    0    0 -0.22809498753E+02  0.39286292098E+02  0.13657639627E+02  0.17765037884E+03  0.17120000000E+03 0.  0.
        998    1    1    2    0    0  0.11713119505E+01 -0.55457130655E+02  0.14295438020E+04  0.14306545170E+04  0.10000000000E+02 0.  1.
</event>
<event>
 5    1  0.1800099E-008  0.3791596E+03  0.7957747E-01  0.3454826E+00
         13   -1    0    0    0    0  0.00000000000E+00  0.00000000000E+00  0.14999999963E+04  0.15000000000E+04  0.10566000000E+00 0.  1.
        994   -1    0    0    0    0 -0.00000000000E+00 -0.00000000000E+00  0.11368683772E-12  0.17120000000E+03  0.17120000000E+03 0.  0.
         13    1    1    2    0    0  0.38189116984E+02  0.20711080835E+02  0.25234748955E+03  0.25605980585E+03  0.10566000000E+00 0.  1.
        994    1    1    2    0    0  0.41544727167E+01 -0.88571197043E+01  0.48788569083E+01  0.17154868539E+03  0.17120000000E+03 0.  0.
        998    1    1    2    0    0 -0.42343589701E+02 -0.11853961131E+02  0.12427736498E+04  0.12435915088E+04  0.10000000000E+02 0.  1.
</event>
<event>
 5    1  0.1800099E-008  0.3838440E+03  0.7957747E-01  0.3434590E+00
         13   -1    0    0    0    0  0.00000000000E+00  0.00000000000E+00  0.14999999963E+04  0.15000000000E+04  0.10566000000E+00 0.  1.
        994   -1    0    0    0    0 -0.00000000000E+00 -0.00000000000E+00  0.11368683772E-12  0.17120000000E+03  0.17120000000E+03 0.  0.
         13    1    1    2    0    0 -0.22430069305E+02  0.13317067768E+02  0.13774546668E+03  0.14019371262E+03  0.10566000000E+00 0.  1.
        994    1    1    2    0    0  0.24944133205E+02 -0.16177936705E+02  0.51285050743E+01  0.17383807690E+03  0.17120000000E+03 0.  0.
        998    1    1    2    0    0 -0.25140639008E+01  0.28608689367E+01  0.13571260245E+04  0.13571682105E+04  0.10000000000E+02 0.  1.
</event>
<event>
 5    1  0.1800099E-008  0.3801026E+03  0.7957747E-01  0.3450712E+00
         13   -1    0    0    0    0  0.00000000000E+00  0.00000000000E+00  0.14999999963E+04  0.15000000000E+04  0.10566000000E+00 0.  1.
        994   -1    0    0    0    0 -0.00000000000E+00 -0.00000000000E+00  0.11368683772E-12  0.17120000000E+03  0.17120000000E+03 0.  0.
         13    1    1    2    0    0  0.94986316165E+00  0.30560167967E+02  0.11379005685E+03  0.11782620383E+03  0.10566000000E+00 0.  1.
        994    1    1    2    0    0 -0.57576532395E+01 -0.17196557050E+02  0.51811271177E+01  0.17223575768E+03  0.17120000000E+03 0.  0.
        998    1    1    2    0    0  0.48077900778E+01 -0.13363610917E+02  0.13810288123E+04  0.13811380385E+04  0.10000000000E+02 0.  1.
</event>
<event>
 5    1  0.1800099E-008  0.3796148E+03  0.7957747E-01  0.3452838E+00
         13   -1    0    0    0    0  0.00000000000E+00  0.00000000000E+00  0.14999999963E+04  0.15000000000E+04  0.10566000000E+00 0.  1.
        994   -1    0    0    0    0 -0.00000000000E+00 -0.00000000000E+00  0.11368683772E-12  0.17120000000E+03  0.17120000000E+03 0.  0.
         13    1    1    2    0    0  0.32408564402E+02  0.24122173783E+02  0.21111113336E+03  0.21494212269E+03  0.10566000000E+00 0.  1.
        994    1    1    2    0    0 -0.78444892106E+01 -0.19855207044E+01  0.45469376020E+01  0.17145143028E+03  0.17120000000E+03 0.  0.
        998    1    1    2    0    0 -0.24564075192E+02 -0.22136653078E+02  0.12843419253E+04  0.12848064470E+04  0.10000000000E+02 0.  1.
</event>
<event>
 5    1  0.1800099E-008  0.3830517E+03  0.7957747E-01  0.3437977E+00
         13   -1    0    0    0    0  0.00000000000E+00  0.00000000000E+00  0.14999999963E+04  0.15000000000E+04  0.10566000000E+00 0. -1.
        994   -1    0    0    0    0 -0.00000000000E+00 -0.00000000000E+00  0.11368683772E-12  0.17120000000E+03  0.17120000000E+03 0.  0.
         13    1    1    2    0    0 -0.14770428877E+02 -0.31674182866E+01  0.44370299018E+02  0.46871448738E+02  0.10566000000E+00 0. -1.
        994    1    1    2    0    0  0.31301998157E+01  0.70491153299E+00  0.26345999606E+01  0.17125033188E+03  0.17120000000E+03 0.  0.
        998    1    1    2    0    0  0.11640229061E+02  0.24625067536E+01  0.14529950973E+04  0.14530782194E+04  0.10000000000E+02 0. -1.
</event>
<event>
 5    1  0.1800099E-008  0.3789973E+03  0.7957747E-01  0.3455536E+00
         13   -1    0    0    0    0  0.00000000000E+00  0.00000000000E+00  0.14999999963E+04  0.15000000000E+04  0.10566000000E+00 0.  1.
        994   -1    0    0    0    0 -0.00000000000E+00 -0.00000000000E+00  0.11368683772E-12  0.17120000000E+03  0.17120000000E+03 0.  0.
         13    1    1    2    0    0  0.65086493497E+01  0.30933462454E+02  0.10295332166E+03  0.10769697870E+03  0.10566000000E+00 0.  1.
        994    1    1    2    0    0 -0.86271786933E+01 -0.23880610438E+02  0.68055510317E+01  0.17320642971E+03  0.17120000000E+03 0.  0.
        998    1    1    2    0    0  0.21185293435E+01 -0.70528520154E+01  0.13902411236E+04  0.13902965916E+04  0.10000000000E+02 0.  1.
</event>
<event>
 5    1  0.1800099E-008  0.3736869E+03  0.7957747E-01  0.3479116E+00
         13   -1    0    0    0    0  0.00000000000E+00  0.00000000000E+00  0.14999999963E+04  0.15000000000E+04  0.10566000000E+00 0. -1.
        994   -1    0    0    0    0 -0.00000000000E+00 -0.00000000000E+00  0.11368683772E-12  0.17120000000E+03  0.17120000000E+03 0.  0.
         13    1    1    2    0    0 -0.20416830609E+02 -0.35064951736E+02  0.61377638377E+02  0.73577329859E+02  0.10566000000E+00 0. -1.
        994    1    1    2    0    0  0.12719558988E+02  0.85754572482E+01  0.13735614817E+02  0.17243385040E+03  0.17120000000E+03 0.  0.
        998    1    1    2    0    0  0.76972716213E+01  0.26489494488E+02  0.14248867431E+04  0.14251888197E+04  0.10000000000E+02 0. -1.
</event>
<event>
 5    1  0.1800099E-008  0.3693496E+03  0.7957747E-01  0.3498885E+00
         13   -1    0    0    0    0  0.00000000000E+00  0.00000000000E+00  0.14999999963E+04  0.15000000000E+04  0.10566000000E+00 0. -1.
        994   -1    0    0    0    0 -0.00000000000E+00 -0.00000000000E+00  0.11368683772E-12  0.17120000000E+03  0.17120000000E+03 0.  0.
         13    1    1    2    0    0  0.51196165966E+02  0.59945964807E+02  0.28682389610E+03  0.29746012278E+03  0.10566000000E+00 0. -1.
        994    1    1    2    0    0 -0.26811509518E+02 -0.39836853349E+02  0.18681722839E+02  0.17878556624E+03  0.17120000000E+03 0.  0.
        998    1    1    2    0    0 -0.24384656448E+02 -0.20109111458E+02  0.11944943773E+04  0.11949543110E+04  0.10000000000E+02 0. -1.
</event>
<event>
 5    1  0.1800099E-008  0.3850295E+03  0.7957747E-01  0.3429547E+00
         13   -1    0    0    0    0  0.00000000000E+00  0.00000000000E+00  0.14999999963E+04  0.15000000000E+04  0.10566000000E+00 0. -1.
        994   -1    0    0    0    0 -0.00000000000E+00 -0.00000000000E+00  0.11368683772E-12  0.17120000000E+03  0.17120000000E+03 0.  0.
         13    1    1    2    0    0  0.13000431609E+02 -0.41588772669E+01  0.56416177116E+02  0.58043980623E+02  0.10566000000E+00 0. -1.
        994    1    1    2    0    0 -0.12191775519E+02  0.37783861632E+01  0.21513894621E+01  0.17168862533E+03  0.17120000000E+03 0.  0.
        998    1    1    2    0    0 -0.80865608952E+00  0.38049110368E+00  0.14414324297E+04  0.14414673940E+04  0.10000000000E+02 0. -1.
</event>
<event>
 5    1  0.1800099E-008  0.3752325E+03  0.7957747E-01  0.3472183E+00
         13   -1    0    0    0    0  0.00000000000E+00  0.00000000000E+00  0.14999999963E+04  0.15000000000E+04  0.10566000000E+00 0.  1.
        994   -1    0    0    0    0 -0.00000000000E+00 -0.00000000000E+00  0.11368683772E-12  0.17120000000E+03  0.17120000000E+03 0.  0.
         13    1    1    2    0    0  0.56668608007E+02 -0.17665934130E+02  0.33849842515E+03  0.34366351472E+03  0.10566000000E+00 0.  1.
        994    1    1    2    0    0 -0.23076346278E+02 -0.41411718116E+02  0.14231429729E+02  0.17821173291E+03  0.17120000000E+03 0.  0.
        998    1    1    2    0    0 -0.33592261728E+02  0.59077652246E+02  0.11472701414E+04  0.11493247524E+04  0.10000000000E+02 0.  1.
</event>
<event>
 5    1  0.1800099E-008  0.3827887E+03  0.7957747E-01  0.3439105E+00
         13   -1    0    0    0    0  0.00000000000E+00  0.00000000000E+00  0.14999999963E+04  0.15000000000E+04  0.10566000000E+00 0.  1.
        994   -1    0    0    0    0 -0.00000000000E+00 -0.00000000000E+00  0.11368683772E-12  0.17120000000E+03  0.17120000000E+03 0.  0.
         13    1    1    2    0    0  0.16089510151E+02 -0.12979180169E+02  0.74097696181E+02  0.76927311133E+02  0.10566000000E+00 0.  1.
        994    1    1    2    0    0 -0.18290977612E+02  0.11327659217E+02  0.42667526792E+01  0.17259930737E+03  0.17120000000E+03 0.  0.
        998    1    1    2    0    0  0.22014674616E+01  0.16515209525E+01  0.14216355474E+04  0.14216733815E+04  0.10000000000E+02 0.  1.
</event>
<event>
 5    1  0.1800099E-008  0.3778158E+03  0.7957747E-01  0.3460725E+00
         13   -1    0    0    0    0  0.00000000000E+00  0.00000000000E+00  0.14999999963E+04  0.15000000000E+04  0.10566000000E+00 0. -1.
        994   -1    0    0    0    0 -0.00000000000E+00 -0.00000000000E+00  0.11368683772E-12  0.17120000000E+03  0.17120000000E+03 0.  0.
         13    1    1    2    0    0  0.87097844521E+02 -0.48322700475E+02  0.54956352171E+03  0.55851695897E+03  0.10566000000E+00 0. -1.
        994    1    1    2    0    0 -0.13414336339E+03 -0.90780040690E+00  0.68447309210E+02  0.22801258777E+03  0.17120000000E+03 0.  0.
        998    1    1    2    0    0  0.47045518866E+02  0.49230500882E+02  0.88198916536E+03  0.88467045326E+03  0.10000000000E+02 0. -1.
</event>
<event>
 5    1  0.1800099E-008  0.3854947E+03  0.7957747E-01  0.3427577E+00
         13   -1    0    0    0    0  0.00000000000E+00  0.00000000000E+00  0.14999999963E+04  0.15000000000E+04  0.10566000000E+00 0. -1.
        994   -1    0    0    0    0 -0.00000000000E+00 -0.00000000000E+00  0.11368683772E-12  0.17120000000E+03  0.17120000000E+03 0.  0.
         13    1    1    2    0    0  0.84736514085E+01 -0.82975610752E+01  0.52686940425E+02  0.54005343656E+02  0.10566000000E+00 0. -1.
        994    1    1    2    0    0 -0.62211044897E+01 -0.23570431515E+01  0.15300354044E+01  0.17133604058E+03  0.17120000000E+03 0.  0.
        998    1    1    2    0    0 -0.22525469187E+01  0.10654604227E+02  0.14457830204E+04  0.14458586158E+04  0.10000000000E+02 0. -1.
</event>
<event>
 5    1  0.1800099E-008  0.3803723E+03  0.7957747E-01  0.3449539E+00
         13   -1    0    0    0    0  0.00000000000E+00  0.00000000000E+00  0.14999999963E+04  0.15000000000E+04  0.10566000000E+00 0.  1.
        994   -1    0    0    0    0 -0.00000000000E+00 -0.00000000000E+00  0.11368683772E-12  0.17120000000E+03  0.17120000000E+03 0.  0.
         13    1    1    2    0    0 -0.12470187457E+02  0.18693894550E+02  0.68817656941E+02  0.72393703729E+02  0.10566000000E+00 0.  1.
        994    1    1    2    0    0 -0.45008816483E+01  0.55097315668E+01  0.41143526619E+01  0.17139714985E+03  0.17120000000E+03 0.  0.
        998    1    1    2    0    0  0.16971069106E+02 -0.24203626117E+02  0.14270679867E+04  0.14274091464E+04  0.10000000000E+02 0.  1.
</event>
<event>
 5    1  0.1800099E-008  0.3692897E+03  0.7957747E-01  0.3499162E+00
         13   -1    0    0    0    0  0.00000000000E+00  0.00000000000E+00  0.14999999963E+04  0.15000000000E+04  0.10566000000E+00 0.  1.
        994   -1    0    0    0    0 -0.00000000000E+00 -0.00000000000E+00  0.11368683772E-12  0.17120000000E+03  0.17120000000E+03 0.  0.
         13    1    1    2    0    0  0.20867608367E+00 -0.34095154520E+02  0.64960895945E+02  0.73365197972E+02  0.10566000000E+00 0.  1.
        994    1    1    2    0    0 -0.25048497968E+02 -0.22108795843E+02  0.13519638788E+02  0.17495269857E+03  0.17120000000E+03 0.  0.
        998    1    1    2    0    0  0.24839821885E+02  0.56203950363E+02  0.14215194615E+04  0.14228821035E+04  0.10000000000E+02 0.  1.
</event>
<event>
 5    1  0.1800099E-008  0.3754627E+03  0.7957747E-01  0.3471156E+00
         13   -1    0    0    0    0  0.00000000000E+00  0.00000000000E+00  0.14999999963E+04  0.15000000000E+04  0.10566000000E+00 0. -1.
        994   -1    0    0    0    0 -0.00000000000E+00 -0.00000000000E+00  0.11368683772E-12  0.17120000000E+03  0.17120000000E+03 0.  0.
         13    1    1    2    0    0  0.72535037411E+01 -0.46359381740E+02  0.15688165866E+03  0.16374880635E+03  0.10566000000E+00 0. -1.
        994    1    1    2    0    0 -0.98487880186E+00  0.41706264478E+02  0.12370935109E+02  0.17664332005E+03  0.17120000000E+03 0.  0.
        998    1    1    2    0    0 -0.62686249393E+01  0.46531172628E+01  0.13307474025E+04  0.13308078736E+04  0.10000000000E+02 0. -1.
</event>
<event>
 5    1  0.1800099E-008  0.3712627E+03  0.7957747E-01  0.3490108E+00
         13   -1    0    0    0    0  0.00000000000E+00  0.00000000000E+00  0.14999999963E+04  0.15000000000E+04  0.10566000000E+00 0. -1.
        994   -1    0    0    0    0 -0.00000000000E+00 -0.00000000000E+00  0.11368683772E-12  0.17120000000E+03  0.17120000000E+03 0.  0.
         13    1    1    2    0    0 -0.45440760457E+01  0.37618417965E+02  0.63146782842E+02  0.73643202976E+02  0.10566000000E+00 0. -1.
        994    1    1    2    0    0 -0.37412160181E+02 -0.10144082757E+03  0.49998669607E+02  0.20856466189E+03  0.17120000000E+03 0.  0.
        998    1    1    2    0    0  0.41956236226E+02  0.63822409600E+02  0.13868545438E+04  0.13889921351E+04  0.10000000000E+02 0. -1.
</event>
<event>
 5    1  0.1800099E-008  0.3828886E+03  0.7957747E-01  0.3438676E+00
         13   -1    0    0    0    0  0.00000000000E+00  0.00000000000E+00  0.14999999963E+04  0.15000000000E+04  0.10566000000E+00 0.  1.
        994   -1    0    0    0    0 -0.00000000000E+00 -0.00000000000E+00  0.11368683772E-12  0.17120000000E+03  0.17120000000E+03 0.  0.
         13    1    1    2    0    0 -0.43963291926E+01 -0.16816003861E+02  0.56648727909E+02  0.59255339286E+02  0.10566000000E+00 0.  1.
        994    1    1    2    0    0 -0.31254872194E+00  0.74125119465E+01  0.28643240504E+01  0.17138461825E+03  0.17120000000E+03 0.  0.
        998    1    1    2    0    0  0.47088779146E+01  0.94034919140E+01  0.14404869443E+04  0.14405600425E+04  0.10000000000E+02 0.  1.
</event>
<event>
 5    1  0.1800099E-008  0.3745131E+03  0.7957747E-01  0.3475403E+00
         13   -1    0    0    0    0  0.00000000000E+00  0.00000000000E+00  0.14999999963E+04  0.15000000000E+04  0.10566000000E+00 0.  1.
        994   -1    0    0    0    0 -0.00000000000E+00 -0.00000000000E+00  0.11368683772E-12  0.17120000000E+03  0.17120000000E+03 0.  0.
         13    1    1    2    0    0 -0.45050049075E+02 -0.11117711286E+01  0.14647906855E+03  0.15325427121E+03  0.10566000000E+00 0.  1.
        994    1    1    2    0    0  0.24397002794E+02 -0.19796093228E+02  0.10297204590E+02  0.17436333180E+03  0.17120000000E+03 0.  0.
        998    1    1    2    0    0  0.20653046281E+02  0.20907864357E+02  0.13432237231E+04  0.13435823970E+04  0.10000000000E+02 0.  1.
</event>
<event>
 5    1  0.1800099E-008  0.3853925E+03  0.7957747E-01  0.3428009E+00
         13   -1    0    0    0    0  0.00000000000E+00  0.00000000000E+00  0.14999999963E+04  0.15000000000E+04  0.10566000000E+00 0.  1.
        994   -1    0    0    0    0 -0.00000000000E+00 -0.00000000000E+00  0.11368683772E-12  0.17120000000E+03  0.17120000000E+03 0.  0.
         13    1    1    2    0    0 -0.12512492940E+02  0.66492068464E+01  0.76214470829E+02  0.77520520890E+02  0.10566000000E+00 0.  1.
        994    1    1    2    0    0  0.43903055768E+01  0.11526567675E+02  0.19352299707E+01  0.17165465814E+03  0.17120000000E+03 0.  0.
        998    1    1    2    0    0  0.81221873635E+01 -0.18175774522E+02  0.14218502955E+04  0.14220248210E+04  0.10000000000E+02 0.  1.
</event>
<event>
 5    1  0.1800099E-008  0.3826661E+03  0.7957747E-01  0.3439631E+00
         13   -1    0    0    0    0  0.00000000000E+00  0.00000000000E+00  0.14999999963E+04  0.15000000000E+04  0.10566000000E+00 0.  1.
        994   -1    0    0    0    0 -0.00000000000E+00 -0.00000000000E+00  0.11368683772E-12  0.17120000000E+03  0.17120000000E+03 0.  0.
         13    1    1    2    0    0  0.90879942519E+01 -0.94736790343E+01  0.29130770406E+02  0.31952389308E+02  0.10566000000E+00 0.  1.
        994    1    1    2    0    0 -0.14613341665E+02  0.83145586302E+01  0.37306119828E+01  0.17206405524E+03  0.17120000000E+03 0.  0.
        998    1    1    2    0    0  0.55253474136E+01  0.11591204041E+01  0.14671386139E+04  0.14671835555E+04  0.10000000000E+02 0.  1.
</event>
<event>
 5    1  0.1800099E-008  0.3739154E+03  0.7957747E-01  0.3478088E+00
         13   -1    0    0    0    0  0.00000000000E+00  0.00000000000E+00  0.14999999963E+04  0.15000000000E+04  0.10566000000E+00 0. -1.
        994   -1    0    0    0    0 -0.00000000000E+00 -0.00000000000E+00  0.11368683772E-12  0.17120000000E+03  0.17120000000E+03 0.  0.
         13    1    1    2    0    0  0.17781595858E+02 -0.10108107960E+02  0.26181490187E+02  0.33224096530E+02  0.10566000000E+00 0. -1.
        994    1    1    2    0    0 -0.56066106520E+01  0.96342291967E+01  0.76607866599E+01  0.17173345658E+03  0.17120000000E+03 0.  0.
        998    1    1    2    0    0 -0.12174985206E+02  0.47387876305E+00  0.14661577194E+04  0.14662424469E+04  0.10000000000E+02 0. -1.
</event>
<event>
 5    1  0.1800099E-008  0.3841289E+03  0.7957747E-01  0.3433375E+00
         13   -1    0    0    0    0  0.00000000000E+00  0.00000000000E+00  0.14999999963E+04  0.15000000000E+04  0.10566000000E+00 0. -1.
        994   -1    0    0    0    0 -0.00000000000E+00 -0.00000000000E+00  0.11368683772E-12  0.17120000000E+03  0.17120000000E+03 0.  0.
         13    1    1    2    0    0 -0.88133859415E+01 -0.14421445371E+02  0.74088054059E+02  0.75991478316E+02  0.10566000000E+00 0. -1.
        994    1    1    2    0    0  0.25663142009E+01 -0.27309043508E+01  0.21095548643E+01  0.17125400442E+03  0.17120000000E+03 0.  0.
        998    1    1    2    0    0  0.62470717406E+01  0.17152349722E+02  0.14238023874E+04  0.14239545173E+04  0.10000000000E+02 0. -1.
</event>
<event>
 5    1  0.1800099E-008  0.3763647E+03  0.7957747E-01  0.3467142E+00
         13   -1    0    0    0    0  0.00000000000E+00  0.00000000000E+00  0.14999999963E+04  0.15000000000E+04  0.10566000000E+00 0.  1.
        994   -1    0    0    0    0 -0.00000000000E+00 -0.00000000000E+00  0.11368683772E-12  0.17120000000E+03  0.17120000000E+03 0.  0.
         13    1    1    2    0    0 -0.48183809025E+01 -0.16985151763E+02  0.22800745565E+02  0.28837429450E+02  0.10566000000E+00 0.  1.
        994    1    1    2    0    0 -0.14491844707E+01  0.26096671199E+02  0.82945131264E+01  0.17338216555E+03  0.17120000000E+03 0.  0.
        998    1    1    2    0    0  0.62675653733E+01 -0.91115194358E+01  0.14689047376E+04  0.14689804050E+04  0.10000000000E+02 0.  1.
</event>
<event>
 5    1  0.1800099E-008  0.3798261E+03  0.7957747E-01  0.3451916E+00
         13   -1    0    0    0    0  0.00000000000E+00  0.00000000000E+00  0.14999999963E+04  0.15000000000E+04  0.10566000000E+00 0. -1.
        994   -1    0    0    0    0 -0.00000000000E+00 -0.00000000000E+00  0.11368683772E-12  0.17120000000E+03  0.17120000000E+03 0.  0.
         13    1    1    2    0    0  0.30696925092E+02  0.23686363858E+02  0.18917007260E+03  0.19310275134E+03  0.10566000000E+00 0. -1.
        994    1    1    2    0    0 -0.17354719187E+02  0.10034265848E+01  0.52323935179E+01  0.17215984167E+03  0.17120000000E+03 0.  0.
        998    1    1    2    0    0 -0.13342205905E+02 -0.24689790442E+02  0.13055975302E+04  0.13059374070E+04  0.10000000000E+02 0. -1.
</event>
<event>
 5    1  0.1800099E-008  0.3788381E+03  0.7957747E-01  0.3456233E+00
         13   -1    0    0    0    0  0.00000000000E+00  0.00000000000E+00  0.14999999963E+04  0.15000000000E+04  0.10566000000E+00 0. -1.
        994   -1    0    0    0    0 -0.00000000000E+00 -0.00000000000E+00  0.11368683772E-12  0.17120000000E+03  0.17120000000E+03 0.  0.
         13    1    1    2    0    0 -0.19528790321E+02  0.12395511312E+01  0.49990507057E+01  0.20196826741E+02  0.10566000000E+00 0. -1.
        994    1    1    2    0    0  0.26600059423E+02 -0.11539271899E+02  0.18729748756E+02  0.17464524456E+03  0.17120000000E+03 0.  0.
        998    1    1    2    0    0 -0.70712691021E+01  0.10299720768E+02  0.14762711968E+04  0.14763579287E+04  0.10000000000E+02 0. -1.
</event>
<event>
 5    1  0.1800099E-008  0.3848013E+03  0.7957747E-01  0.3430516E+00
         13   -1    0    0    0    0  0.00000000000E+00  0.00000000000E+00  0.14999999963E+04  0.15000000000E+04  0.10566000000E+00 0.  1.
        994   -1    0    0    0    0 -0.00000000000E+00 -0.00000000000E+00  0.11368683772E-12  0.17120000000E+03  0.17120000000E+03 0.  0.
         13    1    1    2    0    0 -0.96445565505E+01  0.41340806391E+01  0.32094591991E+02  0.33766582488E+02  0.10566000000E+00 0.  1.
        994    1    1    2    0    0  0.79200272595E+00 -0.65555847460E+01  0.18723471447E+01  0.17133752842E+03  0.17120000000E+03 0.  0.
        998    1    1    2    0    0  0.88525538245E+01  0.24215041069E+01  0.14660330571E+04  0.14660958891E+04  0.10000000000E+02 0.  1.
</event>
<event>
 5    1  0.1800099E-008  0.3878216E+03  0.7957747E-01  0.3417793E+00
         13   -1    0    0    0    0  0.00000000000E+00  0.00000000000E+00  0.14999999963E+04  0.15000000000E+04  0.10566000000E+00 0.  1.
        994   -1    0    0    0    0 -0.00000000000E+00 -0.00000000000E+00  0.11368683772E-12  0.17120000000E+03  0.17120000000E+03 0.  0.
         13    1    1    2    0    0  0.11595715859E+03 -0.12344859294E+02  0.33253644089E+03  0.35239034303E+03  0.10566000000E+00 0.  1.
        994    1    1    2    0    0 -0.62823850460E+02  0.25375227211E+02  0.38028560329E+02  0.18800624921E+03  0.17120000000E+03 0.  0.
        998    1    1    2    0    0 -0.53133308130E+02 -0.13030367917E+02  0.11294349951E+04  0.11308034078E+04  0.10000000000E+02 0.  1.
</event>
<event>
 5    1  0.1800099E-008  0.3768120E+03  0.7957747E-01  0.3465158E+00
         13   -1    0    0    0    0  0.00000000000E+00  0.00000000000E+00  0.14999999963E+04  0.15000000000E+04  0.10566000000E+00 0. -1.
        994   -1    0    0    0    0 -0.00000000000E+00 -0.00000000000E+00  0.11368683772E-12  0.17120000000E+03  0.17120000000E+03 0.  0.
         13    1    1    2    0    0  0.10764421375E+02  0.36165332811E+01  0.85656067085E+01  0.14224375657E+02  0.10566000000E+00 0. -1.
        994    1    1    2    0    0 -0.94465572033E+01 -0.48165095912E+01  0.61310998637E+01  0.17163760250E+03  0.17120000000E+03 0.  0.
        998    1    1    2    0    0 -0.13178641716E+01  0.11999763101E+01  0.14853032897E+04  0.14853380218E+04  0.10000000000E+02 0. -1.
</event>
<event>
 5    1  0.1800099E-008  0.3767267E+03  0.7957747E-01  0.3465536E+00
         13   -1    0    0    0    0  0.00000000000E+00  0.00000000000E+00  0.14999999963E+04  0.15000000000E+04  0.10566000000E+00 0.  1.
        994   -1    0    0    0    0 -0.00000000000E+00 -0.00000000000E+00  0.11368683772E-12  0.17120000000E+03  0.17120000000E+03 0.  0.
         13    1    1    2    0    0 -0.90468071182E+01 -0.26274193438E+02  0.67078266629E+02  0.72606356318E+02  0.10566000000E+00 0.  1.
        994    1    1    2    0    0  0.58203718096E+00  0.72543912362E+01  0.59736899752E+01  0.17145871203E+03  0.17120000000E+03 0.  0.
        998    1    1    2    0    0  0.84647699372E+01  0.19019802202E+02  0.14269480397E+04  0.14271349317E+04  0.10000000000E+02 0.  1.
</event>
<event>
 5    1  0.2535285E-008  0.3861300E+03  0.7957747E-01  0.3424894E+00
         13   -1    0    0    0    0  0.00000000000E+00  0.00000000000E+00  0.14999999963E+04  0.15000000000E+04  0.10566000000E+00 0. -1.
        994   -1    0    0    0    0 -0.00000000000E+00 -0.00000000000E+00  0.11368683772E-12  0.17120000000E+03  0.17120000000E+03 0.  0.
         13    1    1    2    0    0  0.61007262192E+01 -0.86667088178E+01  0.53858694957E+02  0.54891719672E+02  0.10566000000E+00 0. -1.
        994    1    1    2    0    0 -0.21009375082E+01  0.51893234862E+01  0.11728734099E+01  0.17129553015E+03  0.17120000000E+03 0.  0.
        998    1    1    2    0    0 -0.39997887110E+01  0.34773853316E+01  0.14449684279E+04  0.14450127502E+04  0.10000000000E+02 0. -1.
</event>
<event>
 5    1  0.1800099E-008  0.3782431E+03  0.7957747E-01  0.3458844E+00
         13   -1    0    0    0    0  0.00000000000E+00  0.00000000000E+00  0.14999999963E+04  0.15000000000E+04  0.10566000000E+00 0. -1.
        994   -1    0    0    0    0 -0.00000000000E+00 -0.00000000000E+00  0.11368683772E-12  0.17120000000E+03  0.17120000000E+03 0.  0.
         13    1    1    2    0    0 -0.17433300705E+02 -0.88875157809E+01  0.35134281413E+02  0.40216126177E+02  0.10566000000E+00 0. -1.
        994    1    1    2    0    0  0.18711012695E+02  0.12102929286E+02  0.66941765953E+01  0.17277394159E+03  0.17120000000E+03 0.  0.
        998    1    1    2    0    0 -0.12777119897E+01 -0.32154135052E+01  0.14581715383E+04  0.14582099322E+04  0.10000000000E+02 0. -1.
</event>
<event>
 5    1  0.1800099E-008  0.3805900E+03  0.7957747E-01  0.3448593E+00
         13   -1    0    0    0    0  0.00000000000E+00  0.00000000000E+00  0.14999999963E+04  0.15000000000E+04  0.10566000000E+00 0. -1.
        994   -1    0    0    0    0 -0.00000000000E+00 -0.00000000000E+00  0.11368683772E-12  0.17120000000E+03  0.17120000000E+03 0.  0.
         13    1    1    2    0    0 -0.68630294932E+01  0.18849747502E+02  0.50046292700E+02  0.53917128371E+02  0.10566000000E+00 0. -1.
        994    1    1    2    0    0  0.64490549576E+01 -0.17073817810E+02  0.49477695766E+01  0.17224118552E+03  0.17120000000E+03 0.  0.
        998    1    1    2    0    0  0.41397453562E+00 -0.17759296917E+01  0.14450059340E+04  0.14450416861E+04  0.10000000000E+02 0. -1.
</event>
<event>
 5    1  0.1800099E-008  0.3820081E+03  0.7957747E-01  0.3442461E+00
         13   -1    0    0    0    0  0.00000000000E+00  0.00000000000E+00  0.14999999963E+04  0.15000000000E+04  0.10566000000E+00 0.  1.
        994   -1    0    0    0    0 -0.00000000000E+00 -0.00000000000E+00  0.11368683772E-12  0.17120000000E+03  0.17120000000E+03 0.  0.
         13    1    1    2    0    0  0.21069175118E+02  0.19592201508E+01  0.69120728847E+02  0.72287170398E+02  0.10566000000E+00 0.  1.
        994    1    1    2    0    0 -0.19017071280E+02  0.90491806599E+01  0.45972142663E+01  0.17255176339E+03  0.17120000000E+03 0.  0.
        998    1    1    2    0    0 -0.20521038378E+01 -0.11008400811E+02  0.14262820532E+04  0.14263610662E+04  0.10000000000E+02 0.  1.
</event>
<event>
 5    1  0.1800099E-008  0.3811716E+03  0.7957747E-01  0.3446073E+00
         13   -1    0    0    0    0  0.00000000000E+00  0.00000000000E+00  0.14999999963E+04  0.15000000000E+04  0.10566000000E+00 0.  1.
        994   -1    0    0    0    0 -0.00000000000E+00 -0.00000000000E+00  0.11368683772E-12  0.17120000000E+03  0.17120000000E+03 0.  0.
         13    1    1    2    0    0  0.15350987089E+02  0.31248641547E+02  0.19971980243E+03  0.20273169720E+03  0.10566000000E+00 0.  1.
        994    1    1    2    0    0 -0.10716439067E+02  0.45320739056E+01  0.39938603550E+01  0.17164140724E+03  0.17120000000E+03 0.  0.
        998    1    1    2    0    0 -0.46345480216E+01 -0.35780715452E+02  0.12962863335E+04  0.12968268956E+04  0.10000000000E+02 0.  1.
</event>
<event>
 5    1  0.1800099E-008  0.3753790E+03  0.7957747E-01  0.3471530E+00
         13   -1    0    0    0    0  0.00000000000E+00  0.00000000000E+00  0.14999999963E+04  0.15000000000E+04  0.10566000000E+00 0. -1.
        994   -1    0    0    0    0 -0.00000000000E+00 -0.00000000000E+00  0.11368683772E-12  0.17120000000E+03  0.17120000000E+03 0.  0.
         13    1    1    2    0    0 -0.38031093019E+01  0.51108114468E+02  0.18335566071E+03  0.19038333037E+03  0.10566000000E+00 0. -1.
        994    1    1    2    0    0 -0.13715018991E+02 -0.46744220998E+02  0.14583616325E+02  0.17859240132E+03  0.17120000000E+03 0.  0.
        998    1    1    2    0    0  0.17518128293E+02 -0.43638934697E+01  0.13020607192E+04  0.13022242683E+04  0.10000000000E+02 0. -1.
</event>
<event>
 5    1  0.1800099E-008  0.3788820E+03  0.7957747E-01  0.3456041E+00
         13   -1    0    0    0    0  0.00000000000E+00  0.00000000000E+00  0.14999999963E+04  0.15000000000E+04  0.10566000000E+00 0.  1.
        994   -1    0    0    0    0 -0.00000000000E+00 -0.00000000000E+00  0.11368683772E-12  0.17120000000E+03  0.17120000000E+03 0.  0.
         13    1    1    2    0    0  0.20174679297E+02 -0.64609981581E+01  0.77509655738E+01  0.22557721810E+02  0.10566000000E+00 0.  1.
        994    1    1    2    0    0 -0.68575960073E+01 -0.27637745693E+02  0.18646114591E+02  0.17455082125E+03  0.17120000000E+03 0.  0.
        998    1    1    2    0    0 -0.13317083289E+02  0.34098743851E+02  0.14736029161E+04  0.14740914569E+04  0.10000000000E+02 0.  1.
</event>
<event>
 5    1  0.1800099E-008  0.3814035E+03  0.7957747E-01  0.3445070E+00
         13   -1    0    0    0    0  0.00000000000E+00  0.00000000000E+00  0.14999999963E+04  0.15000000000E+04  0.10566000000E+00 0. -1.
        994   -1    0    0    0    0 -0.00000000000E+00 -0.00000000000E+00  0.11368683772E-12  0.17120000000E+03  0.17120000000E+03 0.  0.
         13    1    1    2    0    0  0.67672162320E+00 -0.13211370154E+02  0.23996948863E+02  0.27401878991E+02  0.10566000000E+00 0. -1.
        994    1    1    2    0    0 -0.40856818451E+01  0.11609970903E+02  0.39305570109E+01  0.17168684719E+03  0.17120000000E+03 0.  0.
        998    1    1    2    0    0  0.34089602219E+01  0.16013992505E+01  0.14720724904E+04  0.14721112738E+04  0.10000000000E+02 0. -1.
</event>
<event>
 5    1  0.1800099E-008  0.3841270E+03  0.7957747E-01  0.3433383E+00
         13   -1    0    0    0    0  0.00000000000E+00  0.00000000000E+00  0.14999999963E+04  0.15000000000E+04  0.10566000000E+00 0. -1.
        994   -1    0    0    0    0 -0.00000000000E+00 -0.00000000000E+00  0.11368683772E-12  0.17120000000E+03  0.17120000000E+03 0.  0.
         13    1    1    2    0    0 -0.11583109430E+02 -0.13425236811E+02  0.72742505234E+02  0.74872482524E+02  0.10566000000E+00 0. -1.
        994    1    1    2    0    0  0.69347872958E+01  0.18275214049E+02  0.33252752433E+01  0.17234434188E+03  0.17120000000E+03 0.  0.
        998    1    1    2    0    0  0.46483221341E+01 -0.48499772381E+01  0.14239322158E+04  0.14239831756E+04  0.10000000000E+02 0. -1.
</event>
<event>
 5    1  0.1800099E-008  0.3768093E+03  0.7957747E-01  0.3465170E+00
         13   -1    0    0    0    0  0.00000000000E+00  0.00000000000E+00  0.14999999963E+04  0.15000000000E+04  0.10566000000E+00 0. -1.
        994   -1    0    0    0    0 -0.00000000000E+00 -0.00000000000E+00  0.11368683772E-12  0.17120000000E+03  0.17120000000E+03 0.  0.
         13    1    1    2    0    0 -0.24053879860E+02  0.19732865143E+02  0.96060145492E+02  0.10097295588E+03  0.10566000000E+00 0. -1.
        994    1    1    2    0    0 -0.22879979667E+02 -0.27764296562E+01  0.75493240731E+01  0.17290932400E+03  0.17120000000E+03 0.  0.
        998    1    1    2    0    0  0.46933859528E+02 -0.16956435487E+02  0.13963905267E+04  0.13973177201E+04  0.10000000000E+02 0. -1.
</event>
<event>
 5    1  0.1800099E-008  0.3774514E+03  0.7957747E-01  0.3462331E+00
         13   -1    0    0    0    0  0.00000000000E+00  0.00000000000E+00  0.14999999963E+04  0.15000000000E+04  0.10566000000E+00 0. -1.
        994   -1    0    0    0    0 -0.00000000000E+00 -0.00000000000E+00  0.11368683772E-12  0.17120000000E+03  0.17120000000E+03 0.  0.
         13    1    1    2    0    0 -0.33120315001E+02 -0.28843150671E+02  0.15687395398E+03  0.16290589678E+03  0.10566000000E+00 0. -1.
        994    1    1    2    0    0  0.42576950768E+02  0.21229218564E+02  0.13094471754E+02  0.17816953064E+03  0.17120000000E+03 0.  0.
        998    1    1    2    0    0 -0.94566357667E+01  0.76139321072E+01  0.13300315705E+04  0.13301245726E+04  0.10000000000E+02 0. -1.
</event>
<event>
 5    1  0.1800099E-008  0.3826812E+03  0.7957747E-01  0.3439566E+00
         13   -1    0    0    0    0  0.00000000000E+00  0.00000000000E+00  0.14999999963E+04  0.15000000000E+04  0.10566000000E+00 0. -1.
        994   -1    0    0    0    0 -0.00000000000E+00 -0.00000000000E+00  0.11368683772E-12  0.17120000000E+03  0.17120000000E+03 0.  0.
         13    1    1    2    0    0 -0.27333968952E+01 -0.11218326136E+02  0.23127456097E+02  0.25849810240E+02  0.10566000000E+00 0. -1.
        994    1    1    2    0    0 -0.18343846465E+01  0.54919738289E+01  0.28968541941E+01  0.17132238181E+03  0.17120000000E+03 0.  0.
        998    1    1    2    0    0  0.45677815418E+01  0.57263523070E+01  0.14739756860E+04  0.14740278080E+04  0.10000000000E+02 0. -1.
</event>
<event>
 5    1  0.1800099E-008  0.3859508E+03  0.7957747E-01  0.3425650E+00
         13   -1    0    0    0    0  0.00000000000E+00  0.00000000000E+00  0.14999999963E+04  0.15000000000E+04  0.10566000000E+00 0.  1.
        994   -1    0    0    0    0 -0.00000000000E+00 -0.00000000000E+00  0.11368683772E-12  0.17120000000E+03  0.17120000000E+03 0.  0.
         13    1    1    2    0    0  0.48662989171E+01 -0.94325371437E+01  0.46113182565E+02  0.47319027805E+02  0.10566000000E+00 0.  1.
        994    1    1    2    0    0 -0.40087880002E+01  0.17455143771E+02  0.22111336746E+01  0.17214842880E+03  0.17120000000E+03 0.  0.
        998    1    1    2    0    0 -0.85751091693E+00 -0.80226066278E+01  0.14516756800E+04  0.14517325434E+04  0.10000000000E+02 0.  1.
</event>
<event>
 5    1  0.1800099E-008  0.3859996E+03  0.7957747E-01  0.3425444E+00
         13   -1    0    0    0    0  0.00000000000E+00  0.00000000000E+00  0.14999999963E+04  0.15000000000E+04  0.10566000000E+00 0. -1.
        994   -1    0    0    0    0 -0.00000000000E+00 -0.00000000000E+00  0.11368683772E-12  0.17120000000E+03  0.17120000000E+03 0.  0.
         13    1    1    2    0    0 -0.93658456161E+01 -0.39105841956E+01  0.43872908366E+02  0.45031710887E+02  0.10566000000E+00 0. -1.
        994    1    1    2    0    0  0.16151941657E+02 -0.15940722082E+01  0.19986819231E+01  0.17197924588E+03  0.17120000000E+03 0.  0.
        998    1    1    2    0    0 -0.67860960412E+01  0.55046564038E+01  0.14541284060E+04  0.14541890432E+04  0.10000000000E+02 0. -1.
</event>
<event>
 5    1  0.1800099E-008  0.3818508E+03  0.7957747E-01  0.3443139E+00
         13   -1    0    0    0    0  0.00000000000E+00  0.00000000000E+00  0.14999999963E+04  0.15000000000E+04  0.10566000000E+00 0. -1.
        994   -1    0    0    0    0 -0.00000000000E+00 -0.00000000000E+00  0.11368683772E-12  0.17120000000E+03  0.17120000000E+03 0.  0.
         13    1    1    2    0    0  0.16421220795E+01 -0.24561063147E+02  0.96981640989E+02  0.10005694499E+03  0.10566000000E+00 0. -1.
        994    1    1    2    0    0  0.18892625147E+01  0.90774104681E+01  0.34874863681E+01  0.17148635880E+03  0.17120000000E+03 0.  0.
        998    1    1    2    0    0 -0.35313845942E+01  0.15483652679E+02  0.13995308689E+04  0.13996566962E+04  0.10000000000E+02 0. -1.
</event>
<event>
 5    1  0.1800099E-008  0.3788644E+03  0.7957747E-01  0.3456118E+00
         13   -1    0    0    0    0  0.00000000000E+00  0.00000000000E+00  0.14999999963E+04  0.15000000000E+04  0.10566000000E+00 0. -1.
        994   -1    0    0    0    0 -0.00000000000E+00 -0.00000000000E+00  0.11368683772E-12  0.17120000000E+03  0.17120000000E+03 0.  0.
         13    1    1    2    0    0 -0.31664201223E+01 -0.13871188594E+02  0.19302989272E+02  0.23980255384E+02  0.10566000000E+00 0. -1.
        994    1    1    2    0    0  0.38838891262E+01  0.13578820452E+02  0.53770649618E+01  0.17186570858E+03  0.17120000000E+03 0.  0.
        998    1    1    2    0    0 -0.71746900395E+00  0.29236814135E+00  0.14753199420E+04  0.14753540360E+04  0.10000000000E+02 0. -1.
</event>
<event>
 5    1  0.1800099E-008  0.3739081E+03  0.7957747E-01  0.3478120E+00
         13   -1    0    0    0    0  0.00000000000E+00  0.00000000000E+00  0.14999999963E+04  0.15000000000E+04  0.10566000000E+00 0. -1.
        994   -1    0    0    0    0 -0.00000000000E+00 -0.00000000000E+00  0.11368683772E-12  0.17120000000E+03  0.17120000000E+03 0.  0.
         13    1    1    2    0    0  0.30126805542E+02 -0.96896049584E+02  0.60836248866E+03  0.61676689082E+03  0.10566000000E+00 0. -1.
        994    1    1    2    0    0 -0.13755232468E+02  0.71824131289E+02  0.25711696346E+02  0.18793201852E+03  0.17120000000E+03 0.  0.
        998    1    1    2    0    0 -0.16371573075E+02  0.25071918295E+02  0.86592581127E+03  0.86650109066E+03  0.10000000000E+02 0. -1.
</event>
<event>
 5    1  0.1800099E-008  0.3795958E+03  0.7957747E-01  0.3452920E+00
         13   -1    0    0    0    0  0.00000000000E+00  0.00000000000E+00  0.14999999963E+04  0.15000000000E+04  0.10566000000E+00 0. -1.
        994   -1    0    0    0    0 -0.00000000000E+00 -0.00000000000E+00  0.11368683772E-12  0.17120000000E+03  0.17120000000E+03 0.  0.
         13    1    1    2    0    0  0.16229523112E+02 -0.49828030607E+01  0.30587838652E+02  0.34983607364E+02  0.10566000000E+00 0. -1.
        994    1    1    2    0    0 -0.21138585110E+02  0.31933177002E+01  0.58686803396E+01  0.17262942526E+03  0.17120000000E+03 0.  0.
        998    1    1    2    0    0  0.49090619975E+01  0.17894853605E+01  0.14635434773E+04  0.14635869674E+04  0.10000000000E+02 0. -1.
</event>
<event>
 5    1  0.1800099E-008  0.3748946E+03  0.7957747E-01  0.3473694E+00
         13   -1    0    0    0    0  0.00000000000E+00  0.00000000000E+00  0.14999999963E+04  0.15000000000E+04  0.10566000000E+00 0.  1.
        994   -1    0    0    0    0 -0.00000000000E+00 -0.00000000000E+00  0.11368683772E-12  0.17120000000E+03  0.17120000000E+03 0.  0.
         13    1    1    2    0    0  0.57364461581E+02  0.25341298993E+02  0.24353919896E+03  0.25148402629E+03  0.10566000000E+00 0.  1.
        994    1    1    2    0    0 -0.54343329686E+02 -0.32485904561E+02  0.20487943745E+02  0.18367832565E+03  0.17120000000E+03 0.  0.
        998    1    1    2    0    0 -0.30211318954E+01  0.71446055673E+01  0.12359728536E+04  0.12360376481E+04  0.10000000000E+02 0.  1.
</event>
<event>
 5    1  0.1800099E-008  0.3838404E+03  0.7957747E-01  0.3434605E+00
         13   -1    0    0    0    0  0.00000000000E+00  0.00000000000E+00  0.14999999963E+04  0.15000000000E+04  0.10566000000E+00 0.  1.
        994   -1    0    0    0    0 -0.00000000000E+00 -0.00000000000E+00  0.11368683772E-12  0.17120000000E+03  0.17120000000E+03 0.  0.
         13    1    1    2    0    0 -0.16912075400E+02 -0.12317348784E+02  0.93894725271E+02  0.96197536211E+02  0.10566000000E+00 0.  1.
        994    1    1    2    0    0  0.18386487598E+02  0.10016961303E+02  0.36554819372E+01  0.17251436169E+03  0.17120000000E+03 0.  0.
        998    1    1    2    0    0 -0.14744121981E+01  0.23003874811E+01  0.14024497891E+04  0.14024881021E+04  0.10000000000E+02 0.  1.
</event>
<event>
 5    1  0.1800099E-008  0.3758592E+03  0.7957747E-01  0.3469389E+00
         13   -1    0    0    0    0  0.00000000000E+00  0.00000000000E+00  0.14999999963E+04  0.15000000000E+04  0.10566000000E+00 0.  1.
        994   -1    0    0    0    0 -0.00000000000E+00 -0.00000000000E+00  0.11368683772E-12  0.17120000000E+03  0.17120000000E+03 0.  0.
         13    1    1    2    0    0  0.14857354638E+02  0.12205543647E+02  0.67306682637E+01  0.20372268943E+02  0.10566000000E+00 0.  1.
        994    1    1    2    0    0 -0.11947880356E+02 -0.20668632435E+02  0.16108002571E+02  0.17360544910E+03  0.17120000000E+03 0.  0.
        998    1    1    2    0    0 -0.29094742822E+01  0.84630887884E+01  0.14771613254E+04  0.14772222820E+04  0.10000000000E+02 0.  1.
</event>
<event>
 5    1  0.1800099E-008  0.3900481E+03  0.7957747E-01  0.3408541E+00
         13   -1    0    0    0    0  0.00000000000E+00  0.00000000000E+00  0.14999999963E+04  0.15000000000E+04  0.10566000000E+00 0. -1.
        994   -1    0    0    0    0 -0.00000000000E+00 -0.00000000000E+00  0.11368683772E-12  0.17120000000E+03  0.17120000000E+03 0.  0.
         13    1    1    2    0    0  0.13679342374E+02  0.43393350023E+01 -0.52995102032E+01  0.15298699569E+02  0.10566000000E+00 0. -1.
        994    1    1    2    0    0 -0.13063622380E+02 -0.46704345718E+01  0.22684837999E+02  0.17325274331E+03  0.17120000000E+03 0.  0.
        998    1    1    2    0    0 -0.61571999475E+00  0.33109956943E+00  0.14826146685E+04  0.14826485571E+04  0.10000000000E+02 0. -1.
</event>
<event>
 5    1  0.1800099E-008  0.3744929E+03  0.7957747E-01  0.3475494E+00
         13   -1    0    0    0    0  0.00000000000E+00  0.00000000000E+00  0.14999999963E+04  0.15000000000E+04  0.10566000000E+00 0. -1.
        994   -1    0    0    0    0 -0.00000000000E+00 -0.00000000000E+00  0.11368683772E-12  0.17120000000E+03  0.17120000000E+03 0.  0.
         13    1    1    2    0    0 -0.11192361116E+02  0.40556042383E+02  0.20495719016E+03  0.20923078761E+03  0.10566000000E+00 0. -1.
        994    1    1    2    0    0 -0.19756653848E+02  0.47884653763E+02  0.16131445085E+02  0.17959100467E+03  0.17120000000E+03 0.  0.
        998    1    1    2    0    0  0.30949014964E+02 -0.88440696146E+02  0.12789113610E+04  0.12823782077E+04  0.10000000000E+02 0. -1.
</event>
<event>
 5    1  0.1800099E-008  0.3842142E+03  0.7957747E-01  0.3433012E+00
         13   -1    0    0    0    0  0.00000000000E+00  0.00000000000E+00  0.14999999963E+04  0.15000000000E+04  0.10566000000E+00 0. -1.
        994   -1    0    0    0    0 -0.00000000000E+00 -0.00000000000E+00  0.11368683772E-12  0.17120000000E+03  0.17120000000E+03 0.  0.
         13    1    1    2    0    0 -0.90305033456E+01 -0.67772548668E+01  0.31024965086E+02  0.33015765883E+02  0.10566000000E+00 0. -1.
        994    1    1    2    0    0  0.50015803742E+01  0.62588486065E+01  0.22324146390E+01  0.17140190392E+03  0.17120000000E+03 0.  0.
        998    1    1    2    0    0  0.40289229714E+01  0.51840626027E+00  0.14667426166E+04  0.14667823302E+04  0.10000000000E+02 0. -1.
</event>
<event>
 5    1  0.1800099E-008  0.3799549E+03  0.7957747E-01  0.3451355E+00
         13   -1    0    0    0    0  0.00000000000E+00  0.00000000000E+00  0.14999999963E+04  0.15000000000E+04  0.10566000000E+00 0.  1.
        994   -1    0    0    0    0 -0.00000000000E+00 -0.00000000000E+00  0.11368683772E-12  0.17120000000E+03  0.17120000000E+03 0.  0.
         13    1    1    2    0    0  0.14015475773E+02  0.36380280003E+02  0.17335407572E+03  0.17768400341E+03  0.10566000000E+00 0.  1.
        994    1    1    2    0    0 -0.13181102469E+02 -0.26460340265E+02  0.70832028085E+01  0.17387783882E+03  0.17120000000E+03 0.  0.
        998    1    1    2    0    0 -0.83437330420E+00 -0.99199397373E+01  0.13195627178E+04  0.13196381578E+04  0.10000000000E+02 0.  1.
</event>
<event>
 5    1  0.1800099E-008  0.3708011E+03  0.7957747E-01  0.3492217E+00
         13   -1    0    0    0    0  0.00000000000E+00  0.00000000000E+00  0.14999999963E+04  0.15000000000E+04  0.10566000000E+00 0.  1.
        994   -1    0    0    0    0 -0.00000000000E+00 -0.00000000000E+00  0.11368683772E-12  0.17120000000E+03  0.17120000000E+03 0.  0.
         13    1    1    2    0    0  0.64209633475E+01 -0.52884524331E+02  0.15772222100E+03  0.16647615999E+03  0.10566000000E+00 0.  1.
        994    1    1    2    0    0  0.31375330705E+01  0.32039537748E+02  0.12432848194E+02  0.17464361370E+03  0.17120000000E+03 0.  0.
        998    1    1    2    0    0 -0.95584964180E+01  0.20844986583E+02  0.13298449271E+04  0.13300802263E+04  0.10000000000E+02 0.  1.
</event>
<event>
 5    1  0.1800099E-008  0.3749978E+03  0.7957747E-01  0.3473233E+00
         13   -1    0    0    0    0  0.00000000000E+00  0.00000000000E+00  0.14999999963E+04  0.15000000000E+04  0.10566000000E+00 0. -1.
        994   -1    0    0    0    0 -0.00000000000E+00 -0.00000000000E+00  0.11368683772E-12  0.17120000000E+03  0.17120000000E+03 0.  0.
         13    1    1    2    0    0 -0.28686071437E+02 -0.39378538135E+02  0.25927881425E+03  0.26381636538E+03  0.10566000000E+00 0. -1.
        994    1    1    2    0    0  0.60980643830E+01 -0.33838588103E+02  0.10709093189E+02  0.17494673793E+03  0.17120000000E+03 0.  0.
        998    1    1    2    0    0  0.22588007054E+02  0.73217126238E+02  0.12300120888E+04  0.12324368967E+04  0.10000000000E+02 0. -1.
</event>
<event>
 5    1  0.1800099E-008  0.3832665E+03  0.7957747E-01  0.3437058E+00
         13   -1    0    0    0    0  0.00000000000E+00  0.00000000000E+00  0.14999999963E+04  0.15000000000E+04  0.10566000000E+00 0.  1.
        994   -1    0    0    0    0 -0.00000000000E+00 -0.00000000000E+00  0.11368683772E-12  0.17120000000E+03  0.17120000000E+03 0.  0.
         13    1    1    2    0    0  0.12386995072E+02 -0.20277056846E+02  0.10451458292E+03  0.10718164903E+03  0.10566000000E+00 0.  1.
        994    1    1    2    0    0 -0.10426382011E+02  0.24145820707E+02  0.47842990434E+01  0.17327452097E+03  0.17120000000E+03 0.  0.
        998    1    1    2    0    0 -0.19606130617E+01 -0.38687638616E+01  0.13907011143E+04  0.13907438300E+04  0.10000000000E+02 0.  1.
</event>
<event>
 5    1  0.1800099E-008  0.3855911E+03  0.7957747E-01  0.3427169E+00
         13   -1    0    0    0    0  0.00000000000E+00  0.00000000000E+00  0.14999999963E+04  0.15000000000E+04  0.10566000000E+00 0.  1.
        994   -1    0    0    0    0 -0.00000000000E+00 -0.00000000000E+00  0.11368683772E-12  0.17120000000E+03  0.17120000000E+03 0.  0.
         13    1    1    2    0    0  0.14827824068E+01  0.99511427047E+01  0.38639405976E+02  0.39927919342E+02  0.10566000000E+00 0.  1.
        994    1    1    2    0    0  0.27215349140E+01 -0.41958177964E+01  0.14190657503E+01  0.17127891110E+03  0.17120000000E+03 0.  0.
        998    1    1    2    0    0 -0.42043173209E+01 -0.57553249083E+01  0.14599415246E+04  0.14599931696E+04  0.10000000000E+02 0.  1.
</event>
<event>
 5    1  0.1800099E-008  0.3840677E+03  0.7957747E-01  0.3433636E+00
         13   -1    0    0    0    0  0.00000000000E+00  0.00000000000E+00  0.14999999963E+04  0.15000000000E+04  0.10566000000E+00 0.  1.
        994   -1    0    0    0    0 -0.00000000000E+00 -0.00000000000E+00  0.11368683772E-12  0.17120000000E+03  0.17120000000E+03 0.  0.
         13    1    1    2    0    0 -0.13133224275E+02  0.44477664053E+01  0.42935430681E+02  0.45119026781E+02  0.10566000000E+00 0.  1.
        994    1    1    2    0    0  0.20745900653E+02 -0.60236424548E+01  0.36346329802E+01  0.17259584937E+03  0.17120000000E+03 0.  0.
        998    1    1    2    0    0 -0.76126763779E+01  0.15758760495E+01  0.14534299326E+04  0.14534851239E+04  0.10000000000E+02 0.  1.
</event>
<event>
 5    1  0.1800099E-008  0.3742761E+03  0.7957747E-01  0.3476467E+00
         13   -1    0    0    0    0  0.00000000000E+00  0.00000000000E+00  0.14999999963E+04  0.15000000000E+04  0.10566000000E+00 0.  1.
        994   -1    0    0    0    0 -0.00000000000E+00 -0.00000000000E+00  0.11368683772E-12  0.17120000000E+03  0.17120000000E+03 0.  0.
         13    1    1    2    0    0 -0.37241646345E+02 -0.26817131767E+02  0.14118626007E+03  0.14845763697E+03  0.10566000000E+00 0.  1.
        994    1    1    2    0    0  0.97008072936E+01  0.48572592302E+02  0.15457372811E+02  0.17889039314E+03  0.17120000000E+03 0.  0.
        998    1    1    2    0    0  0.27540839051E+02 -0.21755460534E+02  0.13433563634E+04  0.13438519699E+04  0.10000000000E+02 0.  1.
</event>
<event>
 5    1  0.1800099E-008  0.3755674E+03  0.7957747E-01  0.3470689E+00
         13   -1    0    0    0    0  0.00000000000E+00  0.00000000000E+00  0.14999999963E+04  0.15000000000E+04  0.10566000000E+00 0.  1.
        994   -1    0    0    0    0 -0.00000000000E+00 -0.00000000000E+00  0.11368683772E-12  0.17120000000E+03  0.17120000000E+03 0.  0.
         13    1    1    2    0    0  0.10964885937E+02  0.10364910416E+03  0.22688338937E+03  0.24967869163E+03  0.10566000000E+00 0.  1.
        994    1    1    2    0    0 -0.92270854539E+02 -0.16109445562E+03  0.14952425431E+03  0.29348300948E+03  0.17120000000E+03 0.  0.
        998    1    1    2    0    0  0.81305968602E+02  0.57445351463E+02  0.11235923526E+04  0.11280382989E+04  0.10000000000E+02 0.  1.
</event>
<event>
 5    1  0.1800099E-008  0.3826663E+03  0.7957747E-01  0.3439630E+00
         13   -1    0    0    0    0  0.00000000000E+00  0.00000000000E+00  0.14999999963E+04  0.15000000000E+04  0.10566000000E+00 0.  1.
        994   -1    0    0    0    0 -0.00000000000E+00 -0.00000000000E+00  0.11368683772E-12  0.17120000000E+03  0.17120000000E+03 0.  0.
         13    1    1    2    0    0 -0.19764752833E+02 -0.77894322386E+01  0.96818025209E+02  0.99121450143E+02  0.10566000000E+00 0.  1.
        994    1    1    2    0    0 -0.79259244164E+01 -0.26001248431E+02  0.52455227728E+01  0.17342387583E+03  0.17120000000E+03 0.  0.
        998    1    1    2    0    0  0.27690677250E+02  0.33790680669E+02  0.13979364483E+04  0.13986546740E+04  0.10000000000E+02 0.  1.
</event>
<event>
 5    1  0.1800099E-008  0.3822597E+03  0.7957747E-01  0.3441378E+00
         13   -1    0    0    0    0  0.00000000000E+00  0.00000000000E+00  0.14999999963E+04  0.15000000000E+04  0.10566000000E+00 0.  1.
        994   -1    0    0    0    0 -0.00000000000E+00 -0.00000000000E+00  0.11368683772E-12  0.17120000000E+03  0.17120000000E+03 0.  0.
         13    1    1    2    0    0 -0.70168004583E+02 -0.12225235630E+03  0.32345300864E+03  0.35283288885E+03  0.10566000000E+00 0.  1.
        994    1    1    2    0    0  0.11042529074E+03  0.14553815897E+03  0.15237626984E+03  0.29309225196E+03  0.17120000000E+03 0.  0.
        998    1    1    2    0    0 -0.40257286152E+02 -0.23285802666E+02  0.10241707178E+04  0.10252748592E+04  0.10000000000E+02 0.  1.
</event>
<event>
 5    1  0.1800099E-008  0.3827329E+03  0.7957747E-01  0.3439344E+00
         13   -1    0    0    0    0  0.00000000000E+00  0.00000000000E+00  0.14999999963E+04  0.15000000000E+04  0.10566000000E+00 0.  1.
        994   -1    0    0    0    0 -0.00000000000E+00 -0.00000000000E+00  0.11368683772E-12  0.17120000000E+03  0.17120000000E+03 0.  0.
         13    1    1    2    0    0 -0.23678328777E+02  0.32367259437E+00  0.78549083513E+02  0.82041073265E+02  0.10566000000E+00 0.  1.
        994    1    1    2    0    0  0.61972983172E+02 -0.28294479211E+02  0.18291477875E+02  0.18516275641E+03  0.17120000000E+03 0.  0.
        998    1    1    2    0    0 -0.38294654396E+02  0.27970806617E+02  0.14031594349E+04  0.14039961703E+04  0.10000000000E+02 0.  1.
</event>
<event>
 5    1  0.1800099E-008  0.3830192E+03  0.7957747E-01  0.3438117E+00
         13   -1    0    0    0    0  0.00000000000E+00  0.00000000000E+00  0.14999999963E+04  0.15000000000E+04  0.10566000000E+00 0.  1.
        994   -1    0    0    0    0 -0.00000000000E+00 -0.00000000000E+00  0.11368683772E-12  0.17120000000E+03  0.17120000000E+03 0.  0.
         13    1    1    2    0    0 -0.16087313863E+02  0.12660321446E+02  0.82480706484E+02  0.84983313142E+02  0.10566000000E+00 0.  1.
        994    1    1    2    0    0  0.11994277757E+02  0.49908685444E+01  0.31755786393E+01  0.17172156465E+03  0.17120000000E+03 0.  0.
        998    1    1    2    0    0  0.40930361062E+01 -0.17651189990E+02  0.14143437112E+04  0.14144951222E+04  0.10000000000E+02 0.  1.
</event>
<event>
 5    1  0.1800099E-008  0.3749774E+03  0.7957747E-01  0.3473324E+00
         13   -1    0    0    0    0  0.00000000000E+00  0.00000000000E+00  0.14999999963E+04  0.15000000000E+04  0.10566000000E+00 0. -1.
        994   -1    0    0    0    0 -0.00000000000E+00 -0.00000000000E+00  0.11368683772E-12  0.17120000000E+03  0.17120000000E+03 0.  0.
         13    1    1    2    0    0  0.42373274533E+02  0.57870551135E+02  0.17373566538E+03  0.18795900530E+03  0.10566000000E+00 0. -1.
        994    1    1    2    0    0 -0.20267605970E+02 -0.58113600784E+02  0.27198758590E+02  0.18394884864E+03  0.17120000000E+03 0.  0.
        998    1    1    2    0    0 -0.22105668563E+02  0.24304964861E+00  0.12990655723E+04  0.12992921461E+04  0.10000000000E+02 0. -1.
</event>
<event>
 5    1  0.1800099E-008  0.3832627E+03  0.7957747E-01  0.3437074E+00
         13   -1    0    0    0    0  0.00000000000E+00  0.00000000000E+00  0.14999999963E+04  0.15000000000E+04  0.10566000000E+00 0. -1.
        994   -1    0    0    0    0 -0.00000000000E+00 -0.00000000000E+00  0.11368683772E-12  0.17120000000E+03  0.17120000000E+03 0.  0.
         13    1    1    2    0    0  0.37384584638E+01  0.18267574777E+02  0.76453996544E+02  0.78695013257E+02  0.10566000000E+00 0. -1.
        994    1    1    2    0    0 -0.25098416929E+01  0.65634591242E+01  0.26584548403E+01  0.17136477375E+03  0.17120000000E+03 0.  0.
        998    1    1    2    0    0 -0.12286167710E+01 -0.24831033902E+02  0.14208875449E+04  0.14211402130E+04  0.10000000000E+02 0. -1.
</event>
<event>
 5    1  0.1800099E-008  0.3735267E+03  0.7957747E-01  0.3479838E+00
         13   -1    0    0    0    0  0.00000000000E+00  0.00000000000E+00  0.14999999963E+04  0.15000000000E+04  0.10566000000E+00 0.  1.
        994   -1    0    0    0    0 -0.00000000000E+00 -0.00000000000E+00  0.11368683772E-12  0.17120000000E+03  0.17120000000E+03 0.  0.
         13    1    1    2    0    0 -0.10355586312E+02  0.35226504809E+01  0.44904738247E+01  0.11824667161E+02  0.10566000000E+00 0.  1.
        994    1    1    2    0    0  0.15475494496E+02 -0.84945699066E+01  0.85026205581E+01  0.17231768105E+03  0.17120000000E+03 0.  0.
        998    1    1    2    0    0 -0.51199081846E+01  0.49719194257E+01  0.14870069019E+04  0.14870576518E+04  0.10000000000E+02 0.  1.
</event>
<event>
 5    1  0.1800099E-008  0.3798027E+03  0.7957747E-01  0.3452018E+00
         13   -1    0    0    0    0  0.00000000000E+00  0.00000000000E+00  0.14999999963E+04  0.15000000000E+04  0.10566000000E+00 0. -1.
        994   -1    0    0    0    0 -0.00000000000E+00 -0.00000000000E+00  0.11368683772E-12  0.17120000000E+03  0.17120000000E+03 0.  0.
         13    1    1    2    0    0  0.33254625846E+02  0.98008489123E+01  0.13020400171E+03  0.13474056555E+03  0.10566000000E+00 0. -1.
        994    1    1    2    0    0 -0.33534256932E+02 -0.59252425057E+01  0.81216515590E+01  0.17474282850E+03  0.17120000000E+03 0.  0.
        998    1    1    2    0    0  0.27963108561E+00 -0.38756064066E+01  0.13616743430E+04  0.13617166060E+04  0.10000000000E+02 0. -1.
</event>
<event>
 5    1  0.1800099E-008  0.3836485E+03  0.7957747E-01  0.3435424E+00
         13   -1    0    0    0    0  0.00000000000E+00  0.00000000000E+00  0.14999999963E+04  0.15000000000E+04  0.10566000000E+00 0.  1.
        994   -1    0    0    0    0 -0.00000000000E+00 -0.00000000000E+00  0.11368683772E-12  0.17120000000E+03  0.17120000000E+03 0.  0.
         13    1    1    2    0    0 -0.92494624225E+01  0.19985202832E+02  0.10456364072E+03  0.10685750798E+03  0.10566000000E+00 0.  1.
        994    1    1    2    0    0  0.48941834364E+00 -0.15209038000E+02  0.30678354422E+01  0.17190231523E+03  0.17120000000E+03 0.  0.
        998    1    1    2    0    0  0.87600440789E+01 -0.47761648322E+01  0.13923685201E+04  0.13924401768E+04  0.10000000000E+02 0.  1.
</event>
<event>
 5    1  0.1800099E-008  0.3807689E+03  0.7957747E-01  0.3447817E+00
         13   -1    0    0    0    0  0.00000000000E+00  0.00000000000E+00  0.14999999963E+04  0.15000000000E+04  0.10566000000E+00 0.  1.
        994   -1    0    0    0    0 -0.00000000000E+00 -0.00000000000E+00  0.11368683772E-12  0.17120000000E+03  0.17120000000E+03 0.  0.
         13    1    1    2    0    0 -0.72598291520E+01  0.12896502117E+02  0.27311273321E+02  0.31063510758E+02  0.10566000000E+00 0.  1.
        994    1    1    2    0    0  0.10041698588E+02 -0.12110947130E+02  0.45712488953E+01  0.17198211264E+03  0.17120000000E+03 0.  0.
        998    1    1    2    0    0 -0.27818694362E+01 -0.78555498666E+00  0.14681174741E+04  0.14681543766E+04  0.10000000000E+02 0.  1.
</event>
<event>
 5    1  0.1800099E-008  0.3794107E+03  0.7957747E-01  0.3453728E+00
         13   -1    0    0    0    0  0.00000000000E+00  0.00000000000E+00  0.14999999963E+04  0.15000000000E+04  0.10566000000E+00 0. -1.
        994   -1    0    0    0    0 -0.00000000000E+00 -0.00000000000E+00  0.11368683772E-12  0.17120000000E+03  0.17120000000E+03 0.  0.
         13    1    1    2    0    0  0.72664794890E+01 -0.43700388508E+02  0.16014407381E+03  0.16615854243E+03  0.10566000000E+00 0. -1.
        994    1    1    2    0    0 -0.24247902786E+01  0.78596603401E+02  0.25428016189E+02  0.19010347099E+03  0.17120000000E+03 0.  0.
        998    1    1    2    0    0 -0.48416892104E+01 -0.34896214893E+02  0.13144279063E+04  0.13149379866E+04  0.10000000000E+02 0. -1.
</event>
<event>
 5    1  0.1800099E-008  0.3772368E+03  0.7957747E-01  0.3463279E+00
         13   -1    0    0    0    0  0.00000000000E+00  0.00000000000E+00  0.14999999963E+04  0.15000000000E+04  0.10566000000E+00 0. -1.
        994   -1    0    0    0    0 -0.00000000000E+00 -0.00000000000E+00  0.11368683772E-12  0.17120000000E+03  0.17120000000E+03 0.  0.
         13    1    1    2    0    0  0.63864330691E+02 -0.23872238190E+02  0.34459453674E+03  0.35127473921E+03  0.10566000000E+00 0. -1.
        994    1    1    2    0    0 -0.57249095040E+02  0.21352337620E+02  0.18235420779E+02  0.18268922184E+03  0.17120000000E+03 0.  0.
        998    1    1    2    0    0 -0.66152356502E+01  0.25199005704E+01  0.11371700388E+04  0.11372360390E+04  0.10000000000E+02 0. -1.
</event>
<event>
 5    1  0.1800099E-008  0.4041819E+03  0.7957747E-01  0.3352182E+00
         13   -1    0    0    0    0  0.00000000000E+00  0.00000000000E+00  0.14999999963E+04  0.15000000000E+04  0.10566000000E+00 0.  1.
        994   -1    0    0    0    0 -0.00000000000E+00 -0.00000000000E+00  0.11368683772E-12  0.17120000000E+03  0.17120000000E+03 0.  0.
         13    1    1    2    0    0 -0.83559391259E+02  0.37978145270E+02  0.12170885742E+03  0.15243873695E+03  0.10566000000E+00 0.  1.
        994    1    1    2    0    0  0.79673355106E+02 -0.34144567984E+02  0.60906607510E+02  0.20132746925E+03  0.17120000000E+03 0.  0.
        998    1    1    2    0    0  0.38860361533E+01 -0.38335772859E+01  0.13173845314E+04  0.13174337938E+04  0.10000000000E+02 0.  1.
</event>
<event>
 5    1  0.1800099E-008  0.3770404E+03  0.7957747E-01  0.3464147E+00
         13   -1    0    0    0    0  0.00000000000E+00  0.00000000000E+00  0.14999999963E+04  0.15000000000E+04  0.10566000000E+00 0. -1.
        994   -1    0    0    0    0 -0.00000000000E+00 -0.00000000000E+00  0.11368683772E-12  0.17120000000E+03  0.17120000000E+03 0.  0.
         13    1    1    2    0    0  0.21122683308E+02  0.12585323117E+02  0.49801194231E+02  0.55540329662E+02  0.10566000000E+00 0. -1.
        994    1    1    2    0    0 -0.22644743600E+02 -0.12606927016E+02  0.79056680569E+01  0.17333106649E+03  0.17120000000E+03 0.  0.
        998    1    1    2    0    0  0.15220602919E+01  0.21603898798E-01  0.14422931340E+04  0.14423286039E+04  0.10000000000E+02 0. -1.
</event>
<event>
 5    1  0.1800099E-008  0.3817685E+03  0.7957747E-01  0.3443494E+00
         13   -1    0    0    0    0  0.00000000000E+00  0.00000000000E+00  0.14999999963E+04  0.15000000000E+04  0.10566000000E+00 0.  1.
        994   -1    0    0    0    0 -0.00000000000E+00 -0.00000000000E+00  0.11368683772E-12  0.17120000000E+03  0.17120000000E+03 0.  0.
         13    1    1    2    0    0  0.14519666710E+02 -0.29097441525E+01  0.32674431427E+02  0.35873624929E+02  0.10566000000E+00 0.  1.
        994    1    1    2    0    0 -0.10040670536E+02 -0.18073670082E+01  0.35890591197E+01  0.17154125739E+03  0.17120000000E+03 0.  0.
        998    1    1    2    0    0 -0.44789961733E+01  0.47171111607E+01  0.14637365057E+04  0.14637851177E+04  0.10000000000E+02 0.  1.
</event>
<event>
 5    1  0.1800099E-008  0.3824948E+03  0.7957747E-01  0.3440367E+00
         13   -1    0    0    0    0  0.00000000000E+00  0.00000000000E+00  0.14999999963E+04  0.15000000000E+04  0.10566000000E+00 0.  1.
        994   -1    0    0    0    0 -0.00000000000E+00 -0.00000000000E+00  0.11368683772E-12  0.17120000000E+03  0.17120000000E+03 0.  0.
         13    1    1    2    0    0  0.23292493675E+02  0.92538252955E+01  0.10300502305E+03  0.10601046874E+03  0.10566000000E+00 0.  1.
        994    1    1    2    0    0 -0.20347552698E+02 -0.12411422850E+02  0.47648217617E+01  0.17291677144E+03  0.17120000000E+03 0.  0.
        998    1    1    2    0    0 -0.29449409772E+01  0.31575975548E+01  0.13922301515E+04  0.13922727598E+04  0.10000000000E+02 0.  1.
</event>
<event>
 5    1  0.1800099E-008  0.3769324E+03  0.7957747E-01  0.3464625E+00
         13   -1    0    0    0    0  0.00000000000E+00  0.00000000000E+00  0.14999999963E+04  0.15000000000E+04  0.10566000000E+00 0.  1.
        994   -1    0    0    0    0 -0.00000000000E+00 -0.00000000000E+00  0.11368683772E-12  0.17120000000E+03  0.17120000000E+03 0.  0.
         13    1    1    2    0    0 -0.34635510572E+02 -0.66422665642E+02  0.42372643206E+03  0.43029721065E+03  0.10566000000E+00 0.  1.
        994    1    1    2    0    0  0.25454981247E+02  0.51847812913E+02  0.17040743372E+02  0.18148272289E+03  0.17120000000E+03 0.  0.
        998    1    1    2    0    0  0.91805293252E+01  0.14574852729E+02  0.10592328208E+04  0.10594200665E+04  0.10000000000E+02 0.  1.
</event>
<event>
 5    1  0.1800099E-008  0.3808166E+03  0.7957747E-01  0.3447611E+00
         13   -1    0    0    0    0  0.00000000000E+00  0.00000000000E+00  0.14999999963E+04  0.15000000000E+04  0.10566000000E+00 0. -1.
        994   -1    0    0    0    0 -0.00000000000E+00 -0.00000000000E+00  0.11368683772E-12  0.17120000000E+03  0.17120000000E+03 0.  0.
         13    1    1    2    0    0 -0.16259956581E+02 -0.45363391834E+01  0.37185054084E+02  0.40837531420E+02  0.10566000000E+00 0. -1.
        994    1    1    2    0    0  0.10123100725E+02 -0.30124339380E+01  0.40935141282E+01  0.17157432437E+03  0.17120000000E+03 0.  0.
        998    1    1    2    0    0  0.61368558567E+01  0.75487731214E+01  0.14587214281E+04  0.14587881442E+04  0.10000000000E+02 0. -1.
</event>
<event>
 5    1  0.1800099E-008  0.3770767E+03  0.7957747E-01  0.3463987E+00
         13   -1    0    0    0    0  0.00000000000E+00  0.00000000000E+00  0.14999999963E+04  0.15000000000E+04  0.10566000000E+00 0.  1.
        994   -1    0    0    0    0 -0.00000000000E+00 -0.00000000000E+00  0.11368683772E-12  0.17120000000E+03  0.17120000000E+03 0.  0.
         13    1    1    2    0    0 -0.11165287700E+02 -0.55548412690E+01  0.11231664058E+02  0.16783365351E+02  0.10566000000E+00 0.  1.
        994    1    1    2    0    0  0.10249366119E+02  0.93268172558E+01  0.62646598128E+01  0.17187415451E+03  0.17120000000E+03 0.  0.
        998    1    1    2    0    0  0.91592158105E+00 -0.37719759868E+01  0.14825036724E+04  0.14825424801E+04  0.10000000000E+02 0.  1.
</event>
<event>
 5    1  0.1800099E-008  0.3817849E+03  0.7957747E-01  0.3443423E+00
         13   -1    0    0    0    0  0.00000000000E+00  0.00000000000E+00  0.14999999963E+04  0.15000000000E+04  0.10566000000E+00 0. -1.
        994   -1    0    0    0    0 -0.00000000000E+00 -0.00000000000E+00  0.11368683772E-12  0.17120000000E+03  0.17120000000E+03 0.  0.
         13    1    1    2    0    0  0.26738942947E+01  0.16045033509E+02  0.39087144518E+02  0.42336849689E+02  0.10566000000E+00 0. -1.
        994    1    1    2    0    0  0.41910247122E+01 -0.16250023149E+02  0.41713266333E+01  0.17207111293E+03  0.17120000000E+03 0.  0.
        998    1    1    2    0    0 -0.68649190069E+01  0.20498964029E+00  0.14567415251E+04  0.14567920374E+04  0.10000000000E+02 0. -1.
</event>
<event>
 5    1  0.1800099E-008  0.3825638E+03  0.7957747E-01  0.3440071E+00
         13   -1    0    0    0    0  0.00000000000E+00  0.00000000000E+00  0.14999999963E+04  0.15000000000E+04  0.10566000000E+00 0. -1.
        994   -1    0    0    0    0 -0.00000000000E+00 -0.00000000000E+00  0.11368683772E-12  0.17120000000E+03  0.17120000000E+03 0.  0.
         13    1    1    2    0    0  0.29640915315E+01  0.16939645089E+02  0.48649528836E+02  0.51599663122E+02  0.10566000000E+00 0. -1.
        994    1    1    2    0    0 -0.79464637273E+01 -0.21583631165E+02  0.46000271937E+01  0.17279930460E+03  0.17120000000E+03 0.  0.
        998    1    1    2    0    0  0.49823721958E+01  0.46439860766E+01  0.14467504402E+04  0.14468010323E+04  0.10000000000E+02 0. -1.
</event>
<event>
 5    1  0.1800099E-008  0.3788737E+03  0.7957747E-01  0.3456077E+00
         13   -1    0    0    0    0  0.00000000000E+00  0.00000000000E+00  0.14999999963E+04  0.15000000000E+04  0.10566000000E+00 0.  1.
        994   -1    0    0    0    0 -0.00000000000E+00 -0.00000000000E+00  0.11368683772E-12  0.17120000000E+03  0.17120000000E+03 0.  0.
         13    1    1    2    0    0  0.36923530721E+01  0.95120079503E+01  0.87696446709E+01  0.13454724009E+02  0.10566000000E+00 0.  1.
        994    1    1    2    0    0  0.12379564732E+01 -0.18149170444E+02  0.58139413891E+01  0.17226191349E+03  0.17120000000E+03 0.  0.
        998    1    1    2    0    0 -0.49303095453E+01  0.86371624932E+01  0.14854164102E+04  0.14854833625E+04  0.10000000000E+02 0.  1.
</event>
<event>
 5    1  0.1800099E-008  0.3817221E+03  0.7957747E-01  0.3443694E+00
         13   -1    0    0    0    0  0.00000000000E+00  0.00000000000E+00  0.14999999963E+04  0.15000000000E+04  0.10566000000E+00 0. -1.
        994   -1    0    0    0    0 -0.00000000000E+00 -0.00000000000E+00  0.11368683772E-12  0.17120000000E+03  0.17120000000E+03 0.  0.
         13    1    1    2    0    0  0.33658587264E+01 -0.14913551125E+02  0.34582070300E+02  0.37811026995E+02  0.10566000000E+00 0. -1.
        994    1    1    2    0    0 -0.85188882258E+01  0.86723236787E+01  0.37577595776E+01  0.17167219172E+03  0.17120000000E+03 0.  0.
        998    1    1    2    0    0  0.51530294994E+01  0.62412274465E+01  0.14616601664E+04  0.14617167813E+04  0.10000000000E+02 0. -1.
</event>
<event>
 5    1  0.1800099E-008  0.3833316E+03  0.7957747E-01  0.3436779E+00
         13   -1    0    0    0    0  0.00000000000E+00  0.00000000000E+00  0.14999999963E+04  0.15000000000E+04  0.10566000000E+00 0.  1.
        994   -1    0    0    0    0 -0.00000000000E+00 -0.00000000000E+00  0.11368683772E-12  0.17120000000E+03  0.17120000000E+03 0.  0.
         13    1    1    2    0    0 -0.10442236665E+02 -0.84108995166E+01  0.36560802603E+02  0.38942097893E+02  0.10566000000E+00 0.  1.
        994    1    1    2    0    0 -0.91413353682E+01  0.17495791626E+02  0.37502619690E+01  0.17237508869E+03  0.17120000000E+03 0.  0.
        998    1    1    2    0    0  0.19583572033E+02 -0.90848921091E+01  0.14596889317E+04  0.14598828134E+04  0.10000000000E+02 0.  1.
</event>
<event>
 5    1  0.1800099E-008  0.3849287E+03  0.7957747E-01  0.3429975E+00
         13   -1    0    0    0    0  0.00000000000E+00  0.00000000000E+00  0.14999999963E+04  0.15000000000E+04  0.10566000000E+00 0.  1.
        994   -1    0    0    0    0 -0.00000000000E+00 -0.00000000000E+00  0.11368683772E-12  0.17120000000E+03  0.17120000000E+03 0.  0.
         13    1    1    2    0    0 -0.88719696107E+01 -0.47743168536E+01  0.30312178111E+02  0.31942843519E+02  0.10566000000E+00 0.  1.
        994    1    1    2    0    0  0.42526279949E+01  0.50185699975E+01  0.18078795634E+01  0.17133586699E+03  0.17120000000E+03 0.  0.
        998    1    1    2    0    0  0.46193416157E+01 -0.24425314389E+00  0.14678799386E+04  0.14679212895E+04  0.10000000000E+02 0.  1.
</event>
<event>
 5    1  0.1800099E-008  0.3856319E+03  0.7957747E-01  0.3426997E+00
         13   -1    0    0    0    0  0.00000000000E+00  0.00000000000E+00  0.14999999963E+04  0.15000000000E+04  0.10566000000E+00 0. -1.
        994   -1    0    0    0    0 -0.00000000000E+00 -0.00000000000E+00  0.11368683772E-12  0.17120000000E+03  0.17120000000E+03 0.  0.
         13    1    1    2    0    0 -0.78075280109E+01 -0.10022005564E+02  0.70498615916E+02  0.71634238317E+02  0.10566000000E+00 0. -1.
        994    1    1    2    0    0 -0.40389436638E+02  0.23913826896E+02  0.85810410506E+01  0.17772521480E+03  0.17120000000E+03 0.  0.
        998    1    1    2    0    0  0.48196964649E+02 -0.13891821332E+02  0.14209203393E+04  0.14218405469E+04  0.10000000000E+02 0. -1.
</event>
<event>
 5    1  0.1800099E-008  0.3847446E+03  0.7957747E-01  0.3430756E+00
         13   -1    0    0    0    0  0.00000000000E+00  0.00000000000E+00  0.14999999963E+04  0.15000000000E+04  0.10566000000E+00 0. -1.
        994   -1    0    0    0    0 -0.00000000000E+00 -0.00000000000E+00  0.11368683772E-12  0.17120000000E+03  0.17120000000E+03 0.  0.
         13    1    1    2    0    0 -0.90893962680E+01  0.84093724147E+01  0.44511196115E+02  0.46201649457E+02  0.10566000000E+00 0. -1.
        994    1    1    2    0    0 -0.37471451488E+00 -0.55578232613E+01  0.18591399359E+01  0.17130068947E+03  0.17120000000E+03 0.  0.
        998    1    1    2    0    0  0.94641107829E+01 -0.28515491534E+01  0.14536296602E+04  0.14536976611E+04  0.10000000000E+02 0. -1.
</event>
<event>
 5    1  0.1800099E-008  0.3691175E+03  0.7957747E-01  0.3499957E+00
         13   -1    0    0    0    0  0.00000000000E+00  0.00000000000E+00  0.14999999963E+04  0.15000000000E+04  0.10566000000E+00 0. -1.
        994   -1    0    0    0    0 -0.00000000000E+00 -0.00000000000E+00  0.11368683772E-12  0.17120000000E+03  0.17120000000E+03 0.  0.
         13    1    1    2    0    0  0.19251572730E+02 -0.30187652142E+02  0.65287716530E+02  0.74460825191E+02  0.10566000000E+00 0. -1.
        994    1    1    2    0    0  0.16689506375E+01  0.10635070894E+02  0.10133123008E+02  0.17183716219E+03  0.17120000000E+03 0.  0.
        998    1    1    2    0    0 -0.20920523368E+02  0.19552581248E+02  0.14245791567E+04  0.14249020126E+04  0.10000000000E+02 0. -1.
</event>
<event>
 5    1  0.1800099E-008  0.3859493E+03  0.7957747E-01  0.3425656E+00
         13   -1    0    0    0    0  0.00000000000E+00  0.00000000000E+00  0.14999999963E+04  0.15000000000E+04  0.10566000000E+00 0.  1.
        994   -1    0    0    0    0 -0.00000000000E+00 -0.00000000000E+00  0.11368683772E-12  0.17120000000E+03  0.17120000000E+03 0.  0.
         13    1    1    2    0    0  0.49749501078E+01  0.95948140169E+01  0.49096601375E+02  0.50272239011E+02  0.10566000000E+00 0.  1.
        994    1    1    2    0    0 -0.19389522677E+02 -0.48088857114E+01  0.24690592391E+01  0.17237927725E+03  0.17120000000E+03 0.  0.
        998    1    1    2    0    0  0.14414572569E+02 -0.47859283055E+01  0.14484343357E+04  0.14485484837E+04  0.10000000000E+02 0.  1.
</event>
<event>
 5    1  0.1800099E-008  0.3719446E+03  0.7957747E-01  0.3487001E+00
         13   -1    0    0    0    0  0.00000000000E+00  0.00000000000E+00  0.14999999963E+04  0.15000000000E+04  0.10566000000E+00 0.  1.
        994   -1    0    0    0    0 -0.00000000000E+00 -0.00000000000E+00  0.11368683772E-12  0.17120000000E+03  0.17120000000E+03 0.  0.
         13    1    1    2    0    0 -0.55797576344E+02  0.14556273721E+02  0.25151337997E+03  0.25803923364E+03  0.10566000000E+00 0.  1.
        994    1    1    2    0    0 -0.25642949085E+01  0.29998351832E+01  0.83096884200E+01  0.17144697589E+03  0.17120000000E+03 0.  0.
        998    1    1    2    0    0  0.58361871253E+02 -0.17556108904E+02  0.12401769279E+04  0.12417137905E+04  0.10000000000E+02 0.  1.
</event>
<event>
 5    1  0.1800099E-008  0.3857910E+03  0.7957747E-01  0.3426325E+00
         13   -1    0    0    0    0  0.00000000000E+00  0.00000000000E+00  0.14999999963E+04  0.15000000000E+04  0.10566000000E+00 0.  1.
        994   -1    0    0    0    0 -0.00000000000E+00 -0.00000000000E+00  0.11368683772E-12  0.17120000000E+03  0.17120000000E+03 0.  0.
         13    1    1    2    0    0 -0.30780930599E+01 -0.10760367327E+02  0.48251095276E+02  0.49532206909E+02  0.10566000000E+00 0.  1.
        994    1    1    2    0    0 -0.15723520867E+02  0.22244922716E+02  0.36758926450E+01  0.17339266963E+03  0.17120000000E+03 0.  0.
        998    1    1    2    0    0  0.18801613927E+02 -0.11484555389E+02  0.14480730084E+04  0.14482751235E+04  0.10000000000E+02 0.  1.
</event>
<event>
 5    1  0.1800099E-008  0.3805846E+03  0.7957747E-01  0.3448617E+00
         13   -1    0    0    0    0  0.00000000000E+00  0.00000000000E+00  0.14999999963E+04  0.15000000000E+04  0.10566000000E+00 0. -1.
        994   -1    0    0    0    0 -0.00000000000E+00 -0.00000000000E+00  0.11368683772E-12  0.17120000000E+03  0.17120000000E+03 0.  0.
         13    1    1    2    0    0 -0.10431726667E+02  0.37266788512E+02  0.23311324347E+03  0.23630368150E+03  0.10566000000E+00 0. -1.
        994    1    1    2    0    0  0.50890464820E+01  0.44554957863E+00  0.39254020451E+01  0.17132117700E+03  0.17120000000E+03 0.  0.
        998    1    1    2    0    0  0.53426801849E+01 -0.37712338091E+02  0.12629613508E+04  0.12635751415E+04  0.10000000000E+02 0. -1.
</event>
<event>
 5    1  0.1800099E-008  0.3756427E+03  0.7957747E-01  0.3470353E+00
         13   -1    0    0    0    0  0.00000000000E+00  0.00000000000E+00  0.14999999963E+04  0.15000000000E+04  0.10566000000E+00 0. -1.
        994   -1    0    0    0    0 -0.00000000000E+00 -0.00000000000E+00  0.11368683772E-12  0.17120000000E+03  0.17120000000E+03 0.  0.
         13    1    1    2    0    0  0.15932292317E+01  0.16409014079E+02  0.18887503060E+02  0.25070761024E+02  0.10566000000E+00 0. -1.
        994    1    1    2    0    0 -0.39145347293E+01 -0.65783157518E+01  0.65478578327E+01  0.17149609985E+03  0.17120000000E+03 0.  0.
        998    1    1    2    0    0  0.23213054975E+01 -0.98306983275E+01  0.14745646354E+04  0.14746331391E+04  0.10000000000E+02 0. -1.
</event>
<event>
 5    1  0.1800099E-008  0.3846333E+03  0.7957747E-01  0.3431229E+00
         13   -1    0    0    0    0  0.00000000000E+00  0.00000000000E+00  0.14999999963E+04  0.15000000000E+04  0.10566000000E+00 0. -1.
        994   -1    0    0    0    0 -0.00000000000E+00 -0.00000000000E+00  0.11368683772E-12  0.17120000000E+03  0.17120000000E+03 0.  0.
         13    1    1    2    0    0  0.73120256375E+01 -0.10040899787E+02  0.42267055013E+02  0.44054517260E+02  0.10566000000E+00 0. -1.
        994    1    1    2    0    0 -0.47808683706E+01  0.70307854810E+01  0.20503749086E+01  0.17142325596E+03  0.17120000000E+03 0.  0.
        998    1    1    2    0    0 -0.25311572669E+01  0.30101143064E+01  0.14556825664E+04  0.14557222268E+04  0.10000000000E+02 0. -1.
</event>
<event>
 5    1  0.1800099E-008  0.3954098E+03  0.7957747E-01  0.3386688E+00
         13   -1    0    0    0    0  0.00000000000E+00  0.00000000000E+00  0.14999999963E+04  0.15000000000E+04  0.10566000000E+00 0.  1.
        994   -1    0    0    0    0 -0.00000000000E+00 -0.00000000000E+00  0.11368683772E-12  0.17120000000E+03  0.17120000000E+03 0.  0.
         13    1    1    2    0    0  0.47477010662E+02 -0.98674007074E+02  0.18934262920E+03  0.21872646984E+03  0.10566000000E+00 0.  1.
        994    1    1    2    0    0 -0.45252703093E+02  0.11500281475E+03  0.86521708356E+02  0.22818610947E+03  0.17120000000E+03 0.  0.
        998    1    1    2    0    0 -0.22243075688E+01 -0.16328807671E+02  0.12241356587E+04  0.12242874207E+04  0.10000000000E+02 0.  1.
</event>
<event>
 5    1  0.1800099E-008  0.3850058E+03  0.7957747E-01  0.3429648E+00
         13   -1    0    0    0    0  0.00000000000E+00  0.00000000000E+00  0.14999999963E+04  0.15000000000E+04  0.10566000000E+00 0.  1.
        994   -1    0    0    0    0 -0.00000000000E+00 -0.00000000000E+00  0.11368683772E-12  0.17120000000E+03  0.17120000000E+03 0.  0.
         13    1    1    2    0    0 -0.12733583052E+02 -0.36764889378E+01  0.55192102816E+02  0.56761255144E+02  0.10566000000E+00 0.  1.
        994    1    1    2    0    0  0.40577361546E+01  0.37809552423E+01  0.17284144842E+01  0.17129853549E+03  0.17120000000E+03 0.  0.
        998    1    1    2    0    0  0.86758468975E+01 -0.10446630450E+00  0.14430794790E+04  0.14431402094E+04  0.10000000000E+02 0.  1.
</event>
<event>
 5    1  0.1800099E-008  0.3782026E+03  0.7957747E-01  0.3459022E+00
         13   -1    0    0    0    0  0.00000000000E+00  0.00000000000E+00  0.14999999963E+04  0.15000000000E+04  0.10566000000E+00 0. -1.
        994   -1    0    0    0    0 -0.00000000000E+00 -0.00000000000E+00  0.11368683772E-12  0.17120000000E+03  0.17120000000E+03 0.  0.
         13    1    1    2    0    0  0.63552389747E+01 -0.34549532278E+02  0.11460160752E+03  0.11986491919E+03  0.10566000000E+00 0. -1.
        994    1    1    2    0    0 -0.34485458268E+01  0.31101935052E+02  0.83432556051E+01  0.17423625555E+03  0.17120000000E+03 0.  0.
        998    1    1    2    0    0 -0.29066931479E+01  0.34475972254E+01  0.13770551332E+04  0.13770988253E+04  0.10000000000E+02 0. -1.
</event>
<event>
 5    1  0.1800099E-008  0.3784252E+03  0.7957747E-01  0.3458044E+00
         13   -1    0    0    0    0  0.00000000000E+00  0.00000000000E+00  0.14999999963E+04  0.15000000000E+04  0.10566000000E+00 0.  1.
        994   -1    0    0    0    0 -0.00000000000E+00 -0.00000000000E+00  0.11368683772E-12  0.17120000000E+03  0.17120000000E+03 0.  0.
         13    1    1    2    0    0 -0.37847431239E+01 -0.15887589520E+02  0.25473470476E+02  0.30259686770E+02  0.10566000000E+00 0.  1.
        994    1    1    2    0    0 -0.46175243959E+01  0.58674971164E+01  0.51175631103E+01  0.17143913936E+03  0.17120000000E+03 0.  0.
        998    1    1    2    0    0  0.84022675198E+01  0.10020092404E+02  0.14694089627E+04  0.14695011739E+04  0.10000000000E+02 0.  1.
</event>
<event>
 5    1  0.1800099E-008  0.3249307E+03  0.7957747E-01  0.3732685E+00
         13   -1    0    0    0    0  0.00000000000E+00  0.00000000000E+00  0.14999999963E+04  0.15000000000E+04  0.10566000000E+00 0. -1.
        994   -1    0    0    0    0 -0.00000000000E+00 -0.00000000000E+00  0.11368683772E-12  0.17120000000E+03  0.17120000000E+03 0.  0.
         13    1    1    2    0    0  0.28227596058E+03 -0.22567443913E+02  0.69792754679E+03  0.75318781136E+03  0.10566000000E+00 0. -1.
        994    1    1    2    0    0 -0.22663442921E+03  0.17558373450E+02  0.30283758432E+03  0.41556167227E+03  0.17120000000E+03 0.  0.
        998    1    1    2    0    0 -0.55641531372E+02  0.50090704630E+01  0.49923486517E+03  0.50245051637E+03  0.10000000000E+02 0. -1.
</event>
<event>
 5    1  0.1800099E-008  0.3818209E+03  0.7957747E-01  0.3443268E+00
         13   -1    0    0    0    0  0.00000000000E+00  0.00000000000E+00  0.14999999963E+04  0.15000000000E+04  0.10566000000E+00 0. -1.
        994   -1    0    0    0    0 -0.00000000000E+00 -0.00000000000E+00  0.11368683772E-12  0.17120000000E+03  0.17120000000E+03 0.  0.
         13    1    1    2    0    0  0.16972478998E+02 -0.21469705198E+01  0.57774213254E+00  0.17117811652E+02  0.10566000000E+00 0. -1.
        994    1    1    2    0    0 -0.17752381181E+02  0.94814452724E+00  0.18484813727E+02  0.17311029534E+03  0.17120000000E+03 0.  0.
        998    1    1    2    0    0  0.77990218271E+00  0.11988259926E+01  0.14809374404E+04  0.14809718930E+04  0.10000000000E+02 0. -1.
</event>
<event>
 5    1  0.1800099E-008  0.3819204E+03  0.7957747E-01  0.3442839E+00
         13   -1    0    0    0    0  0.00000000000E+00  0.00000000000E+00  0.14999999963E+04  0.15000000000E+04  0.10566000000E+00 0. -1.
        994   -1    0    0    0    0 -0.00000000000E+00 -0.00000000000E+00  0.11368683772E-12  0.17120000000E+03  0.17120000000E+03 0.  0.
         13    1    1    2    0    0 -0.14202788899E+02 -0.21371244561E+01  0.30334841676E+02  0.33563377318E+02  0.10566000000E+00 0. -1.
        994    1    1    2    0    0  0.21440538320E+02 -0.82389006282E+01  0.49213364597E+01  0.17280403849E+03  0.17120000000E+03 0.  0.
        998    1    1    2    0    0 -0.72377494217E+01  0.10376025084E+02  0.14647438181E+04  0.14648325842E+04  0.10000000000E+02 0. -1.
</event>
<event>
 5    1  0.1800099E-008  0.3851869E+03  0.7957747E-01  0.3428880E+00
         13   -1    0    0    0    0  0.00000000000E+00  0.00000000000E+00  0.14999999963E+04  0.15000000000E+04  0.10566000000E+00 0. -1.
        994   -1    0    0    0    0 -0.00000000000E+00 -0.00000000000E+00  0.11368683772E-12  0.17120000000E+03  0.17120000000E+03 0.  0.
         13    1    1    2    0    0 -0.94285217440E+01 -0.13125456322E+02  0.95535562714E+02  0.96892876586E+02  0.10566000000E+00 0. -1.
        994    1    1    2    0    0  0.11435391118E+02 -0.12354749361E+02  0.24693675645E+01  0.17204344154E+03  0.17120000000E+03 0.  0.
        998    1    1    2    0    0 -0.20068693743E+01  0.25480205683E+02  0.14019950660E+04  0.14022636819E+04  0.10000000000E+02 0. -1.
</event>
<event>
 5    1  0.1800099E-008  0.3817395E+03  0.7957747E-01  0.3443619E+00
         13   -1    0    0    0    0  0.00000000000E+00  0.00000000000E+00  0.14999999963E+04  0.15000000000E+04  0.10566000000E+00 0. -1.
        994   -1    0    0    0    0 -0.00000000000E+00 -0.00000000000E+00  0.11368683772E-12  0.17120000000E+03  0.17120000000E+03 0.  0.
         13    1    1    2    0    0 -0.19699763557E+02  0.17791910282E+02  0.11962040609E+03  0.12253034511E+03  0.10566000000E+00 0. -1.
        994    1    1    2    0    0  0.54847294284E+01  0.78140185932E+01  0.35606395513E+01  0.17150294253E+03  0.17120000000E+03 0.  0.
        998    1    1    2    0    0  0.14215034129E+02 -0.25605928875E+02  0.13768189506E+04  0.13771667124E+04  0.10000000000E+02 0. -1.
</event>
<event>
 5    1  0.1800099E-008  0.3703995E+03  0.7957747E-01  0.3494057E+00
         13   -1    0    0    0    0  0.00000000000E+00  0.00000000000E+00  0.14999999963E+04  0.15000000000E+04  0.10566000000E+00 0. -1.
        994   -1    0    0    0    0 -0.00000000000E+00 -0.00000000000E+00  0.11368683772E-12  0.17120000000E+03  0.17120000000E+03 0.  0.
         13    1    1    2    0    0 -0.21078463257E+02 -0.46775677161E+01  0.22113457115E+02  0.30906268015E+02  0.10566000000E+00 0. -1.
        994    1    1    2    0    0  0.11466694121E+02 -0.49686044677E+00  0.95153717754E+01  0.17184793931E+03  0.17120000000E+03 0.  0.
        998    1    1    2    0    0  0.96117691365E+01  0.51744281629E+01  0.14683711674E+04  0.14684457927E+04  0.10000000000E+02 0. -1.
</event>
<event>
 5    1  0.1800099E-008  0.4439066E+03  0.7957747E-01  0.3212760E+00
         13   -1    0    0    0    0  0.00000000000E+00  0.00000000000E+00  0.14999999963E+04  0.15000000000E+04  0.10566000000E+00 0. -1.
        994   -1    0    0    0    0 -0.00000000000E+00 -0.00000000000E+00  0.11368683772E-12  0.17120000000E+03  0.17120000000E+03 0.  0.
         13    1    1    2    0    0  0.27804569369E+02 -0.97546685828E+01 -0.15186034318E+02  0.33149275095E+02  0.10566000000E+00 0. -1.
        994    1    1    2    0    0 -0.28898488913E+02  0.94118351708E+01  0.61654294874E+02  0.18448413856E+03  0.17120000000E+03 0.  0.
        998    1    1    2    0    0  0.10939195437E+01  0.34283341199E+00  0.14535317357E+04  0.14535665863E+04  0.10000000000E+02 0. -1.
</event>
<event>
 5    1  0.1800099E-008  0.3835864E+03  0.7957747E-01  0.3435690E+00
         13   -1    0    0    0    0  0.00000000000E+00  0.00000000000E+00  0.14999999963E+04  0.15000000000E+04  0.10566000000E+00 0.  1.
        994   -1    0    0    0    0 -0.00000000000E+00 -0.00000000000E+00  0.11368683772E-12  0.17120000000E+03  0.17120000000E+03 0.  0.
         13    1    1    2    0    0 -0.81048525047E+01  0.10406301593E+02  0.36029410200E+02  0.38368076709E+02  0.10566000000E+00 0.  1.
        994    1    1    2    0    0  0.48062753122E+01 -0.12454221913E+02  0.29225901974E+01  0.17174454710E+03  0.17120000000E+03 0.  0.
        998    1    1    2    0    0  0.32985771926E+01  0.20479203194E+01  0.14610479959E+04  0.14610873762E+04  0.10000000000E+02 0.  1.
</event>
<event>
 5    1  0.1800099E-008  0.3819209E+03  0.7957747E-01  0.3442837E+00
         13   -1    0    0    0    0  0.00000000000E+00  0.00000000000E+00  0.14999999963E+04  0.15000000000E+04  0.10566000000E+00 0.  1.
        994   -1    0    0    0    0 -0.00000000000E+00 -0.00000000000E+00  0.11368683772E-12  0.17120000000E+03  0.17120000000E+03 0.  0.
         13    1    1    2    0    0 -0.18064552181E+02  0.24146665204E+02  0.15245278316E+03  0.15540673005E+03  0.10566000000E+00 0.  1.
        994    1    1    2    0    0  0.51099273491E+01 -0.70017073379E+01  0.34162335841E+01  0.17145333451E+03  0.17120000000E+03 0.  0.
        998    1    1    2    0    0  0.12954624832E+02 -0.17144957866E+02  0.13441309795E+04  0.13443399354E+04  0.10000000000E+02 0.  1.
</event>
<event>
 5    1  0.1800099E-008  0.3685149E+03  0.7957747E-01  0.3502744E+00
         13   -1    0    0    0    0  0.00000000000E+00  0.00000000000E+00  0.14999999963E+04  0.15000000000E+04  0.10566000000E+00 0. -1.
        994   -1    0    0    0    0 -0.00000000000E+00 -0.00000000000E+00  0.11368683772E-12  0.17120000000E+03  0.17120000000E+03 0.  0.
         13    1    1    2    0    0  0.16911739746E+02  0.74857098355E+01  0.12361003988E+02  0.22245187718E+02  0.10566000000E+00 0. -1.
        994    1    1    2    0    0 -0.21084028100E+02 -0.61130074777E+01  0.11724007026E+02  0.17299941457E+03  0.17120000000E+03 0.  0.
        998    1    1    2    0    0  0.41722883532E+01 -0.13727023578E+01  0.14759149853E+04  0.14759553977E+04  0.10000000000E+02 0. -1.
</event>
<event>
 5    1  0.1800099E-008  0.3737390E+03  0.7957747E-01  0.3478882E+00
         13   -1    0    0    0    0  0.00000000000E+00  0.00000000000E+00  0.14999999963E+04  0.15000000000E+04  0.10566000000E+00 0.  1.
        994   -1    0    0    0    0 -0.00000000000E+00 -0.00000000000E+00  0.11368683772E-12  0.17120000000E+03  0.17120000000E+03 0.  0.
         13    1    1    2    0    0 -0.24510995978E+02  0.63906924923E+02  0.24783818412E+03  0.25711604510E+03  0.10566000000E+00 0.  1.
        994    1    1    2    0    0  0.14757140448E+02 -0.78713880376E+02  0.29548677550E+02  0.19130136566E+03  0.17120000000E+03 0.  0.
        998    1    1    2    0    0  0.97538555302E+01  0.14806955452E+02  0.12226131346E+04  0.12227825892E+04  0.10000000000E+02 0.  1.
</event>
<event>
 5    1  0.1800099E-008  0.3834178E+03  0.7957747E-01  0.3436410E+00
         13   -1    0    0    0    0  0.00000000000E+00  0.00000000000E+00  0.14999999963E+04  0.15000000000E+04  0.10566000000E+00 0.  1.
        994   -1    0    0    0    0 -0.00000000000E+00 -0.00000000000E+00  0.11368683772E-12  0.17120000000E+03  0.17120000000E+03 0.  0.
         13    1    1    2    0    0 -0.26490613363E+01  0.17095614537E+02  0.58691709150E+02  0.61188278693E+02  0.10566000000E+00 0.  1.
        994    1    1    2    0    0 -0.23743746472E+01 -0.20427976318E+02  0.38170279128E+01  0.17247304014E+03  0.17120000000E+03 0.  0.
        998    1    1    2    0    0  0.50234359835E+01  0.33323617810E+01  0.14374912592E+04  0.14375386812E+04  0.10000000000E+02 0.  1.
</event>
<event>
 5    1  0.1800099E-008  0.3837231E+03  0.7957747E-01  0.3435106E+00
         13   -1    0    0    0    0  0.00000000000E+00  0.00000000000E+00  0.14999999963E+04  0.15000000000E+04  0.10566000000E+00 0. -1.
        994   -1    0    0    0    0 -0.00000000000E+00 -0.00000000000E+00  0.11368683772E-12  0.17120000000E+03  0.17120000000E+03 0.  0.
         13    1    1    2    0    0  0.30370312047E+02  0.17938941699E+02  0.21209195635E+03  0.21500504784E+03  0.10566000000E+00 0. -1.
        994    1    1    2    0    0 -0.58737321528E+02  0.22498888826E+01  0.13760077173E+02  0.18153213122E+03  0.17120000000E+03 0.  0.
        998    1    1    2    0    0  0.28367009481E+02 -0.20188830581E+02  0.12741479628E+04  0.12746628209E+04  0.10000000000E+02 0. -1.
</event>
<event>
 5    1  0.1800099E-008  0.3838917E+03  0.7957747E-01  0.3434386E+00
         13   -1    0    0    0    0  0.00000000000E+00  0.00000000000E+00  0.14999999963E+04  0.15000000000E+04  0.10566000000E+00 0. -1.
        994   -1    0    0    0    0 -0.00000000000E+00 -0.00000000000E+00  0.11368683772E-12  0.17120000000E+03  0.17120000000E+03 0.  0.
         13    1    1    2    0    0  0.29097042082E+02  0.53333552583E+01  0.14666454119E+03  0.14961811836E+03  0.10566000000E+00 0. -1.
        994    1    1    2    0    0 -0.53381969316E+02 -0.26784986407E+02  0.14044750142E+02  0.18186193981E+03  0.17120000000E+03 0.  0.
        998    1    1    2    0    0  0.24284927234E+02  0.21451631149E+02  0.13392907049E+04  0.13397199418E+04  0.10000000000E+02 0. -1.
</event>
<event>
 5    1  0.1800099E-008  0.3849294E+03  0.7957747E-01  0.3429972E+00
         13   -1    0    0    0    0  0.00000000000E+00  0.00000000000E+00  0.14999999963E+04  0.15000000000E+04  0.10566000000E+00 0.  1.
        994   -1    0    0    0    0 -0.00000000000E+00 -0.00000000000E+00  0.11368683772E-12  0.17120000000E+03  0.17120000000E+03 0.  0.
         13    1    1    2    0    0  0.20211153449E+02  0.20481116038E+01  0.11392581003E+03  0.11572288815E+03  0.10566000000E+00 0.  1.
        994    1    1    2    0    0 -0.23140845559E+02 -0.80652769290E-01  0.34286568241E+01  0.17279091679E+03  0.17120000000E+03 0.  0.
        998    1    1    2    0    0  0.29296921100E+01 -0.19674588345E+01  0.13826455294E+04  0.13826861951E+04  0.10000000000E+02 0.  1.
</event>
<event>
 5    1  0.1800099E-008  0.3860739E+03  0.7957747E-01  0.3425131E+00
         13   -1    0    0    0    0  0.00000000000E+00  0.00000000000E+00  0.14999999963E+04  0.15000000000E+04  0.10566000000E+00 0.  1.
        994   -1    0    0    0    0 -0.00000000000E+00 -0.00000000000E+00  0.11368683772E-12  0.17120000000E+03  0.17120000000E+03 0.  0.
         13    1    1    2    0    0  0.92427028276E+01 -0.67394096942E+01  0.48653089255E+02  0.49979810491E+02  0.10566000000E+00 0.  1.
        994    1    1    2    0    0 -0.46396950857E+02  0.75796507123E+01  0.83747825750E+01  0.17773492942E+03  0.17120000000E+03 0.  0.
        998    1    1    2    0    0  0.37154248029E+02 -0.84024101813E+00  0.14429721244E+04  0.14434852601E+04  0.10000000000E+02 0.  1.
</event>
<event>
 5    1  0.1800099E-008  0.3730307E+03  0.7957747E-01  0.3482077E+00
         13   -1    0    0    0    0  0.00000000000E+00  0.00000000000E+00  0.14999999963E+04  0.15000000000E+04  0.10566000000E+00 0. -1.
        994   -1    0    0    0    0 -0.00000000000E+00 -0.00000000000E+00  0.11368683772E-12  0.17120000000E+03  0.17120000000E+03 0.  0.
         13    1    1    2    0    0 -0.64622090967E+00  0.50492433386E+02  0.92944605850E+02  0.10577624663E+03  0.10566000000E+00 0. -1.
        994    1    1    2    0    0  0.60897208212E+01 -0.46305011653E+02  0.20297923278E+02  0.17861322598E+03  0.17120000000E+03 0.  0.
        998    1    1    2    0    0 -0.54434999115E+01 -0.41874217329E+01  0.13867574672E+04  0.13868105274E+04  0.10000000000E+02 0. -1.
</event>
<event>
 5    1  0.1800099E-008  0.3819240E+03  0.7957747E-01  0.3442824E+00
         13   -1    0    0    0    0  0.00000000000E+00  0.00000000000E+00  0.14999999963E+04  0.15000000000E+04  0.10566000000E+00 0.  1.
        994   -1    0    0    0    0 -0.00000000000E+00 -0.00000000000E+00  0.11368683772E-12  0.17120000000E+03  0.17120000000E+03 0.  0.
         13    1    1    2    0    0  0.31606068145E+02 -0.75051410640E+01  0.15857457605E+03  0.16186777944E+03  0.10566000000E+00 0.  1.
        994    1    1    2    0    0 -0.28786599037E+02 -0.10649311191E+02  0.63007623916E+01  0.17404371784E+03  0.17120000000E+03 0.  0.
        998    1    1    2    0    0 -0.28194691081E+01  0.18154452255E+02  0.13351246578E+04  0.13352885027E+04  0.10000000000E+02 0.  1.
</event>
<event>
 5    1  0.1800099E-008  0.3697294E+03  0.7957747E-01  0.3497136E+00
         13   -1    0    0    0    0  0.00000000000E+00  0.00000000000E+00  0.14999999963E+04  0.15000000000E+04  0.10566000000E+00 0.  1.
        994   -1    0    0    0    0 -0.00000000000E+00 -0.00000000000E+00  0.11368683772E-12  0.17120000000E+03  0.17120000000E+03 0.  0.
         13    1    1    2    0    0  0.41641686714E+02 -0.16492429327E+02  0.98266869267E+02  0.10799268057E+03  0.10566000000E+00 0.  1.
        994    1    1    2    0    0 -0.38068926033E+02  0.16632160814E+02  0.15407370354E+02  0.17684088601E+03  0.17120000000E+03 0.  0.
        998    1    1    2    0    0 -0.35727606810E+01 -0.13973148749E+00  0.13863257567E+04  0.13863664334E+04  0.10000000000E+02 0.  1.
</event>
<event>
 5    1  0.1800099E-008  0.3841691E+03  0.7957747E-01  0.3433204E+00
         13   -1    0    0    0    0  0.00000000000E+00  0.00000000000E+00  0.14999999963E+04  0.15000000000E+04  0.10566000000E+00 0. -1.
        994   -1    0    0    0    0 -0.00000000000E+00 -0.00000000000E+00  0.11368683772E-12  0.17120000000E+03  0.17120000000E+03 0.  0.
         13    1    1    2    0    0 -0.16079817965E+02  0.16861865827E+02  0.14093112430E+03  0.14284423694E+03  0.10566000000E+00 0. -1.
        994    1    1    2    0    0  0.95948455216E+01 -0.65145702582E+00  0.23482714681E+01  0.17148597562E+03  0.17120000000E+03 0.  0.
        998    1    1    2    0    0  0.64849724437E+01 -0.16210408802E+02  0.13567206005E+04  0.13568697874E+04  0.10000000000E+02 0. -1.
</event>
<event>
 5    1  0.1800099E-008  0.3855609E+03  0.7957747E-01  0.3427297E+00
         13   -1    0    0    0    0  0.00000000000E+00  0.00000000000E+00  0.14999999963E+04  0.15000000000E+04  0.10566000000E+00 0. -1.
        994   -1    0    0    0    0 -0.00000000000E+00 -0.00000000000E+00  0.11368683772E-12  0.17120000000E+03  0.17120000000E+03 0.  0.
         13    1    1    2    0    0 -0.58990182296E+01  0.83200847172E+01  0.38312544477E+02  0.39646998047E+02  0.10566000000E+00 0. -1.
        994    1    1    2    0    0  0.39451056265E-01 -0.10219297013E+02  0.16948026108E+01  0.17151311304E+03  0.17120000000E+03 0.  0.
        998    1    1    2    0    0  0.58595671733E+01  0.18992122960E+01  0.14599926492E+04  0.14600398889E+04  0.10000000000E+02 0. -1.
</event>
<event>
 5    1  0.1800099E-008  0.3809169E+03  0.7957747E-01  0.3447176E+00
         13   -1    0    0    0    0  0.00000000000E+00  0.00000000000E+00  0.14999999963E+04  0.15000000000E+04  0.10566000000E+00 0.  1.
        994   -1    0    0    0    0 -0.00000000000E+00 -0.00000000000E+00  0.11368683772E-12  0.17120000000E+03  0.17120000000E+03 0.  0.
         13    1    1    2    0    0  0.77814633266E+01 -0.34728541543E+02  0.16363405876E+03  0.16745966416E+03  0.10566000000E+00 0.  1.
        994    1    1    2    0    0 -0.60838459467E+01  0.26715564947E+02  0.61771135702E+01  0.17348870662E+03  0.17120000000E+03 0.  0.
        998    1    1    2    0    0 -0.16976173798E+01  0.80129765962E+01  0.13301888239E+04  0.13302516292E+04  0.10000000000E+02 0.  1.
</event>
<event>
 5    1  0.1800099E-008  0.3860690E+03  0.7957747E-01  0.3425151E+00
         13   -1    0    0    0    0  0.00000000000E+00  0.00000000000E+00  0.14999999963E+04  0.15000000000E+04  0.10566000000E+00 0.  1.
        994   -1    0    0    0    0 -0.00000000000E+00 -0.00000000000E+00  0.11368683772E-12  0.17120000000E+03  0.17120000000E+03 0.  0.
         13    1    1    2    0    0 -0.88705484166E+01  0.65575071994E+01  0.56671486821E+02  0.57735224192E+02  0.10566000000E+00 0.  1.
        994    1    1    2    0    0  0.11003742826E+02  0.49023628031E+01  0.15760662182E+01  0.17163053196E+03  0.17120000000E+03 0.  0.
        998    1    1    2    0    0 -0.21331944092E+01 -0.11459870002E+02  0.14417524432E+04  0.14418342438E+04  0.10000000000E+02 0.  1.
</event>
<event>
 5    1  0.1800099E-008  0.3700747E+03  0.7957747E-01  0.3495547E+00
         13   -1    0    0    0    0  0.00000000000E+00  0.00000000000E+00  0.14999999963E+04  0.15000000000E+04  0.10566000000E+00 0.  1.
        994   -1    0    0    0    0 -0.00000000000E+00 -0.00000000000E+00  0.11368683772E-12  0.17120000000E+03  0.17120000000E+03 0.  0.
         13    1    1    2    0    0 -0.10741202336E+02  0.22844806387E+02  0.25591156143E+02  0.35946864165E+02  0.10566000000E+00 0.  1.
        994    1    1    2    0    0  0.10985576733E+02  0.65597563786E+01  0.11551019478E+02  0.17206562513E+03  0.17120000000E+03 0.  0.
        998    1    1    2    0    0 -0.24437439688E+00 -0.29404562765E+02  0.14628578207E+04  0.14631875107E+04  0.10000000000E+02 0.  1.
</event>
<event>
 5    1  0.1800099E-008  0.3758381E+03  0.7957747E-01  0.3469483E+00
         13   -1    0    0    0    0  0.00000000000E+00  0.00000000000E+00  0.14999999963E+04  0.15000000000E+04  0.10566000000E+00 0. -1.
        994   -1    0    0    0    0 -0.00000000000E+00 -0.00000000000E+00  0.11368683772E-12  0.17120000000E+03  0.17120000000E+03 0.  0.
         13    1    1    2    0    0 -0.44659181445E+02  0.12659364199E+02  0.15348541715E+03  0.16035113480E+03  0.10566000000E+00 0. -1.
        994    1    1    2    0    0  0.44482190563E+02 -0.15156476668E+02  0.13771520660E+02  0.17806593959E+03  0.17120000000E+03 0.  0.
        998    1    1    2    0    0  0.17699088150E+00  0.24971124697E+01  0.13327430585E+04  0.13327829256E+04  0.10000000000E+02 0. -1.
</event>
<event>
 5    1  0.2192630E-008  0.3862857E+03  0.7957747E-01  0.3424238E+00
         13   -1    0    0    0    0  0.00000000000E+00  0.00000000000E+00  0.14999999963E+04  0.15000000000E+04  0.10566000000E+00 0.  1.
        994   -1    0    0    0    0 -0.00000000000E+00 -0.00000000000E+00  0.11368683772E-12  0.17120000000E+03  0.17120000000E+03 0.  0.
         13    1    1    2    0    0  0.11580510536E+02  0.10917205767E+01  0.66610715564E+02  0.67618774539E+02  0.10566000000E+00 0.  1.
        994    1    1    2    0    0 -0.12702081871E+02  0.76452009768E+00  0.15236453457E+01  0.17167902863E+03  0.17120000000E+03 0.  0.
        998    1    1    2    0    0  0.11215713351E+01 -0.18562406744E+01  0.14318656354E+04  0.14319021968E+04  0.10000000000E+02 0.  1.
</event>
<event>
 5    1  0.1800099E-008  0.3819567E+03  0.7957747E-01  0.3442682E+00
         13   -1    0    0    0    0  0.00000000000E+00  0.00000000000E+00  0.14999999963E+04  0.15000000000E+04  0.10566000000E+00 0.  1.
        994   -1    0    0    0    0 -0.00000000000E+00 -0.00000000000E+00  0.11368683772E-12  0.17120000000E+03  0.17120000000E+03 0.  0.
         13    1    1    2    0    0 -0.23871816306E+02 -0.20758443614E+02  0.13715500143E+03  0.14075610884E+03  0.10566000000E+00 0.  1.
        994    1    1    2    0    0  0.25166815170E+02  0.31975800814E+02  0.86679443254E+01  0.17618284162E+03  0.17120000000E+03 0.  0.
        998    1    1    2    0    0 -0.12949988647E+01 -0.11217357200E+02  0.13541770505E+04  0.13542610495E+04  0.10000000000E+02 0.  1.
</event>
<event>
 5    1  0.1800099E-008  0.3825180E+03  0.7957747E-01  0.3440267E+00
         13   -1    0    0    0    0  0.00000000000E+00  0.00000000000E+00  0.14999999963E+04  0.15000000000E+04  0.10566000000E+00 0.  1.
        994   -1    0    0    0    0 -0.00000000000E+00 -0.00000000000E+00  0.11368683772E-12  0.17120000000E+03  0.17120000000E+03 0.  0.
         13    1    1    2    0    0  0.29986939513E+02 -0.54782736569E+00  0.13790987081E+03  0.14113348393E+03  0.10566000000E+00 0.  1.
        994    1    1    2    0    0 -0.35436355920E+02  0.14753022556E+01  0.70490408514E+01  0.17497725799E+03  0.17120000000E+03 0.  0.
        998    1    1    2    0    0  0.54494164070E+01 -0.92747488986E+00  0.13550410846E+04  0.13550892581E+04  0.10000000000E+02 0.  1.
</event>
<event>
 5    1  0.1800099E-008  0.3737211E+03  0.7957747E-01  0.3478962E+00
         13   -1    0    0    0    0  0.00000000000E+00  0.00000000000E+00  0.14999999963E+04  0.15000000000E+04  0.10566000000E+00 0.  1.
        994   -1    0    0    0    0 -0.00000000000E+00 -0.00000000000E+00  0.11368683772E-12  0.17120000000E+03  0.17120000000E+03 0.  0.
         13    1    1    2    0    0  0.40448272777E+01  0.20216587864E+02  0.10729623374E+02  0.23242354320E+02  0.10566000000E+00 0.  1.
        994    1    1    2    0    0  0.72139360007E+01 -0.19463370910E+02  0.14447703346E+02  0.17305790884E+03  0.17120000000E+03 0.  0.
        998    1    1    2    0    0 -0.11258763278E+02 -0.75321695429E+00  0.14748226696E+04  0.14748997368E+04  0.10000000000E+02 0.  1.
</event>
<event>
 5    1  0.1800099E-008  0.3822735E+03  0.7957747E-01  0.3441318E+00
         13   -1    0    0    0    0  0.00000000000E+00  0.00000000000E+00  0.14999999963E+04  0.15000000000E+04  0.10566000000E+00 0.  1.
        994   -1    0    0    0    0 -0.00000000000E+00 -0.00000000000E+00  0.11368683772E-12  0.17120000000E+03  0.17120000000E+03 0.  0.
         13    1    1    2    0    0 -0.15775511852E+02  0.19646193393E+02  0.12043837176E+03  0.12304573233E+03  0.10566000000E+00 0.  1.
        994    1    1    2    0    0  0.14940187806E+01  0.73782732765E+01  0.31779258860E+01  0.17139489555E+03  0.17120000000E+03 0.  0.
        998    1    1    2    0    0  0.14281493072E+02 -0.27024466670E+02  0.13763836986E+04  0.13767593721E+04  0.10000000000E+02 0.  1.
</event>
<event>
 5    1  0.1800099E-008  0.3812182E+03  0.7957747E-01  0.3445871E+00
         13   -1    0    0    0    0  0.00000000000E+00  0.00000000000E+00  0.14999999963E+04  0.15000000000E+04  0.10566000000E+00 0. -1.
        994   -1    0    0    0    0 -0.00000000000E+00 -0.00000000000E+00  0.11368683772E-12  0.17120000000E+03  0.17120000000E+03 0.  0.
         13    1    1    2    0    0 -0.13781299097E+02  0.97837804228E+01  0.40128227690E+02  0.43542305700E+02  0.10566000000E+00 0. -1.
        994    1    1    2    0    0  0.13420514893E+01 -0.75373941632E+01  0.37146252398E+01  0.17141135276E+03  0.17120000000E+03 0.  0.
        998    1    1    2    0    0  0.12439247607E+02 -0.22463862596E+01  0.14561571433E+04  0.14562463415E+04  0.10000000000E+02 0. -1.
</event>
<event>
 5    1  0.1800099E-008  0.3712490E+03  0.7957747E-01  0.3490170E+00
         13   -1    0    0    0    0  0.00000000000E+00  0.00000000000E+00  0.14999999963E+04  0.15000000000E+04  0.10566000000E+00 0. -1.
        994   -1    0    0    0    0 -0.00000000000E+00 -0.00000000000E+00  0.11368683772E-12  0.17120000000E+03  0.17120000000E+03 0.  0.
         13    1    1    2    0    0 -0.89589196311E+01  0.58237371166E+02  0.13102911307E+03  0.14366799671E+03  0.10566000000E+00 0. -1.
        994    1    1    2    0    0  0.16892087631E+02 -0.61916156052E+02  0.26207691932E+02  0.18470310263E+03  0.17120000000E+03 0.  0.
        998    1    1    2    0    0 -0.79331680002E+01  0.36787848857E+01  0.13427631913E+04  0.13428289007E+04  0.10000000000E+02 0. -1.
</event>
<event>
 5    1  0.1800099E-008  0.3860674E+03  0.7957747E-01  0.3425158E+00
         13   -1    0    0    0    0  0.00000000000E+00  0.00000000000E+00  0.14999999963E+04  0.15000000000E+04  0.10566000000E+00 0.  1.
        994   -1    0    0    0    0 -0.00000000000E+00 -0.00000000000E+00  0.11368683772E-12  0.17120000000E+03  0.17120000000E+03 0.  0.
         13    1    1    2    0    0  0.59106552896E+01 -0.96753529402E+01  0.58266453513E+02  0.59359405906E+02  0.10566000000E+00 0.  1.
        994    1    1    2    0    0 -0.20389755780E+02 -0.63100794622E+00  0.24661286394E+01  0.17242871600E+03  0.17120000000E+03 0.  0.
        998    1    1    2    0    0  0.14479100491E+02  0.10306360886E+02  0.14392674141E+04  0.14394118781E+04  0.10000000000E+02 0.  1.
</event>
<event>
 5    1  0.1800099E-008  0.3853456E+03  0.7957747E-01  0.3428208E+00
         13   -1    0    0    0    0  0.00000000000E+00  0.00000000000E+00  0.14999999963E+04  0.15000000000E+04  0.10566000000E+00 0.  1.
        994   -1    0    0    0    0 -0.00000000000E+00 -0.00000000000E+00  0.11368683772E-12  0.17120000000E+03  0.17120000000E+03 0.  0.
         13    1    1    2    0    0 -0.24726925520E+01  0.13371862164E+02  0.65591433700E+02  0.66986328792E+02  0.10566000000E+00 0.  1.
        994    1    1    2    0    0 -0.88294075883E+00 -0.46818147711E+01  0.15332091078E+01  0.17127314356E+03  0.17120000000E+03 0.  0.
        998    1    1    2    0    0  0.33556333108E+01 -0.86900473928E+01  0.14328753535E+04  0.14329405277E+04  0.10000000000E+02 0.  1.
</event>
<event>
 5    1  0.1800099E-008  0.3749186E+03  0.7957747E-01  0.3473587E+00
         13   -1    0    0    0    0  0.00000000000E+00  0.00000000000E+00  0.14999999963E+04  0.15000000000E+04  0.10566000000E+00 0.  1.
        994   -1    0    0    0    0 -0.00000000000E+00 -0.00000000000E+00  0.11368683772E-12  0.17120000000E+03  0.17120000000E+03 0.  0.
         13    1    1    2    0    0  0.35315551705E+02  0.42275941314E+02  0.21668642491E+03  0.22357875863E+03  0.10566000000E+00 0.  1.
        994    1    1    2    0    0 -0.22159163051E+02 -0.29484859843E+02  0.11360071829E+02  0.17549608742E+03  0.17120000000E+03 0.  0.
        998    1    1    2    0    0 -0.13156388654E+02 -0.12791081471E+02  0.12719534995E+04  0.12721251540E+04  0.10000000000E+02 0.  1.
</event>
<event>
 5    1  0.1800099E-008  0.3859391E+03  0.7957747E-01  0.3425699E+00
         13   -1    0    0    0    0  0.00000000000E+00  0.00000000000E+00  0.14999999963E+04  0.15000000000E+04  0.10566000000E+00 0.  1.
        994   -1    0    0    0    0 -0.00000000000E+00 -0.00000000000E+00  0.11368683772E-12  0.17120000000E+03  0.17120000000E+03 0.  0.
         13    1    1    2    0    0 -0.99797810995E+01  0.88810908845E+00  0.42884807776E+02  0.44039785088E+02  0.10566000000E+00 0.  1.
        994    1    1    2    0    0  0.98160344355E+01  0.52540128766E+01  0.15711350492E+01  0.17156884230E+03  0.17120000000E+03 0.  0.
        998    1    1    2    0    0  0.16374666398E+00 -0.61421219651E+01  0.14555440535E+04  0.14555913726E+04  0.10000000000E+02 0.  1.
</event>
<event>
 5    1  0.1800099E-008  0.3779984E+03  0.7957747E-01  0.3459921E+00
         13   -1    0    0    0    0  0.00000000000E+00  0.00000000000E+00  0.14999999963E+04  0.15000000000E+04  0.10566000000E+00 0. -1.
        994   -1    0    0    0    0 -0.00000000000E+00 -0.00000000000E+00  0.11368683772E-12  0.17120000000E+03  0.17120000000E+03 0.  0.
         13    1    1    2    0    0  0.11924727502E+02  0.27546784423E+02  0.23520855009E+02  0.38134842892E+02  0.10566000000E+00 0. -1.
        994    1    1    2    0    0  0.37478992337E+02 -0.33878442226E+02  0.24470922346E+02  0.18016850378E+03  0.17120000000E+03 0.  0.
        998    1    1    2    0    0 -0.49403719838E+02  0.63316578028E+01  0.14520082189E+04  0.14528966533E+04  0.10000000000E+02 0. -1.
</event>
<event>
 5    1  0.1800099E-008  0.3835501E+03  0.7957747E-01  0.3435845E+00
         13   -1    0    0    0    0  0.00000000000E+00  0.00000000000E+00  0.14999999963E+04  0.15000000000E+04  0.10566000000E+00 0. -1.
        994   -1    0    0    0    0 -0.00000000000E+00 -0.00000000000E+00  0.11368683772E-12  0.17120000000E+03  0.17120000000E+03 0.  0.
         13    1    1    2    0    0 -0.11074663763E+01 -0.19033163312E+02  0.62037101571E+02  0.64900700480E+02  0.10566000000E+00 0. -1.
        994    1    1    2    0    0  0.69315652948E+01  0.53520680582E+02  0.12035284993E+02  0.17990774839E+03  0.17120000000E+03 0.  0.
        998    1    1    2    0    0 -0.58240989185E+01 -0.34487517271E+02  0.14259276097E+04  0.14263915511E+04  0.10000000000E+02 0. -1.
</event>
<event>
 5    1  0.1800099E-008  0.3823364E+03  0.7957747E-01  0.3441048E+00
         13   -1    0    0    0    0  0.00000000000E+00  0.00000000000E+00  0.14999999963E+04  0.15000000000E+04  0.10566000000E+00 0.  1.
        994   -1    0    0    0    0 -0.00000000000E+00 -0.00000000000E+00  0.11368683772E-12  0.17120000000E+03  0.17120000000E+03 0.  0.
         13    1    1    2    0    0 -0.94052625684E+01  0.30834553031E+02  0.15674916188E+03  0.16002980828E+03  0.10566000000E+00 0.  1.
        994    1    1    2    0    0  0.79298235377E+01 -0.32781242307E+02  0.67409373188E+01  0.17462065223E+03  0.17120000000E+03 0.  0.
        998    1    1    2    0    0  0.14754390307E+01  0.19466892763E+01  0.13365098971E+04  0.13365495395E+04  0.10000000000E+02 0.  1.
</event>
<event>
 5    1  0.1800099E-008  0.3796328E+03  0.7957747E-01  0.3452759E+00
         13   -1    0    0    0    0  0.00000000000E+00  0.00000000000E+00  0.14999999963E+04  0.15000000000E+04  0.10566000000E+00 0.  1.
        994   -1    0    0    0    0 -0.00000000000E+00 -0.00000000000E+00  0.11368683772E-12  0.17120000000E+03  0.17120000000E+03 0.  0.
         13    1    1    2    0    0  0.91909911565E+01 -0.37967142729E+02  0.22495003168E+03  0.22831667955E+03  0.10566000000E+00 0.  1.
        994    1    1    2    0    0  0.89467389495E+01 -0.62602268290E+01  0.47177817213E+01  0.17161273858E+03  0.17120000000E+03 0.  0.
        998    1    1    2    0    0 -0.18137730106E+02  0.44227369558E+02  0.12703321829E+04  0.12712705819E+04  0.10000000000E+02 0.  1.
</event>
<event>
 5    1  0.1800099E-008  0.3757428E+03  0.7957747E-01  0.3469907E+00
         13   -1    0    0    0    0  0.00000000000E+00  0.00000000000E+00  0.14999999963E+04  0.15000000000E+04  0.10566000000E+00 0.  1.
        994   -1    0    0    0    0 -0.00000000000E+00 -0.00000000000E+00  0.11368683772E-12  0.17120000000E+03  0.17120000000E+03 0.  0.
         13    1    1    2    0    0  0.27031310169E+01 -0.24116269991E+02  0.47419596737E+02  0.53268477680E+02  0.10566000000E+00 0.  1.
        994    1    1    2    0    0  0.11685473571E+02 -0.43956373666E+01  0.68264687325E+01  0.17179031578E+03  0.17120000000E+03 0.  0.
        998    1    1    2    0    0 -0.14388604588E+02  0.28511907358E+02  0.14457539308E+04  0.14461412065E+04  0.10000000000E+02 0.  1.
</event>
<event>
 5    1  0.1800099E-008  0.3858824E+03  0.7957747E-01  0.3425938E+00
         13   -1    0    0    0    0  0.00000000000E+00  0.00000000000E+00  0.14999999963E+04  0.15000000000E+04  0.10566000000E+00 0.  1.
        994   -1    0    0    0    0 -0.00000000000E+00 -0.00000000000E+00  0.11368683772E-12  0.17120000000E+03  0.17120000000E+03 0.  0.
         13    1    1    2    0    0  0.98097660625E+01  0.74106482893E+01  0.63562359131E+02  0.64740511896E+02  0.10566000000E+00 0.  1.
        994    1    1    2    0    0 -0.10210674226E+02 -0.16815704895E+01  0.15439006991E+01  0.17151941341E+03  0.17120000000E+03 0.  0.
        998    1    1    2    0    0  0.40090816330E+00 -0.57290777999E+01  0.14348937364E+04  0.14349400747E+04  0.10000000000E+02 0.  1.
</event>
<event>
 5    1  0.1800099E-008  0.3788898E+03  0.7957747E-01  0.3456007E+00
         13   -1    0    0    0    0  0.00000000000E+00  0.00000000000E+00  0.14999999963E+04  0.15000000000E+04  0.10566000000E+00 0. -1.
        994   -1    0    0    0    0 -0.00000000000E+00 -0.00000000000E+00  0.11368683772E-12  0.17120000000E+03  0.17120000000E+03 0.  0.
         13    1    1    2    0    0 -0.72244131090E-02 -0.21299612832E+02  0.45750779025E+02  0.50466013359E+02  0.10566000000E+00 0. -1.
        994    1    1    2    0    0  0.60248042718E+01  0.18805896774E+02  0.60041004535E+01  0.17243969741E+03  0.17120000000E+03 0.  0.
        998    1    1    2    0    0 -0.60175798587E+01  0.24937160578E+01  0.14482451168E+04  0.14482942892E+04  0.10000000000E+02 0. -1.
</event>
<event>
 5    1  0.1800099E-008  0.3772164E+03  0.7957747E-01  0.3463369E+00
         13   -1    0    0    0    0  0.00000000000E+00  0.00000000000E+00  0.14999999963E+04  0.15000000000E+04  0.10566000000E+00 0. -1.
        994   -1    0    0    0    0 -0.00000000000E+00 -0.00000000000E+00  0.11368683772E-12  0.17120000000E+03  0.17120000000E+03 0.  0.
         13    1    1    2    0    0  0.39332228686E+02  0.18029682418E+02  0.15162822009E+03  0.15768075962E+03  0.10566000000E+00 0. -1.
        994    1    1    2    0    0 -0.37928546575E+02 -0.19912298262E+02  0.11761588745E+02  0.17686958257E+03  0.17120000000E+03 0.  0.
        998    1    1    2    0    0 -0.14036821106E+01  0.18826158446E+01  0.13366101874E+04  0.13366496578E+04  0.10000000000E+02 0.  0.
</event>
<event>
 5    1  0.1800099E-008  0.3776545E+03  0.7957747E-01  0.3461436E+00
         13   -1    0    0    0    0  0.00000000000E+00  0.00000000000E+00  0.14999999963E+04  0.15000000000E+04  0.10566000000E+00 0.  1.
        994   -1    0    0    0    0 -0.00000000000E+00 -0.00000000000E+00  0.11368683772E-12  0.17120000000E+03  0.17120000000E+03 0.  0.
         13    1    1    2    0    0 -0.14763694861E+02  0.42637945054E+02  0.17205625687E+03  0.17787447185E+03  0.10566000000E+00 0.  1.
        994    1    1    2    0    0  0.10614597762E+02 -0.41103057989E+02  0.11417490851E+02  0.17675386887E+03  0.17120000000E+03 0.  0.
        998    1    1    2    0    0  0.41490970989E+01 -0.15348870651E+01  0.13165262486E+04  0.13165716593E+04  0.10000000000E+02 0.  1.
</event>
<event>
 5    1  0.1800099E-008  0.2658025E+03  0.7957747E-01  0.4175111E+00
         13   -1    0    0    0    0  0.00000000000E+00  0.00000000000E+00  0.14999999963E+04  0.15000000000E+04  0.10566000000E+00 0.  1.
        994   -1    0    0    0    0 -0.00000000000E+00 -0.00000000000E+00  0.11368683772E-12  0.17120000000E+03  0.17120000000E+03 0.  0.
         13    1    1    2    0    0 -0.18090083789E+03 -0.84795186800E+02  0.19569108092E+03  0.27966112917E+03  0.10566000000E+00 0.  1.
        994    1    1    2    0    0  0.18244315778E+03  0.89889562332E+02  0.36184333275E+03  0.44900520787E+03  0.17120000000E+03 0.  0.
        998    1    1    2    0    0 -0.15423198935E+01 -0.50943755328E+01  0.94246558261E+03  0.94253366296E+03  0.10000000000E+02 0. -1.
</event>
<event>
 5    1  0.1800099E-008  0.3856187E+03  0.7957747E-01  0.3427052E+00
         13   -1    0    0    0    0  0.00000000000E+00  0.00000000000E+00  0.14999999963E+04  0.15000000000E+04  0.10566000000E+00 0. -1.
        994   -1    0    0    0    0 -0.00000000000E+00 -0.00000000000E+00  0.11368683772E-12  0.17120000000E+03  0.17120000000E+03 0.  0.
         13    1    1    2    0    0 -0.45622405729E+01 -0.15000589148E+02  0.92584421941E+02  0.93902705308E+02  0.10566000000E+00 0. -1.
        994    1    1    2    0    0  0.10024448192E+02  0.88131405809E+01  0.19082300166E+01  0.17173014398E+03  0.17120000000E+03 0.  0.
        998    1    1    2    0    0 -0.54622076194E+01  0.61874485669E+01  0.14055073443E+04  0.14055671507E+04  0.10000000000E+02 0. -1.
</event>
<event>
 5    1  0.1800099E-008  0.3818436E+03  0.7957747E-01  0.3443170E+00
         13   -1    0    0    0    0  0.00000000000E+00  0.00000000000E+00  0.14999999963E+04  0.15000000000E+04  0.10566000000E+00 0.  1.
        994   -1    0    0    0    0 -0.00000000000E+00 -0.00000000000E+00  0.11368683772E-12  0.17120000000E+03  0.17120000000E+03 0.  0.
         13    1    1    2    0    0  0.20906345494E+02 -0.17424558674E+02  0.12844877037E+03  0.13130037434E+03  0.10566000000E+00 0.  1.
        994    1    1    2    0    0  0.27686373138E+01  0.20399245108E+01  0.32446840638E+01  0.17126527558E+03  0.17120000000E+03 0.  0.
        998    1    1    2    0    0 -0.23674982808E+02  0.15384634163E+02  0.13683065418E+04  0.13686343501E+04  0.10000000000E+02 0.  1.
</event>
<event>
 5    1  0.2365060E-008  0.3861543E+03  0.7957747E-01  0.3424792E+00
         13   -1    0    0    0    0  0.00000000000E+00  0.00000000000E+00  0.14999999963E+04  0.15000000000E+04  0.10566000000E+00 0.  1.
        994   -1    0    0    0    0 -0.00000000000E+00 -0.00000000000E+00  0.11368683772E-12  0.17120000000E+03  0.17120000000E+03 0.  0.
         13    1    1    2    0    0  0.11676019333E+02  0.53658119179E+01  0.76277811240E+02  0.77352679441E+02  0.10566000000E+00 0.  1.
        994    1    1    2    0    0 -0.12571942313E+02 -0.33576145943E+01  0.16131193953E+01  0.17170139622E+03  0.17120000000E+03 0.  0.
        998    1    1    2    0    0  0.89592297956E+00 -0.20081973236E+01  0.14221090656E+04  0.14221459243E+04  0.10000000000E+02 0.  1.
</event>
<event>
 5    1  0.1800099E-008  0.3744402E+03  0.7957747E-01  0.3475730E+00
         13   -1    0    0    0    0  0.00000000000E+00  0.00000000000E+00  0.14999999963E+04  0.15000000000E+04  0.10566000000E+00 0.  1.
        994   -1    0    0    0    0 -0.00000000000E+00 -0.00000000000E+00  0.11368683772E-12  0.17120000000E+03  0.17120000000E+03 0.  0.
         13    1    1    2    0    0  0.74583064332E+01 -0.48050090562E+02  0.17402423264E+03  0.18069001701E+03  0.10566000000E+00 0.  1.
        994    1    1    2    0    0 -0.23061984717E+02  0.18431712050E+02  0.99405124401E+01  0.17401102533E+03  0.17120000000E+03 0.  0.
        998    1    1    2    0    0  0.15603678284E+02  0.29618378512E+02  0.13160352512E+04  0.13164989577E+04  0.10000000000E+02 0.  1.
</event>
<event>
 5    1  0.1800099E-008  0.3751157E+03  0.7957747E-01  0.3472705E+00
         13   -1    0    0    0    0  0.00000000000E+00  0.00000000000E+00  0.14999999963E+04  0.15000000000E+04  0.10566000000E+00 0.  1.
        994   -1    0    0    0    0 -0.00000000000E+00 -0.00000000000E+00  0.11368683772E-12  0.17120000000E+03  0.17120000000E+03 0.  0.
         13    1    1    2    0    0 -0.19542381705E+02  0.25321685281E+02  0.81291995150E+02  0.87358411545E+02  0.10566000000E+00 0.  1.
        994    1    1    2    0    0 -0.20411937327E+00  0.13684522549E+01  0.66258186023E+01  0.17133375557E+03  0.17120000000E+03 0.  0.
        998    1    1    2    0    0  0.19746501078E+02 -0.26690137536E+02  0.14120821825E+04  0.14125078329E+04  0.10000000000E+02 0.  1.
</event>
<event>
 5    1  0.1800099E-008  0.3797527E+03  0.7957747E-01  0.3452236E+00
         13   -1    0    0    0    0  0.00000000000E+00  0.00000000000E+00  0.14999999963E+04  0.15000000000E+04  0.10566000000E+00 0.  1.
        994   -1    0    0    0    0 -0.00000000000E+00 -0.00000000000E+00  0.11368683772E-12  0.17120000000E+03  0.17120000000E+03 0.  0.
         13    1    1    2    0    0 -0.19754115129E+02  0.11479567898E+02  0.59323383190E+02  0.63571066538E+02  0.10566000000E+00 0.  1.
        994    1    1    2    0    0  0.18164259544E+02 -0.13824808609E+01  0.53690721596E+01  0.17225016259E+03  0.17120000000E+03 0.  0.
        998    1    1    2    0    0  0.15898555851E+01 -0.10097087037E+02  0.14353075409E+04  0.14353787709E+04  0.10000000000E+02 0.  1.
</event>
<event>
 5    1  0.1800099E-008  0.3839038E+03  0.7957747E-01  0.3434335E+00
         13   -1    0    0    0    0  0.00000000000E+00  0.00000000000E+00  0.14999999963E+04  0.15000000000E+04  0.10566000000E+00 0. -1.
        994   -1    0    0    0    0 -0.00000000000E+00 -0.00000000000E+00  0.11368683772E-12  0.17120000000E+03  0.17120000000E+03 0.  0.
         13    1    1    2    0    0  0.14873347799E+02  0.15711792300E+02  0.12259513508E+03  0.12448957869E+03  0.10566000000E+00 0. -1.
        994    1    1    2    0    0  0.21745530816E+01  0.32116873185E+01  0.22250272282E+01  0.17125838480E+03  0.17120000000E+03 0.  0.
        998    1    1    2    0    0 -0.17047900881E+02 -0.18923479618E+02  0.13751798340E+04  0.13754520365E+04  0.10000000000E+02 0. -1.
</event>
<event>
 5    1  0.1800099E-008  0.3845199E+03  0.7957747E-01  0.3431711E+00
         13   -1    0    0    0    0  0.00000000000E+00  0.00000000000E+00  0.14999999963E+04  0.15000000000E+04  0.10566000000E+00 0. -1.
        994   -1    0    0    0    0 -0.00000000000E+00 -0.00000000000E+00  0.11368683772E-12  0.17120000000E+03  0.17120000000E+03 0.  0.
         13    1    1    2    0    0 -0.19951362596E+01 -0.15475799564E+02  0.65229300112E+02  0.67069767392E+02  0.10566000000E+00 0. -1.
        994    1    1    2    0    0  0.60601153786E+02  0.56145854418E+01  0.14165622325E+02  0.18224743692E+03  0.17120000000E+03 0.  0.
        998    1    1    2    0    0 -0.58606017526E+02  0.98612141224E+01  0.14206050738E+04  0.14218827957E+04  0.10000000000E+02 0. -1.
</event>
<event>
 5    1  0.1800099E-008  0.3714080E+03  0.7957747E-01  0.3489445E+00
         13   -1    0    0    0    0  0.00000000000E+00  0.00000000000E+00  0.14999999963E+04  0.15000000000E+04  0.10566000000E+00 0. -1.
        994   -1    0    0    0    0 -0.00000000000E+00 -0.00000000000E+00  0.11368683772E-12  0.17120000000E+03  0.17120000000E+03 0.  0.
         13    1    1    2    0    0  0.28529756198E+02 -0.21553876777E+02  0.71515340621E+02  0.79956061065E+02  0.10566000000E+00 0. -1.
        994    1    1    2    0    0 -0.14287037343E+02  0.20839445687E+02  0.10734774725E+02  0.17338707368E+03  0.17120000000E+03 0.  0.
        998    1    1    2    0    0 -0.14242718856E+02  0.71443109034E+00  0.14177498809E+04  0.14178568653E+04  0.10000000000E+02 0. -1.
</event>
<event>
 5    1  0.1800099E-008  0.3842062E+03  0.7957747E-01  0.3433046E+00
         13   -1    0    0    0    0  0.00000000000E+00  0.00000000000E+00  0.14999999963E+04  0.15000000000E+04  0.10566000000E+00 0.  1.
        994   -1    0    0    0    0 -0.00000000000E+00 -0.00000000000E+00  0.11368683772E-12  0.17120000000E+03  0.17120000000E+03 0.  0.
         13    1    1    2    0    0  0.54349964971E+01  0.12092811851E+02  0.41822759621E+02  0.43874020465E+02  0.10566000000E+00 0.  1.
        994    1    1    2    0    0 -0.62056173896E+01 -0.13392550415E+02  0.27434183225E+01  0.17185702324E+03  0.17120000000E+03 0.  0.
        998    1    1    2    0    0  0.77062089245E+00  0.12997385640E+01  0.14554338183E+04  0.14554689563E+04  0.10000000000E+02 0.  1.
</event>
<event>
 5    1  0.1800099E-008  0.3684416E+03  0.7957747E-01  0.3503084E+00
         13   -1    0    0    0    0  0.00000000000E+00  0.00000000000E+00  0.14999999963E+04  0.15000000000E+04  0.10566000000E+00 0. -1.
        994   -1    0    0    0    0 -0.00000000000E+00 -0.00000000000E+00  0.11368683772E-12  0.17120000000E+03  0.17120000000E+03 0.  0.
         13    1    1    2    0    0 -0.19522439096E+02  0.12840659578E+02  0.23449113084E+02  0.33104081849E+02  0.10566000000E+00 0. -1.
        994    1    1    2    0    0  0.14971239283E+02  0.17162629527E+02  0.11922726194E+02  0.17311928043E+03  0.17120000000E+03 0.  0.
        998    1    1    2    0    0  0.45511998130E+01 -0.30003289105E+02  0.14646281570E+04  0.14649766377E+04  0.10000000000E+02 0. -1.
</event>
<event>
 5    1  0.1800099E-008  0.3864974E+03  0.7957747E-01  0.3423346E+00
         13   -1    0    0    0    0  0.00000000000E+00  0.00000000000E+00  0.14999999963E+04  0.15000000000E+04  0.10566000000E+00 0. -1.
        994   -1    0    0    0    0 -0.00000000000E+00 -0.00000000000E+00  0.11368683772E-12  0.17120000000E+03  0.17120000000E+03 0.  0.
         13    1    1    2    0    0 -0.11064141873E+02 -0.12390163115E+01  0.65066656538E+02  0.66012357584E+02  0.10566000000E+00 0. -1.
        994    1    1    2    0    0  0.18240001989E+02  0.14801732862E+01  0.19853073603E+01  0.17218673012E+03  0.17120000000E+03 0.  0.
        998    1    1    2    0    0 -0.71758601158E+01 -0.24115697470E+00  0.14329480324E+04  0.14330009123E+04  0.10000000000E+02 0. -1.
</event>
<event>
 5    1  0.1800099E-008  0.3856443E+03  0.7957747E-01  0.3426944E+00
         13   -1    0    0    0    0  0.00000000000E+00  0.00000000000E+00  0.14999999963E+04  0.15000000000E+04  0.10566000000E+00 0. -1.
        994   -1    0    0    0    0 -0.00000000000E+00 -0.00000000000E+00  0.11368683772E-12  0.17120000000E+03  0.17120000000E+03 0.  0.
         13    1    1    2    0    0 -0.52524959545E+01 -0.88518046178E+01  0.40706463353E+02  0.41987742038E+02  0.10566000000E+00 0. -1.
        994    1    1    2    0    0  0.22885454328E+01  0.63196778871E+01  0.14588827611E+01  0.17133809882E+03  0.17120000000E+03 0.  0.
        998    1    1    2    0    0  0.29639505216E+01  0.25321267307E+01  0.14578346502E+04  0.14578741591E+04  0.10000000000E+02 0. -1.
</event>
<event>
 5    1  0.1800099E-008  0.3684960E+03  0.7957747E-01  0.3502832E+00
         13   -1    0    0    0    0  0.00000000000E+00  0.00000000000E+00  0.14999999963E+04  0.15000000000E+04  0.10566000000E+00 0.  1.
        994   -1    0    0    0    0 -0.00000000000E+00 -0.00000000000E+00  0.11368683772E-12  0.17120000000E+03  0.17120000000E+03 0.  0.
         13    1    1    2    0    0  0.95613905580E+02 -0.11694128363E+03  0.77598831574E+03  0.79055370474E+03  0.10566000000E+00 0.  1.
        994    1    1    2    0    0 -0.70443398026E+02  0.99615928161E+02  0.63859108703E+02  0.21971124512E+03  0.17120000000E+03 0.  0.
        998    1    1    2    0    0 -0.25170507554E+02  0.17325355471E+02  0.66015257184E+03  0.66093505014E+03  0.10000000000E+02 0.  1.
</event>
<event>
 5    1  0.1800099E-008  0.3791110E+03  0.7957747E-01  0.3455039E+00
         13   -1    0    0    0    0  0.00000000000E+00  0.00000000000E+00  0.14999999963E+04  0.15000000000E+04  0.10566000000E+00 0. -1.
        994   -1    0    0    0    0 -0.00000000000E+00 -0.00000000000E+00  0.11368683772E-12  0.17120000000E+03  0.17120000000E+03 0.  0.
         13    1    1    2    0    0  0.38023515770E+02 -0.17026465242E+02  0.21444594958E+03  0.21845540672E+03  0.10566000000E+00 0. -1.
        994    1    1    2    0    0 -0.88077684867E+01 -0.39406144069E+01  0.48948213900E+01  0.17154155329E+03  0.17120000000E+03 0.  0.
        998    1    1    2    0    0 -0.29215747283E+02  0.20967079649E+02  0.12806592253E+04  0.12812030400E+04  0.10000000000E+02 0. -1.
</event>
<event>
 5    1  0.1800099E-008  0.3803687E+03  0.7957747E-01  0.3449555E+00
         13   -1    0    0    0    0  0.00000000000E+00  0.00000000000E+00  0.14999999963E+04  0.15000000000E+04  0.10566000000E+00 0. -1.
        994   -1    0    0    0    0 -0.00000000000E+00 -0.00000000000E+00  0.11368683772E-12  0.17120000000E+03  0.17120000000E+03 0.  0.
         13    1    1    2    0    0 -0.59848936435E+01 -0.18760260547E+02  0.47403231734E+02  0.51330730275E+02  0.10566000000E+00 0. -1.
        994    1    1    2    0    0  0.48216842042E+00  0.14894129861E+02  0.46889407571E+01  0.17191129619E+03  0.17120000000E+03 0.  0.
        998    1    1    2    0    0  0.55027252231E+01  0.38661306866E+01  0.14479078238E+04  0.14479579735E+04  0.10000000000E+02 0. -1.
</event>
<event>
 5    1  0.1800099E-008  0.3857552E+03  0.7957747E-01  0.3426476E+00
         13   -1    0    0    0    0  0.00000000000E+00  0.00000000000E+00  0.14999999963E+04  0.15000000000E+04  0.10566000000E+00 0. -1.
        994   -1    0    0    0    0 -0.00000000000E+00 -0.00000000000E+00  0.11368683772E-12  0.17120000000E+03  0.17120000000E+03 0.  0.
         13    1    1    2    0    0 -0.82737833917E+01  0.66343800560E+01  0.46238716029E+02  0.47439440494E+02  0.10566000000E+00 0. -1.
        994    1    1    2    0    0 -0.65449563395E+01 -0.13567461391E+02  0.20004173217E+01  0.17187307564E+03  0.17120000000E+03 0.  0.
        998    1    1    2    0    0  0.14818739731E+02  0.69330813352E+01  0.14517608629E+04  0.14518874839E+04  0.10000000000E+02 0. -1.
</event>
<event>
 5    1  0.1800099E-008  0.3856927E+03  0.7957747E-01  0.3426740E+00
         13   -1    0    0    0    0  0.00000000000E+00  0.00000000000E+00  0.14999999963E+04  0.15000000000E+04  0.10566000000E+00 0. -1.
        994   -1    0    0    0    0 -0.00000000000E+00 -0.00000000000E+00  0.11368683772E-12  0.17120000000E+03  0.17120000000E+03 0.  0.
         13    1    1    2    0    0 -0.11157174134E+02 -0.62782122661E+01  0.64049613536E+02  0.65316633732E+02  0.10566000000E+00 0. -1.
        994    1    1    2    0    0  0.10491934497E+02 -0.68436275465E+00  0.16494211674E+01  0.17153049184E+03  0.17120000000E+03 0.  0.
        998    1    1    2    0    0  0.66523963729E+00  0.69625750208E+01  0.14343009616E+04  0.14343528744E+04  0.10000000000E+02 0. -1.
</event>
<event>
 5    1  0.1800099E-008  0.3803904E+03  0.7957747E-01  0.3449460E+00
         13   -1    0    0    0    0  0.00000000000E+00  0.00000000000E+00  0.14999999963E+04  0.15000000000E+04  0.10566000000E+00 0.  1.
        994   -1    0    0    0    0 -0.00000000000E+00 -0.00000000000E+00  0.11368683772E-12  0.17120000000E+03  0.17120000000E+03 0.  0.
         13    1    1    2    0    0 -0.11466539633E+02 -0.17417103531E+01  0.15687258354E+02  0.19509390682E+02  0.10566000000E+00 0.  1.
        994    1    1    2    0    0  0.24878764115E+01 -0.78060405934E+01  0.41603447352E+01  0.17144641223E+03  0.17120000000E+03 0.  0.
        998    1    1    2    0    0  0.89786632213E+01  0.95477509465E+01  0.14801523932E+04  0.14802441971E+04  0.10000000000E+02 0.  1.
</event>
<event>
 5    1  0.1800099E-008  0.3893556E+03  0.7957747E-01  0.3411407E+00
         13   -1    0    0    0    0  0.00000000000E+00  0.00000000000E+00  0.14999999963E+04  0.15000000000E+04  0.10566000000E+00 0. -1.
        994   -1    0    0    0    0 -0.00000000000E+00 -0.00000000000E+00  0.11368683772E-12  0.17120000000E+03  0.17120000000E+03 0.  0.
         13    1    1    2    0    0  0.57722711700E+02 -0.36305075003E+02  0.87352228004E+02  0.11081693381E+03  0.10566000000E+00 0. -1.
        994    1    1    2    0    0 -0.95164531643E+02  0.26070668933E+02  0.59108434802E+02  0.20625036952E+03  0.17120000000E+03 0.  0.
        998    1    1    2    0    0  0.37441819942E+02  0.10234406070E+02  0.13535393335E+04  0.13541326967E+04  0.10000000000E+02 0. -1.
</event>
<event>
 5    1  0.1800099E-008  0.3791456E+03  0.7957747E-01  0.3454887E+00
         13   -1    0    0    0    0  0.00000000000E+00  0.00000000000E+00  0.14999999963E+04  0.15000000000E+04  0.10566000000E+00 0. -1.
        994   -1    0    0    0    0 -0.00000000000E+00 -0.00000000000E+00  0.11368683772E-12  0.17120000000E+03  0.17120000000E+03 0.  0.
         13    1    1    2    0    0 -0.30250534337E+02 -0.48063812251E+02  0.11633576322E+03  0.12945750594E+03  0.10566000000E+00 0. -1.
        994    1    1    2    0    0 -0.33994328732E+02 -0.10807378884E+01  0.20048616787E+02  0.17569339605E+03  0.17120000000E+03 0.  0.
        998    1    1    2    0    0  0.64244863069E+02  0.49144550139E+02  0.13636156163E+04  0.13660490980E+04  0.10000000000E+02 0. -1.
</event>
<event>
 5    1  0.1800099E-008  0.3796563E+03  0.7957747E-01  0.3452656E+00
         13   -1    0    0    0    0  0.00000000000E+00  0.00000000000E+00  0.14999999963E+04  0.15000000000E+04  0.10566000000E+00 0. -1.
        994   -1    0    0    0    0 -0.00000000000E+00 -0.00000000000E+00  0.11368683772E-12  0.17120000000E+03  0.17120000000E+03 0.  0.
         13    1    1    2    0    0  0.44235659345E+02  0.26865750684E+02  0.23117930224E+03  0.23690175826E+03  0.10566000000E+00 0. -1.
        994    1    1    2    0    0 -0.58636679220E+02 -0.35229981135E+02  0.20129910927E+02  0.18545636963E+03  0.17120000000E+03 0.  0.
        998    1    1    2    0    0  0.14401019875E+02  0.83642304508E+01  0.12486907831E+04  0.12488418721E+04  0.10000000000E+02 0. -1.
</event>
<event>
 5    1  0.1800099E-008  0.3850455E+03  0.7957747E-01  0.3429479E+00
         13   -1    0    0    0    0  0.00000000000E+00  0.00000000000E+00  0.14999999963E+04  0.15000000000E+04  0.10566000000E+00 0.  1.
        994   -1    0    0    0    0 -0.00000000000E+00 -0.00000000000E+00  0.11368683772E-12  0.17120000000E+03  0.17120000000E+03 0.  0.
         13    1    1    2    0    0  0.41917282816E+01  0.17108778182E+02  0.98998288418E+02  0.10055323541E+03  0.10566000000E+00 0.  1.
        994    1    1    2    0    0  0.17898608603E+02 -0.13536866345E+02  0.32652467394E+01  0.17269542199E+03  0.17120000000E+03 0.  0.
        998    1    1    2    0    0 -0.22090336885E+02 -0.35719118371E+01  0.13977364611E+04  0.13979513426E+04  0.10000000000E+02 0.  1.
</event>
<event>
 5    1  0.1800099E-008  0.3842820E+03  0.7957747E-01  0.3432723E+00
         13   -1    0    0    0    0  0.00000000000E+00  0.00000000000E+00  0.14999999963E+04  0.15000000000E+04  0.10566000000E+00 0.  1.
        994   -1    0    0    0    0 -0.00000000000E+00 -0.00000000000E+00  0.11368683772E-12  0.17120000000E+03  0.17120000000E+03 0.  0.
         13    1    1    2    0    0 -0.20812501860E+02  0.11991347748E+02  0.14314529701E+03  0.14514661510E+03  0.10566000000E+00 0.  1.
        994    1    1    2    0    0  0.12134887486E+02 -0.11032126898E+02  0.28741318701E+01  0.17200774387E+03  0.17120000000E+03 0.  0.
        998    1    1    2    0    0  0.86776143735E+01 -0.95922084946E+00  0.13539805674E+04  0.13540456410E+04  0.10000000000E+02 0.  0.
</event>
<event>
 5    1  0.1800099E-008  0.3823747E+03  0.7957747E-01  0.3440883E+00
         13   -1    0    0    0    0  0.00000000000E+00  0.00000000000E+00  0.14999999963E+04  0.15000000000E+04  0.10566000000E+00 0.  1.
        994   -1    0    0    0    0 -0.00000000000E+00 -0.00000000000E+00  0.11368683772E-12  0.17120000000E+03  0.17120000000E+03 0.  0.
         13    1    1    2    0    0  0.34348050182E+01 -0.28408047399E+02  0.13102730972E+03  0.13411555502E+03  0.10566000000E+00 0.  1.
        994    1    1    2    0    0 -0.27604362625E+02  0.22814368590E+02  0.72047437126E+01  0.17505383338E+03  0.17120000000E+03 0.  0.
        998    1    1    2    0    0  0.24169557607E+02  0.55936788089E+01  0.13617679428E+04  0.13620306116E+04  0.10000000000E+02 0.  1.
</event>
<event>
 5    1  0.1800099E-008  0.3710362E+03  0.7957747E-01  0.3491142E+00
         13   -1    0    0    0    0  0.00000000000E+00  0.00000000000E+00  0.14999999963E+04  0.15000000000E+04  0.10566000000E+00 0.  1.
        994   -1    0    0    0    0 -0.00000000000E+00 -0.00000000000E+00  0.11368683772E-12  0.17120000000E+03  0.17120000000E+03 0.  0.
         13    1    1    2    0    0  0.41787585254E+02 -0.43924160742E+02  0.21606645601E+03  0.22441091496E+03  0.10566000000E+00 0.  1.
        994    1    1    2    0    0 -0.10911586977E+02  0.29009545723E+02  0.12045266942E+02  0.17439938340E+03  0.17120000000E+03 0.  0.
        998    1    1    2    0    0 -0.30875998276E+02  0.14914615019E+02  0.12718882733E+04  0.12723897016E+04  0.10000000000E+02 0.  1.
</event>
<event>
 5    1  0.1800099E-008  0.3852095E+03  0.7957747E-01  0.3428784E+00
         13   -1    0    0    0    0  0.00000000000E+00  0.00000000000E+00  0.14999999963E+04  0.15000000000E+04  0.10566000000E+00 0. -1.
        994   -1    0    0    0    0 -0.00000000000E+00 -0.00000000000E+00  0.11368683772E-12  0.17120000000E+03  0.17120000000E+03 0.  0.
         13    1    1    2    0    0 -0.30554336433E+01  0.15902917385E+02  0.79111031949E+02  0.80751501510E+02  0.10566000000E+00 0. -1.
        994    1    1    2    0    0  0.56215543857E+01 -0.21814485068E+02  0.31956969382E+01  0.17270531582E+03  0.17120000000E+03 0.  0.
        998    1    1    2    0    0 -0.25661207424E+01  0.59115676829E+01  0.14176932674E+04  0.14177431827E+04  0.10000000000E+02 0. -1.
</event>
<event>
 5    1  0.1800099E-008  0.3764908E+03  0.7957747E-01  0.3466582E+00
         13   -1    0    0    0    0  0.00000000000E+00  0.00000000000E+00  0.14999999963E+04  0.15000000000E+04  0.10566000000E+00 0.  1.
        994   -1    0    0    0    0 -0.00000000000E+00 -0.00000000000E+00  0.11368683772E-12  0.17120000000E+03  0.17120000000E+03 0.  0.
         13    1    1    2    0    0  0.15087931164E+02 -0.14645939724E+02  0.36018642593E+02  0.41707349418E+02  0.10566000000E+00 0.  1.
        994    1    1    2    0    0 -0.64597456777E+01 -0.53770310654E+00  0.60573072752E+01  0.17142971857E+03  0.17120000000E+03 0.  0.
        998    1    1    2    0    0 -0.86281854863E+01  0.15183642830E+02  0.14579240464E+04  0.14580629320E+04  0.10000000000E+02 0.  1.
</event>
<event>
 5    1  0.1800099E-008  0.3791948E+03  0.7957747E-01  0.3454672E+00
         13   -1    0    0    0    0  0.00000000000E+00  0.00000000000E+00  0.14999999963E+04  0.15000000000E+04  0.10566000000E+00 0. -1.
        994   -1    0    0    0    0 -0.00000000000E+00 -0.00000000000E+00  0.11368683772E-12  0.17120000000E+03  0.17120000000E+03 0.  0.
         13    1    1    2    0    0  0.40752441220E+02 -0.44221398324E+02  0.35926366250E+03  0.36426183425E+03  0.10566000000E+00 0. -1.
        994    1    1    2    0    0 -0.34508850967E+02  0.28450174045E+02  0.11274102169E+02  0.17730431066E+03  0.17120000000E+03 0.  0.
        998    1    1    2    0    0 -0.62435902530E+01  0.15771224279E+02  0.11294622316E+04  0.11296338551E+04  0.10000000000E+02 0. -1.
</event>
<event>
 5    1  0.1800099E-008  0.3767576E+03  0.7957747E-01  0.3465399E+00
         13   -1    0    0    0    0  0.00000000000E+00  0.00000000000E+00  0.14999999963E+04  0.15000000000E+04  0.10566000000E+00 0. -1.
        994   -1    0    0    0    0 -0.00000000000E+00 -0.00000000000E+00  0.11368683772E-12  0.17120000000E+03  0.17120000000E+03 0.  0.
         13    1    1    2    0    0  0.20788972690E+02  0.12531549280E+02  0.45960136571E+02  0.51976595027E+02  0.10566000000E+00 0. -1.
        994    1    1    2    0    0 -0.28685515111E+02 -0.18411167109E+02  0.97149731358E+01  0.17483034792E+03  0.17120000000E+03 0.  0.
        998    1    1    2    0    0  0.78965424204E+01  0.58796178288E+01  0.14443248866E+04  0.14443930571E+04  0.10000000000E+02 0. -1.
</event>
<event>
 5    1  0.1800099E-008  0.3841917E+03  0.7957747E-01  0.3433108E+00
         13   -1    0    0    0    0  0.00000000000E+00  0.00000000000E+00  0.14999999963E+04  0.15000000000E+04  0.10566000000E+00 0.  1.
        994   -1    0    0    0    0 -0.00000000000E+00 -0.00000000000E+00  0.11368683772E-12  0.17120000000E+03  0.17120000000E+03 0.  0.
         13    1    1    2    0    0 -0.45002478605E+01 -0.25453209485E+02  0.14362367788E+03  0.14593111428E+03  0.10566000000E+00 0.  1.
        994    1    1    2    0    0 -0.70299109183E+00  0.32212509868E+02  0.54625657666E+01  0.17429119201E+03  0.17120000000E+03 0.  0.
        998    1    1    2    0    0  0.52032389523E+01 -0.67593003832E+01  0.13509137526E+04  0.13509776937E+04  0.10000000000E+02 0.  1.
</event>
<event>
 5    1  0.1800099E-008  0.3805037E+03  0.7957747E-01  0.3448968E+00
         13   -1    0    0    0    0  0.00000000000E+00  0.00000000000E+00  0.14999999963E+04  0.15000000000E+04  0.10566000000E+00 0.  1.
        994   -1    0    0    0    0 -0.00000000000E+00 -0.00000000000E+00  0.11368683772E-12  0.17120000000E+03  0.17120000000E+03 0.  0.
         13    1    1    2    0    0 -0.73210459299E+01  0.32420133132E+02  0.16801565242E+03  0.17127151943E+03  0.10566000000E+00 0.  1.
        994    1    1    2    0    0 -0.11599956839E+01  0.48598015140E+01  0.39624421981E+01  0.17131872113E+03  0.17120000000E+03 0.  0.
        998    1    1    2    0    0  0.84810416139E+01 -0.37279934646E+02  0.13280219017E+04  0.13286097594E+04  0.10000000000E+02 0.  1.
</event>
<event>
 5    1  0.1800099E-008  0.3832557E+03  0.7957747E-01  0.3437104E+00
         13   -1    0    0    0    0  0.00000000000E+00  0.00000000000E+00  0.14999999963E+04  0.15000000000E+04  0.10566000000E+00 0. -1.
        994   -1    0    0    0    0 -0.00000000000E+00 -0.00000000000E+00  0.11368683772E-12  0.17120000000E+03  0.17120000000E+03 0.  0.
         13    1    1    2    0    0  0.11870807703E+02  0.32520552264E+02  0.18925864413E+03  0.19239892915E+03  0.10566000000E+00 0. -1.
        994    1    1    2    0    0 -0.38561491043E+01 -0.49226391914E+02  0.10604463292E+02  0.17849370350E+03  0.17120000000E+03 0.  0.
        998    1    1    2    0    0 -0.80146585986E+01  0.16705839650E+02  0.13001368889E+04  0.13003073673E+04  0.10000000000E+02 0. -1.
</event>
<event>
 5    1  0.1800099E-008  0.3795212E+03  0.7957747E-01  0.3453246E+00
         13   -1    0    0    0    0  0.00000000000E+00  0.00000000000E+00  0.14999999963E+04  0.15000000000E+04  0.10566000000E+00 0. -1.
        994   -1    0    0    0    0 -0.00000000000E+00 -0.00000000000E+00  0.11368683772E-12  0.17120000000E+03  0.17120000000E+03 0.  0.
         13    1    1    2    0    0  0.20121332321E+02 -0.10050531616E+02  0.60174280041E+02  0.64240457210E+02  0.10566000000E+00 0. -1.
        994    1    1    2    0    0 -0.18444388341E+01 -0.96059529513E+01  0.46954547643E+01  0.17154347432E+03  0.17120000000E+03 0.  0.
        998    1    1    2    0    0 -0.18276893486E+02  0.19656484567E+02  0.14351302615E+04  0.14354160685E+04  0.10000000000E+02 0. -1.
</event>
<event>
 5    1  0.1800099E-008  0.3732052E+03  0.7957747E-01  0.3481289E+00
         13   -1    0    0    0    0  0.00000000000E+00  0.00000000000E+00  0.14999999963E+04  0.15000000000E+04  0.10566000000E+00 0.  1.
        994   -1    0    0    0    0 -0.00000000000E+00 -0.00000000000E+00  0.11368683772E-12  0.17120000000E+03  0.17120000000E+03 0.  0.
         13    1    1    2    0    0 -0.65573663686E+02 -0.24334507305E+02  0.29771078067E+03  0.30581660143E+03  0.10566000000E+00 0.  1.
        994    1    1    2    0    0  0.43871612988E+02  0.25803408605E+02  0.16515020564E+02  0.17936755622E+03  0.17120000000E+03 0.  0.
        998    1    1    2    0    0  0.21702050698E+02 -0.14689013000E+01  0.11857741950E+04  0.11860158423E+04  0.10000000000E+02 0.  1.
</event>
<event>
 5    1  0.1800099E-008  0.3788995E+03  0.7957747E-01  0.3455964E+00
         13   -1    0    0    0    0  0.00000000000E+00  0.00000000000E+00  0.14999999963E+04  0.15000000000E+04  0.10566000000E+00 0. -1.
        994   -1    0    0    0    0 -0.00000000000E+00 -0.00000000000E+00  0.11368683772E-12  0.17120000000E+03  0.17120000000E+03 0.  0.
         13    1    1    2    0    0  0.81562702138E+02 -0.46111955138E+02  0.43992783539E+03  0.44979472907E+03  0.10566000000E+00 0. -1.
        994    1    1    2    0    0 -0.11192289827E+03  0.63191700703E+02  0.62277409383E+02  0.22295255530E+03  0.17120000000E+03 0.  0.
        998    1    1    2    0    0  0.30360196128E+02 -0.17079745566E+02  0.99779475151E+03  0.99845271563E+03  0.10000000000E+02 0. -1.
</event>
<event>
 5    1  0.1800099E-008  0.3852298E+03  0.7957747E-01  0.3428698E+00
         13   -1    0    0    0    0  0.00000000000E+00  0.00000000000E+00  0.14999999963E+04  0.15000000000E+04  0.10566000000E+00 0.  1.
        994   -1    0    0    0    0 -0.00000000000E+00 -0.00000000000E+00  0.11368683772E-12  0.17120000000E+03  0.17120000000E+03 0.  0.
         13    1    1    2    0    0  0.14919815673E+02 -0.14230922852E+01  0.70244534344E+02  0.71825704734E+02  0.10566000000E+00 0.  1.
        994    1    1    2    0    0 -0.20166745124E+02 -0.16328276496E+02  0.37318470389E+01  0.17319548754E+03  0.17120000000E+03 0.  0.
        998    1    1    2    0    0  0.52469294513E+01  0.17751368782E+02  0.14260236149E+04  0.14261788077E+04  0.10000000000E+02 0.  1.
</event>
<event>
 5    1  0.1800099E-008  0.3819207E+03  0.7957747E-01  0.3442838E+00
         13   -1    0    0    0    0  0.00000000000E+00  0.00000000000E+00  0.14999999963E+04  0.15000000000E+04  0.10566000000E+00 0.  1.
        994   -1    0    0    0    0 -0.00000000000E+00 -0.00000000000E+00  0.11368683772E-12  0.17120000000E+03  0.17120000000E+03 0.  0.
         13    1    1    2    0    0  0.82673272579E+01  0.15005408621E+02  0.39771773044E+02  0.43304919847E+02  0.10566000000E+00 0.  1.
        994    1    1    2    0    0 -0.23641299184E+02 -0.38924197917E+02  0.10087015440E+02  0.17744067203E+03  0.17120000000E+03 0.  0.
        998    1    1    2    0    0  0.15373971926E+02  0.23918789296E+02  0.14501412078E+04  0.14504544081E+04  0.10000000000E+02 0.  1.
</event>
<event>
 5    1  0.1800099E-008  0.3690299E+03  0.7957747E-01  0.3500361E+00
         13   -1    0    0    0    0  0.00000000000E+00  0.00000000000E+00  0.14999999963E+04  0.15000000000E+04  0.10566000000E+00 0. -1.
        994   -1    0    0    0    0 -0.00000000000E+00 -0.00000000000E+00  0.11368683772E-12  0.17120000000E+03  0.17120000000E+03 0.  0.
         13    1    1    2    0    0  0.28616180561E+02 -0.54000362210E+02  0.16303722704E+03  0.17411511558E+03  0.10566000000E+00 0. -1.
        994    1    1    2    0    0 -0.10901004399E+02  0.54885427199E+02  0.21417330261E+02  0.18138187355E+03  0.17120000000E+03 0.  0.
        998    1    1    2    0    0 -0.17715176162E+02 -0.88506498911E+00  0.13155454390E+04  0.13157030109E+04  0.10000000000E+02 0. -1.
</event>
<event>
 5    1  0.1800099E-008  0.3805256E+03  0.7957747E-01  0.3448873E+00
         13   -1    0    0    0    0  0.00000000000E+00  0.00000000000E+00  0.14999999963E+04  0.15000000000E+04  0.10566000000E+00 0.  1.
        994   -1    0    0    0    0 -0.00000000000E+00 -0.00000000000E+00  0.11368683772E-12  0.17120000000E+03  0.17120000000E+03 0.  0.
         13    1    1    2    0    0  0.83221778713E+00  0.23889294861E+02  0.73746787981E+02  0.77524131063E+02  0.10566000000E+00 0.  1.
        994    1    1    2    0    0 -0.80936098452E+01 -0.11077891488E+02  0.44964634510E+01  0.17180769594E+03  0.17120000000E+03 0.  0.
        998    1    1    2    0    0  0.72613920580E+01 -0.12811403373E+02  0.14217567448E+04  0.14218681730E+04  0.10000000000E+02 0.  1.
</event>
<event>
 5    1  0.1800099E-008  0.3826152E+03  0.7957747E-01  0.3439850E+00
         13   -1    0    0    0    0  0.00000000000E+00  0.00000000000E+00  0.14999999963E+04  0.15000000000E+04  0.10566000000E+00 0. -1.
        994   -1    0    0    0    0 -0.00000000000E+00 -0.00000000000E+00  0.11368683772E-12  0.17120000000E+03  0.17120000000E+03 0.  0.
         13    1    1    2    0    0 -0.18333511994E+02  0.24416315840E+02  0.17196328856E+03  0.17465296424E+03  0.10566000000E+00 0. -1.
        994    1    1    2    0    0  0.11624130811E+02 -0.70433003401E+01  0.34312669517E+01  0.17177293759E+03  0.17120000000E+03 0.  0.
        998    1    1    2    0    0  0.67093811828E+01 -0.17373015500E+02  0.13246054408E+04  0.13247740982E+04  0.10000000000E+02 0. -1.
</event>
<event>
 5    1  0.1800099E-008  0.3862499E+03  0.7957747E-01  0.3424389E+00
         13   -1    0    0    0    0  0.00000000000E+00  0.00000000000E+00  0.14999999963E+04  0.15000000000E+04  0.10566000000E+00 0. -1.
        994   -1    0    0    0    0 -0.00000000000E+00 -0.00000000000E+00  0.11368683772E-12  0.17120000000E+03  0.17120000000E+03 0.  0.
         13    1    1    2    0    0 -0.92186856747E+01 -0.43019757015E+01  0.43282822558E+02  0.44462400443E+02  0.10566000000E+00 0. -1.
        994    1    1    2    0    0  0.35184155123E+02  0.97894897393E+01  0.53916470494E+01  0.17513500147E+03  0.17120000000E+03 0.  0.
        998    1    1    2    0    0 -0.25965469448E+02 -0.54875140378E+01  0.14513255267E+04  0.14516025981E+04  0.10000000000E+02 0. -1.
</event>
<event>
 5    1  0.1800099E-008  0.3847337E+03  0.7957747E-01  0.3430803E+00
         13   -1    0    0    0    0  0.00000000000E+00  0.00000000000E+00  0.14999999963E+04  0.15000000000E+04  0.10566000000E+00 0.  1.
        994   -1    0    0    0    0 -0.00000000000E+00 -0.00000000000E+00  0.11368683772E-12  0.17120000000E+03  0.17120000000E+03 0.  0.
         13    1    1    2    0    0 -0.80785398360E+01  0.18399400350E+02  0.88262129284E+02  0.90520800753E+02  0.10566000000E+00 0.  1.
        994    1    1    2    0    0  0.59346815517E+02 -0.32119112039E+02  0.16897304350E+02  0.18479350845E+03  0.17120000000E+03 0.  0.
        998    1    1    2    0    0 -0.51268275681E+02  0.13719711690E+02  0.13948405626E+04  0.13958856908E+04  0.10000000000E+02 0.  1.
</event>
<event>
 5    1  0.1800099E-008  0.3838455E+03  0.7957747E-01  0.3434583E+00
         13   -1    0    0    0    0  0.00000000000E+00  0.00000000000E+00  0.14999999963E+04  0.15000000000E+04  0.10566000000E+00 0.  1.
        994   -1    0    0    0    0 -0.00000000000E+00 -0.00000000000E+00  0.11368683772E-12  0.17120000000E+03  0.17120000000E+03 0.  0.
         13    1    1    2    0    0 -0.14916796288E+02 -0.18177401121E+01  0.49290485450E+02  0.51530361056E+02  0.10566000000E+00 0.  1.
        994    1    1    2    0    0  0.15761773772E+02  0.12314089702E+01  0.30299150982E+01  0.17195514027E+03  0.17120000000E+03 0.  0.
        998    1    1    2    0    0 -0.84497748383E+00  0.58633114194E+00  0.14476795957E+04  0.14477144987E+04  0.10000000000E+02 0.  1.
</event>
<event>
 5    1  0.1800099E-008  0.3763450E+03  0.7957747E-01  0.3467229E+00
         13   -1    0    0    0    0  0.00000000000E+00  0.00000000000E+00  0.14999999963E+04  0.15000000000E+04  0.10566000000E+00 0. -1.
        994   -1    0    0    0    0 -0.00000000000E+00 -0.00000000000E+00  0.11368683772E-12  0.17120000000E+03  0.17120000000E+03 0.  0.
         13    1    1    2    0    0 -0.68890193301E+02 -0.11042858033E+02  0.24794242196E+03  0.25757185254E+03  0.10566000000E+00 0. -1.
        994    1    1    2    0    0  0.11260937490E+03  0.12186041727E+02  0.50716512837E+02  0.21144969993E+03  0.17120000000E+03 0.  0.
        998    1    1    2    0    0 -0.43719181596E+02 -0.11431836938E+01  0.12013410615E+04  0.12021784475E+04  0.10000000000E+02 0. -1.
</event>
<event>
 5    1  0.1800099E-008  0.3737777E+03  0.7957747E-01  0.3478708E+00
         13   -1    0    0    0    0  0.00000000000E+00  0.00000000000E+00  0.14999999963E+04  0.15000000000E+04  0.10566000000E+00 0.  1.
        994   -1    0    0    0    0 -0.00000000000E+00 -0.00000000000E+00  0.11368683772E-12  0.17120000000E+03  0.17120000000E+03 0.  0.
         13    1    1    2    0    0  0.21986916180E+02  0.17970533558E+03  0.10072932030E+04  0.10234339451E+04  0.10566000000E+00 0.  1.
        994    1    1    2    0    0 -0.24043531509E+02 -0.15914378449E+03  0.10162582300E+03  0.25601188147E+03  0.17120000000E+03 0.  0.
        998    1    1    2    0    0  0.20566153285E+01 -0.20561551082E+02  0.39108097029E+03  0.39175417340E+03  0.10000000000E+02 0.  0.
</event>
<event>
 5    1  0.1800099E-008  0.3801164E+03  0.7957747E-01  0.3450652E+00
         13   -1    0    0    0    0  0.00000000000E+00  0.00000000000E+00  0.14999999963E+04  0.15000000000E+04  0.10566000000E+00 0. -1.
        994   -1    0    0    0    0 -0.00000000000E+00 -0.00000000000E+00  0.11368683772E-12  0.17120000000E+03  0.17120000000E+03 0.  0.
         13    1    1    2    0    0 -0.26511577486E+02 -0.34230746660E+01  0.81176808552E+02  0.85465002145E+02  0.10566000000E+00 0. -1.
        994    1    1    2    0    0  0.29609134312E+02  0.18861173229E+01  0.70214839983E+01  0.17389364425E+03  0.17120000000E+03 0.  0.
        998    1    1    2    0    0 -0.30975568267E+01  0.15369573431E+01  0.14118017037E+04  0.14118413536E+04  0.10000000000E+02 0. -1.
</event>
<event>
 5    1  0.1800099E-008  0.3805324E+03  0.7957747E-01  0.3448844E+00
         13   -1    0    0    0    0  0.00000000000E+00  0.00000000000E+00  0.14999999963E+04  0.15000000000E+04  0.10566000000E+00 0. -1.
        994   -1    0    0    0    0 -0.00000000000E+00 -0.00000000000E+00  0.11368683772E-12  0.17120000000E+03  0.17120000000E+03 0.  0.
         13    1    1    2    0    0  0.23522441000E+01 -0.13702514466E+02  0.24001528669E+02  0.27737636840E+02  0.10566000000E+00 0. -1.
        994    1    1    2    0    0  0.75335371446E+01  0.28577481168E+01  0.40813064041E+01  0.17143808786E+03  0.17120000000E+03 0.  0.
        998    1    1    2    0    0 -0.98857812445E+01  0.10844766349E+02  0.14719171612E+04  0.14720242753E+04  0.10000000000E+02 0. -1.
</event>
<event>
 5    1  0.1800099E-008  0.3820267E+03  0.7957747E-01  0.3442381E+00
         13   -1    0    0    0    0  0.00000000000E+00  0.00000000000E+00  0.14999999963E+04  0.15000000000E+04  0.10566000000E+00 0.  1.
        994   -1    0    0    0    0 -0.00000000000E+00 -0.00000000000E+00  0.11368683772E-12  0.17120000000E+03  0.17120000000E+03 0.  0.
         13    1    1    2    0    0  0.14903950068E+02  0.42946837444E+01  0.37064733455E+02  0.40179318887E+02  0.10566000000E+00 0.  1.
        994    1    1    2    0    0 -0.15637674159E+02  0.44434379909E+01  0.39916399468E+01  0.17201643580E+03  0.17120000000E+03 0.  0.
        998    1    1    2    0    0  0.73372409147E+00 -0.87381217353E+01  0.14589436229E+04  0.14590042453E+04  0.10000000000E+02 0.  1.
</event>
<event>
 5    1  0.1800099E-008  0.3823655E+03  0.7957747E-01  0.3440923E+00
         13   -1    0    0    0    0  0.00000000000E+00  0.00000000000E+00  0.14999999963E+04  0.15000000000E+04  0.10566000000E+00 0.  1.
        994   -1    0    0    0    0 -0.00000000000E+00 -0.00000000000E+00  0.11368683772E-12  0.17120000000E+03  0.17120000000E+03 0.  0.
         13    1    1    2    0    0 -0.13715971484E+02 -0.13715664463E+01  0.30814667665E+02  0.33757428450E+02  0.10566000000E+00 0.  1.
        994    1    1    2    0    0  0.12307244118E+02  0.88792101388E+01  0.37080927968E+01  0.17191131022E+03  0.17120000000E+03 0.  0.
        998    1    1    2    0    0  0.14087273661E+01 -0.75076436925E+01  0.14654772358E+04  0.14655312613E+04  0.10000000000E+02 0.  1.
</event>
<event>
 5    1  0.1800099E-008  0.3777290E+03  0.7957747E-01  0.3461107E+00
         13   -1    0    0    0    0  0.00000000000E+00  0.00000000000E+00  0.14999999963E+04  0.15000000000E+04  0.10566000000E+00 0. -1.
        994   -1    0    0    0    0 -0.00000000000E+00 -0.00000000000E+00  0.11368683772E-12  0.17120000000E+03  0.17120000000E+03 0.  0.
         13    1    1    2    0    0  0.12888822514E+01 -0.22445360809E+02  0.46792430995E+02  0.51913372090E+02  0.10566000000E+00 0. -1.
        994    1    1    2    0    0 -0.67074535355E+01  0.78468132304E+01  0.56429730136E+01  0.17160374575E+03  0.17120000000E+03 0.  0.
        998    1    1    2    0    0  0.54185712841E+01  0.14598547579E+02  0.14475645923E+04  0.14476828822E+04  0.10000000000E+02 0. -1.
</event>
<event>
 5    1  0.1800099E-008  0.3739493E+03  0.7957747E-01  0.3477935E+00
         13   -1    0    0    0    0  0.00000000000E+00  0.00000000000E+00  0.14999999963E+04  0.15000000000E+04  0.10566000000E+00 0.  1.
        994   -1    0    0    0    0 -0.00000000000E+00 -0.00000000000E+00  0.11368683772E-12  0.17120000000E+03  0.17120000000E+03 0.  0.
         13    1    1    2    0    0 -0.21696107235E+02 -0.13888870320E+01  0.30387740084E+02  0.37364100254E+02  0.10566000000E+00 0.  1.
        994    1    1    2    0    0  0.76542765588E+01 -0.10267157853E+02  0.77789191374E+01  0.17185445605E+03  0.17120000000E+03 0.  0.
        998    1    1    2    0    0  0.14041830676E+02  0.11656044885E+02  0.14618333371E+04  0.14619814437E+04  0.10000000000E+02 0.  1.
</event>
<event>
 5    1  0.1800099E-008  0.3809394E+03  0.7957747E-01  0.3447078E+00
         13   -1    0    0    0    0  0.00000000000E+00  0.00000000000E+00  0.14999999963E+04  0.15000000000E+04  0.10566000000E+00 0.  1.
        994   -1    0    0    0    0 -0.00000000000E+00 -0.00000000000E+00  0.11368683772E-12  0.17120000000E+03  0.17120000000E+03 0.  0.
         13    1    1    2    0    0 -0.16455265150E+03  0.71829267318E+02  0.10805252051E+04  0.10953409282E+04  0.10566000000E+00 0.  1.
        994    1    1    2    0    0  0.15662279633E+03 -0.99616602067E+02  0.12858866020E+03  0.28337016652E+03  0.17120000000E+03 0.  0.
        998    1    1    2    0    0  0.79298551686E+01  0.27787334748E+02  0.29088613093E+03  0.29248890533E+03  0.10000000000E+02 0. -1.
</event>
<event>
 5    1  0.1800099E-008  0.3842095E+03  0.7957747E-01  0.3433032E+00
         13   -1    0    0    0    0  0.00000000000E+00  0.00000000000E+00  0.14999999963E+04  0.15000000000E+04  0.10566000000E+00 0. -1.
        994   -1    0    0    0    0 -0.00000000000E+00 -0.00000000000E+00  0.11368683772E-12  0.17120000000E+03  0.17120000000E+03 0.  0.
         13    1    1    2    0    0 -0.10271483027E+01  0.24916992760E+02  0.14319806192E+03  0.14535338889E+03  0.10566000000E+00 0. -1.
        994    1    1    2    0    0  0.26610265293E+01 -0.23127706675E+02  0.38121088444E+01  0.17281766129E+03  0.17120000000E+03 0.  0.
        998    1    1    2    0    0 -0.16338782267E+01 -0.17892860852E+01  0.13529898255E+04  0.13530289498E+04  0.10000000000E+02 0.  0.
</event>
<event>
 5    1  0.1800099E-008  0.3809624E+03  0.7957747E-01  0.3446979E+00
         13   -1    0    0    0    0  0.00000000000E+00  0.00000000000E+00  0.14999999963E+04  0.15000000000E+04  0.10566000000E+00 0. -1.
        994   -1    0    0    0    0 -0.00000000000E+00 -0.00000000000E+00  0.11368683772E-12  0.17120000000E+03  0.17120000000E+03 0.  0.
         13    1    1    2    0    0 -0.95022760776E+01  0.63225467378E+01  0.17443683992E+02  0.20846129693E+02  0.10566000000E+00 0. -1.
        994    1    1    2    0    0 -0.32282255123E+02 -0.17448169681E+02  0.81483810137E+01  0.17527811824E+03  0.17120000000E+03 0.  0.
        998    1    1    2    0    0  0.41784531201E+02  0.11125622943E+02  0.14744079313E+04  0.14750757521E+04  0.10000000000E+02 0. -1.
</event>
<event>
 5    1  0.1800099E-008  0.3774678E+03  0.7957747E-01  0.3462259E+00
         13   -1    0    0    0    0  0.00000000000E+00  0.00000000000E+00  0.14999999963E+04  0.15000000000E+04  0.10566000000E+00 0. -1.
        994   -1    0    0    0    0 -0.00000000000E+00 -0.00000000000E+00  0.11368683772E-12  0.17120000000E+03  0.17120000000E+03 0.  0.
         13    1    1    2    0    0  0.16564109917E+01  0.14244327665E+02  0.15860328149E+02  0.21382369865E+02  0.10566000000E+00 0. -1.
        994    1    1    2    0    0  0.22144890858E+02 -0.31916796771E+02  0.10521145436E+02  0.17586703104E+03  0.17120000000E+03 0.  0.
        998    1    1    2    0    0 -0.23801301850E+02  0.17672469106E+02  0.14736185227E+04  0.14739505991E+04  0.10000000000E+02 0. -1.
</event>
<event>
 5    1  0.1800099E-008  0.3799612E+03  0.7957747E-01  0.3451327E+00
         13   -1    0    0    0    0  0.00000000000E+00  0.00000000000E+00  0.14999999963E+04  0.15000000000E+04  0.10566000000E+00 0.  1.
        994   -1    0    0    0    0 -0.00000000000E+00 -0.00000000000E+00  0.11368683772E-12  0.17120000000E+03  0.17120000000E+03 0.  0.
         13    1    1    2    0    0 -0.26744398055E+02 -0.89411955902E+00  0.89206667086E+02  0.93133790289E+02  0.10566000000E+00 0.  1.
        994    1    1    2    0    0  0.61519680338E+01 -0.24818508477E+01  0.42998781925E+01  0.17138242397E+03  0.17120000000E+03 0.  0.
        998    1    1    2    0    0  0.20592430021E+02  0.33759704067E+01  0.14064934510E+04  0.14066837857E+04  0.10000000000E+02 0.  1.
</event>
<event>
 5    1  0.1800099E-008  0.3784435E+03  0.7957747E-01  0.3457964E+00
         13   -1    0    0    0    0  0.00000000000E+00  0.00000000000E+00  0.14999999963E+04  0.15000000000E+04  0.10566000000E+00 0.  1.
        994   -1    0    0    0    0 -0.00000000000E+00 -0.00000000000E+00  0.11368683772E-12  0.17120000000E+03  0.17120000000E+03 0.  0.
         13    1    1    2    0    0 -0.24955339138E+02  0.17853801433E+02  0.86472697561E+02  0.91755467219E+02  0.10566000000E+00 0.  1.
        994    1    1    2    0    0  0.17020413403E+02 -0.41034565556E+02  0.11581185672E+02  0.17724867815E+03  0.17120000000E+03 0.  0.
        998    1    1    2    0    0  0.79349257347E+01  0.23180764123E+02  0.14019461130E+04  0.14021958546E+04  0.10000000000E+02 0.  1.
</event>
<event>
 5    1  0.1800099E-008  0.3839340E+03  0.7957747E-01  0.3434206E+00
         13   -1    0    0    0    0  0.00000000000E+00  0.00000000000E+00  0.14999999963E+04  0.15000000000E+04  0.10566000000E+00 0. -1.
        994   -1    0    0    0    0 -0.00000000000E+00 -0.00000000000E+00  0.11368683772E-12  0.17120000000E+03  0.17120000000E+03 0.  0.
         13    1    1    2    0    0  0.11501859965E+01 -0.14625425876E+02  0.47720146720E+02  0.49924438673E+02  0.10566000000E+00 0. -1.
        994    1    1    2    0    0  0.73572390310E+01  0.17296817012E+02  0.33271354716E+01  0.17226090292E+03  0.17120000000E+03 0.  0.
        998    1    1    2    0    0 -0.85074250275E+01 -0.26713911363E+01  0.14489527141E+04  0.14490146584E+04  0.10000000000E+02 0. -1.
</event>
<event>
 5    1  0.1800099E-008  0.3819191E+03  0.7957747E-01  0.3442845E+00
         13   -1    0    0    0    0  0.00000000000E+00  0.00000000000E+00  0.14999999963E+04  0.15000000000E+04  0.10566000000E+00 0.  1.
        994   -1    0    0    0    0 -0.00000000000E+00 -0.00000000000E+00  0.11368683772E-12  0.17120000000E+03  0.17120000000E+03 0.  0.
         13    1    1    2    0    0 -0.13797724831E+02  0.27460341092E+02  0.17930971475E+03  0.18192424937E+03  0.10566000000E+00 0.  1.
        994    1    1    2    0    0 -0.48942904711E+01  0.35837256040E+01  0.32897727910E+01  0.17133902000E+03  0.17120000000E+03 0.  0.
        998    1    1    2    0    0  0.18692015302E+02 -0.31044066696E+02  0.13174005087E+04  0.13179367306E+04  0.10000000000E+02 0.  1.
</event>
<event>
 5    1  0.1800099E-008  0.3682725E+03  0.7957747E-01  0.3503868E+00
         13   -1    0    0    0    0  0.00000000000E+00  0.00000000000E+00  0.14999999963E+04  0.15000000000E+04  0.10566000000E+00 0. -1.
        994   -1    0    0    0    0 -0.00000000000E+00 -0.00000000000E+00  0.11368683772E-12  0.17120000000E+03  0.17120000000E+03 0.  0.
         13    1    1    2    0    0  0.26891014248E+03  0.48144690098E+02  0.10365341756E+04  0.10719298878E+04  0.10566000000E+00 0. -1.
        994    1    1    2    0    0 -0.25688304348E+03 -0.45148754104E+02  0.29280738849E+03  0.42787020787E+03  0.17120000000E+03 0.  0.
        998    1    1    2    0    0 -0.12027098998E+02 -0.29959359938E+01  0.17065843217E+03  0.17139990435E+03  0.10000000000E+02 0. -1.
</event>
<event>
 5    1  0.1800099E-008  0.3722880E+03  0.7957747E-01  0.3485441E+00
         13   -1    0    0    0    0  0.00000000000E+00  0.00000000000E+00  0.14999999963E+04  0.15000000000E+04  0.10566000000E+00 0. -1.
        994   -1    0    0    0    0 -0.00000000000E+00 -0.00000000000E+00  0.11368683772E-12  0.17120000000E+03  0.17120000000E+03 0.  0.
         13    1    1    2    0    0 -0.17737855362E+02 -0.55238574725E+02  0.16360966654E+03  0.17359166397E+03  0.10566000000E+00 0. -1.
        994    1    1    2    0    0  0.17140944190E+02 -0.15627982216E+02  0.14052255623E+02  0.17333479652E+03  0.17120000000E+03 0.  0.
        998    1    1    2    0    0  0.59691117162E+00  0.70866556941E+02  0.13223380741E+04  0.13242735395E+04  0.10000000000E+02 0. -1.
</event>
<event>
 5    1  0.1800099E-008  0.3755933E+03  0.7957747E-01  0.3470574E+00
         13   -1    0    0    0    0  0.00000000000E+00  0.00000000000E+00  0.14999999963E+04  0.15000000000E+04  0.10566000000E+00 0. -1.
        994   -1    0    0    0    0 -0.00000000000E+00 -0.00000000000E+00  0.11368683772E-12  0.17120000000E+03  0.17120000000E+03 0.  0.
         13    1    1    2    0    0 -0.73504929608E+01 -0.20946282850E+02  0.11167509853E+02  0.24849566442E+02  0.10566000000E+00 0. -1.
        994    1    1    2    0    0 -0.28390876343E+02  0.41782608933E+02  0.23083563134E+02  0.17998366358E+03  0.17120000000E+03 0.  0.
        998    1    1    2    0    0  0.35741369303E+02 -0.20836326083E+02  0.14657489233E+04  0.14663667700E+04  0.10000000000E+02 0. -1.
</event>
<event>
 5    1  0.1800099E-008  0.3854380E+03  0.7957747E-01  0.3427817E+00
         13   -1    0    0    0    0  0.00000000000E+00  0.00000000000E+00  0.14999999963E+04  0.15000000000E+04  0.10566000000E+00 0. -1.
        994   -1    0    0    0    0 -0.00000000000E+00 -0.00000000000E+00  0.11368683772E-12  0.17120000000E+03  0.17120000000E+03 0.  0.
         13    1    1    2    0    0 -0.28143235881E+01  0.13497648123E+02  0.66188281649E+02  0.67609220627E+02  0.10566000000E+00 0. -1.
        994    1    1    2    0    0 -0.74366276294E+01 -0.14116724934E+02  0.22493325920E+01  0.17195663654E+03  0.17120000000E+03 0.  0.
        998    1    1    2    0    0  0.10250951218E+02  0.61907681125E+00  0.14315623820E+04  0.14316341428E+04  0.10000000000E+02 0. -1.
</event>
<event>
 5    1  0.1800099E-008  0.3799672E+03  0.7957747E-01  0.3451301E+00
         13   -1    0    0    0    0  0.00000000000E+00  0.00000000000E+00  0.14999999963E+04  0.15000000000E+04  0.10566000000E+00 0.  1.
        994   -1    0    0    0    0 -0.00000000000E+00 -0.00000000000E+00  0.11368683772E-12  0.17120000000E+03  0.17120000000E+03 0.  0.
         13    1    1    2    0    0  0.11591140630E+02 -0.13514419869E+02  0.36600768517E+02  0.40701615515E+02  0.10566000000E+00 0.  1.
        994    1    1    2    0    0 -0.53086387181E+01  0.11031663355E+02  0.46509358673E+01  0.17170017602E+03  0.17120000000E+03 0.  0.
        998    1    1    2    0    0 -0.62825019116E+01  0.24827565136E+01  0.14587482919E+04  0.14587982085E+04  0.10000000000E+02 0.  1.
</event>
<event>
 5    1  0.1800099E-008  0.3807705E+03  0.7957747E-01  0.3447811E+00
         13   -1    0    0    0    0  0.00000000000E+00  0.00000000000E+00  0.14999999963E+04  0.15000000000E+04  0.10566000000E+00 0. -1.
        994   -1    0    0    0    0 -0.00000000000E+00 -0.00000000000E+00  0.11368683772E-12  0.17120000000E+03  0.17120000000E+03 0.  0.
         13    1    1    2    0    0 -0.28825681810E+02  0.37609972312E+02  0.25405691958E+03  0.25843830889E+03  0.10566000000E+00 0. -1.
        994    1    1    2    0    0  0.35485327737E+02 -0.30689913588E+02  0.11119153879E+02  0.17785993046E+03  0.17120000000E+03 0.  0.
        998    1    1    2    0    0 -0.66596459269E+01 -0.69200587244E+01  0.12348239228E+04  0.12349017607E+04  0.10000000000E+02 0. -1.
</event>
<event>
 5    1  0.1800099E-008  0.3845882E+03  0.7957747E-01  0.3431420E+00
         13   -1    0    0    0    0  0.00000000000E+00  0.00000000000E+00  0.14999999963E+04  0.15000000000E+04  0.10566000000E+00 0.  1.
        994   -1    0    0    0    0 -0.00000000000E+00 -0.00000000000E+00  0.11368683772E-12  0.17120000000E+03  0.17120000000E+03 0.  0.
         13    1    1    2    0    0  0.20213932733E+02  0.79966504318E+02  0.16524696180E+03  0.18468842530E+03  0.10566000000E+00 0.  1.
        994    1    1    2    0    0 -0.28451663401E+02 -0.62289119223E+02  0.36366244372E+02  0.18793981817E+03  0.17120000000E+03 0.  0.
        998    1    1    2    0    0  0.82377306679E+01 -0.17677385095E+02  0.12983867901E+04  0.12985717565E+04  0.10000000000E+02 0.  1.
</event>
<event>
 5    1  0.1800099E-008  0.3859074E+03  0.7957747E-01  0.3425833E+00
         13   -1    0    0    0    0  0.00000000000E+00  0.00000000000E+00  0.14999999963E+04  0.15000000000E+04  0.10566000000E+00 0. -1.
        994   -1    0    0    0    0 -0.00000000000E+00 -0.00000000000E+00  0.11368683772E-12  0.17120000000E+03  0.17120000000E+03 0.  0.
         13    1    1    2    0    0 -0.20463107697E+02  0.10919644789E+02  0.47677528218E+01  0.23679528077E+02  0.10566000000E+00 0. -1.
        994    1    1    2    0    0  0.34091827983E+02 -0.14407202073E+02  0.24701184599E+02  0.17688812489E+03  0.17120000000E+03 0.  0.
        998    1    1    2    0    0 -0.13628720287E+02  0.34875572841E+01  0.14705310589E+04  0.14706323470E+04  0.10000000000E+02 0. -1.
</event>
<event>
 5    1  0.1800099E-008  0.3817434E+03  0.7957747E-01  0.3443602E+00
         13   -1    0    0    0    0  0.00000000000E+00  0.00000000000E+00  0.14999999963E+04  0.15000000000E+04  0.10566000000E+00 0.  1.
        994   -1    0    0    0    0 -0.00000000000E+00 -0.00000000000E+00  0.11368683772E-12  0.17120000000E+03  0.17120000000E+03 0.  0.
         13    1    1    2    0    0  0.15472387168E+02 -0.11857660596E+02  0.58315120518E+02  0.61487098847E+02  0.10566000000E+00 0.  1.
        994    1    1    2    0    0 -0.10829432727E+02 -0.18356726131E+00  0.36456537609E+01  0.17158100449E+03  0.17120000000E+03 0.  0.
        998    1    1    2    0    0 -0.46429544417E+01  0.12041227857E+02  0.14380392220E+04  0.14381318967E+04  0.10000000000E+02 0.  1.
</event>
<event>
 5    1  0.1800099E-008  0.3787562E+03  0.7957747E-01  0.3456592E+00
         13   -1    0    0    0    0  0.00000000000E+00  0.00000000000E+00  0.14999999963E+04  0.15000000000E+04  0.10566000000E+00 0.  1.
        994   -1    0    0    0    0 -0.00000000000E+00 -0.00000000000E+00  0.11368683772E-12  0.17120000000E+03  0.17120000000E+03 0.  0.
         13    1    1    2    0    0  0.69938489551E+02  0.37006179482E+01  0.31694375411E+03  0.32458965068E+03  0.10566000000E+00 0.  1.
        994    1    1    2    0    0 -0.96622159855E+02 -0.15499572399E+02  0.37609651475E+02  0.20074860997E+03  0.17120000000E+03 0.  0.
        998    1    1    2    0    0  0.26683670304E+02  0.11798954451E+02  0.11454465907E+04  0.11458617394E+04  0.10000000000E+02 0.  1.
</event>
<event>
 5    1  0.1800099E-008  0.3835433E+03  0.7957747E-01  0.3435874E+00
         13   -1    0    0    0    0  0.00000000000E+00  0.00000000000E+00  0.14999999963E+04  0.15000000000E+04  0.10566000000E+00 0.  1.
        994   -1    0    0    0    0 -0.00000000000E+00 -0.00000000000E+00  0.11368683772E-12  0.17120000000E+03  0.17120000000E+03 0.  0.
         13    1    1    2    0    0 -0.32579960123E+01 -0.12321743656E+02  0.35392355479E+02  0.37617414785E+02  0.10566000000E+00 0.  1.
        994    1    1    2    0    0  0.22996498659E+01 -0.34642606455E+01  0.24122498275E+01  0.17126747631E+03  0.17120000000E+03 0.  0.
        998    1    1    2    0    0  0.95834614645E+00  0.15786004302E+02  0.14621953910E+04  0.14623151089E+04  0.10000000000E+02 0.  1.
</event>
<event>
 5    1  0.1800099E-008  0.3775288E+03  0.7957747E-01  0.3461990E+00
         13   -1    0    0    0    0  0.00000000000E+00  0.00000000000E+00  0.14999999963E+04  0.15000000000E+04  0.10566000000E+00 0. -1.
        994   -1    0    0    0    0 -0.00000000000E+00 -0.00000000000E+00  0.11368683772E-12  0.17120000000E+03  0.17120000000E+03 0.  0.
         13    1    1    2    0    0 -0.63469970511E+02  0.11192401666E+03  0.45015604590E+03  0.46818361727E+03  0.10566000000E+00 0. -1.
        994    1    1    2    0    0  0.81125085263E+02 -0.74641683481E+02  0.60021756519E+02  0.21228450633E+03  0.17120000000E+03 0.  0.
        998    1    1    2    0    0 -0.17655114752E+02 -0.37282333183E+02  0.98982219386E+03  0.99073187640E+03  0.10000000000E+02 0. -1.
</event>
<event>
 5    1  0.1800099E-008  0.3809486E+03  0.7957747E-01  0.3447038E+00
         13   -1    0    0    0    0  0.00000000000E+00  0.00000000000E+00  0.14999999963E+04  0.15000000000E+04  0.10566000000E+00 0.  1.
        994   -1    0    0    0    0 -0.00000000000E+00 -0.00000000000E+00  0.11368683772E-12  0.17120000000E+03  0.17120000000E+03 0.  0.
         13    1    1    2    0    0 -0.20783058687E+02  0.11797109256E+02  0.78952255921E+02  0.82489861161E+02  0.10566000000E+00 0.  1.
        994    1    1    2    0    0  0.11690388304E+02  0.13829696044E+01  0.41169836549E+01  0.17165362606E+03  0.17120000000E+03 0.  0.
        998    1    1    2    0    0  0.90926703831E+01 -0.13180078860E+02  0.14169307567E+04  0.14170565128E+04  0.10000000000E+02 0.  1.
</event>
<event>
 5    1  0.1800099E-008  0.4120893E+03  0.7957747E-01  0.3322326E+00
         13   -1    0    0    0    0  0.00000000000E+00  0.00000000000E+00  0.14999999963E+04  0.15000000000E+04  0.10566000000E+00 0. -1.
        994   -1    0    0    0    0 -0.00000000000E+00 -0.00000000000E+00  0.11368683772E-12  0.17120000000E+03  0.17120000000E+03 0.  0.
         13    1    1    2    0    0  0.83349022955E+02 -0.97117399874E+02  0.28745681096E+03  0.31465898735E+03  0.10566000000E+00 0. -1.
        994    1    1    2    0    0  0.62414058879E+02  0.87124740177E+02  0.84353734842E+02  0.21888633507E+03  0.17120000000E+03 0.  0.
        998    1    1    2    0    0 -0.14576308183E+03  0.99926596966E+01  0.11281894505E+04  0.11376546776E+04  0.10000000000E+02 0. -1.
</event>
<event>
 5    1  0.1800099E-008  0.3854988E+03  0.7957747E-01  0.3427560E+00
         13   -1    0    0    0    0  0.00000000000E+00  0.00000000000E+00  0.14999999963E+04  0.15000000000E+04  0.10566000000E+00 0.  1.
        994   -1    0    0    0    0 -0.00000000000E+00 -0.00000000000E+00  0.11368683772E-12  0.17120000000E+03  0.17120000000E+03 0.  0.
         13    1    1    2    0    0  0.10846693199E+01 -0.15021371006E+02  0.86243579815E+02  0.87548753947E+02  0.10566000000E+00 0.  1.
        994    1    1    2    0    0 -0.80344380232E+01  0.36641223673E+01  0.16387689806E+01  0.17143542093E+03  0.17120000000E+03 0.  0.
        998    1    1    2    0    0  0.69497687032E+01  0.11357248639E+02  0.14121176475E+04  0.14122158251E+04  0.10000000000E+02 0.  1.
</event>
<event>
 5    1  0.1800099E-008  0.3702690E+03  0.7957747E-01  0.3494656E+00
         13   -1    0    0    0    0  0.00000000000E+00  0.00000000000E+00  0.14999999963E+04  0.15000000000E+04  0.10566000000E+00 0. -1.
        994   -1    0    0    0    0 -0.00000000000E+00 -0.00000000000E+00  0.11368683772E-12  0.17120000000E+03  0.17120000000E+03 0.  0.
         13    1    1    2    0    0  0.29700451755E+01  0.59802756837E+02  0.21890425693E+03  0.22694553479E+03  0.10566000000E+00 0. -1.
        994    1    1    2    0    0 -0.14122440874E+02 -0.12462737163E+02  0.10354980065E+02  0.17254399081E+03  0.17120000000E+03 0.  0.
        998    1    1    2    0    0  0.11152395699E+02 -0.47340019673E+02  0.12707407593E+04  0.12717104744E+04  0.10000000000E+02 0. -1.
</event>
<event>
 5    1  0.1800099E-008  0.3814886E+03  0.7957747E-01  0.3444702E+00
         13   -1    0    0    0    0  0.00000000000E+00  0.00000000000E+00  0.14999999963E+04  0.15000000000E+04  0.10566000000E+00 0.  1.
        994   -1    0    0    0    0 -0.00000000000E+00 -0.00000000000E+00  0.11368683772E-12  0.17120000000E+03  0.17120000000E+03 0.  0.
         13    1    1    2    0    0  0.22586983833E+02  0.12375480706E+03  0.40956805493E+03  0.42845236245E+03  0.10566000000E+00 0.  1.
        994    1    1    2    0    0  0.56154265986E-01 -0.93385527605E+02  0.49658259892E+02  0.20123678266E+03  0.17120000000E+03 0.  0.
        998    1    1    2    0    0 -0.22643138099E+02 -0.30369279452E+02  0.10407736815E+04  0.10415108549E+04  0.10000000000E+02 0.  1.
</event>
<event>
 5    1  0.1800099E-008  0.3751611E+03  0.7957747E-01  0.3472503E+00
         13   -1    0    0    0    0  0.00000000000E+00  0.00000000000E+00  0.14999999963E+04  0.15000000000E+04  0.10566000000E+00 0. -1.
        994   -1    0    0    0    0 -0.00000000000E+00 -0.00000000000E+00  0.11368683772E-12  0.17120000000E+03  0.17120000000E+03 0.  0.
         13    1    1    2    0    0 -0.44715576157E+02 -0.28530012889E+03  0.28190290551E+03  0.40356524329E+03  0.10566000000E+00 0. -1.
        994    1    1    2    0    0  0.28900899139E+02  0.28071431194E+03  0.11182103928E+04  0.11659072474E+04  0.17120000000E+03 0.  0.
        998    1    1    2    0    0  0.15814677017E+02  0.45858169438E+01  0.99886697924E+02  0.10172750930E+03  0.10000000000E+02 0. -1.
</event>
<event>
 5    1  0.1800099E-008  0.3859559E+03  0.7957747E-01  0.3425628E+00
         13   -1    0    0    0    0  0.00000000000E+00  0.00000000000E+00  0.14999999963E+04  0.15000000000E+04  0.10566000000E+00 0.  1.
        994   -1    0    0    0    0 -0.00000000000E+00 -0.00000000000E+00  0.11368683772E-12  0.17120000000E+03  0.17120000000E+03 0.  0.
         13    1    1    2    0    0 -0.39542121261E+01  0.94688046548E+01  0.47325982132E+02  0.48425755585E+02  0.10566000000E+00 0.  1.
        994    1    1    2    0    0  0.14307448581E+02  0.29121010315E+01  0.18555020338E+01  0.17183150557E+03  0.17120000000E+03 0.  0.
        998    1    1    2    0    0 -0.10353236455E+02 -0.12380905686E+02  0.14508185121E+04  0.14509427388E+04  0.10000000000E+02 0.  1.
</event>
<event>
 5    1  0.1800099E-008  0.3840054E+03  0.7957747E-01  0.3433901E+00
         13   -1    0    0    0    0  0.00000000000E+00  0.00000000000E+00  0.14999999963E+04  0.15000000000E+04  0.10566000000E+00 0. -1.
        994   -1    0    0    0    0 -0.00000000000E+00 -0.00000000000E+00  0.11368683772E-12  0.17120000000E+03  0.17120000000E+03 0.  0.
         13    1    1    2    0    0  0.10878058203E+02  0.21266058518E+02  0.13299712161E+03  0.13512521199E+03  0.10566000000E+00 0. -1.
        994    1    1    2    0    0  0.41470286457E+01 -0.19685510928E+02  0.34611414765E+01  0.17241269294E+03  0.17120000000E+03 0.  0.
        998    1    1    2    0    0 -0.15025086849E+02 -0.15805475898E+01  0.13635417332E+04  0.13636620951E+04  0.10000000000E+02 0. -1.
</event>
<event>
 5    1  0.1800099E-008  0.3690005E+03  0.7957747E-01  0.3500497E+00
         13   -1    0    0    0    0  0.00000000000E+00  0.00000000000E+00  0.14999999963E+04  0.15000000000E+04  0.10566000000E+00 0. -1.
        994   -1    0    0    0    0 -0.00000000000E+00 -0.00000000000E+00  0.11368683772E-12  0.17120000000E+03  0.17120000000E+03 0.  0.
         13    1    1    2    0    0 -0.77410345475E+01  0.10868504266E+02  0.36074874250E+01  0.13822920473E+02  0.10566000000E+00 0. -1.
        994    1    1    2    0    0  0.38851295128E+01 -0.24716883705E+02  0.12595266491E+02  0.17347650939E+03  0.17120000000E+03 0.  0.
        998    1    1    2    0    0  0.38559050347E+01  0.13848379439E+02  0.14837972424E+04  0.14839005701E+04  0.10000000000E+02 0. -1.
</event>
<event>
 5    1  0.1800099E-008  0.3852461E+03  0.7957747E-01  0.3428629E+00
         13   -1    0    0    0    0  0.00000000000E+00  0.00000000000E+00  0.14999999963E+04  0.15000000000E+04  0.10566000000E+00 0. -1.
        994   -1    0    0    0    0 -0.00000000000E+00 -0.00000000000E+00  0.11368683772E-12  0.17120000000E+03  0.17120000000E+03 0.  0.
         13    1    1    2    0    0 -0.14174661531E+02 -0.12363356722E+02  0.10474288943E+03  0.10641831454E+03  0.10566000000E+00 0. -1.
        994    1    1    2    0    0  0.87030630161E+01  0.30459090656E+02  0.48125039353E+01  0.17417261468E+03  0.17120000000E+03 0.  0.
        998    1    1    2    0    0  0.54715985153E+01 -0.18095733934E+02  0.13904446029E+04  0.13906090708E+04  0.10000000000E+02 0. -1.
</event>
<event>
 5    1  0.1800099E-008  0.3767837E+03  0.7957747E-01  0.3465284E+00
         13   -1    0    0    0    0  0.00000000000E+00  0.00000000000E+00  0.14999999963E+04  0.15000000000E+04  0.10566000000E+00 0. -1.
        994   -1    0    0    0    0 -0.00000000000E+00 -0.00000000000E+00  0.11368683772E-12  0.17120000000E+03  0.17120000000E+03 0.  0.
         13    1    1    2    0    0  0.38360954926E+02 -0.58167836157E+01  0.44845929483E+02  0.59300644092E+02  0.10566000000E+00 0. -1.
        994    1    1    2    0    0 -0.37564428582E+02  0.69898319107E+01  0.19818284561E+02  0.17652803870E+03  0.17120000000E+03 0.  0.
        998    1    1    2    0    0 -0.79652634392E+00 -0.11730482950E+01  0.14353357822E+04  0.14353713172E+04  0.10000000000E+02 0. -1.
</event>
<event>
 5    1  0.3361189E-008  0.3863572E+03  0.7957747E-01  0.3423936E+00
         13   -1    0    0    0    0  0.00000000000E+00  0.00000000000E+00  0.14999999963E+04  0.15000000000E+04  0.10566000000E+00 0.  1.
        994   -1    0    0    0    0 -0.00000000000E+00 -0.00000000000E+00  0.11368683772E-12  0.17120000000E+03  0.17120000000E+03 0.  0.
         13    1    1    2    0    0 -0.75276544599E+01 -0.68156404725E+01  0.54778188210E+02  0.55711575138E+02  0.10566000000E+00 0.  1.
        994    1    1    2    0    0  0.66199738627E+01  0.31084046927E+01  0.11329341936E+01  0.17135988379E+03  0.17120000000E+03 0.  0.
        998    1    1    2    0    0  0.90768059720E+00  0.37072357798E+01  0.14440888739E+04  0.14441285411E+04  0.10000000000E+02 0.  1.
</event>
<event>
 5    1  0.1800099E-008  0.3834587E+03  0.7957747E-01  0.3436235E+00
         13   -1    0    0    0    0  0.00000000000E+00  0.00000000000E+00  0.14999999963E+04  0.15000000000E+04  0.10566000000E+00 0. -1.
        994   -1    0    0    0    0 -0.00000000000E+00 -0.00000000000E+00  0.11368683772E-12  0.17120000000E+03  0.17120000000E+03 0.  0.
         13    1    1    2    0    0  0.20190032868E+02 -0.18375485989E+02  0.16172920824E+03  0.16401720604E+03  0.10566000000E+00 0. -1.
        994    1    1    2    0    0 -0.19321110067E+00  0.16800276588E+02  0.33308407751E+01  0.17205470387E+03  0.17120000000E+03 0.  0.
        998    1    1    2    0    0 -0.19996821767E+02  0.15752094005E+01  0.13349399473E+04  0.13351280901E+04  0.10000000000E+02 0. -1.
</event>
<event>
 5    1  0.1800099E-008  0.3770685E+03  0.7957747E-01  0.3464023E+00
         13   -1    0    0    0    0  0.00000000000E+00  0.00000000000E+00  0.14999999963E+04  0.15000000000E+04  0.10566000000E+00 0.  1.
        994   -1    0    0    0    0 -0.00000000000E+00 -0.00000000000E+00  0.11368683772E-12  0.17120000000E+03  0.17120000000E+03 0.  0.
         13    1    1    2    0    0 -0.15462320841E+02 -0.13280403031E+02  0.34719272729E+02  0.40260297234E+02  0.10566000000E+00 0.  1.
        994    1    1    2    0    0  0.42060698103E+01  0.15831536713E+02  0.65266350710E+01  0.17210568132E+03  0.17120000000E+03 0.  0.
        998    1    1    2    0    0  0.11256251031E+02 -0.25511336822E+01  0.14587540885E+04  0.14588340214E+04  0.10000000000E+02 0.  1.
</event>
<event>
 5    1  0.1800099E-008  0.3832640E+03  0.7957747E-01  0.3437068E+00
         13   -1    0    0    0    0  0.00000000000E+00  0.00000000000E+00  0.14999999963E+04  0.15000000000E+04  0.10566000000E+00 0. -1.
        994   -1    0    0    0    0 -0.00000000000E+00 -0.00000000000E+00  0.11368683772E-12  0.17120000000E+03  0.17120000000E+03 0.  0.
         13    1    1    2    0    0 -0.38401517119E+01 -0.38325164000E+02  0.22006592740E+03  0.22341125425E+03  0.10566000000E+00 0. -1.
        994    1    1    2    0    0 -0.91329163265E+00  0.54806221550E+02  0.12495545407E+02  0.18019471323E+03  0.17120000000E+03 0.  0.
        998    1    1    2    0    0  0.47534433446E+01 -0.16481057551E+02  0.12674385235E+04  0.12675940325E+04  0.10000000000E+02 0. -1.
</event>
<event>
 5    1  0.1800099E-008  0.3790253E+03  0.7957747E-01  0.3455414E+00
         13   -1    0    0    0    0  0.00000000000E+00  0.00000000000E+00  0.14999999963E+04  0.15000000000E+04  0.10566000000E+00 0.  1.
        994   -1    0    0    0    0 -0.00000000000E+00 -0.00000000000E+00  0.11368683772E-12  0.17120000000E+03  0.17120000000E+03 0.  0.
         13    1    1    2    0    0 -0.17983955102E+02 -0.25075132779E+02  0.95197750583E+02  0.10007401164E+03  0.10566000000E+00 0.  1.
        994    1    1    2    0    0  0.18825277606E+02  0.25670443247E+02  0.80320140050E+01  0.17431958003E+03  0.17120000000E+03 0.  0.
        998    1    1    2    0    0 -0.84132250362E+00 -0.59531046814E+00  0.13967702317E+04  0.13968064083E+04  0.10000000000E+02 0.  1.
</event>
<event>
 5    1  0.1800099E-008  0.3707614E+03  0.7957747E-01  0.3492399E+00
         13   -1    0    0    0    0  0.00000000000E+00  0.00000000000E+00  0.14999999963E+04  0.15000000000E+04  0.10566000000E+00 0.  1.
        994   -1    0    0    0    0 -0.00000000000E+00 -0.00000000000E+00  0.11368683772E-12  0.17120000000E+03  0.17120000000E+03 0.  0.
         13    1    1    2    0    0 -0.40380098376E+02  0.70941638298E+02  0.31470275338E+03  0.32511705975E+03  0.10566000000E+00 0.  1.
        994    1    1    2    0    0  0.84220348919E+01 -0.79454349968E+02  0.31220514752E+02  0.19148912487E+03  0.17120000000E+03 0.  0.
        998    1    1    2    0    0  0.31958063484E+02  0.85127116703E+01  0.11540767281E+04  0.11545938154E+04  0.10000000000E+02 0.  1.
</event>
<event>
 5    1  0.2430574E-008  0.3864798E+03  0.7957747E-01  0.3423420E+00
         13   -1    0    0    0    0  0.00000000000E+00  0.00000000000E+00  0.14999999963E+04  0.15000000000E+04  0.10566000000E+00 0. -1.
        994   -1    0    0    0    0 -0.00000000000E+00 -0.00000000000E+00  0.11368683772E-12  0.17120000000E+03  0.17120000000E+03 0.  0.
         13    1    1    2    0    0 -0.30758144904E+01 -0.10448607759E+02  0.63659816304E+02  0.64584962761E+02  0.10566000000E+00 0. -1.
        994    1    1    2    0    0  0.53496885078E+01  0.13420245365E+02  0.15806456506E+01  0.17181577516E+03  0.17120000000E+03 0.  0.
        998    1    1    2    0    0 -0.22738740174E+01 -0.29716376066E+01  0.14347595343E+04  0.14347992621E+04  0.10000000000E+02 0. -1.
</event>
<event>
 5    1  0.1800099E-008  0.3805446E+03  0.7957747E-01  0.3448791E+00
         13   -1    0    0    0    0  0.00000000000E+00  0.00000000000E+00  0.14999999963E+04  0.15000000000E+04  0.10566000000E+00 0.  1.
        994   -1    0    0    0    0 -0.00000000000E+00 -0.00000000000E+00  0.11368683772E-12  0.17120000000E+03  0.17120000000E+03 0.  0.
         13    1    1    2    0    0  0.47303771764E+01 -0.21860262726E+02  0.71344531758E+02  0.74768315017E+02  0.10566000000E+00 0.  1.
        994    1    1    2    0    0 -0.75125502251E+00 -0.11845148363E+02  0.43286947885E+01  0.17166551640E+03  0.17120000000E+03 0.  0.
        998    1    1    2    0    0 -0.39791221539E+01  0.33705411089E+02  0.14243267697E+04  0.14247661686E+04  0.10000000000E+02 0.  1.
</event>
<event>
 5    1  0.1800099E-008  0.3835723E+03  0.7957747E-01  0.3435750E+00
         13   -1    0    0    0    0  0.00000000000E+00  0.00000000000E+00  0.14999999963E+04  0.15000000000E+04  0.10566000000E+00 0. -1.
        994   -1    0    0    0    0 -0.00000000000E+00 -0.00000000000E+00  0.11368683772E-12  0.17120000000E+03  0.17120000000E+03 0.  0.
         13    1    1    2    0    0 -0.13052027132E+02 -0.66701083664E+01  0.46115378755E+02  0.48388894176E+02  0.10566000000E+00 0. -1.
        994    1    1    2    0    0  0.38356031810E+01  0.50277071538E+01  0.24727478801E+01  0.17133459713E+03  0.17120000000E+03 0.  0.
        998    1    1    2    0    0  0.92164239509E+01  0.16424012126E+01  0.14514118696E+04  0.14514765087E+04  0.10000000000E+02 0. -1.
</event>
<event>
 5    1  0.1800099E-008  0.3844528E+03  0.7957747E-01  0.3431996E+00
         13   -1    0    0    0    0  0.00000000000E+00  0.00000000000E+00  0.14999999963E+04  0.15000000000E+04  0.10566000000E+00 0.  1.
        994   -1    0    0    0    0 -0.00000000000E+00 -0.00000000000E+00  0.11368683772E-12  0.17120000000E+03  0.17120000000E+03 0.  0.
         13    1    1    2    0    0 -0.99596536618E+01 -0.29975217915E+01  0.27844154604E+02  0.29723525154E+02  0.10566000000E+00 0.  1.
        994    1    1    2    0    0  0.70794783202E+01  0.53500423523E+01  0.21615271286E+01  0.17144344305E+03  0.17120000000E+03 0.  0.
        998    1    1    2    0    0  0.28801753415E+01 -0.23525205608E+01  0.14699943145E+04  0.14700330318E+04  0.10000000000E+02 0.  1.
</event>
<event>
 5    1  0.1800099E-008  0.3823307E+03  0.7957747E-01  0.3441073E+00
         13   -1    0    0    0    0  0.00000000000E+00  0.00000000000E+00  0.14999999963E+04  0.15000000000E+04  0.10566000000E+00 0. -1.
        994   -1    0    0    0    0 -0.00000000000E+00 -0.00000000000E+00  0.11368683772E-12  0.17120000000E+03  0.17120000000E+03 0.  0.
         13    1    1    2    0    0 -0.26949901463E+02 -0.43893613868E+01  0.10624836614E+03  0.10970091228E+03  0.10566000000E+00 0. -1.
        994    1    1    2    0    0  0.43284993815E+02  0.55639415469E+01  0.93052037715E+01  0.17691968503E+03  0.17120000000E+03 0.  0.
        998    1    1    2    0    0 -0.16335092352E+02 -0.11745801602E+01  0.13844464264E+04  0.13845794027E+04  0.10000000000E+02 0. -1.
</event>
<event>
 5    1  0.1800099E-008  0.4034722E+03  0.7957747E-01  0.3354918E+00
         13   -1    0    0    0    0  0.00000000000E+00  0.00000000000E+00  0.14999999963E+04  0.15000000000E+04  0.10566000000E+00 0. -1.
        994   -1    0    0    0    0 -0.00000000000E+00 -0.00000000000E+00  0.11368683772E-12  0.17120000000E+03  0.17120000000E+03 0.  0.
         13    1    1    2    0    0  0.30733846103E+01 -0.88975135956E+02  0.11521002015E+03  0.14560007012E+03  0.10566000000E+00 0. -1.
        994    1    1    2    0    0 -0.45765028376E+01  0.86803721001E+02  0.60557126176E+02  0.20132668946E+03  0.17120000000E+03 0.  0.
        998    1    1    2    0    0  0.15031182273E+01  0.21714149553E+01  0.13242328500E+04  0.13242732404E+04  0.10000000000E+02 0. -1.
</event>
<event>
 5    1  0.1800099E-008  0.3856120E+03  0.7957747E-01  0.3427081E+00
         13   -1    0    0    0    0  0.00000000000E+00  0.00000000000E+00  0.14999999963E+04  0.15000000000E+04  0.10566000000E+00 0.  1.
        994   -1    0    0    0    0 -0.00000000000E+00 -0.00000000000E+00  0.11368683772E-12  0.17120000000E+03  0.17120000000E+03 0.  0.
         13    1    1    2    0    0  0.13684090692E+01  0.13901544682E+02  0.76045224175E+02  0.77317609713E+02  0.10566000000E+00 0.  1.
        994    1    1    2    0    0  0.24228928357E+01 -0.58952485905E+01  0.14599388042E+01  0.17132482537E+03  0.17120000000E+03 0.  0.
        998    1    1    2    0    0 -0.37913019049E+01 -0.80062960911E+01  0.14224948333E+04  0.14225575649E+04  0.10000000000E+02 0.  1.
</event>
<event>
 5    1  0.1800099E-008  0.3730783E+03  0.7957747E-01  0.3481862E+00
         13   -1    0    0    0    0  0.00000000000E+00  0.00000000000E+00  0.14999999963E+04  0.15000000000E+04  0.10566000000E+00 0.  1.
        994   -1    0    0    0    0 -0.00000000000E+00 -0.00000000000E+00  0.11368683772E-12  0.17120000000E+03  0.17120000000E+03 0.  0.
         13    1    1    2    0    0  0.70716321554E+02  0.17459854807E+02  0.29474105007E+03  0.30360820547E+03  0.10566000000E+00 0.  1.
        994    1    1    2    0    0 -0.59923116195E+02 -0.24434475496E+02  0.22135491429E+02  0.18435629479E+03  0.17120000000E+03 0.  0.
        998    1    1    2    0    0 -0.10793205359E+02  0.69746206886E+01  0.11831234548E+04  0.11832354997E+04  0.10000000000E+02 0.  1.
</event>
<event>
 5    1  0.1800099E-008  0.3814546E+03  0.7957747E-01  0.3444849E+00
         13   -1    0    0    0    0  0.00000000000E+00  0.00000000000E+00  0.14999999963E+04  0.15000000000E+04  0.10566000000E+00 0. -1.
        994   -1    0    0    0    0 -0.00000000000E+00 -0.00000000000E+00  0.11368683772E-12  0.17120000000E+03  0.17120000000E+03 0.  0.
         13    1    1    2    0    0  0.21541772561E+02 -0.17330871439E+02  0.10889076500E+03  0.11234596983E+03  0.10566000000E+00 0. -1.
        994    1    1    2    0    0 -0.15897595106E+02  0.12897987375E+02  0.47961765160E+01  0.17248633255E+03  0.17120000000E+03 0.  0.
        998    1    1    2    0    0 -0.56441774546E+01  0.44328840637E+01  0.13863130548E+04  0.13863676976E+04  0.10000000000E+02 0. -1.
</event>
<event>
 5    1  0.1800099E-008  0.3831389E+03  0.7957747E-01  0.3437604E+00
         13   -1    0    0    0    0  0.00000000000E+00  0.00000000000E+00  0.14999999963E+04  0.15000000000E+04  0.10566000000E+00 0.  1.
        994   -1    0    0    0    0 -0.00000000000E+00 -0.00000000000E+00  0.11368683772E-12  0.17120000000E+03  0.17120000000E+03 0.  0.
         13    1    1    2    0    0 -0.61755717168E+01 -0.11926438116E+02  0.33233879132E+02  0.35845215836E+02  0.10566000000E+00 0.  1.
        994    1    1    2    0    0  0.14650928958E+02  0.13300163447E+02  0.38535174643E+01  0.17238281139E+03  0.17120000000E+03 0.  0.
        998    1    1    2    0    0 -0.84753572413E+01 -0.13737253308E+01  0.14629125997E+04  0.14629719728E+04  0.10000000000E+02 0.  1.
</event>
<event>
 5    1  0.1800099E-008  0.3746348E+03  0.7957747E-01  0.3474858E+00
         13   -1    0    0    0    0  0.00000000000E+00  0.00000000000E+00  0.14999999963E+04  0.15000000000E+04  0.10566000000E+00 0.  1.
        994   -1    0    0    0    0 -0.00000000000E+00 -0.00000000000E+00  0.11368683772E-12  0.17120000000E+03  0.17120000000E+03 0.  0.
         13    1    1    2    0    0 -0.99302740584E+01  0.10281403206E+02  0.11932601340E+02  0.18620304335E+02  0.10566000000E+00 0.  1.
        994    1    1    2    0    0  0.97860422584E+01  0.71950307175E+00  0.71941445871E+01  0.17163181530E+03  0.17120000000E+03 0.  0.
        998    1    1    2    0    0  0.14423180006E+00 -0.11000906278E+02  0.14808732504E+04  0.14809478804E+04  0.10000000000E+02 0.  1.
</event>
<event>
 5    1  0.1800099E-008  0.3807665E+03  0.7957747E-01  0.3447828E+00
         13   -1    0    0    0    0  0.00000000000E+00  0.00000000000E+00  0.14999999963E+04  0.15000000000E+04  0.10566000000E+00 0. -1.
        994   -1    0    0    0    0 -0.00000000000E+00 -0.00000000000E+00  0.11368683772E-12  0.17120000000E+03  0.17120000000E+03 0.  0.
         13    1    1    2    0    0 -0.91333615846E+01  0.87730267940E+01  0.19628283397E+02  0.23359472728E+02  0.10566000000E+00 0. -1.
        994    1    1    2    0    0  0.94810908090E+01 -0.91678308342E+01  0.43269138421E+01  0.17176176055E+03  0.17120000000E+03 0.  0.
        998    1    1    2    0    0 -0.34772922443E+00  0.39480404019E+00  0.14760447990E+04  0.14760787667E+04  0.10000000000E+02 0. -1.
</event>
<event>
 5    1  0.1800099E-008  0.3811852E+03  0.7957747E-01  0.3446014E+00
         13   -1    0    0    0    0  0.00000000000E+00  0.00000000000E+00  0.14999999963E+04  0.15000000000E+04  0.10566000000E+00 0.  1.
        994   -1    0    0    0    0 -0.00000000000E+00 -0.00000000000E+00  0.11368683772E-12  0.17120000000E+03  0.17120000000E+03 0.  0.
         13    1    1    2    0    0  0.15307699175E+02 -0.47581838965E+01  0.36144906310E+02  0.39540250179E+02  0.10566000000E+00 0.  1.
        994    1    1    2    0    0 -0.27234453845E+01 -0.32287759721E+01  0.35954844943E+01  0.17128984108E+03  0.17120000000E+03 0.  0.
        998    1    1    2    0    0 -0.12584253790E+02  0.79869598686E+01  0.14602596055E+04  0.14603699087E+04  0.10000000000E+02 0.  1.
</event>
<event>
 5    1  0.1800099E-008  0.3778826E+03  0.7957747E-01  0.3460430E+00
         13   -1    0    0    0    0  0.00000000000E+00  0.00000000000E+00  0.14999999963E+04  0.15000000000E+04  0.10566000000E+00 0.  1.
        994   -1    0    0    0    0 -0.00000000000E+00 -0.00000000000E+00  0.11368683772E-12  0.17120000000E+03  0.17120000000E+03 0.  0.
         13    1    1    2    0    0  0.16527111303E+02 -0.10105107791E+02  0.56044982007E+01  0.20166312890E+02  0.10566000000E+00 0.  1.
        994    1    1    2    0    0 -0.14409037819E+02  0.80064183960E+01  0.16146659487E+02  0.17274801799E+03  0.17120000000E+03 0.  0.
        998    1    1    2    0    0 -0.21180734832E+01  0.20986893947E+01  0.14782488386E+04  0.14782856691E+04  0.10000000000E+02 0.  1.
</event>
<event>
 5    1  0.1800099E-008  0.3743670E+03  0.7957747E-01  0.3476059E+00
         13   -1    0    0    0    0  0.00000000000E+00  0.00000000000E+00  0.14999999963E+04  0.15000000000E+04  0.10566000000E+00 0.  1.
        994   -1    0    0    0    0 -0.00000000000E+00 -0.00000000000E+00  0.11368683772E-12  0.17120000000E+03  0.17120000000E+03 0.  0.
         13    1    1    2    0    0  0.83529943814E+01  0.31816343151E+02  0.73011204400E+02  0.80079331532E+02  0.10566000000E+00 0.  1.
        994    1    1    2    0    0 -0.45900285725E+01 -0.26706643122E+02  0.95096105879E+01  0.17359200973E+03  0.17120000000E+03 0.  0.
        998    1    1    2    0    0 -0.37629658088E+01 -0.51097000298E+01  0.14174791813E+04  0.14175286587E+04  0.10000000000E+02 0.  1.
</event>
<event>
 5    1  0.1800099E-008  0.3842042E+03  0.7957747E-01  0.3433054E+00
         13   -1    0    0    0    0  0.00000000000E+00  0.00000000000E+00  0.14999999963E+04  0.15000000000E+04  0.10566000000E+00 0.  1.
        994   -1    0    0    0    0 -0.00000000000E+00 -0.00000000000E+00  0.11368683772E-12  0.17120000000E+03  0.17120000000E+03 0.  0.
         13    1    1    2    0    0  0.64845912037E+01 -0.93811141715E+01  0.31958556818E+02  0.33932517503E+02  0.10566000000E+00 0.  1.
        994    1    1    2    0    0  0.17771405759E+01  0.72980629404E+01  0.22118006030E+01  0.17137897191E+03  0.17120000000E+03 0.  0.
        998    1    1    2    0    0 -0.82617317795E+01  0.20830512311E+01  0.14658296389E+04  0.14658885106E+04  0.10000000000E+02 0.  1.
</event>
<event>
 5    1  0.1800099E-008  0.3805173E+03  0.7957747E-01  0.3448909E+00
         13   -1    0    0    0    0  0.00000000000E+00  0.00000000000E+00  0.14999999963E+04  0.15000000000E+04  0.10566000000E+00 0. -1.
        994   -1    0    0    0    0 -0.00000000000E+00 -0.00000000000E+00  0.11368683772E-12  0.17120000000E+03  0.17120000000E+03 0.  0.
         13    1    1    2    0    0 -0.21271745406E+02  0.55269799208E+01  0.64169875855E+02  0.67829335770E+02  0.10566000000E+00 0. -1.
        994    1    1    2    0    0  0.17389551520E+01 -0.22790211104E+01  0.38996710232E+01  0.17126840145E+03  0.17120000000E+03 0.  0.
        998    1    1    2    0    0  0.19532790254E+02 -0.32479588103E+01  0.14319304494E+04  0.14321022628E+04  0.10000000000E+02 0. -1.
</event>
<event>
 5    1  0.1800099E-008  0.3886922E+03  0.7957747E-01  0.3414163E+00
         13   -1    0    0    0    0  0.00000000000E+00  0.00000000000E+00  0.14999999963E+04  0.15000000000E+04  0.10566000000E+00 0. -1.
        994   -1    0    0    0    0 -0.00000000000E+00 -0.00000000000E+00  0.11368683772E-12  0.17120000000E+03  0.17120000000E+03 0.  0.
         13    1    1    2    0    0 -0.93295119201E+02  0.10249031160E+03  0.41946365323E+03  0.44176691907E+03  0.10566000000E+00 0. -1.
        994    1    1    2    0    0  0.14230976907E+03 -0.77421111795E+01  0.10191768850E+03  0.24496666281E+03  0.17120000000E+03 0.  0.
        998    1    1    2    0    0 -0.49014649869E+02 -0.94748200424E+02  0.97861865454E+03  0.98446641812E+03  0.10000000000E+02 0. -1.
</event>
<event>
 5    1  0.1800099E-008  0.3743890E+03  0.7957747E-01  0.3475960E+00
         13   -1    0    0    0    0  0.00000000000E+00  0.00000000000E+00  0.14999999963E+04  0.15000000000E+04  0.10566000000E+00 0. -1.
        994   -1    0    0    0    0 -0.00000000000E+00 -0.00000000000E+00  0.11368683772E-12  0.17120000000E+03  0.17120000000E+03 0.  0.
         13    1    1    2    0    0 -0.30934883698E+02  0.85642636889E+00  0.66648470004E+02  0.73482856595E+02  0.10566000000E+00 0. -1.
        994    1    1    2    0    0  0.16605463850E+02  0.75376397768E+01  0.81264053557E+01  0.17236019235E+03  0.17120000000E+03 0.  0.
        998    1    1    2    0    0  0.14329419848E+02 -0.83940661457E+01  0.14252251209E+04  0.14253569511E+04  0.10000000000E+02 0. -1.
</event>
<event>
 5    1  0.1800099E-008  0.3780886E+03  0.7957747E-01  0.3459524E+00
         13   -1    0    0    0    0  0.00000000000E+00  0.00000000000E+00  0.14999999963E+04  0.15000000000E+04  0.10566000000E+00 0.  1.
        994   -1    0    0    0    0 -0.00000000000E+00 -0.00000000000E+00  0.11368683772E-12  0.17120000000E+03  0.17120000000E+03 0.  0.
         13    1    1    2    0    0  0.14636941397E+02 -0.59253876934E+01  0.24183971864E+02  0.28882969583E+02  0.10566000000E+00 0.  1.
        994    1    1    2    0    0  0.11211441388E+02 -0.24508485512E+02  0.75485903533E+01  0.17347271686E+03  0.17120000000E+03 0.  0.
        998    1    1    2    0    0 -0.25848382784E+02  0.30433873206E+02  0.14682674341E+04  0.14688443136E+04  0.10000000000E+02 0.  1.
</event>
<event>
 5    1  0.1800099E-008  0.3839104E+03  0.7957747E-01  0.3434307E+00
         13   -1    0    0    0    0  0.00000000000E+00  0.00000000000E+00  0.14999999963E+04  0.15000000000E+04  0.10566000000E+00 0.  1.
        994   -1    0    0    0    0 -0.00000000000E+00 -0.00000000000E+00  0.11368683772E-12  0.17120000000E+03  0.17120000000E+03 0.  0.
         13    1    1    2    0    0 -0.21913640151E+02  0.56635343749E+01  0.13583749279E+03  0.13771027143E+03  0.10566000000E+00 0.  1.
        994    1    1    2    0    0 -0.36263728179E+01  0.48927896861E+00  0.22162682377E+01  0.17125344323E+03  0.17120000000E+03 0.  0.
        998    1    1    2    0    0  0.25540012968E+02 -0.61528133435E+01  0.13619462352E+04  0.13622362853E+04  0.10000000000E+02 0.  1.
</event>
<event>
 5    1  0.1800099E-008  0.3964451E+03  0.7957747E-01  0.3382537E+00
         13   -1    0    0    0    0  0.00000000000E+00  0.00000000000E+00  0.14999999963E+04  0.15000000000E+04  0.10566000000E+00 0. -1.
        994   -1    0    0    0    0 -0.00000000000E+00 -0.00000000000E+00  0.11368683772E-12  0.17120000000E+03  0.17120000000E+03 0.  0.
         13    1    1    2    0    0  0.38141321642E+02  0.62087451987E+02  0.79513799009E+02  0.10785206307E+03  0.10566000000E+00 0. -1.
        994    1    1    2    0    0 -0.65544826287E+02 -0.91810442389E+02  0.76675918204E+02  0.21889248049E+03  0.17120000000E+03 0.  0.
        998    1    1    2    0    0  0.27403504646E+02  0.29722990402E+02  0.13438102791E+04  0.13444554564E+04  0.10000000000E+02 0. -1.
</event>
<event>
 5    1  0.1800099E-008  0.3832526E+03  0.7957747E-01  0.3437117E+00
         13   -1    0    0    0    0  0.00000000000E+00  0.00000000000E+00  0.14999999963E+04  0.15000000000E+04  0.10566000000E+00 0. -1.
        994   -1    0    0    0    0 -0.00000000000E+00 -0.00000000000E+00  0.11368683772E-12  0.17120000000E+03  0.17120000000E+03 0.  0.
         13    1    1    2    0    0 -0.10736299024E+02  0.21228228624E+02  0.10678898102E+03  0.10940659687E+03  0.10566000000E+00 0. -1.
        994    1    1    2    0    0  0.17256186294E+02 -0.16614788173E+02  0.44003495831E+01  0.17292376999E+03  0.17120000000E+03 0.  0.
        998    1    1    2    0    0 -0.65198872706E+01 -0.46134404514E+01  0.13888106657E+04  0.13888696331E+04  0.10000000000E+02 0. -1.
</event>
<event>
 5    1  0.1800099E-008  0.3845016E+03  0.7957747E-01  0.3431789E+00
         13   -1    0    0    0    0  0.00000000000E+00  0.00000000000E+00  0.14999999963E+04  0.15000000000E+04  0.10566000000E+00 0. -1.
        994   -1    0    0    0    0 -0.00000000000E+00 -0.00000000000E+00  0.11368683772E-12  0.17120000000E+03  0.17120000000E+03 0.  0.
         13    1    1    2    0    0  0.79078520947E+01  0.92488835378E+01  0.41760277062E+02  0.43497216874E+02  0.10566000000E+00 0. -1.
        994    1    1    2    0    0 -0.10179208157E+01  0.79578352500E+01  0.20898425874E+01  0.17140061478E+03  0.17120000000E+03 0.  0.
        998    1    1    2    0    0 -0.68899312789E+01 -0.17206718788E+02  0.14561498766E+04  0.14563021683E+04  0.10000000000E+02 0. -1.
</event>
<event>
 5    1  0.1800099E-008  0.3782156E+03  0.7957747E-01  0.3458965E+00
         13   -1    0    0    0    0  0.00000000000E+00  0.00000000000E+00  0.14999999963E+04  0.15000000000E+04  0.10566000000E+00 0.  1.
        994   -1    0    0    0    0 -0.00000000000E+00 -0.00000000000E+00  0.11368683772E-12  0.17120000000E+03  0.17120000000E+03 0.  0.
         13    1    1    2    0    0  0.25607139875E+02 -0.54159000509E+02  0.30930242084E+03  0.31505066521E+03  0.10566000000E+00 0.  1.
        994    1    1    2    0    0 -0.13707582258E+02  0.49069359187E+02  0.13815469587E+02  0.17915358501E+03  0.17120000000E+03 0.  0.
        998    1    1    2    0    0 -0.11899557617E+02  0.50896413222E+01  0.11768821059E+04  0.11769957498E+04  0.10000000000E+02 0.  1.
</event>
<event>
 5    1  0.1800099E-008  0.3816701E+03  0.7957747E-01  0.3443919E+00
         13   -1    0    0    0    0  0.00000000000E+00  0.00000000000E+00  0.14999999963E+04  0.15000000000E+04  0.10566000000E+00 0. -1.
        994   -1    0    0    0    0 -0.00000000000E+00 -0.00000000000E+00  0.11368683772E-12  0.17120000000E+03  0.17120000000E+03 0.  0.
         13    1    1    2    0    0 -0.40009563507E+02  0.42406608990E+02  0.34298765043E+03  0.34790749513E+03  0.10566000000E+00 0. -1.
        994    1    1    2    0    0  0.66530706567E+02 -0.37889400986E+02  0.23032399042E+02  0.18894939277E+03  0.17120000000E+03 0.  0.
        998    1    1    2    0    0 -0.26521143060E+02 -0.45172080041E+01  0.11339799468E+04  0.11343431121E+04  0.10000000000E+02 0. -1.
</event>
<event>
 5    1  0.1800099E-008  0.3852820E+03  0.7957747E-01  0.3428477E+00
         13   -1    0    0    0    0  0.00000000000E+00  0.00000000000E+00  0.14999999963E+04  0.15000000000E+04  0.10566000000E+00 0.  1.
        994   -1    0    0    0    0 -0.00000000000E+00 -0.00000000000E+00  0.11368683772E-12  0.17120000000E+03  0.17120000000E+03 0.  0.
         13    1    1    2    0    0  0.11406957202E+02 -0.67463481746E+00  0.44239061991E+02  0.45691132342E+02  0.10566000000E+00 0.  1.
        994    1    1    2    0    0 -0.63352972739E+01 -0.35849812185E+01  0.16643022149E+01  0.17136276720E+03  0.17120000000E+03 0.  0.
        998    1    1    2    0    0 -0.50716599280E+01  0.42596160360E+01  0.14540966321E+04  0.14541461005E+04  0.10000000000E+02 0.  1.
</event>
<event>
 5    1  0.1800099E-008  0.3744344E+03  0.7957747E-01  0.3475756E+00
         13   -1    0    0    0    0  0.00000000000E+00  0.00000000000E+00  0.14999999963E+04  0.15000000000E+04  0.10566000000E+00 0. -1.
        994   -1    0    0    0    0 -0.00000000000E+00 -0.00000000000E+00  0.11368683772E-12  0.17120000000E+03  0.17120000000E+03 0.  0.
         13    1    1    2    0    0  0.22467557076E+02  0.13523823422E+00  0.36104843859E+02  0.42525055255E+02  0.10566000000E+00 0. -1.
        994    1    1    2    0    0  0.13034276737E+02 -0.23629306698E+01  0.75672803339E+01  0.17187838591E+03  0.17120000000E+03 0.  0.
        998    1    1    2    0    0 -0.35501833813E+02  0.22276924356E+01  0.14563278721E+04  0.14567965588E+04  0.10000000000E+02 0. -1.
</event>
<event>
 5    1  0.1800099E-008  0.3712359E+03  0.7957747E-01  0.3490230E+00
         13   -1    0    0    0    0  0.00000000000E+00  0.00000000000E+00  0.14999999963E+04  0.15000000000E+04  0.10566000000E+00 0. -1.
        994   -1    0    0    0    0 -0.00000000000E+00 -0.00000000000E+00  0.11368683772E-12  0.17120000000E+03  0.17120000000E+03 0.  0.
         13    1    1    2    0    0 -0.83599761946E+02  0.90169421958E+02  0.62607011252E+03  0.63803075303E+03  0.10566000000E+00 0. -1.
        994    1    1    2    0    0  0.67736527917E+02 -0.77914037556E+02  0.46268681868E+02  0.20520493509E+03  0.17120000000E+03 0.  0.
        998    1    1    2    0    0  0.15863234028E+02 -0.12255384402E+02  0.82766120189E+03  0.82796431188E+03  0.10000000000E+02 0. -1.
</event>
<event>
 5    1  0.1800099E-008  0.3845662E+03  0.7957747E-01  0.3431514E+00
         13   -1    0    0    0    0  0.00000000000E+00  0.00000000000E+00  0.14999999963E+04  0.15000000000E+04  0.10566000000E+00 0.  1.
        994   -1    0    0    0    0 -0.00000000000E+00 -0.00000000000E+00  0.11368683772E-12  0.17120000000E+03  0.17120000000E+03 0.  0.
         13    1    1    2    0    0 -0.16403882057E+02  0.33054395133E+01  0.75879379435E+02  0.77702668322E+02  0.10566000000E+00 0.  1.
        994    1    1    2    0    0  0.12508315390E+02  0.85458134871E+01  0.26018177820E+01  0.17188862190E+03  0.17120000000E+03 0.  0.
        998    1    1    2    0    0  0.38955666680E+01 -0.11851253000E+02  0.14215187991E+04  0.14216087098E+04  0.10000000000E+02 0.  1.
</event>
<event>
 5    1  0.1800099E-008  0.3819271E+03  0.7957747E-01  0.3442810E+00
         13   -1    0    0    0    0  0.00000000000E+00  0.00000000000E+00  0.14999999963E+04  0.15000000000E+04  0.10566000000E+00 0. -1.
        994   -1    0    0    0    0 -0.00000000000E+00 -0.00000000000E+00  0.11368683772E-12  0.17120000000E+03  0.17120000000E+03 0.  0.
         13    1    1    2    0    0  0.22851040456E+02  0.46421007396E+00  0.84064035791E+02  0.87115778240E+02  0.10566000000E+00 0. -1.
        994    1    1    2    0    0 -0.84757405696E+01 -0.69607443274E+01  0.35631880986E+01  0.17158795543E+03  0.17120000000E+03 0.  0.
        998    1    1    2    0    0 -0.14375299887E+02  0.64965342534E+01  0.14123727724E+04  0.14124962663E+04  0.10000000000E+02 0. -1.
</event>
<event>
 5    1  0.1800099E-008  0.3764254E+03  0.7957747E-01  0.3466872E+00
         13   -1    0    0    0    0  0.00000000000E+00  0.00000000000E+00  0.14999999963E+04  0.15000000000E+04  0.10566000000E+00 0. -1.
        994   -1    0    0    0    0 -0.00000000000E+00 -0.00000000000E+00  0.11368683772E-12  0.17120000000E+03  0.17120000000E+03 0.  0.
         13    1    1    2    0    0  0.17882193669E+02 -0.88882655357E+01  0.33325267009E+02  0.38850465891E+02  0.10566000000E+00 0. -1.
        994    1    1    2    0    0  0.61928442535E+01 -0.12199565210E+02  0.65820379312E+01  0.17187188233E+03  0.17120000000E+03 0.  0.
        998    1    1    2    0    0 -0.24075037923E+02  0.21087830745E+02  0.14600926913E+04  0.14604776518E+04  0.10000000000E+02 0. -1.
</event>
<event>
 5    1  0.1800099E-008  0.3784775E+03  0.7957747E-01  0.3457815E+00
         13   -1    0    0    0    0  0.00000000000E+00  0.00000000000E+00  0.14999999963E+04  0.15000000000E+04  0.10566000000E+00 0. -1.
        994   -1    0    0    0    0 -0.00000000000E+00 -0.00000000000E+00  0.11368683772E-12  0.17120000000E+03  0.17120000000E+03 0.  0.
         13    1    1    2    0    0  0.32621172735E+02  0.81761640751E+01  0.10605940859E+03  0.11126365033E+03  0.10566000000E+00 0. -1.
        994    1    1    2    0    0 -0.36445255912E+02  0.37215110619E+01  0.94261508927E+01  0.17532940040E+03  0.17120000000E+03 0.  0.
        998    1    1    2    0    0  0.38240831766E+01 -0.11897675137E+02  0.13845144368E+04  0.13846069493E+04  0.10000000000E+02 0. -1.
</event>
<event>
 5    1  0.1800099E-008  0.3833753E+03  0.7957747E-01  0.3436592E+00
         13   -1    0    0    0    0  0.00000000000E+00  0.00000000000E+00  0.14999999963E+04  0.15000000000E+04  0.10566000000E+00 0. -1.
        994   -1    0    0    0    0 -0.00000000000E+00 -0.00000000000E+00  0.11368683772E-12  0.17120000000E+03  0.17120000000E+03 0.  0.
         13    1    1    2    0    0  0.21009335939E+02  0.99211391180E+01  0.12438045660E+03  0.12653193410E+03  0.10566000000E+00 0. -1.
        994    1    1    2    0    0  0.34087142594E+01 -0.21375452983E+01  0.24924408706E+01  0.17126541009E+03  0.17120000000E+03 0.  0.
        998    1    1    2    0    0 -0.24418050198E+02 -0.77835938198E+01  0.13731270988E+04  0.13734026558E+04  0.10000000000E+02 0. -1.
</event>
<event>
 5    1  0.1800099E-008  0.3702629E+03  0.7957747E-01  0.3494683E+00
         13   -1    0    0    0    0  0.00000000000E+00  0.00000000000E+00  0.14999999963E+04  0.15000000000E+04  0.10566000000E+00 0. -1.
        994   -1    0    0    0    0 -0.00000000000E+00 -0.00000000000E+00  0.11368683772E-12  0.17120000000E+03  0.17120000000E+03 0.  0.
         13    1    1    2    0    0 -0.81233877821E+02  0.47101784192E+02  0.36458498883E+03  0.37648339435E+03  0.10566000000E+00 0. -1.
        994    1    1    2    0    0  0.70999588261E+02 -0.61790381161E+02  0.40389024128E+02  0.19949863661E+03  0.17120000000E+03 0.  0.
        998    1    1    2    0    0  0.10234289560E+02  0.14688596969E+02  0.10950259833E+04  0.10952179690E+04  0.10000000000E+02 0. -1.
</event>
<event>
 5    1  0.1800099E-008  0.3800422E+03  0.7957747E-01  0.3450975E+00
         13   -1    0    0    0    0  0.00000000000E+00  0.00000000000E+00  0.14999999963E+04  0.15000000000E+04  0.10566000000E+00 0. -1.
        994   -1    0    0    0    0 -0.00000000000E+00 -0.00000000000E+00  0.11368683772E-12  0.17120000000E+03  0.17120000000E+03 0.  0.
         13    1    1    2    0    0 -0.13025592327E+02  0.78620245093E+01 -0.35814693608E+00  0.15218965737E+02  0.10566000000E+00 0. -1.
        994    1    1    2    0    0  0.11724966846E+02 -0.17713626013E+01  0.16860316772E+02  0.17243643134E+03  0.17120000000E+03 0.  0.
        998    1    1    2    0    0  0.13006254810E+01 -0.60906619080E+01  0.14834978264E+04  0.14835446029E+04  0.10000000000E+02 0. -1.
</event>
<event>
 5    1  0.1800099E-008  0.3704328E+03  0.7957747E-01  0.3493904E+00
         13   -1    0    0    0    0  0.00000000000E+00  0.00000000000E+00  0.14999999963E+04  0.15000000000E+04  0.10566000000E+00 0. -1.
        994   -1    0    0    0    0 -0.00000000000E+00 -0.00000000000E+00  0.11368683772E-12  0.17120000000E+03  0.17120000000E+03 0.  0.
         13    1    1    2    0    0  0.16915510573E+02  0.45835570538E+02  0.14728225176E+03  0.15517444014E+03  0.10566000000E+00 0. -1.
        994    1    1    2    0    0 -0.34067764356E+02  0.11412348302E+02  0.13512803473E+02  0.17545053468E+03  0.17120000000E+03 0.  0.
        998    1    1    2    0    0  0.17152253783E+02 -0.57247918840E+02  0.13392049410E+04  0.13405750252E+04  0.10000000000E+02 0. -1.
</event>
<event>
 5    1  0.1800099E-008  0.3770538E+03  0.7957747E-01  0.3464088E+00
         13   -1    0    0    0    0  0.00000000000E+00  0.00000000000E+00  0.14999999963E+04  0.15000000000E+04  0.10566000000E+00 0. -1.
        994   -1    0    0    0    0 -0.00000000000E+00 -0.00000000000E+00  0.11368683772E-12  0.17120000000E+03  0.17120000000E+03 0.  0.
         13    1    1    2    0    0 -0.13593910708E+03 -0.37403304947E+02  0.80506079638E+03  0.81731349254E+03  0.10566000000E+00 0. -1.
        994    1    1    2    0    0  0.13528802534E+03  0.26998333989E+02  0.72837560080E+02  0.23161716257E+03  0.17120000000E+03 0.  0.
        998    1    1    2    0    0  0.65108174889E+00  0.10404970958E+02  0.62210163981E+03  0.62226934489E+03  0.10000000000E+02 0.  1.
</event>
<event>
 5    1  0.1800099E-008  0.4153855E+03  0.7957747E-01  0.3310213E+00
         13   -1    0    0    0    0  0.00000000000E+00  0.00000000000E+00  0.14999999963E+04  0.15000000000E+04  0.10566000000E+00 0.  1.
        994   -1    0    0    0    0 -0.00000000000E+00 -0.00000000000E+00  0.11368683772E-12  0.17120000000E+03  0.17120000000E+03 0.  0.
         13    1    1    2    0    0 -0.13971689055E+03 -0.27568459078E+01  0.35741249717E+03  0.38376049041E+03  0.10566000000E+00 0.  1.
        994    1    1    2    0    0  0.16389116092E+02 -0.36386818913E+02  0.43999224062E+02  0.18121251456E+03  0.17120000000E+03 0.  0.
        998    1    1    2    0    0  0.12332777446E+03  0.39143664821E+02  0.10985882751E+04  0.11062269950E+04  0.10000000000E+02 0.  1.
</event>
<event>
 5    1  0.1800099E-008  0.3852133E+03  0.7957747E-01  0.3428768E+00
         13   -1    0    0    0    0  0.00000000000E+00  0.00000000000E+00  0.14999999963E+04  0.15000000000E+04  0.10566000000E+00 0.  1.
        994   -1    0    0    0    0 -0.00000000000E+00 -0.00000000000E+00  0.11368683772E-12  0.17120000000E+03  0.17120000000E+03 0.  0.
         13    1    1    2    0    0  0.73484348578E+01  0.13076419235E+02  0.72680612597E+02  0.74212363164E+02  0.10566000000E+00 0.  1.
        994    1    1    2    0    0 -0.84845279311E+01 -0.94570662161E+01  0.20549741030E+01  0.17168309828E+03  0.17120000000E+03 0.  0.
        998    1    1    2    0    0  0.11360930733E+01 -0.36193530191E+01  0.14252644096E+04  0.14253045386E+04  0.10000000000E+02 0.  1.
</event>
<event>
 5    1  0.1800099E-008  0.3844311E+03  0.7957747E-01  0.3432089E+00
         13   -1    0    0    0    0  0.00000000000E+00  0.00000000000E+00  0.14999999963E+04  0.15000000000E+04  0.10566000000E+00 0. -1.
        994   -1    0    0    0    0 -0.00000000000E+00 -0.00000000000E+00  0.11368683772E-12  0.17120000000E+03  0.17120000000E+03 0.  0.
         13    1    1    2    0    0  0.15484997396E+00  0.15489758032E+02  0.60112424238E+02  0.62076334414E+02  0.10566000000E+00 0. -1.
        994    1    1    2    0    0  0.22003612396E+01 -0.17002361318E+02  0.28818347868E+01  0.17208040810E+03  0.17120000000E+03 0.  0.
        998    1    1    2    0    0 -0.23552112136E+01  0.15126032865E+01  0.14370057373E+04  0.14370432575E+04  0.10000000000E+02 0. -1.
</event>
<event>
 5    1  0.1800099E-008  0.3739931E+03  0.7957747E-01  0.3477738E+00
         13   -1    0    0    0    0  0.00000000000E+00  0.00000000000E+00  0.14999999963E+04  0.15000000000E+04  0.10566000000E+00 0. -1.
        994   -1    0    0    0    0 -0.00000000000E+00 -0.00000000000E+00  0.11368683772E-12  0.17120000000E+03  0.17120000000E+03 0.  0.
         13    1    1    2    0    0  0.41453280468E+01 -0.25994079816E+02  0.49463424733E+02  0.56031397274E+02  0.10566000000E+00 0. -1.
        994    1    1    2    0    0 -0.20612695645E+01 -0.11614085249E+02  0.76714163591E+01  0.17177725821E+03  0.17120000000E+03 0.  0.
        998    1    1    2    0    0 -0.20840584823E+01  0.37608165065E+02  0.14428651552E+04  0.14433913445E+04  0.10000000000E+02 0. -1.
</event>
<event>
 5    1  0.1800099E-008  0.3798189E+03  0.7957747E-01  0.3451947E+00
         13   -1    0    0    0    0  0.00000000000E+00  0.00000000000E+00  0.14999999963E+04  0.15000000000E+04  0.10566000000E+00 0. -1.
        994   -1    0    0    0    0 -0.00000000000E+00 -0.00000000000E+00  0.11368683772E-12  0.17120000000E+03  0.17120000000E+03 0.  0.
         13    1    1    2    0    0 -0.42820061843E+02 -0.18501783775E+02  0.59846987472E+02  0.75878500068E+02  0.10566000000E+00 0. -1.
        994    1    1    2    0    0  0.39340503134E+02  0.11646674693E+02  0.22348017019E+02  0.17746040145E+03  0.17120000000E+03 0.  0.
        998    1    1    2    0    0  0.34795587087E+01  0.68551090817E+01  0.14178049918E+04  0.14178610985E+04  0.10000000000E+02 0. -1.
</event>
<event>
 5    1  0.1800099E-008  0.3842322E+03  0.7957747E-01  0.3432935E+00
         13   -1    0    0    0    0  0.00000000000E+00  0.00000000000E+00  0.14999999963E+04  0.15000000000E+04  0.10566000000E+00 0.  1.
        994   -1    0    0    0    0 -0.00000000000E+00 -0.00000000000E+00  0.11368683772E-12  0.17120000000E+03  0.17120000000E+03 0.  0.
         13    1    1    2    0    0  0.32079404313E+00 -0.20372817183E+02  0.90699654443E+02  0.92960169260E+02  0.10566000000E+00 0.  1.
        994    1    1    2    0    0  0.55082098045E+01  0.31961183752E+02  0.54873769091E+01  0.17433131947E+03  0.17120000000E+03 0.  0.
        998    1    1    2    0    0 -0.58290038476E+01 -0.11588366569E+02  0.14038129649E+04  0.14039085113E+04  0.10000000000E+02 0.  1.
</event>
<event>
 5    1  0.1800099E-008  0.3816803E+03  0.7957747E-01  0.3443875E+00
         13   -1    0    0    0    0  0.00000000000E+00  0.00000000000E+00  0.14999999963E+04  0.15000000000E+04  0.10566000000E+00 0.  1.
        994   -1    0    0    0    0 -0.00000000000E+00 -0.00000000000E+00  0.11368683772E-12  0.17120000000E+03  0.17120000000E+03 0.  0.
         13    1    1    2    0    0  0.67506516478E+01 -0.94571822246E+01  0.18931703097E+02  0.22213287453E+02  0.10566000000E+00 0.  1.
        994    1    1    2    0    0 -0.57245011182E+01  0.12304354871E+02  0.38998311122E+01  0.17178130208E+03  0.17120000000E+03 0.  0.
        998    1    1    2    0    0 -0.10261505296E+01 -0.28471726466E+01  0.14771684621E+04  0.14772054105E+04  0.10000000000E+02 0.  1.
</event>
<event>
 5    1  0.1800099E-008  0.3735479E+03  0.7957747E-01  0.3479743E+00
         13   -1    0    0    0    0  0.00000000000E+00  0.00000000000E+00  0.14999999963E+04  0.15000000000E+04  0.10566000000E+00 0.  1.
        994   -1    0    0    0    0 -0.00000000000E+00 -0.00000000000E+00  0.11368683772E-12  0.17120000000E+03  0.17120000000E+03 0.  0.
         13    1    1    2    0    0  0.10781766008E+03 -0.67810464034E+01  0.64179724997E+03  0.65082589964E+03  0.10566000000E+00 0.  1.
        994    1    1    2    0    0 -0.80665162653E+02 -0.17541008731E+01  0.30001115307E+02  0.19162320385E+03  0.17120000000E+03 0.  0.
        998    1    1    2    0    0 -0.27152497430E+02  0.85351472765E+01  0.82820163101E+03  0.82875089650E+03  0.10000000000E+02 0. -1.
</event>
<event>
 5    1  0.1800099E-008  0.3831973E+03  0.7957747E-01  0.3437354E+00
         13   -1    0    0    0    0  0.00000000000E+00  0.00000000000E+00  0.14999999963E+04  0.15000000000E+04  0.10566000000E+00 0. -1.
        994   -1    0    0    0    0 -0.00000000000E+00 -0.00000000000E+00  0.11368683772E-12  0.17120000000E+03  0.17120000000E+03 0.  0.
         13    1    1    2    0    0 -0.82156899549E+01 -0.11187669730E+02  0.38784921631E+02  0.41193965886E+02  0.10566000000E+00 0. -1.
        994    1    1    2    0    0 -0.11580111240E+02  0.86455399463E+01  0.32189397569E+01  0.17183901161E+03  0.17120000000E+03 0.  0.
        998    1    1    2    0    0  0.19795801195E+02  0.25421297836E+01  0.14579961349E+04  0.14581670225E+04  0.10000000000E+02 0. -1.
</event>
<event>
 5    1  0.1800099E-008  0.3720416E+03  0.7957747E-01  0.3486560E+00
         13   -1    0    0    0    0  0.00000000000E+00  0.00000000000E+00  0.14999999963E+04  0.15000000000E+04  0.10566000000E+00 0. -1.
        994   -1    0    0    0    0 -0.00000000000E+00 -0.00000000000E+00  0.11368683772E-12  0.17120000000E+03  0.17120000000E+03 0.  0.
         13    1    1    2    0    0  0.23374949968E+02 -0.83219408341E+02  0.47524281644E+03  0.48303996103E+03  0.10566000000E+00 0. -1.
        994    1    1    2    0    0 -0.13167142918E+02  0.42644653798E+02  0.15076263582E+02  0.17756315461E+03  0.17120000000E+03 0.  0.
        998    1    1    2    0    0 -0.10207807051E+02  0.40574754543E+02  0.10096809163E+04  0.10105968844E+04  0.10000000000E+02 0.  1.
</event>
<event>
 5    1  0.1800099E-008  0.3829947E+03  0.7957747E-01  0.3438222E+00
         13   -1    0    0    0    0  0.00000000000E+00  0.00000000000E+00  0.14999999963E+04  0.15000000000E+04  0.10566000000E+00 0.  1.
        994   -1    0    0    0    0 -0.00000000000E+00 -0.00000000000E+00  0.11368683772E-12  0.17120000000E+03  0.17120000000E+03 0.  0.
         13    1    1    2    0    0 -0.64267253614E+01 -0.23268826277E+02  0.10791266098E+03  0.11057981117E+03  0.10566000000E+00 0.  1.
        994    1    1    2    0    0 -0.21979488997E+01  0.19220083302E+02  0.38688214250E+01  0.17233296365E+03  0.17120000000E+03 0.  0.
        998    1    1    2    0    0  0.86246742611E+01  0.40487429747E+01  0.13882185139E+04  0.13882872252E+04  0.10000000000E+02 0.  1.
</event>
<event>
 5    1  0.1800099E-008  0.3805447E+03  0.7957747E-01  0.3448790E+00
         13   -1    0    0    0    0  0.00000000000E+00  0.00000000000E+00  0.14999999963E+04  0.15000000000E+04  0.10566000000E+00 0.  1.
        994   -1    0    0    0    0 -0.00000000000E+00 -0.00000000000E+00  0.11368683772E-12  0.17120000000E+03  0.17120000000E+03 0.  0.
         13    1    1    2    0    0 -0.24218358440E+02  0.25389840988E+02  0.14595783026E+03  0.15011619596E+03  0.10566000000E+00 0.  1.
        994    1    1    2    0    0  0.89333256311E+01 -0.38232477324E+02  0.90195485880E+01  0.17587586215E+03  0.17120000000E+03 0.  0.
        998    1    1    2    0    0  0.15285032809E+02  0.12842636336E+02  0.13450226174E+04  0.13452079419E+04  0.10000000000E+02 0.  1.
</event>
<event>
 5    1  0.1800099E-008  0.3138756E+03  0.7957747E-01  0.3801683E+00
         13   -1    0    0    0    0  0.00000000000E+00  0.00000000000E+00  0.14999999963E+04  0.15000000000E+04  0.10566000000E+00 0. -1.
        994   -1    0    0    0    0 -0.00000000000E+00 -0.00000000000E+00  0.11368683772E-12  0.17120000000E+03  0.17120000000E+03 0.  0.
         13    1    1    2    0    0  0.18301583086E+03  0.93388040091E+02  0.71755111042E+03  0.74638845624E+03  0.10566000000E+00 0. -1.
        994    1    1    2    0    0 -0.17040735833E+03 -0.10282743925E+03  0.17150974470E+03  0.31358759951E+03  0.17120000000E+03 0.  0.
        998    1    1    2    0    0 -0.12608472534E+02  0.94393991629E+01  0.61093914116E+03  0.61122394426E+03  0.10000000000E+02 0. -1.
</event>
<event>
 5    1  0.1800099E-008  0.3845088E+03  0.7957747E-01  0.3431758E+00
         13   -1    0    0    0    0  0.00000000000E+00  0.00000000000E+00  0.14999999963E+04  0.15000000000E+04  0.10566000000E+00 0. -1.
        994   -1    0    0    0    0 -0.00000000000E+00 -0.00000000000E+00  0.11368683772E-12  0.17120000000E+03  0.17120000000E+03 0.  0.
         13    1    1    2    0    0 -0.33439260631E+00 -0.18121167004E+02  0.92801996879E+02  0.94555329309E+02  0.10566000000E+00 0. -1.
        994    1    1    2    0    0 -0.36171200607E+01  0.33446899720E+01  0.19541663726E+01  0.17128201679E+03  0.17120000000E+03 0.  0.
        998    1    1    2    0    0  0.39515126670E+01  0.14776477032E+02  0.14052438330E+04  0.14053626539E+04  0.10000000000E+02 0. -1.
</event>
<event>
 5    1  0.2965379E-008  0.3863809E+03  0.7957747E-01  0.3423837E+00
         13   -1    0    0    0    0  0.00000000000E+00  0.00000000000E+00  0.14999999963E+04  0.15000000000E+04  0.10566000000E+00 0.  1.
        994   -1    0    0    0    0 -0.00000000000E+00 -0.00000000000E+00  0.11368683772E-12  0.17120000000E+03  0.17120000000E+03 0.  0.
         13    1    1    2    0    0  0.56390125361E+01 -0.91589047840E+01  0.63671345924E+02  0.64573488795E+02  0.10566000000E+00 0.  1.
        994    1    1    2    0    0 -0.47136132148E+01  0.24528503180E+01  0.10385284512E+01  0.17128558949E+03  0.17120000000E+03 0.  0.
        998    1    1    2    0    0 -0.92539932132E+00  0.67060544660E+01  0.14352901219E+04  0.14353409217E+04  0.10000000000E+02 0.  1.
</event>
<event>
 5    1  0.1800099E-008  0.3851938E+03  0.7957747E-01  0.3428851E+00
         13   -1    0    0    0    0  0.00000000000E+00  0.00000000000E+00  0.14999999963E+04  0.15000000000E+04  0.10566000000E+00 0. -1.
        994   -1    0    0    0    0 -0.00000000000E+00 -0.00000000000E+00  0.11368683772E-12  0.17120000000E+03  0.17120000000E+03 0.  0.
         13    1    1    2    0    0 -0.72780525621E+02 -0.20704950079E+03  0.97568705321E+03  0.10000658667E+04  0.10566000000E+00 0. -1.
        994    1    1    2    0    0  0.67404380869E+02  0.24277906914E+03  0.24944794513E+03  0.39372419827E+03  0.17120000000E+03 0.  0.
        998    1    1    2    0    0  0.53761447519E+01 -0.35729568353E+02  0.27486499793E+03  0.27740993507E+03  0.10000000000E+02 0.  1.
</event>
<event>
 5    1  0.1800099E-008  0.3817318E+03  0.7957747E-01  0.3443652E+00
         13   -1    0    0    0    0  0.00000000000E+00  0.00000000000E+00  0.14999999963E+04  0.15000000000E+04  0.10566000000E+00 0.  1.
        994   -1    0    0    0    0 -0.00000000000E+00 -0.00000000000E+00  0.11368683772E-12  0.17120000000E+03  0.17120000000E+03 0.  0.
         13    1    1    2    0    0 -0.16614712903E+02 -0.25939517240E+02  0.14880822052E+03  0.15196316954E+03  0.10566000000E+00 0.  1.
        994    1    1    2    0    0  0.84488313756E+01  0.11196241612E+02  0.39157156169E+01  0.17181825109E+03  0.17120000000E+03 0.  0.
        998    1    1    2    0    0  0.81658815271E+01  0.14743275628E+02  0.13472760601E+04  0.13474185794E+04  0.10000000000E+02 0.  1.
</event>
<event>
 5    1  0.1800099E-008  0.3820893E+03  0.7957747E-01  0.3442111E+00
         13   -1    0    0    0    0  0.00000000000E+00  0.00000000000E+00  0.14999999963E+04  0.15000000000E+04  0.10566000000E+00 0. -1.
        994   -1    0    0    0    0 -0.00000000000E+00 -0.00000000000E+00  0.11368683772E-12  0.17120000000E+03  0.17120000000E+03 0.  0.
         13    1    1    2    0    0  0.76295848505E+01  0.13233277293E+02  0.36232850517E+02  0.39321251423E+02  0.10566000000E+00 0. -1.
        994    1    1    2    0    0 -0.54108942910E+01 -0.13273134000E+02  0.37645629661E+01  0.17184023335E+03  0.17120000000E+03 0.  0.
        998    1    1    2    0    0 -0.22186905595E+01  0.39856706865E-01  0.14600025828E+04  0.14600385152E+04  0.10000000000E+02 0.  0.
</event>
<event>
 5    1  0.1800099E-008  0.4111992E+03  0.7957747E-01  0.3325630E+00
         13   -1    0    0    0    0  0.00000000000E+00  0.00000000000E+00  0.14999999963E+04  0.15000000000E+04  0.10566000000E+00 0.  1.
        994   -1    0    0    0    0 -0.00000000000E+00 -0.00000000000E+00  0.11368683772E-12  0.17120000000E+03  0.17120000000E+03 0.  0.
         13    1    1    2    0    0 -0.51166362077E+02 -0.20485301345E+02  0.30898932915E+02  0.63185436602E+02  0.10566000000E+00 0.  1.
        994    1    1    2    0    0  0.52315521790E+02  0.84655707579E+01  0.46262745779E+02  0.18508987372E+03  0.17120000000E+03 0.  0.
        998    1    1    2    0    0 -0.11491597138E+01  0.12019730587E+02  0.14228383176E+04  0.14229246897E+04  0.10000000000E+02 0.  1.
</event>
<event>
 5    1  0.1800099E-008  0.3809325E+03  0.7957747E-01  0.3447108E+00
         13   -1    0    0    0    0  0.00000000000E+00  0.00000000000E+00  0.14999999963E+04  0.15000000000E+04  0.10566000000E+00 0. -1.
        994   -1    0    0    0    0 -0.00000000000E+00 -0.00000000000E+00  0.11368683772E-12  0.17120000000E+03  0.17120000000E+03 0.  0.
         13    1    1    2    0    0 -0.43673269367E+01 -0.27227993569E+02  0.10918001690E+03  0.11260872272E+03  0.10566000000E+00 0. -1.
        994    1    1    2    0    0  0.40547653943E-01  0.58798358086E+01  0.37783802058E+01  0.17134261078E+03  0.17120000000E+03 0.  0.
        998    1    1    2    0    0  0.43267792828E+01  0.21348157761E+02  0.13870415992E+04  0.13872486665E+04  0.10000000000E+02 0. -1.
</event>
<event>
 5    1  0.1800099E-008  0.3729097E+03  0.7957747E-01  0.3482624E+00
         13   -1    0    0    0    0  0.00000000000E+00  0.00000000000E+00  0.14999999963E+04  0.15000000000E+04  0.10566000000E+00 0.  1.
        994   -1    0    0    0    0 -0.00000000000E+00 -0.00000000000E+00  0.11368683772E-12  0.17120000000E+03  0.17120000000E+03 0.  0.
         13    1    1    2    0    0 -0.18631712844E+02  0.90048786177E+01  0.13070285317E+02  0.24475949108E+02  0.10566000000E+00 0.  1.
        994    1    1    2    0    0 -0.35187523216E+02  0.47046874913E+01  0.16950157785E+02  0.17566173096E+03  0.17120000000E+03 0.  0.
        998    1    1    2    0    0  0.53819236060E+02 -0.13709566109E+02  0.14699795532E+04  0.14710623199E+04  0.10000000000E+02 0.  1.
</event>
<event>
 5    1  0.1800099E-008  0.3786181E+03  0.7957747E-01  0.3457198E+00
         13   -1    0    0    0    0  0.00000000000E+00  0.00000000000E+00  0.14999999963E+04  0.15000000000E+04  0.10566000000E+00 0.  1.
        994   -1    0    0    0    0 -0.00000000000E+00 -0.00000000000E+00  0.11368683772E-12  0.17120000000E+03  0.17120000000E+03 0.  0.
         13    1    1    2    0    0 -0.22071912478E+02 -0.29575232892E+02  0.12810768659E+03  0.13331711911E+03  0.10566000000E+00 0.  1.
        994    1    1    2    0    0  0.27810681385E+02  0.25928203283E+02  0.97027614875E+01  0.17563965755E+03  0.17120000000E+03 0.  0.
        998    1    1    2    0    0 -0.57387689071E+01  0.36470296089E+01  0.13621895482E+04  0.13622432233E+04  0.10000000000E+02 0.  1.
</event>
<event>
 5    1  0.1800099E-008  0.3854289E+03  0.7957747E-01  0.3427855E+00
         13   -1    0    0    0    0  0.00000000000E+00  0.00000000000E+00  0.14999999963E+04  0.15000000000E+04  0.10566000000E+00 0. -1.
        994   -1    0    0    0    0 -0.00000000000E+00 -0.00000000000E+00  0.11368683772E-12  0.17120000000E+03  0.17120000000E+03 0.  0.
         13    1    1    2    0    0 -0.10209218913E+02  0.11082683005E+02  0.81523292177E+02  0.82904235988E+02  0.10566000000E+00 0. -1.
        994    1    1    2    0    0  0.70914141370E+01 -0.44673213174E+01  0.16480587899E+01  0.17141295520E+03  0.17120000000E+03 0.  0.
        998    1    1    2    0    0  0.31178047757E+01 -0.66153616879E+01  0.14168286453E+04  0.14168828088E+04  0.10000000000E+02 0. -1.
</event>
<event>
 5    1  0.1800099E-008  0.3718114E+03  0.7957747E-01  0.3487607E+00
         13   -1    0    0    0    0  0.00000000000E+00  0.00000000000E+00  0.14999999963E+04  0.15000000000E+04  0.10566000000E+00 0.  1.
        994   -1    0    0    0    0 -0.00000000000E+00 -0.00000000000E+00  0.11368683772E-12  0.17120000000E+03  0.17120000000E+03 0.  0.
         13    1    1    2    0    0 -0.20993567139E+02 -0.53258846762E+00  0.25019161990E+02  0.32664707903E+02  0.10566000000E+00 0.  1.
        994    1    1    2    0    0 -0.20781797323E+02 -0.60369113499E-01  0.98107814078E+01  0.17273557299E+03  0.17120000000E+03 0.  0.
        998    1    1    2    0    0  0.41775364462E+02  0.59295758112E+00  0.14651700529E+04  0.14657997191E+04  0.10000000000E+02 0.  1.
</event>
<event>
 5    1  0.1800099E-008  0.3776564E+03  0.7957747E-01  0.3461427E+00
         13   -1    0    0    0    0  0.00000000000E+00  0.00000000000E+00  0.14999999963E+04  0.15000000000E+04  0.10566000000E+00 0.  1.
        994   -1    0    0    0    0 -0.00000000000E+00 -0.00000000000E+00  0.11368683772E-12  0.17120000000E+03  0.17120000000E+03 0.  0.
         13    1    1    2    0    0  0.11923784575E+02 -0.42818134063E+02  0.18323176209E+03  0.18854564182E+03  0.10566000000E+00 0.  1.
        994    1    1    2    0    0  0.42665180076E+01  0.28668769498E+02  0.81564140260E+01  0.17382769805E+03  0.17120000000E+03 0.  0.
        998    1    1    2    0    0 -0.16190302583E+02  0.14149364565E+02  0.13086118202E+04  0.13088266601E+04  0.10000000000E+02 0.  1.
</event>
<event>
 5    1  0.1800099E-008  0.3773221E+03  0.7957747E-01  0.3462902E+00
         13   -1    0    0    0    0  0.00000000000E+00  0.00000000000E+00  0.14999999963E+04  0.15000000000E+04  0.10566000000E+00 0.  1.
        994   -1    0    0    0    0 -0.00000000000E+00 -0.00000000000E+00  0.11368683772E-12  0.17120000000E+03  0.17120000000E+03 0.  0.
         13    1    1    2    0    0 -0.21557526130E+02  0.95851916423E+02  0.26514894152E+03  0.28276543136E+03  0.10566000000E+00 0.  1.
        994    1    1    2    0    0  0.27907138175E+01 -0.97560047426E+02  0.49892730728E+02  0.20328422348E+03  0.17120000000E+03 0.  0.
        998    1    1    2    0    0  0.18766812312E+02  0.17081310034E+01  0.11849583240E+04  0.11851503452E+04  0.10000000000E+02 0.  1.
</event>
<event>
 5    1  0.1800099E-008  0.3839353E+03  0.7957747E-01  0.3434200E+00
         13   -1    0    0    0    0  0.00000000000E+00  0.00000000000E+00  0.14999999963E+04  0.15000000000E+04  0.10566000000E+00 0.  1.
        994   -1    0    0    0    0 -0.00000000000E+00 -0.00000000000E+00  0.11368683772E-12  0.17120000000E+03  0.17120000000E+03 0.  0.
         13    1    1    2    0    0 -0.85007281979E+01  0.73483567064E+01  0.28979189407E+02  0.31081591158E+02  0.10566000000E+00 0.  1.
        994    1    1    2    0    0  0.22894002228E+01 -0.40320447062E+01  0.22306187358E+01  0.17127730263E+03  0.17120000000E+03 0.  0.
        998    1    1    2    0    0  0.62113279751E+01 -0.33163120002E+01  0.14687901881E+04  0.14688411062E+04  0.10000000000E+02 0.  1.
</event>
<event>
 5    1  0.1800099E-008  0.3699478E+03  0.7957747E-01  0.3496131E+00
         13   -1    0    0    0    0  0.00000000000E+00  0.00000000000E+00  0.14999999963E+04  0.15000000000E+04  0.10566000000E+00 0. -1.
        994   -1    0    0    0    0 -0.00000000000E+00 -0.00000000000E+00  0.11368683772E-12  0.17120000000E+03  0.17120000000E+03 0.  0.
         13    1    1    2    0    0  0.36621403481E+02  0.51577829306E+02  0.15526507586E+03  0.16765635871E+03  0.10566000000E+00 0. -1.
        994    1    1    2    0    0 -0.46099184157E+02 -0.55978335959E+02  0.29525732652E+02  0.18825492760E+03  0.17120000000E+03 0.  0.
        998    1    1    2    0    0  0.94777806758E+01  0.44005066533E+01  0.13152091878E+04  0.13152887137E+04  0.10000000000E+02 0. -1.
</event>
<event>
 5    1  0.1800099E-008  0.3810018E+03  0.7957747E-01  0.3446808E+00
         13   -1    0    0    0    0  0.00000000000E+00  0.00000000000E+00  0.14999999963E+04  0.15000000000E+04  0.10566000000E+00 0. -1.
        994   -1    0    0    0    0 -0.00000000000E+00 -0.00000000000E+00  0.11368683772E-12  0.17120000000E+03  0.17120000000E+03 0.  0.
         13    1    1    2    0    0  0.12420358477E+03  0.13587210172E+03  0.97972210496E+03  0.99686667745E+03  0.10566000000E+00 0. -1.
        994    1    1    2    0    0 -0.12474872325E+03 -0.14633132848E+03  0.13862588694E+03  0.29240669996E+03  0.17120000000E+03 0.  0.
        998    1    1    2    0    0  0.54513848121E+00  0.10459226761E+02  0.38165200437E+03  0.38192662259E+03  0.10000000000E+02 0. -1.
</event>
<event>
 5    1  0.1800099E-008  0.4142041E+03  0.7957747E-01  0.3314532E+00
         13   -1    0    0    0    0  0.00000000000E+00  0.00000000000E+00  0.14999999963E+04  0.15000000000E+04  0.10566000000E+00 0.  1.
        994   -1    0    0    0    0 -0.00000000000E+00 -0.00000000000E+00  0.11368683772E-12  0.17120000000E+03  0.17120000000E+03 0.  0.
         13    1    1    2    0    0  0.55063157655E+02 -0.14737243095E+02  0.32660237360E+02  0.65695052580E+02  0.10566000000E+00 0.  1.
        994    1    1    2    0    0 -0.14496769475E+02  0.61541958253E+02  0.53372377285E+02  0.19014631105E+03  0.17120000000E+03 0.  0.
        998    1    1    2    0    0 -0.40566388179E+02 -0.46804715158E+02  0.14139673816E+04  0.14153586364E+04  0.10000000000E+02 0.  1.
</event>
<event>
 5    1  0.1800099E-008  0.3894755E+03  0.7957747E-01  0.3410910E+00
         13   -1    0    0    0    0  0.00000000000E+00  0.00000000000E+00  0.14999999963E+04  0.15000000000E+04  0.10566000000E+00 0.  1.
        994   -1    0    0    0    0 -0.00000000000E+00 -0.00000000000E+00  0.11368683772E-12  0.17120000000E+03  0.17120000000E+03 0.  0.
         13    1    1    2    0    0  0.82487061074E+02 -0.14010049808E+03  0.39844326786E+03  0.43033627976E+03  0.10566000000E+00 0.  1.
        994    1    1    2    0    0 -0.86370659321E+02  0.14285868427E+03  0.13569463838E+03  0.27493811912E+03  0.17120000000E+03 0.  0.
        998    1    1    2    0    0  0.38835982468E+01 -0.27581861822E+01  0.96586209003E+03  0.96592560112E+03  0.10000000000E+02 0.  0.
</event>
<event>
 5    1  0.1800099E-008  0.3818015E+03  0.7957747E-01  0.3443352E+00
         13   -1    0    0    0    0  0.00000000000E+00  0.00000000000E+00  0.14999999963E+04  0.15000000000E+04  0.10566000000E+00 0.  1.
        994   -1    0    0    0    0 -0.00000000000E+00 -0.00000000000E+00  0.11368683772E-12  0.17120000000E+03  0.17120000000E+03 0.  0.
         13    1    1    2    0    0  0.10619766083E+02 -0.52144493372E+01  0.20347568427E+02  0.23537302701E+02  0.10566000000E+00 0.  1.
        994    1    1    2    0    0 -0.11810833106E+02 -0.29210803062E+01  0.37185691065E+01  0.17167206018E+03  0.17120000000E+03 0.  0.
        998    1    1    2    0    0  0.11910670234E+01  0.81355296433E+01  0.14759338587E+04  0.14759906371E+04  0.10000000000E+02 0.  1.
</event>
<event>
 5    1  0.1800099E-008  0.3832678E+03  0.7957747E-01  0.3437052E+00
         13   -1    0    0    0    0  0.00000000000E+00  0.00000000000E+00  0.14999999963E+04  0.15000000000E+04  0.10566000000E+00 0.  1.
        994   -1    0    0    0    0 -0.00000000000E+00 -0.00000000000E+00  0.11368683772E-12  0.17120000000E+03  0.17120000000E+03 0.  0.
         13    1    1    2    0    0 -0.18671355758E+02  0.83850794788E+01  0.73538119518E+02  0.76333447911E+02  0.10566000000E+00 0.  1.
        994    1    1    2    0    0  0.30533721855E+02 -0.20093652556E+02  0.69238330399E+01  0.17519544089E+03  0.17120000000E+03 0.  0.
        998    1    1    2    0    0 -0.11862366097E+02  0.11708573078E+02  0.14195380437E+04  0.14196711112E+04  0.10000000000E+02 0.  1.
</event>
<event>
 5    1  0.1800099E-008  0.3787780E+03  0.7957747E-01  0.3456497E+00
         13   -1    0    0    0    0  0.00000000000E+00  0.00000000000E+00  0.14999999963E+04  0.15000000000E+04  0.10566000000E+00 0.  1.
        994   -1    0    0    0    0 -0.00000000000E+00 -0.00000000000E+00  0.11368683772E-12  0.17120000000E+03  0.17120000000E+03 0.  0.
         13    1    1    2    0    0 -0.48380897305E+01 -0.26120443274E+02  0.73050029546E+02  0.77730320016E+02  0.10566000000E+00 0.  1.
        994    1    1    2    0    0  0.80666909506E+01  0.13758289873E+02  0.56055128366E+01  0.17203262428E+03  0.17120000000E+03 0.  0.
        998    1    1    2    0    0 -0.32286012200E+01  0.12362153402E+02  0.14213444539E+04  0.14214370557E+04  0.10000000000E+02 0.  1.
</event>
<event>
 5    1  0.1800099E-008  0.3854070E+03  0.7957747E-01  0.3427948E+00
         13   -1    0    0    0    0  0.00000000000E+00  0.00000000000E+00  0.14999999963E+04  0.15000000000E+04  0.10566000000E+00 0. -1.
        994   -1    0    0    0    0 -0.00000000000E+00 -0.00000000000E+00  0.11368683772E-12  0.17120000000E+03  0.17120000000E+03 0.  0.
         13    1    1    2    0    0  0.10715871417E+03 -0.58005695793E+02  0.30126076493E+03  0.32497032236E+03  0.10566000000E+00 0. -1.
        994    1    1    2    0    0 -0.10689599525E+03  0.51196844650E+02  0.73335618504E+02  0.22076101025E+03  0.17120000000E+03 0.  0.
        998    1    1    2    0    0 -0.26271891556E+00  0.68088511427E+01  0.11254036128E+04  0.11254686674E+04  0.10000000000E+02 0. -1.
</event>
<event>
 5    1  0.1800099E-008  0.3768123E+03  0.7957747E-01  0.3465157E+00
         13   -1    0    0    0    0  0.00000000000E+00  0.00000000000E+00  0.14999999963E+04  0.15000000000E+04  0.10566000000E+00 0.  1.
        994   -1    0    0    0    0 -0.00000000000E+00 -0.00000000000E+00  0.11368683772E-12  0.17120000000E+03  0.17120000000E+03 0.  0.
         13    1    1    2    0    0  0.53455761102E+02  0.54878171565E+01  0.23144710456E+03  0.23760346779E+03  0.10566000000E+00 0.  1.
        994    1    1    2    0    0 -0.42546608982E+02  0.60041436990E+01  0.12014240011E+02  0.17691818912E+03  0.17120000000E+03 0.  0.
        998    1    1    2    0    0 -0.10909152120E+02 -0.11491960856E+02  0.12565386517E+04  0.12566783431E+04  0.10000000000E+02 0.  1.
</event>
<event>
 5    1  0.1800099E-008  0.3785227E+03  0.7957747E-01  0.3457616E+00
         13   -1    0    0    0    0  0.00000000000E+00  0.00000000000E+00  0.14999999963E+04  0.15000000000E+04  0.10566000000E+00 0. -1.
        994   -1    0    0    0    0 -0.00000000000E+00 -0.00000000000E+00  0.11368683772E-12  0.17120000000E+03  0.17120000000E+03 0.  0.
         13    1    1    2    0    0  0.12369075062E+02  0.15398829385E+01  0.13477716884E+02  0.18358248114E+02  0.10566000000E+00 0. -1.
        994    1    1    2    0    0 -0.19620330516E+02  0.11337301139E+02  0.66076359660E+01  0.17281953773E+03  0.17120000000E+03 0.  0.
        998    1    1    2    0    0  0.72512554542E+01 -0.12877184077E+02  0.14799146434E+04  0.14800222142E+04  0.10000000000E+02 0. -1.
</event>
<event>
 5    1  0.1800099E-008  0.3830342E+03  0.7957747E-01  0.3438052E+00
         13   -1    0    0    0    0  0.00000000000E+00  0.00000000000E+00  0.14999999963E+04  0.15000000000E+04  0.10566000000E+00 0. -1.
        994   -1    0    0    0    0 -0.00000000000E+00 -0.00000000000E+00  0.11368683772E-12  0.17120000000E+03  0.17120000000E+03 0.  0.
         13    1    1    2    0    0 -0.11353003475E+02 -0.91002635412E+01  0.43727364474E+02  0.46084694339E+02  0.10566000000E+00 0. -1.
        994    1    1    2    0    0 -0.20200353415E+02  0.56305677798E+01  0.40661238738E+01  0.17252747878E+03  0.17120000000E+03 0.  0.
        998    1    1    2    0    0  0.31553356890E+02  0.34696957614E+01  0.14522065079E+04  0.14525878269E+04  0.10000000000E+02 0. -1.
</event>
<event>
 5    1  0.1800099E-008  0.3787719E+03  0.7957747E-01  0.3456523E+00
         13   -1    0    0    0    0  0.00000000000E+00  0.00000000000E+00  0.14999999963E+04  0.15000000000E+04  0.10566000000E+00 0.  1.
        994   -1    0    0    0    0 -0.00000000000E+00 -0.00000000000E+00  0.11368683772E-12  0.17120000000E+03  0.17120000000E+03 0.  0.
         13    1    1    2    0    0  0.34426308502E+01 -0.12177379307E+02  0.14741207904E+02  0.19428192105E+02  0.10566000000E+00 0.  1.
        994    1    1    2    0    0  0.70953471066E+00  0.10631240355E+02  0.51354924720E+01  0.17160810002E+03  0.17120000000E+03 0.  0.
        998    1    1    2    0    0 -0.41521655609E+01  0.15461389519E+01  0.14801232959E+04  0.14801637079E+04  0.10000000000E+02 0.  1.
</event>
<event>
 5    1  0.1800099E-008  0.3835567E+03  0.7957747E-01  0.3435817E+00
         13   -1    0    0    0    0  0.00000000000E+00  0.00000000000E+00  0.14999999963E+04  0.15000000000E+04  0.10566000000E+00 0. -1.
        994   -1    0    0    0    0 -0.00000000000E+00 -0.00000000000E+00  0.11368683772E-12  0.17120000000E+03  0.17120000000E+03 0.  0.
         13    1    1    2    0    0  0.18029883884E+02 -0.94170761192E+01  0.88634087240E+02  0.90938279181E+02  0.10566000000E+00 0. -1.
        994    1    1    2    0    0 -0.98837437246E+01  0.44348412213E+01  0.27362729490E+01  0.17156422528E+03  0.17120000000E+03 0.  0.
        998    1    1    2    0    0 -0.81461401599E+01  0.49822348978E+01  0.14086296361E+04  0.14086974955E+04  0.10000000000E+02 0. -1.
</event>
<event>
 5    1  0.1800099E-008  0.3864653E+03  0.7957747E-01  0.3423481E+00
         13   -1    0    0    0    0  0.00000000000E+00  0.00000000000E+00  0.14999999963E+04  0.15000000000E+04  0.10566000000E+00 0.  1.
        994   -1    0    0    0    0 -0.00000000000E+00 -0.00000000000E+00  0.11368683772E-12  0.17120000000E+03  0.17120000000E+03 0.  0.
         13    1    1    2    0    0 -0.94133635310E+02  0.59598517229E+02  0.24351834763E+03  0.26779529747E+03  0.10566000000E+00 0.  1.
        994    1    1    2    0    0  0.11410347507E+03 -0.41790406204E+02  0.77060427572E+02  0.22363763228E+03  0.17120000000E+03 0.  0.
        998    1    1    2    0    0 -0.19969839756E+02 -0.17808111025E+02  0.11794212211E+04  0.11797670703E+04  0.10000000000E+02 0.  1.
</event>
<event>
 5    1  0.1800099E-008  0.3853476E+03  0.7957747E-01  0.3428199E+00
         13   -1    0    0    0    0  0.00000000000E+00  0.00000000000E+00  0.14999999963E+04  0.15000000000E+04  0.10566000000E+00 0. -1.
        994   -1    0    0    0    0 -0.00000000000E+00 -0.00000000000E+00  0.11368683772E-12  0.17120000000E+03  0.17120000000E+03 0.  0.
         13    1    1    2    0    0  0.91545251205E+02 -0.97943605933E+02  0.37851447699E+03  0.40155535535E+03  0.10566000000E+00 0. -1.
        994    1    1    2    0    0 -0.72393599773E+02  0.88007333696E+02  0.69050982299E+02  0.21694147190E+03  0.17120000000E+03 0.  0.
        998    1    1    2    0    0 -0.19151651432E+02  0.99362722362E+01  0.10524345370E+04  0.10527031727E+04  0.10000000000E+02 0. -1.
</event>
<event>
 5    1  0.1800099E-008  0.3834642E+03  0.7957747E-01  0.3436212E+00
         13   -1    0    0    0    0  0.00000000000E+00  0.00000000000E+00  0.14999999963E+04  0.15000000000E+04  0.10566000000E+00 0.  1.
        994   -1    0    0    0    0 -0.00000000000E+00 -0.00000000000E+00  0.11368683772E-12  0.17120000000E+03  0.17120000000E+03 0.  0.
         13    1    1    2    0    0 -0.99389571580E+01 -0.99256534865E+01  0.39199678445E+02  0.41640454137E+02  0.10566000000E+00 0.  1.
        994    1    1    2    0    0  0.16338031733E+02  0.80710489985E+01  0.34928453980E+01  0.17220253506E+03  0.17120000000E+03 0.  0.
        998    1    1    2    0    0 -0.63990745751E+01  0.18546044880E+01  0.14573074724E+04  0.14573570108E+04  0.10000000000E+02 0.  1.
</event>
<event>
 5    1  0.1800099E-008  0.3848364E+03  0.7957747E-01  0.3430366E+00
         13   -1    0    0    0    0  0.00000000000E+00  0.00000000000E+00  0.14999999963E+04  0.15000000000E+04  0.10566000000E+00 0.  1.
        994   -1    0    0    0    0 -0.00000000000E+00 -0.00000000000E+00  0.11368683772E-12  0.17120000000E+03  0.17120000000E+03 0.  0.
         13    1    1    2    0    0 -0.14072213359E+01  0.10700978254E+02  0.33563730297E+02  0.35256579002E+02  0.10566000000E+00 0.  1.
        994    1    1    2    0    0 -0.18677191928E+01 -0.90468720538E+01  0.19922000143E+01  0.17146061685E+03  0.17120000000E+03 0.  0.
        998    1    1    2    0    0  0.32749405288E+01 -0.16541062002E+01  0.14644440660E+04  0.14644828041E+04  0.10000000000E+02 0.  1.
</event>
<event>
 5    1  0.1800099E-008  0.3799694E+03  0.7957747E-01  0.3451292E+00
         13   -1    0    0    0    0  0.00000000000E+00  0.00000000000E+00  0.14999999963E+04  0.15000000000E+04  0.10566000000E+00 0. -1.
        994   -1    0    0    0    0 -0.00000000000E+00 -0.00000000000E+00  0.11368683772E-12  0.17120000000E+03  0.17120000000E+03 0.  0.
         13    1    1    2    0    0 -0.15245018977E+02 -0.31531968946E+02  0.14513983362E+03  0.14930592130E+03  0.10566000000E+00 0. -1.
        994    1    1    2    0    0  0.29435382599E+02  0.10871475075E+02  0.74474675121E+01  0.17421118073E+03  0.17120000000E+03 0.  0.
        998    1    1    2    0    0 -0.14190363622E+02  0.20660493871E+02  0.13474126951E+04  0.13476828980E+04  0.10000000000E+02 0. -1.
</event>
<event>
 5    1  0.1800099E-008  0.3739819E+03  0.7957747E-01  0.3477789E+00
         13   -1    0    0    0    0  0.00000000000E+00  0.00000000000E+00  0.14999999963E+04  0.15000000000E+04  0.10566000000E+00 0.  1.
        994   -1    0    0    0    0 -0.00000000000E+00 -0.00000000000E+00  0.11368683772E-12  0.17120000000E+03  0.17120000000E+03 0.  0.
         13    1    1    2    0    0  0.66454611105E+02 -0.93317073141E+01  0.28336862141E+03  0.29120625485E+03  0.10566000000E+00 0.  1.
        994    1    1    2    0    0 -0.52691463902E+02 -0.40819557647E+01  0.16789840070E+02  0.17995663772E+03  0.17120000000E+03 0.  0.
        998    1    1    2    0    0 -0.13763147203E+02  0.13413663079E+02  0.11998415348E+04  0.12000371074E+04  0.10000000000E+02 0.  1.
</event>
<event>
 5    1  0.1800099E-008  0.3808846E+03  0.7957747E-01  0.3447316E+00
         13   -1    0    0    0    0  0.00000000000E+00  0.00000000000E+00  0.14999999963E+04  0.15000000000E+04  0.10566000000E+00 0. -1.
        994   -1    0    0    0    0 -0.00000000000E+00 -0.00000000000E+00  0.11368683772E-12  0.17120000000E+03  0.17120000000E+03 0.  0.
         13    1    1    2    0    0  0.41567301884E-01  0.46861093650E+02  0.56911102490E+02  0.73721425492E+02  0.10566000000E+00 0. -1.
        994    1    1    2    0    0 -0.11650521186E+02 -0.47687745600E+02  0.25626766286E+02  0.17993339566E+03  0.17120000000E+03 0.  0.
        998    1    1    2    0    0  0.11608953885E+02  0.82665195055E+00  0.14174621275E+04  0.14175451788E+04  0.10000000000E+02 0. -1.
</event>
<event>
 5    1  0.1800099E-008  0.3843355E+03  0.7957747E-01  0.3432495E+00
         13   -1    0    0    0    0  0.00000000000E+00  0.00000000000E+00  0.14999999963E+04  0.15000000000E+04  0.10566000000E+00 0. -1.
        994   -1    0    0    0    0 -0.00000000000E+00 -0.00000000000E+00  0.11368683772E-12  0.17120000000E+03  0.17120000000E+03 0.  0.
         13    1    1    2    0    0 -0.17444076374E+02 -0.21650892546E+01  0.73602970189E+02  0.75672926445E+02  0.10566000000E+00 0. -1.
        994    1    1    2    0    0  0.22214314399E+02 -0.79110231678E+00  0.35905178382E+01  0.17267435659E+03  0.17120000000E+03 0.  0.
        998    1    1    2    0    0 -0.47702380258E+01  0.29561915714E+01  0.14228065083E+04  0.14228527170E+04  0.10000000000E+02 0. -1.
</event>
<event>
 5    1  0.1800099E-008  0.3779499E+03  0.7957747E-01  0.3460134E+00
         13   -1    0    0    0    0  0.00000000000E+00  0.00000000000E+00  0.14999999963E+04  0.15000000000E+04  0.10566000000E+00 0.  1.
        994   -1    0    0    0    0 -0.00000000000E+00 -0.00000000000E+00  0.11368683772E-12  0.17120000000E+03  0.17120000000E+03 0.  0.
         13    1    1    2    0    0  0.26106361977E+02  0.19999208336E+01  0.64354526616E+02  0.69477032745E+02  0.10566000000E+00 0.  1.
        994    1    1    2    0    0 -0.16630525516E+02 -0.94731261556E+00  0.61060795557E+01  0.17211680914E+03  0.17120000000E+03 0.  0.
        998    1    1    2    0    0 -0.94758364616E+01 -0.10526082180E+01  0.14295393901E+04  0.14296061581E+04  0.10000000000E+02 0.  1.
</event>
<event>
 5    1  0.1800099E-008  0.3799078E+03  0.7957747E-01  0.3451560E+00
         13   -1    0    0    0    0  0.00000000000E+00  0.00000000000E+00  0.14999999963E+04  0.15000000000E+04  0.10566000000E+00 0.  1.
        994   -1    0    0    0    0 -0.00000000000E+00 -0.00000000000E+00  0.11368683772E-12  0.17120000000E+03  0.17120000000E+03 0.  0.
         13    1    1    2    0    0  0.33913076188E+02 -0.11346585380E+01  0.12659110193E+03  0.13105991927E+03  0.10566000000E+00 0.  1.
        994    1    1    2    0    0 -0.33199584192E+02 -0.12471014595E+01  0.78794345371E+01  0.17457174210E+03  0.17120000000E+03 0.  0.
        998    1    1    2    0    0 -0.71349199648E+00  0.23817599975E+01  0.13655294598E+04  0.13655683386E+04  0.10000000000E+02 0.  1.
</event>
<event>
 5    1  0.1800099E-008  0.3688921E+03  0.7957747E-01  0.3500998E+00
         13   -1    0    0    0    0  0.00000000000E+00  0.00000000000E+00  0.14999999963E+04  0.15000000000E+04  0.10566000000E+00 0. -1.
        994   -1    0    0    0    0 -0.00000000000E+00 -0.00000000000E+00  0.11368683772E-12  0.17120000000E+03  0.17120000000E+03 0.  0.
         13    1    1    2    0    0  0.39610808005E+02  0.36805242111E+02  0.13065114294E+03  0.14139792881E+03  0.10566000000E+00 0. -1.
        994    1    1    2    0    0 -0.42641269059E+02 -0.22043091159E+02  0.18421804527E+02  0.17875396101E+03  0.17120000000E+03 0.  0.
        998    1    1    2    0    0  0.30304610536E+01 -0.14762150952E+02  0.13509270488E+04  0.13510481102E+04  0.10000000000E+02 0. -1.
</event>
<event>
 5    1  0.1800099E-008  0.3813297E+03  0.7957747E-01  0.3445389E+00
         13   -1    0    0    0    0  0.00000000000E+00  0.00000000000E+00  0.14999999963E+04  0.15000000000E+04  0.10566000000E+00 0.  1.
        994   -1    0    0    0    0 -0.00000000000E+00 -0.00000000000E+00  0.11368683772E-12  0.17120000000E+03  0.17120000000E+03 0.  0.
         13    1    1    2    0    0 -0.13952949930E+02 -0.26589066434E+02  0.13873183978E+03  0.14194434754E+03  0.10566000000E+00 0.  1.
        994    1    1    2    0    0  0.15114969962E+01  0.70908201809E+01  0.36384089037E+01  0.17139207208E+03  0.17120000000E+03 0.  0.
        998    1    1    2    0    0  0.12441452934E+02  0.19498246253E+02  0.13576297476E+04  0.13578635804E+04  0.10000000000E+02 0.  1.
</event>
<event>
 5    1  0.1800099E-008  0.3820096E+03  0.7957747E-01  0.3442454E+00
         13   -1    0    0    0    0  0.00000000000E+00  0.00000000000E+00  0.14999999963E+04  0.15000000000E+04  0.10566000000E+00 0.  1.
        994   -1    0    0    0    0 -0.00000000000E+00 -0.00000000000E+00  0.11368683772E-12  0.17120000000E+03  0.17120000000E+03 0.  0.
         13    1    1    2    0    0  0.14040900049E+02 -0.34769210804E+01  0.31489032093E+02  0.34652650124E+02  0.10566000000E+00 0.  1.
        994    1    1    2    0    0 -0.17679871844E+02  0.26763962144E+01  0.41846480254E+01  0.17218214845E+03  0.17120000000E+03 0.  0.
        998    1    1    2    0    0  0.36389717947E+01  0.80052486596E+00  0.14643263162E+04  0.14643652014E+04  0.10000000000E+02 0.  1.
</event>
<event>
 5    1  0.1800099E-008  0.3812286E+03  0.7957747E-01  0.3445826E+00
         13   -1    0    0    0    0  0.00000000000E+00  0.00000000000E+00  0.14999999963E+04  0.15000000000E+04  0.10566000000E+00 0.  1.
        994   -1    0    0    0    0 -0.00000000000E+00 -0.00000000000E+00  0.11368683772E-12  0.17120000000E+03  0.17120000000E+03 0.  0.
         13    1    1    2    0    0  0.16103477115E+02 -0.95639180155E+01  0.48226895385E+02  0.51736206910E+02  0.10566000000E+00 0.  1.
        994    1    1    2    0    0 -0.17079481223E+02 -0.29705203901E+00  0.44863591238E+01  0.17210858298E+03  0.17120000000E+03 0.  0.
        998    1    1    2    0    0  0.97600410780E+00  0.98609700545E+01  0.14472867418E+04  0.14473552101E+04  0.10000000000E+02 0.  1.
</event>
<event>
 5    1  0.1800099E-008  0.3852375E+03  0.7957747E-01  0.3428666E+00
         13   -1    0    0    0    0  0.00000000000E+00  0.00000000000E+00  0.14999999963E+04  0.15000000000E+04  0.10566000000E+00 0.  1.
        994   -1    0    0    0    0 -0.00000000000E+00 -0.00000000000E+00  0.11368683772E-12  0.17120000000E+03  0.17120000000E+03 0.  0.
         13    1    1    2    0    0 -0.11085957586E+02  0.15883424828E+02  0.11268134276E+03  0.11433406233E+03  0.10566000000E+00 0.  1.
        994    1    1    2    0    0  0.14034022810E+02 -0.19174608543E+02  0.33698844771E+01  0.17287398743E+03  0.17120000000E+03 0.  0.
        998    1    1    2    0    0 -0.29480652241E+01  0.32911837154E+01  0.13839487690E+04  0.13839919502E+04  0.10000000000E+02 0.  1.
</event>
<event>
 5    1  0.1800099E-008  0.3799498E+03  0.7957747E-01  0.3451377E+00
         13   -1    0    0    0    0  0.00000000000E+00  0.00000000000E+00  0.14999999963E+04  0.15000000000E+04  0.10566000000E+00 0. -1.
        994   -1    0    0    0    0 -0.00000000000E+00 -0.00000000000E+00  0.11368683772E-12  0.17120000000E+03  0.17120000000E+03 0.  0.
         13    1    1    2    0    0 -0.12359294636E+02  0.62824866661E+01  0.21235966575E+02  0.25361373051E+02  0.10566000000E+00 0. -1.
        994    1    1    2    0    0  0.11050278819E+02 -0.54779831745E+01  0.46672572884E+01  0.17170713512E+03  0.17120000000E+03 0.  0.
        998    1    1    2    0    0  0.13090158176E+01 -0.80450349165E+00  0.14740967724E+04  0.14741314918E+04  0.10000000000E+02 0. -1.
</event>
<event>
 5    1  0.1800099E-008  0.3739041E+03  0.7957747E-01  0.3478139E+00
         13   -1    0    0    0    0  0.00000000000E+00  0.00000000000E+00  0.14999999963E+04  0.15000000000E+04  0.10566000000E+00 0.  1.
        994   -1    0    0    0    0 -0.00000000000E+00 -0.00000000000E+00  0.11368683772E-12  0.17120000000E+03  0.17120000000E+03 0.  0.
         13    1    1    2    0    0 -0.35733573805E+02 -0.16823417852E+02  0.98925043373E+02  0.10651803160E+03  0.10566000000E+00 0.  1.
        994    1    1    2    0    0  0.33647712038E+02  0.20625332258E+02  0.12575347405E+02  0.17613958163E+03  0.17120000000E+03 0.  0.
        998    1    1    2    0    0  0.20858617669E+01 -0.38019144059E+01  0.13884996055E+04  0.13885423868E+04  0.10000000000E+02 0.  1.
</event>
<event>
 5    1  0.1800099E-008  0.3859627E+03  0.7957747E-01  0.3425599E+00
         13   -1    0    0    0    0  0.00000000000E+00  0.00000000000E+00  0.14999999963E+04  0.15000000000E+04  0.10566000000E+00 0. -1.
        994   -1    0    0    0    0 -0.00000000000E+00 -0.00000000000E+00  0.11368683772E-12  0.17120000000E+03  0.17120000000E+03 0.  0.
         13    1    1    2    0    0  0.85285437919E+01  0.73525682897E+01  0.59955752599E+02  0.61004096202E+02  0.10566000000E+00 0. -1.
        994    1    1    2    0    0  0.77446885012E+01 -0.48971125800E+01  0.14282136490E+01  0.17145098922E+03  0.17120000000E+03 0.  0.
        998    1    1    2    0    0 -0.16273232293E+02 -0.24554557097E+01  0.14386160300E+04  0.14387449146E+04  0.10000000000E+02 0. -1.
</event>
<event>
 5    1  0.1800099E-008  0.3824215E+03  0.7957747E-01  0.3440682E+00
         13   -1    0    0    0    0  0.00000000000E+00  0.00000000000E+00  0.14999999963E+04  0.15000000000E+04  0.10566000000E+00 0.  1.
        994   -1    0    0    0    0 -0.00000000000E+00 -0.00000000000E+00  0.11368683772E-12  0.17120000000E+03  0.17120000000E+03 0.  0.
         13    1    1    2    0    0  0.10969602279E+02  0.67095977405E+01  0.26648927836E+02  0.29589312173E+02  0.10566000000E+00 0.  1.
        994    1    1    2    0    0 -0.11743088240E+02 -0.11422514792E+02  0.38062966455E+01  0.17202413162E+03  0.17120000000E+03 0.  0.
        998    1    1    2    0    0  0.77348596109E+00  0.47129170519E+01  0.14695447718E+04  0.14695865562E+04  0.10000000000E+02 0.  1.
</event>
<event>
 5    1  0.1800099E-008  0.3029369E+03  0.7957747E-01  0.3875273E+00
         13   -1    0    0    0    0  0.00000000000E+00  0.00000000000E+00  0.14999999963E+04  0.15000000000E+04  0.10566000000E+00 0. -1.
        994   -1    0    0    0    0 -0.00000000000E+00 -0.00000000000E+00  0.11368683772E-12  0.17120000000E+03  0.17120000000E+03 0.  0.
         13    1    1    2    0    0  0.20159141550E+03 -0.43267925912E+02  0.59175932140E+03  0.62665007608E+03  0.10566000000E+00 0. -1.
        994    1    1    2    0    0 -0.21126439685E+03  0.64653655789E+02  0.21964063822E+03  0.35547741214E+03  0.17120000000E+03 0.  0.
        998    1    1    2    0    0  0.96729813531E+01 -0.21385729877E+02  0.68860003666E+03  0.68907251178E+03  0.10000000000E+02 0.  1.
</event>
<event>
 5    1  0.1800099E-008  0.3764316E+03  0.7957747E-01  0.3466845E+00
         13   -1    0    0    0    0  0.00000000000E+00  0.00000000000E+00  0.14999999963E+04  0.15000000000E+04  0.10566000000E+00 0. -1.
        994   -1    0    0    0    0 -0.00000000000E+00 -0.00000000000E+00  0.11368683772E-12  0.17120000000E+03  0.17120000000E+03 0.  0.
         13    1    1    2    0    0 -0.93471298800E+01  0.81410389111E+01  0.10199909457E+02  0.16052871036E+02  0.10566000000E+00 0. -1.
        994    1    1    2    0    0  0.17023908547E+02  0.25293413217E+01  0.69480927715E+01  0.17220315625E+03  0.17120000000E+03 0.  0.
        998    1    1    2    0    0 -0.76767786665E+01 -0.10670380233E+02  0.14828519941E+04  0.14829439727E+04  0.10000000000E+02 0. -1.
</event>
<event>
 5    1  0.1800099E-008  0.3845659E+03  0.7957747E-01  0.3431515E+00
         13   -1    0    0    0    0  0.00000000000E+00  0.00000000000E+00  0.14999999963E+04  0.15000000000E+04  0.10566000000E+00 0.  1.
        994   -1    0    0    0    0 -0.00000000000E+00 -0.00000000000E+00  0.11368683772E-12  0.17120000000E+03  0.17120000000E+03 0.  0.
         13    1    1    2    0    0 -0.83030142209E+01  0.17794286030E+02  0.11371021580E+03  0.11539324504E+03  0.10566000000E+00 0.  1.
        994    1    1    2    0    0 -0.34630370343E+01 -0.34116456809E+01  0.19236553603E+01  0.17127980734E+03  0.17120000000E+03 0.  0.
        998    1    1    2    0    0  0.11766051255E+02 -0.14382640349E+02  0.13843661251E+04  0.13845269476E+04  0.10000000000E+02 0.  1.
</event>
<event>
 5    1  0.1800099E-008  0.3818765E+03  0.7957747E-01  0.3443028E+00
         13   -1    0    0    0    0  0.00000000000E+00  0.00000000000E+00  0.14999999963E+04  0.15000000000E+04  0.10566000000E+00 0.  1.
        994   -1    0    0    0    0 -0.00000000000E+00 -0.00000000000E+00  0.11368683772E-12  0.17120000000E+03  0.17120000000E+03 0.  0.
         13    1    1    2    0    0  0.16033367141E+02 -0.20015763466E+02  0.12184016078E+03  0.12450998190E+03  0.10566000000E+00 0.  1.
        994    1    1    2    0    0 -0.42757421604E+01 -0.17573477743E+02  0.42764053789E+01  0.17220579762E+03  0.17120000000E+03 0.  0.
        998    1    1    2    0    0 -0.11757624980E+02  0.37589241209E+02  0.13738834301E+04  0.13744842205E+04  0.10000000000E+02 0.  1.
</event>
<event>
 5    1  0.1800099E-008  0.3801348E+03  0.7957747E-01  0.3450572E+00
         13   -1    0    0    0    0  0.00000000000E+00  0.00000000000E+00  0.14999999963E+04  0.15000000000E+04  0.10566000000E+00 0. -1.
        994   -1    0    0    0    0 -0.00000000000E+00 -0.00000000000E+00  0.11368683772E-12  0.17120000000E+03  0.17120000000E+03 0.  0.
         13    1    1    2    0    0  0.34841959298E+02 -0.56433066658E+02  0.39615730277E+03  0.40167060241E+03  0.10566000000E+00 0. -1.
        994    1    1    2    0    0 -0.41830918058E+02  0.52858021204E+02  0.19400262994E+02  0.18501244908E+03  0.17120000000E+03 0.  0.
        998    1    1    2    0    0  0.69889587595E+01  0.35750454536E+01  0.10844424305E+04  0.10845169485E+04  0.10000000000E+02 0. -1.
</event>
<event>
 5    1  0.1800099E-008  0.3723363E+03  0.7957747E-01  0.3485222E+00
         13   -1    0    0    0    0  0.00000000000E+00  0.00000000000E+00  0.14999999963E+04  0.15000000000E+04  0.10566000000E+00 0. -1.
        994   -1    0    0    0    0 -0.00000000000E+00 -0.00000000000E+00  0.11368683772E-12  0.17120000000E+03  0.17120000000E+03 0.  0.
         13    1    1    2    0    0 -0.59154257297E+02 -0.11746080370E+02  0.23921950057E+03  0.24670463550E+03  0.10566000000E+00 0. -1.
        994    1    1    2    0    0  0.22362306623E+02  0.91137367964E+01  0.10055754947E+02  0.17318686776E+03  0.17120000000E+03 0.  0.
        998    1    1    2    0    0  0.36791950673E+02  0.26323435736E+01  0.12507247408E+04  0.12513084967E+04  0.10000000000E+02 0. -1.
</event>
<event>
 5    1  0.1800099E-008  0.3811045E+03  0.7957747E-01  0.3446363E+00
         13   -1    0    0    0    0  0.00000000000E+00  0.00000000000E+00  0.14999999963E+04  0.15000000000E+04  0.10566000000E+00 0. -1.
        994   -1    0    0    0    0 -0.00000000000E+00 -0.00000000000E+00  0.11368683772E-12  0.17120000000E+03  0.17120000000E+03 0.  0.
         13    1    1    2    0    0  0.41904207078E+02 -0.30451890775E+02  0.31124409141E+03  0.31552523802E+03  0.10566000000E+00 0. -1.
        994    1    1    2    0    0 -0.36990219258E+02  0.30805988707E+02  0.11333743765E+02  0.17819982887E+03  0.17120000000E+03 0.  0.
        998    1    1    2    0    0 -0.49139878199E+01 -0.35409793224E+00  0.11774221611E+04  0.11774749331E+04  0.10000000000E+02 0. -1.
</event>
<event>
 5    1  0.1800099E-008  0.3854778E+03  0.7957747E-01  0.3427648E+00
         13   -1    0    0    0    0  0.00000000000E+00  0.00000000000E+00  0.14999999963E+04  0.15000000000E+04  0.10566000000E+00 0.  1.
        994   -1    0    0    0    0 -0.00000000000E+00 -0.00000000000E+00  0.11368683772E-12  0.17120000000E+03  0.17120000000E+03 0.  0.
         13    1    1    2    0    0  0.89933384148E+01 -0.13332917766E+02  0.90602305321E+02  0.92018670527E+02  0.10566000000E+00 0.  1.
        994    1    1    2    0    0 -0.66471811797E+01  0.12411865461E+02  0.20443042851E+01  0.17179015863E+03  0.17120000000E+03 0.  0.
        998    1    1    2    0    0 -0.23461572350E+01  0.92105230463E+00  0.14073533867E+04  0.14073911708E+04  0.10000000000E+02 0.  0.
</event>
<event>
 5    1  0.1800099E-008  0.3825781E+03  0.7957747E-01  0.3440009E+00
         13   -1    0    0    0    0  0.00000000000E+00  0.00000000000E+00  0.14999999963E+04  0.15000000000E+04  0.10566000000E+00 0.  1.
        994   -1    0    0    0    0 -0.00000000000E+00 -0.00000000000E+00  0.11368683772E-12  0.17120000000E+03  0.17120000000E+03 0.  0.
         13    1    1    2    0    0  0.82432137884E+00  0.14672221551E+02  0.38113779576E+02  0.40848805962E+02  0.10566000000E+00 0.  1.
        994    1    1    2    0    0  0.58672529672E+01 -0.32706097092E+01  0.29869557697E+01  0.17135776449E+03  0.17120000000E+03 0.  0.
        998    1    1    2    0    0 -0.66915743461E+01 -0.11401611842E+02  0.14588992609E+04  0.14589934296E+04  0.10000000000E+02 0.  1.
</event>
<event>
 5    1  0.1800099E-008  0.3820744E+03  0.7957747E-01  0.3442176E+00
         13   -1    0    0    0    0  0.00000000000E+00  0.00000000000E+00  0.14999999963E+04  0.15000000000E+04  0.10566000000E+00 0.  1.
        994   -1    0    0    0    0 -0.00000000000E+00 -0.00000000000E+00  0.11368683772E-12  0.17120000000E+03  0.17120000000E+03 0.  0.
         13    1    1    2    0    0  0.35728173460E+01  0.10475507257E+02  0.18224056416E+02  0.21322023177E+02  0.10566000000E+00 0.  1.
        994    1    1    2    0    0 -0.34664511641E+02 -0.35526872508E+01  0.71316411470E+01  0.17485579847E+03  0.17120000000E+03 0.  0.
        998    1    1    2    0    0  0.31091694295E+02 -0.69228200059E+01  0.14746442987E+04  0.14750221784E+04  0.10000000000E+02 0.  1.
</event>
<event>
 5    1  0.1800099E-008  0.3765052E+03  0.7957747E-01  0.3466518E+00
         13   -1    0    0    0    0  0.00000000000E+00  0.00000000000E+00  0.14999999963E+04  0.15000000000E+04  0.10566000000E+00 0.  1.
        994   -1    0    0    0    0 -0.00000000000E+00 -0.00000000000E+00  0.11368683772E-12  0.17120000000E+03  0.17120000000E+03 0.  0.
         13    1    1    2    0    0 -0.78182504318E+01  0.57636649909E+02  0.27365968841E+03  0.27977266607E+03  0.10566000000E+00 0.  1.
        994    1    1    2    0    0  0.51138553336E+01 -0.37972222483E+02  0.10888895462E+02  0.17577272041E+03  0.17120000000E+03 0.  0.
        998    1    1    2    0    0  0.27043950983E+01 -0.19664427426E+02  0.12154514124E+04  0.12156546135E+04  0.10000000000E+02 0.  1.
</event>
<event>
 5    1  0.1800099E-008  0.3859136E+03  0.7957747E-01  0.3425807E+00
         13   -1    0    0    0    0  0.00000000000E+00  0.00000000000E+00  0.14999999963E+04  0.15000000000E+04  0.10566000000E+00 0. -1.
        994   -1    0    0    0    0 -0.00000000000E+00 -0.00000000000E+00  0.11368683772E-12  0.17120000000E+03  0.17120000000E+03 0.  0.
         13    1    1    2    0    0  0.11739671566E+02 -0.19233876540E+00  0.63741488627E+02  0.64813929205E+02  0.10566000000E+00 0. -1.
        994    1    1    2    0    0 -0.15700919841E+00  0.44335388471E+02  0.76491782614E+01  0.17701299741E+03  0.17120000000E+03 0.  0.
        998    1    1    2    0    0 -0.11582662367E+02 -0.44143049706E+02  0.14286093294E+04  0.14293730734E+04  0.10000000000E+02 0. -1.
</event>
<event>
 5    1  0.2384067E-008  0.3861095E+03  0.7957747E-01  0.3424980E+00
         13   -1    0    0    0    0  0.00000000000E+00  0.00000000000E+00  0.14999999963E+04  0.15000000000E+04  0.10566000000E+00 0. -1.
        994   -1    0    0    0    0 -0.00000000000E+00 -0.00000000000E+00  0.11368683772E-12  0.17120000000E+03  0.17120000000E+03 0.  0.
         13    1    1    2    0    0 -0.10829946837E+02  0.30470082630E+01  0.61820031134E+02  0.62835494915E+02  0.10566000000E+00 0. -1.
        994    1    1    2    0    0  0.33695156046E+01  0.36220166794E+01  0.11604838700E+01  0.17127539042E+03  0.17120000000E+03 0.  0.
        998    1    1    2    0    0  0.74604312324E+01 -0.66690249424E+01  0.14370194813E+04  0.14370891147E+04  0.10000000000E+02 0. -1.
</event>
<event>
 5    1  0.1800099E-008  0.4182077E+03  0.7957747E-01  0.3299990E+00
         13   -1    0    0    0    0  0.00000000000E+00  0.00000000000E+00  0.14999999963E+04  0.15000000000E+04  0.10566000000E+00 0. -1.
        994   -1    0    0    0    0 -0.00000000000E+00 -0.00000000000E+00  0.11368683772E-12  0.17120000000E+03  0.17120000000E+03 0.  0.
         13    1    1    2    0    0  0.36026508334E+01  0.11808149782E+03  0.25867528304E+03  0.28437498561E+03  0.10566000000E+00 0. -1.
        994    1    1    2    0    0  0.83254750759E+02  0.29289039378E+02  0.72966189105E+02  0.20596773074E+03  0.17120000000E+03 0.  0.
        998    1    1    2    0    0 -0.86857401592E+02 -0.14737053720E+03  0.11683585241E+04  0.11808572837E+04  0.10000000000E+02 0. -1.
</event>
<event>
 5    1  0.2359249E-008  0.3862997E+03  0.7957747E-01  0.3424179E+00
         13   -1    0    0    0    0  0.00000000000E+00  0.00000000000E+00  0.14999999963E+04  0.15000000000E+04  0.10566000000E+00 0. -1.
        994   -1    0    0    0    0 -0.00000000000E+00 -0.00000000000E+00  0.11368683772E-12  0.17120000000E+03  0.17120000000E+03 0.  0.
         13    1    1    2    0    0 -0.68983883689E+01 -0.86198723905E+01  0.64633123053E+02  0.65569365726E+02  0.10566000000E+00 0. -1.
        994    1    1    2    0    0 -0.82248119124E+00  0.57598785933E+01  0.10970847984E+01  0.17130235337E+03  0.17120000000E+03 0.  0.
        998    1    1    2    0    0  0.77208695602E+01  0.28599937971E+01  0.14342697884E+04  0.14343282809E+04  0.10000000000E+02 0. -1.
</event>
<event>
 5    1  0.1891762E-008  0.3856499E+03  0.7957747E-01  0.3426920E+00
         13   -1    0    0    0    0  0.00000000000E+00  0.00000000000E+00  0.14999999963E+04  0.15000000000E+04  0.10566000000E+00 0. -1.
        994   -1    0    0    0    0 -0.00000000000E+00 -0.00000000000E+00  0.11368683772E-12  0.17120000000E+03  0.17120000000E+03 0.  0.
         13    1    1    2    0    0  0.10668318629E+02  0.13648130307E+01  0.43052726710E+02  0.44375941435E+02  0.10566000000E+00 0. -1.
        994    1    1    2    0    0 -0.12838145435E+02 -0.17324031390E+01  0.18587246207E+01  0.17169948764E+03  0.17120000000E+03 0.  0.
        998    1    1    2    0    0  0.21698268059E+01  0.36759010831E+00  0.14550885449E+04  0.14551245709E+04  0.10000000000E+02 0. -1.
</event>
<event>
 5    1  0.1800099E-008  0.3846693E+03  0.7957747E-01  0.3431076E+00
         13   -1    0    0    0    0  0.00000000000E+00  0.00000000000E+00  0.14999999963E+04  0.15000000000E+04  0.10566000000E+00 0.  1.
        994   -1    0    0    0    0 -0.00000000000E+00 -0.00000000000E+00  0.11368683772E-12  0.17120000000E+03  0.17120000000E+03 0.  0.
         13    1    1    2    0    0 -0.10070456766E+02  0.45827302504E+01  0.33998108020E+02  0.35753293960E+02  0.10566000000E+00 0.  1.
        994    1    1    2    0    0  0.49343380185E+01 -0.39432573185E+01  0.19257870050E+01  0.17132730555E+03  0.17120000000E+03 0.  0.
        998    1    1    2    0    0  0.51361187473E+01 -0.63947293189E+00  0.14640761013E+04  0.14641194005E+04  0.10000000000E+02 0.  1.
</event>
<event>
 5    1  0.1800099E-008  0.3732078E+03  0.7957747E-01  0.3481277E+00
         13   -1    0    0    0    0  0.00000000000E+00  0.00000000000E+00  0.14999999963E+04  0.15000000000E+04  0.10566000000E+00 0. -1.
        994   -1    0    0    0    0 -0.00000000000E+00 -0.00000000000E+00  0.11368683772E-12  0.17120000000E+03  0.17120000000E+03 0.  0.
         13    1    1    2    0    0  0.98497603741E+01 -0.21739684239E+01  0.30987486881E+01  0.10552598050E+02  0.10566000000E+00 0. -1.
        994    1    1    2    0    0 -0.11319170428E+02  0.73883092902E+01  0.82270269034E+01  0.17192973770E+03  0.17120000000E+03 0.  0.
        998    1    1    2    0    0  0.14694100538E+01 -0.52143408663E+01  0.14886742207E+04  0.14887176643E+04  0.10000000000E+02 0. -1.
</event>
<event>
 5    1  0.1800099E-008  0.3813652E+03  0.7957747E-01  0.3445236E+00
         13   -1    0    0    0    0  0.00000000000E+00  0.00000000000E+00  0.14999999963E+04  0.15000000000E+04  0.10566000000E+00 0.  1.
        994   -1    0    0    0    0 -0.00000000000E+00 -0.00000000000E+00  0.11368683772E-12  0.17120000000E+03  0.17120000000E+03 0.  0.
         13    1    1    2    0    0 -0.19495035895E+01  0.24117540538E+02  0.93490364941E+02  0.96570781434E+02  0.10566000000E+00 0.  1.
        994    1    1    2    0    0  0.22430436684E+02  0.63226934058E+01  0.52550886239E+01  0.17285877732E+03  0.17120000000E+03 0.  0.
        998    1    1    2    0    0 -0.20480933094E+02 -0.30440233944E+02  0.14012545427E+04  0.14017704412E+04  0.10000000000E+02 0.  1.
</event>
<event>
 5    1  0.1800099E-008  0.3836150E+03  0.7957747E-01  0.3435567E+00
         13   -1    0    0    0    0  0.00000000000E+00  0.00000000000E+00  0.14999999963E+04  0.15000000000E+04  0.10566000000E+00 0.  1.
        994   -1    0    0    0    0 -0.00000000000E+00 -0.00000000000E+00  0.11368683772E-12  0.17120000000E+03  0.17120000000E+03 0.  0.
         13    1    1    2    0    0 -0.11514249699E+01  0.22808566308E+02  0.11750094569E+03  0.11969979063E+03  0.10566000000E+00 0.  1.
        994    1    1    2    0    0 -0.24809345086E+01 -0.75021973917E+01  0.25256014951E+01  0.17140086541E+03  0.17120000000E+03 0.  0.
        998    1    1    2    0    0  0.36323594785E+01 -0.15306368916E+02  0.13799734491E+04  0.13800993440E+04  0.10000000000E+02 0.  1.
</event>
<event>
 5    1  0.1800099E-008  0.3850996E+03  0.7957747E-01  0.3429250E+00
         13   -1    0    0    0    0  0.00000000000E+00  0.00000000000E+00  0.14999999963E+04  0.15000000000E+04  0.10566000000E+00 0.  1.
        994   -1    0    0    0    0 -0.00000000000E+00 -0.00000000000E+00  0.11368683772E-12  0.17120000000E+03  0.17120000000E+03 0.  0.
         13    1    1    2    0    0  0.54563849672E+01  0.15422770761E+02  0.91521882394E+02  0.92972577225E+02  0.10566000000E+00 0.  1.
        994    1    1    2    0    0 -0.56549491626E+01  0.12197399874E+01  0.16907384150E+01  0.17130605597E+03  0.17120000000E+03 0.  0.
        998    1    1    2    0    0  0.19856419539E+00 -0.16642510748E+02  0.14067873755E+04  0.14069213668E+04  0.10000000000E+02 0.  1.
</event>
<event>
 5    1  0.1800099E-008  0.3809804E+03  0.7957747E-01  0.3446901E+00
         13   -1    0    0    0    0  0.00000000000E+00  0.00000000000E+00  0.14999999963E+04  0.15000000000E+04  0.10566000000E+00 0.  1.
        994   -1    0    0    0    0 -0.00000000000E+00 -0.00000000000E+00  0.11368683772E-12  0.17120000000E+03  0.17120000000E+03 0.  0.
         13    1    1    2    0    0  0.96187321826E+01 -0.43971717617E+02  0.26820247791E+03  0.27195332740E+03  0.10566000000E+00 0.  1.
        994    1    1    2    0    0 -0.48000652272E+01  0.28897340760E+02  0.65036099836E+01  0.17380976345E+03  0.17120000000E+03 0.  0.
        998    1    1    2    0    0 -0.48186669553E+01  0.15074376857E+02  0.12252939084E+04  0.12254369091E+04  0.10000000000E+02 0.  1.
</event>
<event>
 5    1  0.1800099E-008  0.3711555E+03  0.7957747E-01  0.3490597E+00
         13   -1    0    0    0    0  0.00000000000E+00  0.00000000000E+00  0.14999999963E+04  0.15000000000E+04  0.10566000000E+00 0.  1.
        994   -1    0    0    0    0 -0.00000000000E+00 -0.00000000000E+00  0.11368683772E-12  0.17120000000E+03  0.17120000000E+03 0.  0.
         13    1    1    2    0    0 -0.31794641758E+02 -0.54210439998E+02  0.23373086361E+03  0.24203263999E+03  0.10566000000E+00 0.  1.
        994    1    1    2    0    0 -0.30482137197E+02 -0.99440231847E+01  0.15168237293E+02  0.17483580785E+03  0.17120000000E+03 0.  0.
        998    1    1    2    0    0  0.62276778955E+02  0.64154463183E+02  0.12511008954E+04  0.12543315522E+04  0.10000000000E+02 0.  1.
</event>
<event>
 5    1  0.1800099E-008  0.3854292E+03  0.7957747E-01  0.3427854E+00
         13   -1    0    0    0    0  0.00000000000E+00  0.00000000000E+00  0.14999999963E+04  0.15000000000E+04  0.10566000000E+00 0. -1.
        994   -1    0    0    0    0 -0.00000000000E+00 -0.00000000000E+00  0.11368683772E-12  0.17120000000E+03  0.17120000000E+03 0.  0.
         13    1    1    2    0    0 -0.13896642683E+02  0.76141525529E+01  0.90850920807E+02  0.92222518793E+02  0.10566000000E+00 0. -1.
        994    1    1    2    0    0  0.94216427503E+01  0.11714001840E+01  0.17132683075E+01  0.17147161520E+03  0.17120000000E+03 0.  0.
        998    1    1    2    0    0  0.44749999327E+01 -0.87855527369E+01  0.14074358072E+04  0.14075058660E+04  0.10000000000E+02 0. -1.
</event>
<event>
 5    1  0.1800099E-008  0.3776261E+03  0.7957747E-01  0.3461561E+00
         13   -1    0    0    0    0  0.00000000000E+00  0.00000000000E+00  0.14999999963E+04  0.15000000000E+04  0.10566000000E+00 0.  1.
        994   -1    0    0    0    0 -0.00000000000E+00 -0.00000000000E+00  0.11368683772E-12  0.17120000000E+03  0.17120000000E+03 0.  0.
         13    1    1    2    0    0 -0.14140779579E+03  0.54660397591E+02  0.57492513620E+03  0.59457787309E+03  0.10566000000E+00 0.  1.
        994    1    1    2    0    0  0.95282268328E+02 -0.12098293765E+03  0.10597457139E+03  0.25348694570E+03  0.17120000000E+03 0.  0.
        998    1    1    2    0    0  0.46125527461E+02  0.66322540056E+02  0.81910028869E+03  0.82313518121E+03  0.10000000000E+02 0.  1.
</event>
<event>
 5    1  0.1800099E-008  0.3856920E+03  0.7957747E-01  0.3426742E+00
         13   -1    0    0    0    0  0.00000000000E+00  0.00000000000E+00  0.14999999963E+04  0.15000000000E+04  0.10566000000E+00 0.  1.
        994   -1    0    0    0    0 -0.00000000000E+00 -0.00000000000E+00  0.11368683772E-12  0.17120000000E+03  0.17120000000E+03 0.  0.
         13    1    1    2    0    0  0.93994089025E+01  0.56231096630E+01  0.46289760342E+02  0.47568070453E+02  0.10566000000E+00 0.  1.
        994    1    1    2    0    0 -0.11408473678E+02  0.21822959119E+00  0.17142825504E+01  0.17158840188E+03  0.17120000000E+03 0.  0.
        998    1    1    2    0    0  0.20090647751E+01 -0.58413392542E+01  0.14519959534E+04  0.14520435277E+04  0.10000000000E+02 0.  1.
</event>
<event>
 5    1  0.1800099E-008  0.3862021E+03  0.7957747E-01  0.3424590E+00
         13   -1    0    0    0    0  0.00000000000E+00  0.00000000000E+00  0.14999999963E+04  0.15000000000E+04  0.10566000000E+00 0. -1.
        994   -1    0    0    0    0 -0.00000000000E+00 -0.00000000000E+00  0.11368683772E-12  0.17120000000E+03  0.17120000000E+03 0.  0.
         13    1    1    2    0    0 -0.10492229767E+01 -0.11562572233E+02  0.66011772627E+02  0.67025064229E+02  0.10566000000E+00 0. -1.
        994    1    1    2    0    0  0.20752966271E+00  0.80028560252E+01  0.12444456429E+01  0.17139159086E+03  0.17120000000E+03 0.  0.
        998    1    1    2    0    0  0.84169331399E+00  0.35597162079E+01  0.14327437780E+04  0.14327833449E+04  0.10000000000E+02 0. -1.
</event>
<event>
 5    1  0.1800099E-008  0.3838864E+03  0.7957747E-01  0.3434409E+00
         13   -1    0    0    0    0  0.00000000000E+00  0.00000000000E+00  0.14999999963E+04  0.15000000000E+04  0.10566000000E+00 0.  1.
        994   -1    0    0    0    0 -0.00000000000E+00 -0.00000000000E+00  0.11368683772E-12  0.17120000000E+03  0.17120000000E+03 0.  0.
         13    1    1    2    0    0 -0.12670672805E+01 -0.19385157457E+02  0.93647646375E+02  0.95641427346E+02  0.10566000000E+00 0.  1.
        994    1    1    2    0    0 -0.40947395996E+01 -0.16912432877E+00  0.22394607939E+01  0.17126368757E+03  0.17120000000E+03 0.  0.
        998    1    1    2    0    0  0.53618068801E+01  0.19554281786E+02  0.14041128891E+04  0.14042948851E+04  0.10000000000E+02 0.  1.
</event>
<event>
 5    1  0.1800099E-008  0.3731171E+03  0.7957747E-01  0.3481687E+00
         13   -1    0    0    0    0  0.00000000000E+00  0.00000000000E+00  0.14999999963E+04  0.15000000000E+04  0.10566000000E+00 0.  1.
        994   -1    0    0    0    0 -0.00000000000E+00 -0.00000000000E+00  0.11368683772E-12  0.17120000000E+03  0.17120000000E+03 0.  0.
         13    1    1    2    0    0 -0.25788466553E+02  0.55894509660E+02  0.15955307436E+03  0.17101589376E+03  0.10566000000E+00 0.  1.
        994    1    1    2    0    0  0.48435474585E+02 -0.11314026611E+03  0.61381944389E+02  0.21959940371E+03  0.17120000000E+03 0.  0.
        998    1    1    2    0    0 -0.22647008032E+02  0.57245756450E+02  0.12790649775E+04  0.12805847025E+04  0.10000000000E+02 0.  1.
</event>
<event>
 5    1  0.1800099E-008  0.3692263E+03  0.7957747E-01  0.3499454E+00
         13   -1    0    0    0    0  0.00000000000E+00  0.00000000000E+00  0.14999999963E+04  0.15000000000E+04  0.10566000000E+00 0.  1.
        994   -1    0    0    0    0 -0.00000000000E+00 -0.00000000000E+00  0.11368683772E-12  0.17120000000E+03  0.17120000000E+03 0.  0.
         13    1    1    2    0    0  0.29834248988E+02 -0.10189288393E+03  0.44426312561E+03  0.45677344291E+03  0.10566000000E+00 0.  1.
        994    1    1    2    0    0 -0.27212549804E+02  0.90313582139E+02  0.41185860312E+02  0.19975680483E+03  0.17120000000E+03 0.  0.
        998    1    1    2    0    0 -0.26216991839E+01  0.11579301789E+02  0.10145510104E+04  0.10146697523E+04  0.10000000000E+02 0.  1.
</event>
<event>
 5    1  0.1800099E-008  0.3699711E+03  0.7957747E-01  0.3496024E+00
         13   -1    0    0    0    0  0.00000000000E+00  0.00000000000E+00  0.14999999963E+04  0.15000000000E+04  0.10566000000E+00 0.  1.
        994   -1    0    0    0    0 -0.00000000000E+00 -0.00000000000E+00  0.11368683772E-12  0.17120000000E+03  0.17120000000E+03 0.  0.
         13    1    1    2    0    0  0.13211368979E+02  0.32854020971E+02  0.55065914348E+02  0.65469023602E+02  0.10566000000E+00 0.  1.
        994    1    1    2    0    0 -0.62174990773E+02  0.13527345865E+02  0.25213651305E+02  0.18437431159E+03  0.17120000000E+03 0.  0.
        998    1    1    2    0    0  0.48963621794E+02 -0.46381366837E+02  0.14197204306E+04  0.14213566648E+04  0.10000000000E+02 0.  1.
</event>
<event>
 5    1  0.1800099E-008  0.3817645E+03  0.7957747E-01  0.3443511E+00
         13   -1    0    0    0    0  0.00000000000E+00  0.00000000000E+00  0.14999999963E+04  0.15000000000E+04  0.10566000000E+00 0. -1.
        994   -1    0    0    0    0 -0.00000000000E+00 -0.00000000000E+00  0.11368683772E-12  0.17120000000E+03  0.17120000000E+03 0.  0.
         13    1    1    2    0    0 -0.41516242124E+02 -0.18491768473E+02  0.27161857312E+03  0.27539463373E+03  0.10566000000E+00 0. -1.
        994    1    1    2    0    0  0.40557735742E+02  0.12665896063E+02  0.92685683837E+01  0.17663720223E+03  0.17120000000E+03 0.  0.
        998    1    1    2    0    0  0.95850638205E+00  0.58258724104E+01  0.12191128548E+04  0.12191681640E+04  0.10000000000E+02 0. -1.
</event>
<event>
 5    1  0.1800099E-008  0.3716290E+03  0.7957747E-01  0.3488438E+00
         13   -1    0    0    0    0  0.00000000000E+00  0.00000000000E+00  0.14999999963E+04  0.15000000000E+04  0.10566000000E+00 0. -1.
        994   -1    0    0    0    0 -0.00000000000E+00 -0.00000000000E+00  0.11368683772E-12  0.17120000000E+03  0.17120000000E+03 0.  0.
         13    1    1    2    0    0  0.54438588736E+02 -0.17192766302E+02  0.16224449126E+03  0.17199545711E+03  0.10566000000E+00 0. -1.
        994    1    1    2    0    0 -0.64690904705E+02  0.18911354763E+02  0.24204543784E+02  0.18557438517E+03  0.17120000000E+03 0.  0.
        998    1    1    2    0    0  0.10252315969E+02 -0.17185884606E+01  0.13135509612E+04  0.13136301577E+04  0.10000000000E+02 0. -1.
</event>
<event>
 5    1  0.1800099E-008  0.3784264E+03  0.7957747E-01  0.3458039E+00
         13   -1    0    0    0    0  0.00000000000E+00  0.00000000000E+00  0.14999999963E+04  0.15000000000E+04  0.10566000000E+00 0.  1.
        994   -1    0    0    0    0 -0.00000000000E+00 -0.00000000000E+00  0.11368683772E-12  0.17120000000E+03  0.17120000000E+03 0.  0.
         13    1    1    2    0    0 -0.86216136722E+01 -0.72634497762E+02  0.39288022245E+03  0.39963105840E+03  0.10566000000E+00 0.  1.
        994    1    1    2    0    0 -0.10532280881E+02  0.77185109596E+02  0.25600620448E+02  0.18982439741E+03  0.17120000000E+03 0.  0.
        998    1    1    2    0    0  0.19153894553E+02 -0.45506118339E+01  0.10815191534E+04  0.10817445442E+04  0.10000000000E+02 0.  1.
</event>
<event>
 5    1  0.1800099E-008  0.3810924E+03  0.7957747E-01  0.3446416E+00
         13   -1    0    0    0    0  0.00000000000E+00  0.00000000000E+00  0.14999999963E+04  0.15000000000E+04  0.10566000000E+00 0. -1.
        994   -1    0    0    0    0 -0.00000000000E+00 -0.00000000000E+00  0.11368683772E-12  0.17120000000E+03  0.17120000000E+03 0.  0.
         13    1    1    2    0    0 -0.33429364307E+01  0.32538065222E+02  0.16004253776E+03  0.16335092889E+03  0.10566000000E+00 0. -1.
        994    1    1    2    0    0 -0.96827981274E+01 -0.94957409210E+01  0.41956087187E+01  0.17178756884E+03  0.17120000000E+03 0.  0.
        998    1    1    2    0    0  0.13025734558E+02 -0.23042324301E+02  0.13357618498E+04  0.13360615023E+04  0.10000000000E+02 0. -1.
</event>
<event>
 5    1  0.1800099E-008  0.3848604E+03  0.7957747E-01  0.3430264E+00
         13   -1    0    0    0    0  0.00000000000E+00  0.00000000000E+00  0.14999999963E+04  0.15000000000E+04  0.10566000000E+00 0.  1.
        994   -1    0    0    0    0 -0.00000000000E+00 -0.00000000000E+00  0.11368683772E-12  0.17120000000E+03  0.17120000000E+03 0.  0.
         13    1    1    2    0    0 -0.35231129936E+01  0.11026657936E+02  0.40316611650E+02  0.41945677362E+02  0.10566000000E+00 0.  1.
        994    1    1    2    0    0  0.39073170230E+01 -0.11817133841E+01  0.17542916147E+01  0.17125764541E+03  0.17120000000E+03 0.  0.
        998    1    1    2    0    0 -0.38420402942E+00 -0.98449445520E+01  0.14579290930E+04  0.14579966772E+04  0.10000000000E+02 0.  1.
</event>
<event>
 5    1  0.1800099E-008  0.3819291E+03  0.7957747E-01  0.3442801E+00
         13   -1    0    0    0    0  0.00000000000E+00  0.00000000000E+00  0.14999999963E+04  0.15000000000E+04  0.10566000000E+00 0.  1.
        994   -1    0    0    0    0 -0.00000000000E+00 -0.00000000000E+00  0.11368683772E-12  0.17120000000E+03  0.17120000000E+03 0.  0.
         13    1    1    2    0    0  0.24894546979E+02  0.53618359518E+01  0.10314550938E+03  0.10624262338E+03  0.10566000000E+00 0.  1.
        994    1    1    2    0    0 -0.13541692493E+02  0.15838179367E+01  0.37802045244E+01  0.17178363095E+03  0.17120000000E+03 0.  0.
        998    1    1    2    0    0 -0.11352854486E+02 -0.69456538885E+01  0.13930742824E+04  0.13931737457E+04  0.10000000000E+02 0.  1.
</event>
<event>
 5    1  0.1800099E-008  0.2483809E+03  0.7957747E-01  0.4351078E+00
         13   -1    0    0    0    0  0.00000000000E+00  0.00000000000E+00  0.14999999963E+04  0.15000000000E+04  0.10566000000E+00 0. -1.
        994   -1    0    0    0    0 -0.00000000000E+00 -0.00000000000E+00  0.11368683772E-12  0.17120000000E+03  0.17120000000E+03 0.  0.
         13    1    1    2    0    0  0.27592937471E+02  0.17465223977E+03  0.26434798975E+03  0.31803246046E+03  0.10566000000E+00 0. -1.
        994    1    1    2    0    0 -0.24188184793E+02 -0.16637791131E+03  0.18643649920E+03  0.30386623026E+03  0.17120000000E+03 0.  0.
        998    1    1    2    0    0 -0.34047526779E+01 -0.82743284574E+01  0.10492155073E+04  0.10493013093E+04  0.10000000000E+02 0. -1.
</event>
<event>
 5    1  0.1800099E-008  0.3839577E+03  0.7957747E-01  0.3434105E+00
         13   -1    0    0    0    0  0.00000000000E+00  0.00000000000E+00  0.14999999963E+04  0.15000000000E+04  0.10566000000E+00 0. -1.
        994   -1    0    0    0    0 -0.00000000000E+00 -0.00000000000E+00  0.11368683772E-12  0.17120000000E+03  0.17120000000E+03 0.  0.
         13    1    1    2    0    0 -0.14206459508E+01  0.17286386985E+02  0.66160582930E+02  0.68396427594E+02  0.10566000000E+00 0. -1.
        994    1    1    2    0    0  0.43159043148E+01 -0.19967328833E+02  0.35268122504E+01  0.17245057163E+03  0.17120000000E+03 0.  0.
        998    1    1    2    0    0 -0.28952583640E+01  0.26809418479E+01  0.14303126011E+04  0.14303530008E+04  0.10000000000E+02 0. -1.
</event>
<event>
 5    1  0.1800099E-008  0.3804914E+03  0.7957747E-01  0.3449022E+00
         13   -1    0    0    0    0  0.00000000000E+00  0.00000000000E+00  0.14999999963E+04  0.15000000000E+04  0.10566000000E+00 0. -1.
        994   -1    0    0    0    0 -0.00000000000E+00 -0.00000000000E+00  0.11368683772E-12  0.17120000000E+03  0.17120000000E+03 0.  0.
         13    1    1    2    0    0 -0.87887082376E-01 -0.26020536426E+02  0.83494258914E+02  0.87455008293E+02  0.10566000000E+00 0. -1.
        994    1    1    2    0    0 -0.20859283791E+01  0.21732783241E+02  0.54777928019E+01  0.17267342349E+03  0.17120000000E+03 0.  0.
        998    1    1    2    0    0  0.21738154615E+01  0.42877531845E+01  0.14110279446E+04  0.14110715682E+04  0.10000000000E+02 0. -1.
</event>
<event>
 5    1  0.2082899E-008  0.3864169E+03  0.7957747E-01  0.3423685E+00
         13   -1    0    0    0    0  0.00000000000E+00  0.00000000000E+00  0.14999999963E+04  0.15000000000E+04  0.10566000000E+00 0.  1.
        994   -1    0    0    0    0 -0.00000000000E+00 -0.00000000000E+00  0.11368683772E-12  0.17120000000E+03  0.17120000000E+03 0.  0.
         13    1    1    2    0    0  0.18789840653E+01  0.10106240171E+02  0.59493408488E+02  0.60375023719E+02  0.10566000000E+00 0.  1.
        994    1    1    2    0    0  0.27093900587E+01 -0.44323300232E+01  0.10166543057E+01  0.17128181436E+03  0.17120000000E+03 0.  0.
        998    1    1    2    0    0 -0.45883741240E+01 -0.56739101480E+01  0.14394899335E+04  0.14395431619E+04  0.10000000000E+02 0.  1.
</event>
<event>
 5    1  0.1800099E-008  0.3907004E+03  0.7957747E-01  0.3405850E+00
         13   -1    0    0    0    0  0.00000000000E+00  0.00000000000E+00  0.14999999963E+04  0.15000000000E+04  0.10566000000E+00 0. -1.
        994   -1    0    0    0    0 -0.00000000000E+00 -0.00000000000E+00  0.11368683772E-12  0.17120000000E+03  0.17120000000E+03 0.  0.
         13    1    1    2    0    0 -0.10086619293E+03  0.12967458289E+02  0.26807356567E+03  0.28671517509E+03  0.10566000000E+00 0. -1.
        994    1    1    2    0    0  0.21233155651E+02 -0.32932843120E+02  0.28147683443E+02  0.17786835339E+03  0.17120000000E+03 0.  0.
        998    1    1    2    0    0  0.79633037279E+02  0.19965384832E+02  0.12037787472E+04  0.12066164715E+04  0.10000000000E+02 0. -1.
</event>
<event>
 5    1  0.1800099E-008  0.3851779E+03  0.7957747E-01  0.3428918E+00
         13   -1    0    0    0    0  0.00000000000E+00  0.00000000000E+00  0.14999999963E+04  0.15000000000E+04  0.10566000000E+00 0. -1.
        994   -1    0    0    0    0 -0.00000000000E+00 -0.00000000000E+00  0.11368683772E-12  0.17120000000E+03  0.17120000000E+03 0.  0.
         13    1    1    2    0    0 -0.49100596744E+01  0.18627969366E+02  0.11370375731E+03  0.11532417578E+03  0.10566000000E+00 0. -1.
        994    1    1    2    0    0  0.38212439133E+00 -0.19591858752E+02  0.28049352653E+01  0.17234063540E+03  0.17120000000E+03 0.  0.
        998    1    1    2    0    0  0.45279352831E+01  0.96388938632E+00  0.13834913037E+04  0.13835351888E+04  0.10000000000E+02 0. -1.
</event>
<event>
 5    1  0.1800099E-008  0.3790874E+03  0.7957747E-01  0.3455142E+00
         13   -1    0    0    0    0  0.00000000000E+00  0.00000000000E+00  0.14999999963E+04  0.15000000000E+04  0.10566000000E+00 0. -1.
        994   -1    0    0    0    0 -0.00000000000E+00 -0.00000000000E+00  0.11368683772E-12  0.17120000000E+03  0.17120000000E+03 0.  0.
         13    1    1    2    0    0  0.58859373767E+00  0.15192627545E+02  0.23021340703E+02  0.27589049750E+02  0.10566000000E+00 0. -1.
        994    1    1    2    0    0 -0.14527505193E+02 -0.13556343421E+02  0.59195122255E+01  0.17245087265E+03  0.17120000000E+03 0.  0.
        998    1    1    2    0    0  0.13938911455E+02 -0.16362841238E+01  0.14710591434E+04  0.14711600776E+04  0.10000000000E+02 0. -1.
</event>
<event>
 5    1  0.1800099E-008  0.3853515E+03  0.7957747E-01  0.3428183E+00
         13   -1    0    0    0    0  0.00000000000E+00  0.00000000000E+00  0.14999999963E+04  0.15000000000E+04  0.10566000000E+00 0.  1.
        994   -1    0    0    0    0 -0.00000000000E+00 -0.00000000000E+00  0.11368683772E-12  0.17120000000E+03  0.17120000000E+03 0.  0.
         13    1    1    2    0    0 -0.58549455614E+01  0.11903128675E+02  0.61454956472E+02  0.62870403998E+02  0.10566000000E+00 0.  1.
        994    1    1    2    0    0  0.77940744613E+01 -0.37450964899E+01  0.17013934766E+01  0.17142668428E+03  0.17120000000E+03 0.  0.
        998    1    1    2    0    0 -0.19391288999E+01 -0.81580321848E+01  0.14368436463E+04  0.14369029117E+04  0.10000000000E+02 0.  1.
</event>
<event>
 5    1  0.1800099E-008  0.3724493E+03  0.7957747E-01  0.3484709E+00
         13   -1    0    0    0    0  0.00000000000E+00  0.00000000000E+00  0.14999999963E+04  0.15000000000E+04  0.10566000000E+00 0.  1.
        994   -1    0    0    0    0 -0.00000000000E+00 -0.00000000000E+00  0.11368683772E-12  0.17120000000E+03  0.17120000000E+03 0.  0.
         13    1    1    2    0    0 -0.40613712552E+01 -0.17438397385E+02  0.73810945034E+01  0.19367089610E+02  0.10566000000E+00 0.  1.
        994    1    1    2    0    0  0.56851856669E+01  0.24949371819E+02  0.14552197246E+02  0.17371240294E+03  0.17120000000E+03 0.  0.
        998    1    1    2    0    0 -0.16238144117E+01 -0.75109744337E+01  0.14780667045E+04  0.14781205075E+04  0.10000000000E+02 0.  1.
</event>
<event>
 5    1  0.1800099E-008  0.3758003E+03  0.7957747E-01  0.3469651E+00
         13   -1    0    0    0    0  0.00000000000E+00  0.00000000000E+00  0.14999999963E+04  0.15000000000E+04  0.10566000000E+00 0. -1.
        994   -1    0    0    0    0 -0.00000000000E+00 -0.00000000000E+00  0.11368683772E-12  0.17120000000E+03  0.17120000000E+03 0.  0.
         13    1    1    2    0    0  0.26760166145E+02 -0.96667365260E+01  0.61257865161E+02  0.67543241670E+02  0.10566000000E+00 0. -1.
        994    1    1    2    0    0 -0.20391196538E+02  0.10232980576E+02  0.80349102748E+01  0.17290030240E+03  0.17120000000E+03 0.  0.
        998    1    1    2    0    0 -0.63689696075E+01 -0.56624405007E+00  0.14307072208E+04  0.14307564559E+04  0.10000000000E+02 0. -1.
</event>
<event>
 5    1  0.1800099E-008  0.3738715E+03  0.7957747E-01  0.3478285E+00
         13   -1    0    0    0    0  0.00000000000E+00  0.00000000000E+00  0.14999999963E+04  0.15000000000E+04  0.10566000000E+00 0.  1.
        994   -1    0    0    0    0 -0.00000000000E+00 -0.00000000000E+00  0.11368683772E-12  0.17120000000E+03  0.17120000000E+03 0.  0.
         13    1    1    2    0    0 -0.96285727384E+01 -0.19676801919E+02  0.29836872473E+02  0.37015349110E+02  0.10566000000E+00 0.  1.
        994    1    1    2    0    0  0.98090571482E+01  0.15165743844E+02  0.83732646468E+01  0.17235361600E+03  0.17120000000E+03 0.  0.
        998    1    1    2    0    0 -0.18048440977E+00  0.45110580748E+01  0.14617898592E+04  0.14618310349E+04  0.10000000000E+02 0.  1.
</event>
<event>
 5    1  0.1800099E-008  0.3847310E+03  0.7957747E-01  0.3430814E+00
         13   -1    0    0    0    0  0.00000000000E+00  0.00000000000E+00  0.14999999963E+04  0.15000000000E+04  0.10566000000E+00 0.  1.
        994   -1    0    0    0    0 -0.00000000000E+00 -0.00000000000E+00  0.11368683772E-12  0.17120000000E+03  0.17120000000E+03 0.  0.
         13    1    1    2    0    0  0.13724292070E+02  0.68050077479E+01  0.60084602301E+02  0.62006732868E+02  0.10566000000E+00 0.  1.
        994    1    1    2    0    0 -0.25462863217E+02 -0.10238076467E+02  0.42467887702E+01  0.17343774338E+03  0.17120000000E+03 0.  0.
        998    1    1    2    0    0  0.11738571148E+02  0.34330687194E+01  0.14356686052E+04  0.14357555238E+04  0.10000000000E+02 0.  1.
</event>
<event>
 5    1  0.1800099E-008  0.3831254E+03  0.7957747E-01  0.3437661E+00
         13   -1    0    0    0    0  0.00000000000E+00  0.00000000000E+00  0.14999999963E+04  0.15000000000E+04  0.10566000000E+00 0.  1.
        994   -1    0    0    0    0 -0.00000000000E+00 -0.00000000000E+00  0.11368683772E-12  0.17120000000E+03  0.17120000000E+03 0.  0.
         13    1    1    2    0    0 -0.10223624710E+02  0.48824108560E+00  0.19509205239E+02  0.22031367063E+02  0.10566000000E+00 0.  1.
        994    1    1    2    0    0  0.68690175308E+01  0.18447868036E+01  0.27310832347E+01  0.17136944143E+03  0.17120000000E+03 0.  0.
        998    1    1    2    0    0  0.33546071793E+01 -0.23330278892E+01  0.14777597078E+04  0.14777991915E+04  0.10000000000E+02 0.  1.
</event>
<event>
 5    1  0.1800099E-008  0.3844719E+03  0.7957747E-01  0.3431915E+00
         13   -1    0    0    0    0  0.00000000000E+00  0.00000000000E+00  0.14999999963E+04  0.15000000000E+04  0.10566000000E+00 0. -1.
        994   -1    0    0    0    0 -0.00000000000E+00 -0.00000000000E+00  0.11368683772E-12  0.17120000000E+03  0.17120000000E+03 0.  0.
         13    1    1    2    0    0 -0.14913824802E+02 -0.78724695981E+01  0.69745889804E+02  0.71755823850E+02  0.10566000000E+00 0. -1.
        994    1    1    2    0    0  0.19024466410E+02  0.12734377641E+02  0.36210034846E+01  0.17276181975E+03  0.17120000000E+03 0.  0.
        998    1    1    2    0    0 -0.41106416079E+01 -0.48619080426E+01  0.14266331030E+04  0.14266823564E+04  0.10000000000E+02 0. -1.
</event>
<event>
 5    1  0.1800099E-008  0.3817234E+03  0.7957747E-01  0.3443689E+00
         13   -1    0    0    0    0  0.00000000000E+00  0.00000000000E+00  0.14999999963E+04  0.15000000000E+04  0.10566000000E+00 0.  1.
        994   -1    0    0    0    0 -0.00000000000E+00 -0.00000000000E+00  0.11368683772E-12  0.17120000000E+03  0.17120000000E+03 0.  0.
         13    1    1    2    0    0 -0.24707210042E+02  0.15007143579E+02  0.13588973558E+03  0.13893052935E+03  0.10566000000E+00 0.  1.
        994    1    1    2    0    0  0.14069739090E+00 -0.13844657400E+02  0.39031530207E+01  0.17180328558E+03  0.17120000000E+03 0.  0.
        998    1    1    2    0    0  0.24566512651E+02 -0.11624861793E+01  0.13602071077E+04  0.13604661851E+04  0.10000000000E+02 0.  1.
</event>
<event>
 5    1  0.1800099E-008  0.3767532E+03  0.7957747E-01  0.3465419E+00
         13   -1    0    0    0    0  0.00000000000E+00  0.00000000000E+00  0.14999999963E+04  0.15000000000E+04  0.10566000000E+00 0.  1.
        994   -1    0    0    0    0 -0.00000000000E+00 -0.00000000000E+00  0.11368683772E-12  0.17120000000E+03  0.17120000000E+03 0.  0.
         13    1    1    2    0    0  0.13976723389E+02 -0.20487262790E+01  0.14709419105E+02  0.20394221007E+02  0.10566000000E+00 0.  1.
        994    1    1    2    0    0 -0.93156658166E+01  0.94026113721E+01  0.63733658444E+01  0.17182913176E+03  0.17120000000E+03 0.  0.
        998    1    1    2    0    0 -0.46610575727E+01 -0.73538850931E+01  0.14789172113E+04  0.14789766472E+04  0.10000000000E+02 0.  1.
</event>
<event>
 5    1  0.1800099E-008  0.3770726E+03  0.7957747E-01  0.3464005E+00
         13   -1    0    0    0    0  0.00000000000E+00  0.00000000000E+00  0.14999999963E+04  0.15000000000E+04  0.10566000000E+00 0.  1.
        994   -1    0    0    0    0 -0.00000000000E+00 -0.00000000000E+00  0.11368683772E-12  0.17120000000E+03  0.17120000000E+03 0.  0.
         13    1    1    2    0    0  0.96124925374E+01  0.31464263503E+01  0.63639905803E+01  0.11950378726E+02  0.10566000000E+00 0.  1.
        994    1    1    2    0    0 -0.16812055970E+02 -0.77051281649E+01  0.67735791980E+01  0.17232914902E+03  0.17120000000E+03 0.  0.
        998    1    1    2    0    0  0.71995634327E+01  0.45587018146E+01  0.14868624265E+04  0.14869204723E+04  0.10000000000E+02 0.  1.
</event>
<event>
 5    1  0.1800099E-008  0.3775018E+03  0.7957747E-01  0.3462109E+00
         13   -1    0    0    0    0  0.00000000000E+00  0.00000000000E+00  0.14999999963E+04  0.15000000000E+04  0.10566000000E+00 0. -1.
        994   -1    0    0    0    0 -0.00000000000E+00 -0.00000000000E+00  0.11368683772E-12  0.17120000000E+03  0.17120000000E+03 0.  0.
         13    1    1    2    0    0  0.30001740538E+02 -0.18399004285E+02  0.10959101307E+03  0.11510355818E+03  0.10566000000E+00 0. -1.
        994    1    1    2    0    0 -0.23098968875E+02  0.14479390262E+02  0.79088246608E+01  0.17353732916E+03  0.17120000000E+03 0.  0.
        998    1    1    2    0    0 -0.69027716629E+01  0.39196140231E+01  0.13825001585E+04  0.13825591127E+04  0.10000000000E+02 0. -1.
</event>
<event>
 5    1  0.1800099E-008  0.3767443E+03  0.7957747E-01  0.3465458E+00
         13   -1    0    0    0    0  0.00000000000E+00  0.00000000000E+00  0.14999999963E+04  0.15000000000E+04  0.10566000000E+00 0.  1.
        994   -1    0    0    0    0 -0.00000000000E+00 -0.00000000000E+00  0.11368683772E-12  0.17120000000E+03  0.17120000000E+03 0.  0.
         13    1    1    2    0    0 -0.21816013362E+02 -0.18928404797E+02  0.72793361370E+02  0.78314159452E+02  0.10566000000E+00 0.  1.
        994    1    1    2    0    0  0.16220720577E+02 -0.64382229230E+01  0.68156101001E+01  0.17222210959E+03  0.17120000000E+03 0.  0.
        998    1    1    2    0    0  0.55952927846E+01  0.25366627720E+02  0.14203910248E+04  0.14206637310E+04  0.10000000000E+02 0.  1.
</event>
<event>
 5    1  0.1800099E-008  0.3822166E+03  0.7957747E-01  0.3441563E+00
         13   -1    0    0    0    0  0.00000000000E+00  0.00000000000E+00  0.14999999963E+04  0.15000000000E+04  0.10566000000E+00 0. -1.
        994   -1    0    0    0    0 -0.00000000000E+00 -0.00000000000E+00  0.11368683772E-12  0.17120000000E+03  0.17120000000E+03 0.  0.
         13    1    1    2    0    0 -0.50939639178E+01 -0.90166895860E+01  0.16328606643E+02  0.19336072984E+02  0.10566000000E+00 0. -1.
        994    1    1    2    0    0  0.63981576048E+01  0.10398839371E+02  0.35132376496E+01  0.17167077538E+03  0.17120000000E+03 0.  0.
        998    1    1    2    0    0 -0.13041936869E+01 -0.13821497849E+01  0.14801581520E+04  0.14801931516E+04  0.10000000000E+02 0. -1.
</event>
<event>
 5    1  0.1800099E-008  0.3858573E+03  0.7957747E-01  0.3426045E+00
         13   -1    0    0    0    0  0.00000000000E+00  0.00000000000E+00  0.14999999963E+04  0.15000000000E+04  0.10566000000E+00 0. -1.
        994   -1    0    0    0    0 -0.00000000000E+00 -0.00000000000E+00  0.11368683772E-12  0.17120000000E+03  0.17120000000E+03 0.  0.
         13    1    1    2    0    0  0.84098710709E+01 -0.11264909274E+02  0.77349112215E+02  0.78616286079E+02  0.10566000000E+00 0. -1.
        994    1    1    2    0    0 -0.19267162142E+00  0.22426068559E+02  0.28563491866E+01  0.17268631794E+03  0.17120000000E+03 0.  0.
        998    1    1    2    0    0 -0.82171994494E+01 -0.11161159285E+02  0.14197945349E+04  0.14198973960E+04  0.10000000000E+02 0. -1.
</event>
<event>
 5    1  0.2656248E-008  0.3861853E+03  0.7957747E-01  0.3424661E+00
         13   -1    0    0    0    0  0.00000000000E+00  0.00000000000E+00  0.14999999963E+04  0.15000000000E+04  0.10566000000E+00 0. -1.
        994   -1    0    0    0    0 -0.00000000000E+00 -0.00000000000E+00  0.11368683772E-12  0.17120000000E+03  0.17120000000E+03 0.  0.
         13    1    1    2    0    0 -0.10540387902E+02 -0.15266868564E+01  0.60665995383E+02  0.61593869092E+02  0.10566000000E+00 0. -1.
        994    1    1    2    0    0 -0.47746350214E+01 -0.21136325356E+01  0.11321313479E+01  0.17128335092E+03  0.17120000000E+03 0.  0.
        998    1    1    2    0    0  0.15315022924E+02  0.36403193920E+01  0.14382018695E+04  0.14383227800E+04  0.10000000000E+02 0. -1.
</event>
<event>
 5    1  0.1800099E-008  0.3913265E+03  0.7957747E-01  0.3403276E+00
         13   -1    0    0    0    0  0.00000000000E+00  0.00000000000E+00  0.14999999963E+04  0.15000000000E+04  0.10566000000E+00 0.  1.
        994   -1    0    0    0    0 -0.00000000000E+00 -0.00000000000E+00  0.11368683772E-12  0.17120000000E+03  0.17120000000E+03 0.  0.
         13    1    1    2    0    0 -0.28094372647E+02 -0.58204190332E+01  0.84054976332E+01  0.29897066857E+02  0.10566000000E+00 0.  1.
        994    1    1    2    0    0  0.28401098436E+02  0.64482276485E+01  0.25907243229E+02  0.17558139789E+03  0.17120000000E+03 0.  0.
        998    1    1    2    0    0 -0.30672578902E+00 -0.62780861539E+00  0.14656872554E+04  0.14657215353E+04  0.10000000000E+02 0.  1.
</event>
<event>
 5    1  0.1800099E-008  0.3801457E+03  0.7957747E-01  0.3450524E+00
         13   -1    0    0    0    0  0.00000000000E+00  0.00000000000E+00  0.14999999963E+04  0.15000000000E+04  0.10566000000E+00 0. -1.
        994   -1    0    0    0    0 -0.00000000000E+00 -0.00000000000E+00  0.11368683772E-12  0.17120000000E+03  0.17120000000E+03 0.  0.
         13    1    1    2    0    0  0.34776343984E+02 -0.19931163825E+02  0.23965033902E+03  0.24297930272E+03  0.10566000000E+00 0. -1.
        994    1    1    2    0    0 -0.74913544588E+00 -0.15159005627E+01  0.40691698986E+01  0.17125670002E+03  0.17120000000E+03 0.  0.
        998    1    1    2    0    0 -0.34027208538E+02  0.21447064388E+02  0.12562804874E+04  0.12569639973E+04  0.10000000000E+02 0. -1.
</event>
<event>
 5    1  0.1800099E-008  0.3703038E+03  0.7957747E-01  0.3494496E+00
         13   -1    0    0    0    0  0.00000000000E+00  0.00000000000E+00  0.14999999963E+04  0.15000000000E+04  0.10566000000E+00 0. -1.
        994   -1    0    0    0    0 -0.00000000000E+00 -0.00000000000E+00  0.11368683772E-12  0.17120000000E+03  0.17120000000E+03 0.  0.
         13    1    1    2    0    0 -0.49484972872E+01  0.15841218852E+02  0.70814032188E+01  0.18044092543E+02  0.10566000000E+00 0. -1.
        994    1    1    2    0    0  0.54859580622E+01 -0.29172606479E+02  0.14189465690E+02  0.17433277845E+03  0.17120000000E+03 0.  0.
        998    1    1    2    0    0 -0.53746077504E+00  0.13331387627E+02  0.14787291274E+04  0.14788231290E+04  0.10000000000E+02 0. -1.
</event>
<event>
 5    1  0.1800099E-008  0.3785583E+03  0.7957747E-01  0.3457460E+00
         13   -1    0    0    0    0  0.00000000000E+00  0.00000000000E+00  0.14999999963E+04  0.15000000000E+04  0.10566000000E+00 0.  1.
        994   -1    0    0    0    0 -0.00000000000E+00 -0.00000000000E+00  0.11368683772E-12  0.17120000000E+03  0.17120000000E+03 0.  0.
         13    1    1    2    0    0 -0.33368031058E+01 -0.20346953533E+02  0.40737044995E+02  0.45657975995E+02  0.10566000000E+00 0.  1.
        994    1    1    2    0    0 -0.49011853279E+01  0.22782811334E+02  0.66889938739E+01  0.17290824373E+03  0.17120000000E+03 0.  0.
        998    1    1    2    0    0  0.82379884338E+01 -0.24358578014E+01  0.14525739574E+04  0.14526337803E+04  0.10000000000E+02 0.  1.
</event>
<event>
 5    1  0.1800099E-008  0.3785840E+03  0.7957747E-01  0.3457347E+00
         13   -1    0    0    0    0  0.00000000000E+00  0.00000000000E+00  0.14999999963E+04  0.15000000000E+04  0.10566000000E+00 0.  1.
        994   -1    0    0    0    0 -0.00000000000E+00 -0.00000000000E+00  0.11368683772E-12  0.17120000000E+03  0.17120000000E+03 0.  0.
         13    1    1    2    0    0 -0.63896321924E+01  0.31605114119E+02  0.11028029046E+03  0.11489762515E+03  0.10566000000E+00 0.  1.
        994    1    1    2    0    0  0.15760336189E+02 -0.79091333598E+01  0.58946921246E+01  0.17220664907E+03  0.17120000000E+03 0.  0.
        998    1    1    2    0    0 -0.93707039966E+01 -0.23695980759E+02  0.13838250137E+04  0.13840957258E+04  0.10000000000E+02 0.  1.
</event>
<event>
 5    1  0.1800099E-008  0.3767538E+03  0.7957747E-01  0.3465416E+00
         13   -1    0    0    0    0  0.00000000000E+00  0.00000000000E+00  0.14999999963E+04  0.15000000000E+04  0.10566000000E+00 0.  1.
        994   -1    0    0    0    0 -0.00000000000E+00 -0.00000000000E+00  0.11368683772E-12  0.17120000000E+03  0.17120000000E+03 0.  0.
         13    1    1    2    0    0 -0.42520160247E+02  0.67331824793E+01  0.56088665241E+02  0.70705369713E+02  0.10566000000E+00 0.  1.
        994    1    1    2    0    0  0.44395672348E+02 -0.97648169397E+00  0.21650337393E+02  0.17818559523E+03  0.17120000000E+03 0.  0.
        998    1    1    2    0    0 -0.18755121014E+01 -0.57567007854E+01  0.14222609936E+04  0.14223090351E+04  0.10000000000E+02 0.  1.
</event>
<event>
 5    1  0.1800099E-008  0.3812135E+03  0.7957747E-01  0.3445891E+00
         13   -1    0    0    0    0  0.00000000000E+00  0.00000000000E+00  0.14999999963E+04  0.15000000000E+04  0.10566000000E+00 0.  1.
        994   -1    0    0    0    0 -0.00000000000E+00 -0.00000000000E+00  0.11368683772E-12  0.17120000000E+03  0.17120000000E+03 0.  0.
         13    1    1    2    0    0  0.43955972017E+01  0.26700052033E+02  0.11707116390E+03  0.12015774063E+03  0.10566000000E+00 0.  1.
        994    1    1    2    0    0 -0.34854743587E+01  0.55577251372E+01  0.36651243787E+01  0.17136484464E+03  0.17120000000E+03 0.  0.
        998    1    1    2    0    0 -0.91012284302E+00 -0.32257777171E+02  0.13792637080E+04  0.13796774147E+04  0.10000000000E+02 0.  1.
</event>
<event>
 5    1  0.1800099E-008  0.4095646E+03  0.7957747E-01  0.3331735E+00
         13   -1    0    0    0    0  0.00000000000E+00  0.00000000000E+00  0.14999999963E+04  0.15000000000E+04  0.10566000000E+00 0. -1.
        994   -1    0    0    0    0 -0.00000000000E+00 -0.00000000000E+00  0.11368683772E-12  0.17120000000E+03  0.17120000000E+03 0.  0.
         13    1    1    2    0    0  0.19674261499E+02  0.85516547582E+02  0.13739975793E+03  0.16303024602E+03  0.10566000000E+00 0. -1.
        994    1    1    2    0    0 -0.18465029143E+01  0.28772063794E+02  0.37018811806E+02  0.17751358724E+03  0.17120000000E+03 0.  0.
        998    1    1    2    0    0 -0.17827758585E+02 -0.11428861138E+03  0.13255814265E+04  0.13306561667E+04  0.10000000000E+02 0. -1.
</event>
<event>
 5    1  0.1800099E-008  0.3841198E+03  0.7957747E-01  0.3433414E+00
         13   -1    0    0    0    0  0.00000000000E+00  0.00000000000E+00  0.14999999963E+04  0.15000000000E+04  0.10566000000E+00 0. -1.
        994   -1    0    0    0    0 -0.00000000000E+00 -0.00000000000E+00  0.11368683772E-12  0.17120000000E+03  0.17120000000E+03 0.  0.
         13    1    1    2    0    0  0.11941973877E+02 -0.18527236136E+01  0.34587050882E+02  0.36637666105E+02  0.10566000000E+00 0. -1.
        994    1    1    2    0    0 -0.83181693432E+01  0.95833729809E+01  0.25990427168E+01  0.17168933573E+03  0.17120000000E+03 0.  0.
        998    1    1    2    0    0 -0.36238045342E+01 -0.77306493673E+01  0.14628139027E+04  0.14628729982E+04  0.10000000000E+02 0. -1.
</event>
<event>
 5    1  0.1800099E-008  0.3847794E+03  0.7957747E-01  0.3430608E+00
         13   -1    0    0    0    0  0.00000000000E+00  0.00000000000E+00  0.14999999963E+04  0.15000000000E+04  0.10566000000E+00 0.  1.
        994   -1    0    0    0    0 -0.00000000000E+00 -0.00000000000E+00  0.11368683772E-12  0.17120000000E+03  0.17120000000E+03 0.  0.
         13    1    1    2    0    0  0.13630521966E+02 -0.12088250211E+02  0.10078856663E+03  0.10242198617E+03  0.10566000000E+00 0.  1.
        994    1    1    2    0    0 -0.46093207908E+01  0.14588043434E+01  0.18166245140E+01  0.17127788553E+03  0.17120000000E+03 0.  0.
        998    1    1    2    0    0 -0.90212011755E+01  0.10629445868E+02  0.13973948051E+04  0.13975001283E+04  0.10000000000E+02 0.  1.
</event>
<event>
 5    1  0.1800099E-008  0.3804741E+03  0.7957747E-01  0.3449097E+00
         13   -1    0    0    0    0  0.00000000000E+00  0.00000000000E+00  0.14999999963E+04  0.15000000000E+04  0.10566000000E+00 0. -1.
        994   -1    0    0    0    0 -0.00000000000E+00 -0.00000000000E+00  0.11368683772E-12  0.17120000000E+03  0.17120000000E+03 0.  0.
         13    1    1    2    0    0  0.10594656885E+02  0.16554535770E+02  0.50032171813E+02  0.53754337401E+02  0.10566000000E+00 0. -1.
        994    1    1    2    0    0 -0.59950025349E+01  0.28183340648E+00  0.40142619769E+01  0.17135219224E+03  0.17120000000E+03 0.  0.
        998    1    1    2    0    0 -0.45996543505E+01 -0.16836369176E+02  0.14459535625E+04  0.14460934704E+04  0.10000000000E+02 0. -1.
</event>
<event>
 5    1  0.1800099E-008  0.3779221E+03  0.7957747E-01  0.3460256E+00
         13   -1    0    0    0    0  0.00000000000E+00  0.00000000000E+00  0.14999999963E+04  0.15000000000E+04  0.10566000000E+00 0. -1.
        994   -1    0    0    0    0 -0.00000000000E+00 -0.00000000000E+00  0.11368683772E-12  0.17120000000E+03  0.17120000000E+03 0.  0.
         13    1    1    2    0    0 -0.14219879248E+02 -0.13300704410E+02  0.32363592449E+02  0.37769392156E+02  0.10566000000E+00 0. -1.
        994    1    1    2    0    0  0.28702952015E+02  0.19679256451E+02  0.92732648495E+01  0.17494732359E+03  0.17120000000E+03 0.  0.
        998    1    1    2    0    0 -0.14483072768E+02 -0.63785520410E+01  0.14583631390E+04  0.14584832843E+04  0.10000000000E+02 0. -1.
</event>
<event>
 5    1  0.1800099E-008  0.3795264E+03  0.7957747E-01  0.3453223E+00
         13   -1    0    0    0    0  0.00000000000E+00  0.00000000000E+00  0.14999999963E+04  0.15000000000E+04  0.10566000000E+00 0.  1.
        994   -1    0    0    0    0 -0.00000000000E+00 -0.00000000000E+00  0.11368683772E-12  0.17120000000E+03  0.17120000000E+03 0.  0.
         13    1    1    2    0    0 -0.11661929010E+02 -0.13896543077E+02  0.35176336481E+02  0.39579038770E+02  0.10566000000E+00 0.  1.
        994    1    1    2    0    0  0.11943271331E+02  0.14437064173E+02  0.55487219823E+01  0.17231163300E+03  0.17120000000E+03 0.  0.
        998    1    1    2    0    0 -0.28134232092E+00 -0.54052109584E+00  0.14592749378E+04  0.14593093282E+04  0.10000000000E+02 0.  1.
</event>
<event>
 5    1  0.1800099E-008  0.3838614E+03  0.7957747E-01  0.3434516E+00
         13   -1    0    0    0    0  0.00000000000E+00  0.00000000000E+00  0.14999999963E+04  0.15000000000E+04  0.10566000000E+00 0. -1.
        994   -1    0    0    0    0 -0.00000000000E+00 -0.00000000000E+00  0.11368683772E-12  0.17120000000E+03  0.17120000000E+03 0.  0.
         13    1    1    2    0    0 -0.57264364275E+01 -0.10196618104E+02  0.30362654568E+02  0.32537133423E+02  0.10566000000E+00 0. -1.
        994    1    1    2    0    0 -0.29999463642E+01  0.12210039814E+02  0.27184958369E+01  0.17168259950E+03  0.17120000000E+03 0.  0.
        998    1    1    2    0    0  0.87263827917E+01 -0.20134217102E+01  0.14669188459E+04  0.14669802671E+04  0.10000000000E+02 0. -1.
</event>
<event>
 5    1  0.1800099E-008  0.3829834E+03  0.7957747E-01  0.3438270E+00
         13   -1    0    0    0    0  0.00000000000E+00  0.00000000000E+00  0.14999999963E+04  0.15000000000E+04  0.10566000000E+00 0. -1.
        994   -1    0    0    0    0 -0.00000000000E+00 -0.00000000000E+00  0.11368683772E-12  0.17120000000E+03  0.17120000000E+03 0.  0.
         13    1    1    2    0    0 -0.76095316895E+01 -0.95153980055E+01  0.27264191778E+02  0.29862938386E+02  0.10566000000E+00 0. -1.
        994    1    1    2    0    0  0.96208511678E+01  0.29566612282E+01  0.29700937679E+01  0.17152132252E+03  0.17120000000E+03 0.  0.
        998    1    1    2    0    0 -0.20113194783E+01  0.65587367773E+01  0.14697657107E+04  0.14698157391E+04  0.10000000000E+02 0. -1.
</event>
<event>
 5    1  0.1800099E-008  0.3860842E+03  0.7957747E-01  0.3425087E+00
         13   -1    0    0    0    0  0.00000000000E+00  0.00000000000E+00  0.14999999963E+04  0.15000000000E+04  0.10566000000E+00 0. -1.
        994   -1    0    0    0    0 -0.00000000000E+00 -0.00000000000E+00  0.11368683772E-12  0.17120000000E+03  0.17120000000E+03 0.  0.
         13    1    1    2    0    0 -0.10798494322E+02 -0.67551610085E+01  0.67001240532E+02  0.68201298204E+02  0.10566000000E+00 0. -1.
        994    1    1    2    0    0  0.18381785206E+02  0.15093128927E+02  0.29488255935E+01  0.17286939619E+03  0.17120000000E+03 0.  0.
        998    1    1    2    0    0 -0.75832908842E+01 -0.83379679180E+01  0.14300499302E+04  0.14301293056E+04  0.10000000000E+02 0. -1.
</event>
<event>
 5    1  0.1800099E-008  0.3812199E+03  0.7957747E-01  0.3445864E+00
         13   -1    0    0    0    0  0.00000000000E+00  0.00000000000E+00  0.14999999963E+04  0.15000000000E+04  0.10566000000E+00 0.  1.
        994   -1    0    0    0    0 -0.00000000000E+00 -0.00000000000E+00  0.11368683772E-12  0.17120000000E+03  0.17120000000E+03 0.  0.
         13    1    1    2    0    0  0.32098412621E+02  0.23397447561E+01  0.17085662814E+03  0.17386138457E+03  0.10566000000E+00 0.  1.
        994    1    1    2    0    0  0.21212264675E+01 -0.12441016879E+01  0.35387428943E+01  0.17125422649E+03  0.17120000000E+03 0.  0.
        998    1    1    2    0    0 -0.34219639088E+02 -0.10956430682E+01  0.13256046252E+04  0.13260843889E+04  0.10000000000E+02 0.  1.
</event>
<event>
 5    1  0.1800099E-008  0.3757408E+03  0.7957747E-01  0.3469916E+00
         13   -1    0    0    0    0  0.00000000000E+00  0.00000000000E+00  0.14999999963E+04  0.15000000000E+04  0.10566000000E+00 0. -1.
        994   -1    0    0    0    0 -0.00000000000E+00 -0.00000000000E+00  0.11368683772E-12  0.17120000000E+03  0.17120000000E+03 0.  0.
         13    1    1    2    0    0  0.30956637620E+02  0.54563982690E+01  0.76729256920E+02  0.82918488447E+02  0.10566000000E+00 0. -1.
        994    1    1    2    0    0 -0.16150871865E+02 -0.10217975349E+02  0.75382806575E+01  0.17242831368E+03  0.17120000000E+03 0.  0.
        998    1    1    2    0    0 -0.14805765754E+02  0.47615770798E+01  0.14157324587E+04  0.14158531979E+04  0.10000000000E+02 0. -1.
</event>
<event>
 5    1  0.1800099E-008  0.3684191E+03  0.7957747E-01  0.3503188E+00
         13   -1    0    0    0    0  0.00000000000E+00  0.00000000000E+00  0.14999999963E+04  0.15000000000E+04  0.10566000000E+00 0. -1.
        994   -1    0    0    0    0 -0.00000000000E+00 -0.00000000000E+00  0.11368683772E-12  0.17120000000E+03  0.17120000000E+03 0.  0.
         13    1    1    2    0    0  0.22939821331E+02 -0.52106107068E+01  0.23743745389E+02  0.33423980549E+02  0.10566000000E+00 0. -1.
        994    1    1    2    0    0 -0.70024390782E+01 -0.21281000205E+01  0.10284017522E+02  0.17166468472E+03  0.17120000000E+03 0.  0.
        998    1    1    2    0    0 -0.15937382252E+02  0.73387107274E+01  0.14659722334E+04  0.14661113347E+04  0.10000000000E+02 0. -1.
</event>
<event>
 5    1  0.1800099E-008  0.3844214E+03  0.7957747E-01  0.3432130E+00
         13   -1    0    0    0    0  0.00000000000E+00  0.00000000000E+00  0.14999999963E+04  0.15000000000E+04  0.10566000000E+00 0. -1.
        994   -1    0    0    0    0 -0.00000000000E+00 -0.00000000000E+00  0.11368683772E-12  0.17120000000E+03  0.17120000000E+03 0.  0.
         13    1    1    2    0    0 -0.97873418301E+01  0.80020269563E+01  0.41941728919E+02  0.43805756291E+02  0.10566000000E+00 0. -1.
        994    1    1    2    0    0  0.88620587252E+00 -0.74055516030E+01  0.21009605706E+01  0.17137526540E+03  0.17120000000E+03 0.  0.
        998    1    1    2    0    0  0.89011359576E+01 -0.59647535327E+00  0.14559573068E+04  0.14560189783E+04  0.10000000000E+02 0. -1.
</event>
<event>
 5    1  0.1800099E-008  0.3808931E+03  0.7957747E-01  0.3447279E+00
         13   -1    0    0    0    0  0.00000000000E+00  0.00000000000E+00  0.14999999963E+04  0.15000000000E+04  0.10566000000E+00 0.  1.
        994   -1    0    0    0    0 -0.00000000000E+00 -0.00000000000E+00  0.11368683772E-12  0.17120000000E+03  0.17120000000E+03 0.  0.
         13    1    1    2    0    0 -0.68549970822E+01  0.10119480304E+02  0.19710864456E+02  0.23193193145E+02  0.10566000000E+00 0.  1.
        994    1    1    2    0    0 -0.10309089028E+02  0.42444658837E+01  0.40973934335E+01  0.17161154227E+03  0.17120000000E+03 0.  0.
        998    1    1    2    0    0  0.17164086111E+02 -0.14363946188E+02  0.14761917384E+04  0.14763952646E+04  0.10000000000E+02 0.  1.
</event>
<event>
 5    1  0.1800099E-008  0.3796435E+03  0.7957747E-01  0.3452712E+00
         13   -1    0    0    0    0  0.00000000000E+00  0.00000000000E+00  0.14999999963E+04  0.15000000000E+04  0.10566000000E+00 0.  1.
        994   -1    0    0    0    0 -0.00000000000E+00 -0.00000000000E+00  0.11368683772E-12  0.17120000000E+03  0.17120000000E+03 0.  0.
         13    1    1    2    0    0  0.36697328566E+02 -0.30325323051E+02  0.25284065682E+03  0.25728336139E+03  0.10566000000E+00 0.  1.
        994    1    1    2    0    0 -0.24335899570E+02  0.19451000918E+02  0.75684161318E+01  0.17417605567E+03  0.17120000000E+03 0.  0.
        998    1    1    2    0    0 -0.12361428996E+02  0.10874322133E+02  0.12395909233E+04  0.12397405829E+04  0.10000000000E+02 0.  1.
</event>
<event>
 5    1  0.1800099E-008  0.3829370E+03  0.7957747E-01  0.3438469E+00
         13   -1    0    0    0    0  0.00000000000E+00  0.00000000000E+00  0.14999999963E+04  0.15000000000E+04  0.10566000000E+00 0. -1.
        994   -1    0    0    0    0 -0.00000000000E+00 -0.00000000000E+00  0.11368683772E-12  0.17120000000E+03  0.17120000000E+03 0.  0.
         13    1    1    2    0    0 -0.74126638500E+01  0.14902412742E+02  0.52347850785E+02  0.54930302536E+02  0.10566000000E+00 0. -1.
        994    1    1    2    0    0  0.94220148770E+01 -0.27171177173E+01  0.29762710486E+01  0.17150642927E+03  0.17120000000E+03 0.  0.
        998    1    1    2    0    0 -0.20093510271E+01 -0.12185295024E+02  0.14446758744E+04  0.14447632682E+04  0.10000000000E+02 0. -1.
</event>
<event>
 5    1  0.1800099E-008  0.3773111E+03  0.7957747E-01  0.3462951E+00
         13   -1    0    0    0    0  0.00000000000E+00  0.00000000000E+00  0.14999999963E+04  0.15000000000E+04  0.10566000000E+00 0.  1.
        994   -1    0    0    0    0 -0.00000000000E+00 -0.00000000000E+00  0.11368683772E-12  0.17120000000E+03  0.17120000000E+03 0.  0.
         13    1    1    2    0    0  0.14490657821E+02 -0.64272280299E+00  0.16791176198E+02  0.22188894042E+02  0.10566000000E+00 0.  1.
        994    1    1    2    0    0 -0.94533780294E+01  0.20866589131E+01  0.58128455119E+01  0.17157199560E+03  0.17120000000E+03 0.  0.
        998    1    1    2    0    0 -0.50372797913E+01 -0.14439361101E+01  0.14773959746E+04  0.14774391104E+04  0.10000000000E+02 0.  1.
</event>
<event>
 5    1  0.1800099E-008  0.3793700E+03  0.7957747E-01  0.3453906E+00
         13   -1    0    0    0    0  0.00000000000E+00  0.00000000000E+00  0.14999999963E+04  0.15000000000E+04  0.10566000000E+00 0. -1.
        994   -1    0    0    0    0 -0.00000000000E+00 -0.00000000000E+00  0.11368683772E-12  0.17120000000E+03  0.17120000000E+03 0.  0.
         13    1    1    2    0    0  0.21980793118E+02 -0.15145425969E+02  0.77394142933E+02  0.81868209448E+02  0.10566000000E+00 0. -1.
        994    1    1    2    0    0 -0.71144108852E+01  0.24598677300E+02  0.66511437944E+01  0.17323217796E+03  0.17120000000E+03 0.  0.
        998    1    1    2    0    0 -0.14866382233E+02 -0.94532513316E+01  0.14159547096E+04  0.14160996126E+04  0.10000000000E+02 0. -1.
</event>
<event>
 5    1  0.1800099E-008  0.3819167E+03  0.7957747E-01  0.3442855E+00
         13   -1    0    0    0    0  0.00000000000E+00  0.00000000000E+00  0.14999999963E+04  0.15000000000E+04  0.10566000000E+00 0.  1.
        994   -1    0    0    0    0 -0.00000000000E+00 -0.00000000000E+00  0.11368683772E-12  0.17120000000E+03  0.17120000000E+03 0.  0.
         13    1    1    2    0    0  0.12344906388E+02  0.49208638798E+01  0.27308995254E+02  0.30371104703E+02  0.10566000000E+00 0.  1.
        994    1    1    2    0    0 -0.56973197772E-02 -0.50028048745E+01  0.32518884231E+01  0.17130394878E+03  0.17120000000E+03 0.  0.
        998    1    1    2    0    0 -0.12339209068E+02  0.81940994745E-01  0.14694391126E+04  0.14695249465E+04  0.10000000000E+02 0.  1.
</event>
<event>
 5    1  0.1800099E-008  0.3843354E+03  0.7957747E-01  0.3432496E+00
         13   -1    0    0    0    0  0.00000000000E+00  0.00000000000E+00  0.14999999963E+04  0.15000000000E+04  0.10566000000E+00 0. -1.
        994   -1    0    0    0    0 -0.00000000000E+00 -0.00000000000E+00  0.11368683772E-12  0.17120000000E+03  0.17120000000E+03 0.  0.
         13    1    1    2    0    0  0.94448751783E+01 -0.35392056027E+01  0.25784640151E+02  0.27687370319E+02  0.10566000000E+00 0. -1.
        994    1    1    2    0    0 -0.39405818179E+01 -0.13487084843E+01  0.20176337246E+01  0.17126254128E+03  0.17120000000E+03 0.  0.
        998    1    1    2    0    0 -0.55042933604E+01  0.48879140870E+01  0.14721977224E+04  0.14722500884E+04  0.10000000000E+02 0. -1.
</event>
<event>
 5    1  0.1800099E-008  0.3799541E+03  0.7957747E-01  0.3451359E+00
         13   -1    0    0    0    0  0.00000000000E+00  0.00000000000E+00  0.14999999963E+04  0.15000000000E+04  0.10566000000E+00 0.  1.
        994   -1    0    0    0    0 -0.00000000000E+00 -0.00000000000E+00  0.11368683772E-12  0.17120000000E+03  0.17120000000E+03 0.  0.
         13    1    1    2    0    0 -0.10358267784E+02 -0.29982666465E+02  0.11976996735E+03  0.12389959743E+03  0.10566000000E+00 0.  1.
        994    1    1    2    0    0 -0.15206363383E+02  0.25641121151E+02  0.71333275833E+01  0.17392246820E+03  0.17120000000E+03 0.  0.
        998    1    1    2    0    0  0.25564631167E+02  0.43415453141E+01  0.13730967013E+04  0.13733779344E+04  0.10000000000E+02 0.  1.
</event>
<event>
 5    1  0.1800099E-008  0.3796587E+03  0.7957747E-01  0.3452646E+00
         13   -1    0    0    0    0  0.00000000000E+00  0.00000000000E+00  0.14999999963E+04  0.15000000000E+04  0.10566000000E+00 0.  1.
        994   -1    0    0    0    0 -0.00000000000E+00 -0.00000000000E+00  0.11368683772E-12  0.17120000000E+03  0.17120000000E+03 0.  0.
         13    1    1    2    0    0  0.52174102121E+01  0.26128955412E+02  0.74710359151E+02  0.79319560064E+02  0.10566000000E+00 0.  1.
        994    1    1    2    0    0 -0.13145439014E+01 -0.35253365963E+02  0.84818412619E+01  0.17500259846E+03  0.17120000000E+03 0.  0.
        998    1    1    2    0    0 -0.39028663107E+01  0.91244105507E+01  0.14168077959E+04  0.14168778415E+04  0.10000000000E+02 0.  1.
</event>
<event>
 5    1  0.1800099E-008  0.3824525E+03  0.7957747E-01  0.3440549E+00
         13   -1    0    0    0    0  0.00000000000E+00  0.00000000000E+00  0.14999999963E+04  0.15000000000E+04  0.10566000000E+00 0.  1.
        994   -1    0    0    0    0 -0.00000000000E+00 -0.00000000000E+00  0.11368683772E-12  0.17120000000E+03  0.17120000000E+03 0.  0.
         13    1    1    2    0    0  0.11424493939E+02  0.82132994902E+01  0.33604066134E+02  0.36431055092E+02  0.10566000000E+00 0.  1.
        994    1    1    2    0    0 -0.42632287071E+01 -0.35425619639E+01  0.30021443741E+01  0.17131601716E+03  0.17120000000E+03 0.  0.
        998    1    1    2    0    0 -0.71612652320E+01 -0.46707375263E+01  0.14633937858E+04  0.14634529277E+04  0.10000000000E+02 0.  1.
</event>
<event>
 5    1  0.1800099E-008  0.3815435E+03  0.7957747E-01  0.3444465E+00
         13   -1    0    0    0    0  0.00000000000E+00  0.00000000000E+00  0.14999999963E+04  0.15000000000E+04  0.10566000000E+00 0.  1.
        994   -1    0    0    0    0 -0.00000000000E+00 -0.00000000000E+00  0.11368683772E-12  0.17120000000E+03  0.17120000000E+03 0.  0.
         13    1    1    2    0    0 -0.20882379123E+02 -0.36999193185E+02  0.19433161626E+03  0.19892159837E+03  0.10566000000E+00 0.  1.
        994    1    1    2    0    0  0.32666352658E+02  0.58271938988E+02  0.18343740554E+02  0.18468525195E+03  0.17120000000E+03 0.  0.
        998    1    1    2    0    0 -0.11783973536E+02 -0.21272745803E+02  0.12873246395E+04  0.12875931497E+04  0.10000000000E+02 0.  1.
</event>
<event>
 5    1  0.1800099E-008  0.3727433E+03  0.7957747E-01  0.3483377E+00
         13   -1    0    0    0    0  0.00000000000E+00  0.00000000000E+00  0.14999999963E+04  0.15000000000E+04  0.10566000000E+00 0.  1.
        994   -1    0    0    0    0 -0.00000000000E+00 -0.00000000000E+00  0.11368683772E-12  0.17120000000E+03  0.17120000000E+03 0.  0.
         13    1    1    2    0    0  0.30939960794E+02 -0.92621657475E+02  0.37492287926E+03  0.38743157998E+03  0.10566000000E+00 0.  1.
        994    1    1    2    0    0 -0.21472569145E+02  0.11818818411E+03  0.59007782486E+02  0.21730365041E+03  0.17120000000E+03 0.  0.
        998    1    1    2    0    0 -0.94673916497E+01 -0.25566526633E+02  0.10660693345E+04  0.10664647696E+04  0.10000000000E+02 0.  1.
</event>
<event>
 5    1  0.1800099E-008  0.3863567E+03  0.7957747E-01  0.3423939E+00
         13   -1    0    0    0    0  0.00000000000E+00  0.00000000000E+00  0.14999999963E+04  0.15000000000E+04  0.10566000000E+00 0.  1.
        994   -1    0    0    0    0 -0.00000000000E+00 -0.00000000000E+00  0.11368683772E-12  0.17120000000E+03  0.17120000000E+03 0.  0.
         13    1    1    2    0    0  0.45588930464E+01  0.10793534673E+02  0.68274861954E+02  0.69273023865E+02  0.10566000000E+00 0.  1.
        994    1    1    2    0    0 -0.23988820529E+01 -0.16141565521E+02  0.18304998944E+01  0.17198574215E+03  0.17120000000E+03 0.  0.
        998    1    1    2    0    0 -0.21600109936E+01  0.53480308486E+01  0.14298946344E+04  0.14299412340E+04  0.10000000000E+02 0.  1.
</event>
<event>
 5    1  0.1800099E-008  0.3856154E+03  0.7957747E-01  0.3427066E+00
         13   -1    0    0    0    0  0.00000000000E+00  0.00000000000E+00  0.14999999963E+04  0.15000000000E+04  0.10566000000E+00 0.  1.
        994   -1    0    0    0    0 -0.00000000000E+00 -0.00000000000E+00  0.11368683772E-12  0.17120000000E+03  0.17120000000E+03 0.  0.
         13    1    1    2    0    0  0.46390303237E+01 -0.16601102974E+02  0.92749182798E+02  0.94337369562E+02  0.10566000000E+00 0.  1.
        994    1    1    2    0    0  0.29380185398E+02  0.47990030250E+02  0.11786607607E+02  0.18059513398E+03  0.17120000000E+03 0.  0.
        998    1    1    2    0    0 -0.34019215722E+02 -0.31388927276E+02  0.13954642059E+04  0.13962674965E+04  0.10000000000E+02 0.  1.
</event>
<event>
 5    1  0.1800099E-008  0.3845521E+03  0.7957747E-01  0.3431574E+00
         13   -1    0    0    0    0  0.00000000000E+00  0.00000000000E+00  0.14999999963E+04  0.15000000000E+04  0.10566000000E+00 0. -1.
        994   -1    0    0    0    0 -0.00000000000E+00 -0.00000000000E+00  0.11368683772E-12  0.17120000000E+03  0.17120000000E+03 0.  0.
         13    1    1    2    0    0  0.68219383359E+00 -0.20274804897E+02  0.10692469332E+03  0.10883213821E+03  0.10566000000E+00 0. -1.
        994    1    1    2    0    0 -0.27107162838E+01  0.17437314883E+02  0.28789424582E+01  0.17213116000E+03  0.17120000000E+03 0.  0.
        998    1    1    2    0    0  0.20285224502E+01  0.28374900143E+01  0.13901963605E+04  0.13902367018E+04  0.10000000000E+02 0. -1.
</event>
<event>
 5    1  0.1800099E-008  0.3797906E+03  0.7957747E-01  0.3452071E+00
         13   -1    0    0    0    0  0.00000000000E+00  0.00000000000E+00  0.14999999963E+04  0.15000000000E+04  0.10566000000E+00 0. -1.
        994   -1    0    0    0    0 -0.00000000000E+00 -0.00000000000E+00  0.11368683772E-12  0.17120000000E+03  0.17120000000E+03 0.  0.
         13    1    1    2    0    0 -0.24805022610E+02  0.83643773848E+01  0.86605417192E+02  0.90475197744E+02  0.10566000000E+00 0. -1.
        994    1    1    2    0    0 -0.20550317264E+02 -0.64534962919E+02  0.19739588224E+02  0.18516524599E+03  0.17120000000E+03 0.  0.
        998    1    1    2    0    0  0.45355339874E+02  0.56170585534E+02  0.13936549909E+04  0.13955595563E+04  0.10000000000E+02 0. -1.
</event>
<event>
 5    1  0.1800099E-008  0.3858356E+03  0.7957747E-01  0.3426136E+00
         13   -1    0    0    0    0  0.00000000000E+00  0.00000000000E+00  0.14999999963E+04  0.15000000000E+04  0.10566000000E+00 0. -1.
        994   -1    0    0    0    0 -0.00000000000E+00 -0.00000000000E+00  0.11368683772E-12  0.17120000000E+03  0.17120000000E+03 0.  0.
         13    1    1    2    0    0  0.59190989692E+01 -0.10263131543E+02  0.66192626942E+02  0.67244647573E+02  0.10566000000E+00 0. -1.
        994    1    1    2    0    0  0.57392607967E+01 -0.70906219697E+01  0.14888169870E+01  0.17144932957E+03  0.17120000000E+03 0.  0.
        998    1    1    2    0    0 -0.11658359766E+02  0.17353753513E+02  0.14323185523E+04  0.14325060229E+04  0.10000000000E+02 0. -1.
</event>
<event>
 5    1  0.1800099E-008  0.3851157E+03  0.7957747E-01  0.3429182E+00
         13   -1    0    0    0    0  0.00000000000E+00  0.00000000000E+00  0.14999999963E+04  0.15000000000E+04  0.10566000000E+00 0.  1.
        994   -1    0    0    0    0 -0.00000000000E+00 -0.00000000000E+00  0.11368683772E-12  0.17120000000E+03  0.17120000000E+03 0.  0.
         13    1    1    2    0    0  0.53786877126E+00  0.17507486468E+02  0.99706781584E+02  0.10123366457E+03  0.10566000000E+00 0.  1.
        994    1    1    2    0    0 -0.72687297895E+01 -0.85169682984E+01  0.19849886294E+01  0.17157725188E+03  0.17120000000E+03 0.  0.
        998    1    1    2    0    0  0.67308610182E+01 -0.89905181700E+01  0.13983082261E+04  0.13983890835E+04  0.10000000000E+02 0.  1.
</event>
<event>
 5    1  0.1800099E-008  0.3776565E+03  0.7957747E-01  0.3461426E+00
         13   -1    0    0    0    0  0.00000000000E+00  0.00000000000E+00  0.14999999963E+04  0.15000000000E+04  0.10566000000E+00 0.  1.
        994   -1    0    0    0    0 -0.00000000000E+00 -0.00000000000E+00  0.11368683772E-12  0.17120000000E+03  0.17120000000E+03 0.  0.
         13    1    1    2    0    0 -0.19453018250E+02 -0.10124478298E+02  0.43326839053E+02  0.48560798245E+02  0.10566000000E+00 0.  1.
        994    1    1    2    0    0  0.12926983674E+02  0.32329793546E+01  0.59192445915E+01  0.17181977918E+03  0.17120000000E+03 0.  0.
        998    1    1    2    0    0  0.65260345761E+01  0.68914989432E+01  0.14507539126E+04  0.14508194226E+04  0.10000000000E+02 0.  1.
</event>
<event>
 5    1  0.1800099E-008  0.3840699E+03  0.7957747E-01  0.3433627E+00
         13   -1    0    0    0    0  0.00000000000E+00  0.00000000000E+00  0.14999999963E+04  0.15000000000E+04  0.10566000000E+00 0. -1.
        994   -1    0    0    0    0 -0.00000000000E+00 -0.00000000000E+00  0.11368683772E-12  0.17120000000E+03  0.17120000000E+03 0.  0.
         13    1    1    2    0    0 -0.12101824114E+02  0.67343622374E+01  0.47619672392E+02  0.49592843681E+02  0.10566000000E+00 0. -1.
        994    1    1    2    0    0 -0.24417800100E+01 -0.31024948194E+01  0.21440534772E+01  0.17125894058E+03  0.17120000000E+03 0.  0.
        998    1    1    2    0    0  0.14543604124E+02 -0.36318674181E+01  0.14502362704E+04  0.14503482157E+04  0.10000000000E+02 0. -1.
</event>
<event>
 5    1  0.1800099E-008  0.3806478E+03  0.7957747E-01  0.3448343E+00
         13   -1    0    0    0    0  0.00000000000E+00  0.00000000000E+00  0.14999999963E+04  0.15000000000E+04  0.10566000000E+00 0.  1.
        994   -1    0    0    0    0 -0.00000000000E+00 -0.00000000000E+00  0.11368683772E-12  0.17120000000E+03  0.17120000000E+03 0.  0.
         13    1    1    2    0    0  0.18303133294E+02 -0.14249102811E+02  0.66872194218E+02  0.70780951836E+02  0.10566000000E+00 0.  1.
        994    1    1    2    0    0 -0.20029533933E+02  0.11581265876E+02  0.55941927786E+01  0.17284687715E+03  0.17120000000E+03 0.  0.
        998    1    1    2    0    0  0.17264006398E+01  0.26678369357E+01  0.14275336093E+04  0.14275721710E+04  0.10000000000E+02 0.  1.
</event>
<event>
 5    1  0.1800099E-008  0.3756206E+03  0.7957747E-01  0.3470452E+00
         13   -1    0    0    0    0  0.00000000000E+00  0.00000000000E+00  0.14999999963E+04  0.15000000000E+04  0.10566000000E+00 0.  1.
        994   -1    0    0    0    0 -0.00000000000E+00 -0.00000000000E+00  0.11368683772E-12  0.17120000000E+03  0.17120000000E+03 0.  0.
         13    1    1    2    0    0  0.51007128605E+00  0.21459398834E+02  0.33570912940E+02  0.39846999017E+02  0.10566000000E+00 0.  1.
        994    1    1    2    0    0  0.58730982456E+01 -0.15411010850E+02  0.72835339972E+01  0.17214668863E+03  0.17120000000E+03 0.  0.
        998    1    1    2    0    0 -0.63831695316E+01 -0.60483879838E+01  0.14591455493E+04  0.14592063124E+04  0.10000000000E+02 0.  1.
</event>
<event>
 5    1  0.1800099E-008  0.4214423E+03  0.7957747E-01  0.3288439E+00
         13   -1    0    0    0    0  0.00000000000E+00  0.00000000000E+00  0.14999999963E+04  0.15000000000E+04  0.10566000000E+00 0.  1.
        994   -1    0    0    0    0 -0.00000000000E+00 -0.00000000000E+00  0.11368683772E-12  0.17120000000E+03  0.17120000000E+03 0.  0.
         13    1    1    2    0    0  0.29746566908E+02  0.19115633125E+02 -0.47084437040E+00  0.35362388650E+02  0.10566000000E+00 0.  1.
        994    1    1    2    0    0 -0.56989476799E+01  0.17757708509E+02  0.42778593858E+02  0.17744650548E+03  0.17120000000E+03 0.  0.
        998    1    1    2    0    0 -0.24047619228E+02 -0.36873341633E+02  0.14576922468E+04  0.14583911059E+04  0.10000000000E+02 0.  1.
</event>
<event>
 5    1  0.1800099E-008  0.3807322E+03  0.7957747E-01  0.3447976E+00
         13   -1    0    0    0    0  0.00000000000E+00  0.00000000000E+00  0.14999999963E+04  0.15000000000E+04  0.10566000000E+00 0.  1.
        994   -1    0    0    0    0 -0.00000000000E+00 -0.00000000000E+00  0.11368683772E-12  0.17120000000E+03  0.17120000000E+03 0.  0.
         13    1    1    2    0    0  0.13549457903E+02  0.33688065353E+02  0.19990576314E+03  0.20317676751E+03  0.10566000000E+00 0.  1.
        994    1    1    2    0    0 -0.74064924401E+01 -0.78879444993E+00  0.39490270779E+01  0.17140744774E+03  0.17120000000E+03 0.  0.
        998    1    1    2    0    0 -0.61429654625E+01 -0.32899270903E+02  0.12961452061E+04  0.12966157847E+04  0.10000000000E+02 0.  1.
</event>
<event>
 5    1  0.1800099E-008  0.3726300E+03  0.7957747E-01  0.3483891E+00
         13   -1    0    0    0    0  0.00000000000E+00  0.00000000000E+00  0.14999999963E+04  0.15000000000E+04  0.10566000000E+00 0. -1.
        994   -1    0    0    0    0 -0.00000000000E+00 -0.00000000000E+00  0.11368683772E-12  0.17120000000E+03  0.17120000000E+03 0.  0.
         13    1    1    2    0    0 -0.19351308725E+02 -0.57976108781E+02  0.28207510631E+03  0.28862099560E+03  0.10566000000E+00 0. -1.
        994    1    1    2    0    0  0.94500926145E+01  0.56013286913E+01  0.83144745127E+01  0.17175345592E+03  0.17120000000E+03 0.  0.
        998    1    1    2    0    0  0.99012161109E+01  0.52374780089E+02  0.12096104155E+04  0.12108255485E+04  0.10000000000E+02 0. -1.
</event>
<event>
 5    1  0.1800099E-008  0.3719129E+03  0.7957747E-01  0.3487146E+00
         13   -1    0    0    0    0  0.00000000000E+00  0.00000000000E+00  0.14999999963E+04  0.15000000000E+04  0.10566000000E+00 0. -1.
        994   -1    0    0    0    0 -0.00000000000E+00 -0.00000000000E+00  0.11368683772E-12  0.17120000000E+03  0.17120000000E+03 0.  0.
         13    1    1    2    0    0 -0.46057704148E+02 -0.15253575531E+01  0.11802815389E+03  0.12670554487E+03  0.10566000000E+00 0. -1.
        994    1    1    2    0    0  0.42737836212E+02  0.47340681082E+00  0.14573686751E+02  0.17705529956E+03  0.17120000000E+03 0.  0.
        998    1    1    2    0    0  0.33198679362E+01  0.10519507423E+01  0.13673981556E+04  0.13674391556E+04  0.10000000000E+02 0.  0.
</event>
<event>
 5    1  0.1800099E-008  0.3821334E+03  0.7957747E-01  0.3441921E+00
         13   -1    0    0    0    0  0.00000000000E+00  0.00000000000E+00  0.14999999963E+04  0.15000000000E+04  0.10566000000E+00 0. -1.
        994   -1    0    0    0    0 -0.00000000000E+00 -0.00000000000E+00  0.11368683772E-12  0.17120000000E+03  0.17120000000E+03 0.  0.
         13    1    1    2    0    0 -0.26646746483E+02 -0.29666086020E+01  0.10466192676E+03  0.10804156580E+03  0.10566000000E+00 0. -1.
        994    1    1    2    0    0  0.34283753225E+02  0.30779622371E+01  0.70031707306E+01  0.17476651277E+03  0.17120000000E+03 0.  0.
        998    1    1    2    0    0 -0.76370067414E+01 -0.11135363507E+00  0.13883348988E+04  0.13883919214E+04  0.10000000000E+02 0. -1.
</event>
<event>
 5    1  0.1800099E-008  0.3849623E+03  0.7957747E-01  0.3429832E+00
         13   -1    0    0    0    0  0.00000000000E+00  0.00000000000E+00  0.14999999963E+04  0.15000000000E+04  0.10566000000E+00 0. -1.
        994   -1    0    0    0    0 -0.00000000000E+00 -0.00000000000E+00  0.11368683772E-12  0.17120000000E+03  0.17120000000E+03 0.  0.
         13    1    1    2    0    0 -0.31253066991E+01 -0.20106328721E+02  0.12216262476E+03  0.12384567028E+03  0.10566000000E+00 0. -1.
        994    1    1    2    0    0  0.48137634251E+01  0.15386062974E+02  0.25041529647E+01  0.17197562046E+03  0.17120000000E+03 0.  0.
        998    1    1    2    0    0 -0.16884567259E+01  0.47202657469E+01  0.13753332186E+04  0.13753787093E+04  0.10000000000E+02 0.  0.
</event>
<event>
 5    1  0.1800099E-008  0.3696393E+03  0.7957747E-01  0.3497550E+00
         13   -1    0    0    0    0  0.00000000000E+00  0.00000000000E+00  0.14999999963E+04  0.15000000000E+04  0.10566000000E+00 0.  1.
        994   -1    0    0    0    0 -0.00000000000E+00 -0.00000000000E+00  0.11368683772E-12  0.17120000000E+03  0.17120000000E+03 0.  0.
         13    1    1    2    0    0 -0.20975077116E+02  0.37161998809E+02  0.91484137192E+02  0.10094714725E+03  0.10566000000E+00 0.  1.
        994    1    1    2    0    0 -0.14635786582E+02  0.15509932699E+01  0.11504871707E+02  0.17221618362E+03  0.17120000000E+03 0.  0.
        998    1    1    2    0    0  0.35610863698E+02 -0.38712992079E+02  0.13970109874E+04  0.13980366691E+04  0.10000000000E+02 0.  1.
</event>
<event>
 5    1  0.1800099E-008  0.3816934E+03  0.7957747E-01  0.3443818E+00
         13   -1    0    0    0    0  0.00000000000E+00  0.00000000000E+00  0.14999999963E+04  0.15000000000E+04  0.10566000000E+00 0.  1.
        994   -1    0    0    0    0 -0.00000000000E+00 -0.00000000000E+00  0.11368683772E-12  0.17120000000E+03  0.17120000000E+03 0.  0.
         13    1    1    2    0    0 -0.13468923927E+02  0.20441497645E+02  0.10169135197E+03  0.10459640992E+03  0.10566000000E+00 0.  1.
        994    1    1    2    0    0  0.29774743838E+02  0.24141629357E+02  0.81808083905E+01  0.17562949429E+03  0.17120000000E+03 0.  0.
        998    1    1    2    0    0 -0.16305819911E+02 -0.44583127002E+02  0.13901278359E+04  0.13909740958E+04  0.10000000000E+02 0.  1.
</event>
<event>
 5    1  0.1800099E-008  0.3856383E+03  0.7957747E-01  0.3426970E+00
         13   -1    0    0    0    0  0.00000000000E+00  0.00000000000E+00  0.14999999963E+04  0.15000000000E+04  0.10566000000E+00 0. -1.
        994   -1    0    0    0    0 -0.00000000000E+00 -0.00000000000E+00  0.11368683772E-12  0.17120000000E+03  0.17120000000E+03 0.  0.
         13    1    1    2    0    0  0.64786431088E+01  0.99288854111E+01  0.57280852749E+02  0.58494981304E+02  0.10566000000E+00 0. -1.
        994    1    1    2    0    0  0.74454799965E+01 -0.33732148771E+01  0.15328653744E+01  0.17140187697E+03  0.17120000000E+03 0.  0.
        998    1    1    2    0    0 -0.13924123105E+02 -0.65556705340E+01  0.14411862782E+04  0.14413031417E+04  0.10000000000E+02 0. -1.
</event>
<event>
 5    1  0.1800099E-008  0.3852937E+03  0.7957747E-01  0.3428427E+00
         13   -1    0    0    0    0  0.00000000000E+00  0.00000000000E+00  0.14999999963E+04  0.15000000000E+04  0.10566000000E+00 0.  1.
        994   -1    0    0    0    0 -0.00000000000E+00 -0.00000000000E+00  0.11368683772E-12  0.17120000000E+03  0.17120000000E+03 0.  0.
         13    1    1    2    0    0  0.84649336121E+01 -0.72072319112E+01  0.40587916940E+02  0.42083125578E+02  0.10566000000E+00 0.  1.
        994    1    1    2    0    0 -0.74629268168E+01  0.10451478453E+02  0.20264354346E+01  0.17169296759E+03  0.17120000000E+03 0.  0.
        998    1    1    2    0    0 -0.10020067953E+01 -0.32442465422E+01  0.14573856439E+04  0.14574239068E+04  0.10000000000E+02 0.  1.
</event>
<event>
 5    1  0.1800099E-008  0.3785826E+03  0.7957747E-01  0.3457354E+00
         13   -1    0    0    0    0  0.00000000000E+00  0.00000000000E+00  0.14999999963E+04  0.15000000000E+04  0.10566000000E+00 0. -1.
        994   -1    0    0    0    0 -0.00000000000E+00 -0.00000000000E+00  0.11368683772E-12  0.17120000000E+03  0.17120000000E+03 0.  0.
         13    1    1    2    0    0 -0.10829537201E+02  0.37291703215E+02  0.14603003273E+03  0.15110503508E+03  0.10566000000E+00 0. -1.
        994    1    1    2    0    0  0.14258772291E+02 -0.29010323221E+02  0.83678441736E+01  0.17442583598E+03  0.17120000000E+03 0.  0.
        998    1    1    2    0    0 -0.34292350898E+01 -0.82813799947E+01  0.13456021194E+04  0.13456691289E+04  0.10000000000E+02 0. -1.
</event>
<event>
 5    1  0.1800099E-008  0.3815321E+03  0.7957747E-01  0.3444514E+00
         13   -1    0    0    0    0  0.00000000000E+00  0.00000000000E+00  0.14999999963E+04  0.15000000000E+04  0.10566000000E+00 0.  1.
        994   -1    0    0    0    0 -0.00000000000E+00 -0.00000000000E+00  0.11368683772E-12  0.17120000000E+03  0.17120000000E+03 0.  0.
         13    1    1    2    0    0  0.31354767563E+02 -0.20619978535E+02  0.18915272689E+03  0.19283949341E+03  0.10566000000E+00 0.  1.
        994    1    1    2    0    0 -0.30398013386E+02  0.16126940841E+02  0.73102044097E+01  0.17477699084E+03  0.17120000000E+03 0.  0.
        998    1    1    2    0    0 -0.95675417717E+00  0.44930376940E+01  0.13035370650E+04  0.13035835158E+04  0.10000000000E+02 0.  1.
</event>
<event>
 5    1  0.1800099E-008  0.3818384E+03  0.7957747E-01  0.3443192E+00
         13   -1    0    0    0    0  0.00000000000E+00  0.00000000000E+00  0.14999999963E+04  0.15000000000E+04  0.10566000000E+00 0.  1.
        994   -1    0    0    0    0 -0.00000000000E+00 -0.00000000000E+00  0.11368683772E-12  0.17120000000E+03  0.17120000000E+03 0.  0.
         13    1    1    2    0    0  0.30337621225E+02  0.33228854013E+02  0.49950386445E+02  0.67227823635E+02  0.10566000000E+00 0.  1.
        994    1    1    2    0    0 -0.43227912691E+02 -0.24672883011E+02  0.26434281557E+02  0.18023766208E+03  0.17120000000E+03 0.  0.
        998    1    1    2    0    0  0.12890291466E+02 -0.85559710023E+01  0.14236153283E+04  0.14237345143E+04  0.10000000000E+02 0.  1.
</event>
<event>
 5    1  0.1800099E-008  0.3690249E+03  0.7957747E-01  0.3500384E+00
         13   -1    0    0    0    0  0.00000000000E+00  0.00000000000E+00  0.14999999963E+04  0.15000000000E+04  0.10566000000E+00 0.  1.
        994   -1    0    0    0    0 -0.00000000000E+00 -0.00000000000E+00  0.11368683772E-12  0.17120000000E+03  0.17120000000E+03 0.  0.
         13    1    1    2    0    0 -0.11419747493E+02 -0.15539924971E+02  0.13129602519E+02  0.23330184896E+02  0.10566000000E+00 0.  1.
        994    1    1    2    0    0  0.10437014195E+02  0.15769683838E+02  0.11671046053E+02  0.17263622884E+03  0.17120000000E+03 0.  0.
        998    1    1    2    0    0  0.98273329809E+00 -0.22975886686E+00  0.14751993477E+04  0.14752335863E+04  0.10000000000E+02 0.  1.
</event>
<event>
 5    1  0.1800099E-008  0.3838404E+03  0.7957747E-01  0.3434605E+00
         13   -1    0    0    0    0  0.00000000000E+00  0.00000000000E+00  0.14999999963E+04  0.15000000000E+04  0.10566000000E+00 0. -1.
        994   -1    0    0    0    0 -0.00000000000E+00 -0.00000000000E+00  0.11368683772E-12  0.17120000000E+03  0.17120000000E+03 0.  0.
         13    1    1    2    0    0 -0.10514507413E+02 -0.20462032039E+03  0.12204652722E+04  0.12375441496E+04  0.10566000000E+00 0. -1.
        994    1    1    2    0    0  0.89116669685E+01  0.20212609374E+03  0.15166657451E+03  0.30536300595E+03  0.17120000000E+03 0.  0.
        998    1    1    2    0    0  0.16028404447E+01  0.24942266528E+01  0.12786814956E+03  0.12829284445E+03  0.10000000000E+02 0.  0.
</event>
<event>
 5    1  0.1800099E-008  0.3847505E+03  0.7957747E-01  0.3430731E+00
         13   -1    0    0    0    0  0.00000000000E+00  0.00000000000E+00  0.14999999963E+04  0.15000000000E+04  0.10566000000E+00 0. -1.
        994   -1    0    0    0    0 -0.00000000000E+00 -0.00000000000E+00  0.11368683772E-12  0.17120000000E+03  0.17120000000E+03 0.  0.
         13    1    1    2    0    0  0.64240515465E+01  0.11649842664E+02  0.50357897395E+02  0.52085662772E+02  0.10566000000E+00 0. -1.
        994    1    1    2    0    0 -0.20942101142E+01 -0.86599837781E+01  0.20153897459E+01  0.17144352665E+03  0.17120000000E+03 0.  0.
        998    1    1    2    0    0 -0.43298414323E+01 -0.29898588864E+01  0.14476267091E+04  0.14476708106E+04  0.10000000000E+02 0. -1.
</event>
<event>
 5    1  0.1800099E-008  0.3773003E+03  0.7957747E-01  0.3462998E+00
         13   -1    0    0    0    0  0.00000000000E+00  0.00000000000E+00  0.14999999963E+04  0.15000000000E+04  0.10566000000E+00 0. -1.
        994   -1    0    0    0    0 -0.00000000000E+00 -0.00000000000E+00  0.11368683772E-12  0.17120000000E+03  0.17120000000E+03 0.  0.
         13    1    1    2    0    0  0.11179619792E+03  0.13865849156E+03  0.87829078063E+03  0.89616922156E+03  0.10566000000E+00 0. -1.
        994    1    1    2    0    0 -0.10961093121E+03 -0.14700957839E+03  0.12890622138E+03  0.28205075126E+03  0.17120000000E+03 0.  0.
        998    1    1    2    0    0 -0.21852667052E+01  0.83510868247E+01  0.49280299427E+03  0.49298002718E+03  0.10000000000E+02 0.  0.
</event>
<event>
 5    1  0.1800099E-008  0.3720285E+03  0.7957747E-01  0.3486620E+00
         13   -1    0    0    0    0  0.00000000000E+00  0.00000000000E+00  0.14999999963E+04  0.15000000000E+04  0.10566000000E+00 0. -1.
        994   -1    0    0    0    0 -0.00000000000E+00 -0.00000000000E+00  0.11368683772E-12  0.17120000000E+03  0.17120000000E+03 0.  0.
         13    1    1    2    0    0 -0.81482720312E+02  0.14069724640E+02  0.31188773043E+03  0.32266291763E+03  0.10566000000E+00 0. -1.
        994    1    1    2    0    0  0.86630309726E+02 -0.19678979094E+02  0.35818296786E+02  0.19617457319E+03  0.17120000000E+03 0.  0.
        998    1    1    2    0    0 -0.51475894138E+01  0.56092544545E+01  0.11522939691E+04  0.11523625092E+04  0.10000000000E+02 0. -1.
</event>
<event>
 5    1  0.1800099E-008  0.3779036E+03  0.7957747E-01  0.3460338E+00
         13   -1    0    0    0    0  0.00000000000E+00  0.00000000000E+00  0.14999999963E+04  0.15000000000E+04  0.10566000000E+00 0. -1.
        994   -1    0    0    0    0 -0.00000000000E+00 -0.00000000000E+00  0.11368683772E-12  0.17120000000E+03  0.17120000000E+03 0.  0.
         13    1    1    2    0    0  0.27512653957E+01  0.57616591150E+02  0.34511813969E+03  0.34990539085E+03  0.10566000000E+00 0. -1.
        994    1    1    2    0    0 -0.14682243354E+02 -0.23903433663E+02  0.78487181590E+01  0.17366054471E+03  0.17120000000E+03 0.  0.
        998    1    1    2    0    0  0.11930977958E+02 -0.33713157487E+02  0.11470331384E+04  0.11476340644E+04  0.10000000000E+02 0. -1.
</event>
<event>
 5    1  0.1800099E-008  0.3753024E+03  0.7957747E-01  0.3471871E+00
         13   -1    0    0    0    0  0.00000000000E+00  0.00000000000E+00  0.14999999963E+04  0.15000000000E+04  0.10566000000E+00 0.  1.
        994   -1    0    0    0    0 -0.00000000000E+00 -0.00000000000E+00  0.11368683772E-12  0.17120000000E+03  0.17120000000E+03 0.  0.
         13    1    1    2    0    0 -0.24316233707E+02  0.12937263812E+03  0.40065850301E+03  0.42172954119E+03  0.10566000000E+00 0.  1.
        994    1    1    2    0    0  0.26521076740E+02 -0.14135347488E+03  0.91636157048E+02  0.24164187893E+03  0.17120000000E+03 0.  0.
        998    1    1    2    0    0 -0.22048430336E+01  0.11980836763E+02  0.10077053362E+04  0.10078285799E+04  0.10000000000E+02 0. -1.
</event>
<event>
 5    1  0.1800099E-008  0.3852995E+03  0.7957747E-01  0.3428403E+00
         13   -1    0    0    0    0  0.00000000000E+00  0.00000000000E+00  0.14999999963E+04  0.15000000000E+04  0.10566000000E+00 0.  1.
        994   -1    0    0    0    0 -0.00000000000E+00 -0.00000000000E+00  0.11368683772E-12  0.17120000000E+03  0.17120000000E+03 0.  0.
         13    1    1    2    0    0  0.47142991015E+01  0.13171215484E+02  0.65803785824E+02  0.67274474551E+02  0.10566000000E+00 0.  1.
        994    1    1    2    0    0  0.85580272279E+00 -0.11220596399E+02  0.18976911090E+01  0.17157993884E+03  0.17120000000E+03 0.  0.
        998    1    1    2    0    0 -0.55701018242E+01 -0.19506190850E+01  0.14322985193E+04  0.14323455866E+04  0.10000000000E+02 0.  1.
</event>
<event>
 5    1  0.1800099E-008  0.3760697E+03  0.7957747E-01  0.3468452E+00
         13   -1    0    0    0    0  0.00000000000E+00  0.00000000000E+00  0.14999999963E+04  0.15000000000E+04  0.10566000000E+00 0.  1.
        994   -1    0    0    0    0 -0.00000000000E+00 -0.00000000000E+00  0.11368683772E-12  0.17120000000E+03  0.17120000000E+03 0.  0.
         13    1    1    2    0    0  0.52964414541E+02  0.28493473798E+01  0.25869560257E+03  0.26407721208E+03  0.10566000000E+00 0.  1.
        994    1    1    2    0    0 -0.12848628748E+02  0.46262989655E+00  0.66904920413E+01  0.17181240925E+03  0.17120000000E+03 0.  0.
        998    1    1    2    0    0 -0.40115785794E+02 -0.33119772763E+01  0.12346139017E+04  0.12353103787E+04  0.10000000000E+02 0.  1.
</event>
<event>
 5    1  0.1800099E-008  0.2820237E+03  0.7957747E-01  0.4033347E+00
         13   -1    0    0    0    0  0.00000000000E+00  0.00000000000E+00  0.14999999963E+04  0.15000000000E+04  0.10566000000E+00 0. -1.
        994   -1    0    0    0    0 -0.00000000000E+00 -0.00000000000E+00  0.11368683772E-12  0.17120000000E+03  0.17120000000E+03 0.  0.
         13    1    1    2    0    0 -0.13283304073E+03 -0.47305049005E+02  0.65436568151E+03  0.66938542012E+03  0.10566000000E+00 0. -1.
        994    1    1    2    0    0  0.83842598941E+02 -0.10168162981E+02  0.43140132625E+02  0.19571275885E+03  0.17120000000E+03 0.  0.
        998    1    1    2    0    0  0.48990441786E+02  0.57473211986E+02  0.80249418215E+03  0.80610182103E+03  0.10000000000E+02 0. -1.
</event>
<event>
 5    1  0.1800099E-008  0.4087602E+03  0.7957747E-01  0.3334756E+00
         13   -1    0    0    0    0  0.00000000000E+00  0.00000000000E+00  0.14999999963E+04  0.15000000000E+04  0.10566000000E+00 0. -1.
        994   -1    0    0    0    0 -0.00000000000E+00 -0.00000000000E+00  0.11368683772E-12  0.17120000000E+03  0.17120000000E+03 0.  0.
         13    1    1    2    0    0  0.28006531597E+02  0.35151247110E+02  0.18550731909E+02  0.48622184277E+02  0.10566000000E+00 0. -1.
        994    1    1    2    0    0 -0.34279789432E+02 -0.42990187405E+01  0.37983099366E+02  0.17873371636E+03  0.17120000000E+03 0.  0.
        998    1    1    2    0    0  0.62732578351E+01 -0.30852228370E+02  0.14434661650E+04  0.14438440994E+04  0.10000000000E+02 0. -1.
</event>
<event>
 5    1  0.1800099E-008  0.3831178E+03  0.7957747E-01  0.3437694E+00
         13   -1    0    0    0    0  0.00000000000E+00  0.00000000000E+00  0.14999999963E+04  0.15000000000E+04  0.10566000000E+00 0. -1.
        994   -1    0    0    0    0 -0.00000000000E+00 -0.00000000000E+00  0.11368683772E-12  0.17120000000E+03  0.17120000000E+03 0.  0.
         13    1    1    2    0    0  0.24263293588E+01 -0.18999988409E+02  0.69903110185E+02  0.72479946270E+02  0.10566000000E+00 0. -1.
        994    1    1    2    0    0  0.49641326617E+01  0.15286358112E+02  0.34226842744E+01  0.17198683125E+03  0.17120000000E+03 0.  0.
        998    1    1    2    0    0 -0.73904620205E+01  0.37136302966E+01  0.14266742018E+04  0.14267332225E+04  0.10000000000E+02 0. -1.
</event>
<event>
 5    1  0.1800099E-008  0.3793246E+03  0.7957747E-01  0.3454105E+00
         13   -1    0    0    0    0  0.00000000000E+00  0.00000000000E+00  0.14999999963E+04  0.15000000000E+04  0.10566000000E+00 0. -1.
        994   -1    0    0    0    0 -0.00000000000E+00 -0.00000000000E+00  0.11368683772E-12  0.17120000000E+03  0.17120000000E+03 0.  0.
         13    1    1    2    0    0 -0.14063909600E+02 -0.24567454387E+02  0.93075283771E+02  0.97285009027E+02  0.10566000000E+00 0. -1.
        994    1    1    2    0    0  0.19871438433E+01  0.54562447433E+01  0.45874532449E+01  0.17135986716E+03  0.17120000000E+03 0.  0.
        998    1    1    2    0    0  0.12076765756E+02  0.19111209644E+02  0.14023372593E+04  0.14025551238E+04  0.10000000000E+02 0. -1.
</event>
<event>
 5    1  0.1800099E-008  0.3797231E+03  0.7957747E-01  0.3452365E+00
         13   -1    0    0    0    0  0.00000000000E+00  0.00000000000E+00  0.14999999963E+04  0.15000000000E+04  0.10566000000E+00 0. -1.
        994   -1    0    0    0    0 -0.00000000000E+00 -0.00000000000E+00  0.11368683772E-12  0.17120000000E+03  0.17120000000E+03 0.  0.
         13    1    1    2    0    0 -0.35209159933E+01 -0.13621168049E+02  0.19335412055E+02  0.23912389922E+02  0.10566000000E+00 0. -1.
        994    1    1    2    0    0 -0.38199906198E+02  0.57043245857E+02  0.20207906518E+02  0.18555582507E+03  0.17120000000E+03 0.  0.
        998    1    1    2    0    0  0.41720822192E+02 -0.43422077808E+02  0.14604566777E+04  0.14617317850E+04  0.10000000000E+02 0. -1.
</event>
<event>
 5    1  0.1800099E-008  0.3801365E+03  0.7957747E-01  0.3450565E+00
         13   -1    0    0    0    0  0.00000000000E+00  0.00000000000E+00  0.14999999963E+04  0.15000000000E+04  0.10566000000E+00 0. -1.
        994   -1    0    0    0    0 -0.00000000000E+00 -0.00000000000E+00  0.11368683772E-12  0.17120000000E+03  0.17120000000E+03 0.  0.
         13    1    1    2    0    0 -0.22041509867E+02  0.67696135999E+00  0.58066355352E+02  0.62112794349E+02  0.10566000000E+00 0. -1.
        994    1    1    2    0    0  0.15157967083E+02 -0.72582150030E+01  0.50086110163E+01  0.17209582167E+03  0.17120000000E+03 0.  0.
        998    1    1    2    0    0  0.68835427842E+01  0.65812536430E+01  0.14369250299E+04  0.14369913840E+04  0.10000000000E+02 0. -1.
</event>
<event>
 5    1  0.1800099E-008  0.4390540E+03  0.7957747E-01  0.3228470E+00
         13   -1    0    0    0    0  0.00000000000E+00  0.00000000000E+00  0.14999999963E+04  0.15000000000E+04  0.10566000000E+00 0. -1.
        994   -1    0    0    0    0 -0.00000000000E+00 -0.00000000000E+00  0.11368683772E-12  0.17120000000E+03  0.17120000000E+03 0.  0.
         13    1    1    2    0    0 -0.63521476611E+02  0.59353824986E+01  0.19926282930E+02  0.66837674044E+02  0.10566000000E+00 0. -1.
        994    1    1    2    0    0  0.56654691803E+02 -0.39231242409E+01  0.68822123379E+02  0.19305716685E+03  0.17120000000E+03 0.  0.
        998    1    1    2    0    0  0.68667848073E+01 -0.20122582577E+01  0.14112515900E+04  0.14113051591E+04  0.10000000000E+02 0. -1.
</event>
<event>
 5    1  0.1800099E-008  0.3806443E+03  0.7957747E-01  0.3448358E+00
         13   -1    0    0    0    0  0.00000000000E+00  0.00000000000E+00  0.14999999963E+04  0.15000000000E+04  0.10566000000E+00 0.  1.
        994   -1    0    0    0    0 -0.00000000000E+00 -0.00000000000E+00  0.11368683772E-12  0.17120000000E+03  0.17120000000E+03 0.  0.
         13    1    1    2    0    0  0.19801108044E+02 -0.22958023073E+02  0.10702627775E+03  0.11123753861E+03  0.10566000000E+00 0.  1.
        994    1    1    2    0    0 -0.25933888112E+02  0.28315424874E+02  0.87420241310E+01  0.17567069427E+03  0.17120000000E+03 0.  0.
        998    1    1    2    0    0  0.61327800682E+01 -0.53574018004E+01  0.13842316944E+04  0.13842917671E+04  0.10000000000E+02 0.  1.
</event>
<event>
 5    1  0.1800099E-008  0.3694663E+03  0.7957747E-01  0.3498347E+00
         13   -1    0    0    0    0  0.00000000000E+00  0.00000000000E+00  0.14999999963E+04  0.15000000000E+04  0.10566000000E+00 0.  1.
        994   -1    0    0    0    0 -0.00000000000E+00 -0.00000000000E+00  0.11368683772E-12  0.17120000000E+03  0.17120000000E+03 0.  0.
         13    1    1    2    0    0  0.92159467750E+01 -0.13619711202E+02  0.86950841657E+01  0.18602307945E+02  0.10566000000E+00 0.  1.
        994    1    1    2    0    0 -0.22276556882E+02 -0.54011205773E+02  0.22664643917E+02  0.18230902726E+03  0.17120000000E+03 0.  0.
        998    1    1    2    0    0  0.13060610107E+02  0.67630916975E+02  0.14686402682E+04  0.14702886648E+04  0.10000000000E+02 0.  1.
</event>
<event>
 5    1  0.1800099E-008  0.3813216E+03  0.7957747E-01  0.3445424E+00
         13   -1    0    0    0    0  0.00000000000E+00  0.00000000000E+00  0.14999999963E+04  0.15000000000E+04  0.10566000000E+00 0. -1.
        994   -1    0    0    0    0 -0.00000000000E+00 -0.00000000000E+00  0.11368683772E-12  0.17120000000E+03  0.17120000000E+03 0.  0.
         13    1    1    2    0    0 -0.80433309155E+02  0.43936354806E+02  0.54550944145E+03  0.55315502562E+03  0.10566000000E+00 0. -1.
        994    1    1    2    0    0  0.90554894464E+02 -0.74786826411E+02  0.50827006641E+02  0.21374303011E+03  0.17120000000E+03 0.  0.
        998    1    1    2    0    0 -0.10121585308E+02  0.30850471605E+02  0.90366354819E+03  0.90430194427E+03  0.10000000000E+02 0. -1.
</event>
<event>
 5    1  0.1800099E-008  0.3829651E+03  0.7957747E-01  0.3438349E+00
         13   -1    0    0    0    0  0.00000000000E+00  0.00000000000E+00  0.14999999963E+04  0.15000000000E+04  0.10566000000E+00 0.  1.
        994   -1    0    0    0    0 -0.00000000000E+00 -0.00000000000E+00  0.11368683772E-12  0.17120000000E+03  0.17120000000E+03 0.  0.
         13    1    1    2    0    0  0.30716704563E+01 -0.13112241311E+02  0.33265944840E+02  0.35888720815E+02  0.10566000000E+00 0.  1.
        994    1    1    2    0    0  0.31101973138E+01  0.11422338493E+02  0.31079128548E+01  0.17163694901E+03  0.17120000000E+03 0.  0.
        998    1    1    2    0    0 -0.61818677701E+01  0.16899028181E+01  0.14636261386E+04  0.14636743302E+04  0.10000000000E+02 0.  1.
</event>
<event>
 5    1  0.1800099E-008  0.3086792E+03  0.7957747E-01  0.3835942E+00
         13   -1    0    0    0    0  0.00000000000E+00  0.00000000000E+00  0.14999999963E+04  0.15000000000E+04  0.10566000000E+00 0. -1.
        994   -1    0    0    0    0 -0.00000000000E+00 -0.00000000000E+00  0.11368683772E-12  0.17120000000E+03  0.17120000000E+03 0.  0.
         13    1    1    2    0    0  0.85833195864E+02  0.17458392213E+03  0.79918981722E+03  0.82252736033E+03  0.10566000000E+00 0. -1.
        994    1    1    2    0    0 -0.59660251234E+02 -0.11236848044E+03  0.85828699942E+02  0.22991743454E+03  0.17120000000E+03 0.  0.
        998    1    1    2    0    0 -0.26172944630E+02 -0.62215441694E+02  0.61498147911E+03  0.61875520512E+03  0.10000000000E+02 0. -1.
</event>
<event>
 5    1  0.1800099E-008  0.3774449E+03  0.7957747E-01  0.3462360E+00
         13   -1    0    0    0    0  0.00000000000E+00  0.00000000000E+00  0.14999999963E+04  0.15000000000E+04  0.10566000000E+00 0.  1.
        994   -1    0    0    0    0 -0.00000000000E+00 -0.00000000000E+00  0.11368683772E-12  0.17120000000E+03  0.17120000000E+03 0.  0.
         13    1    1    2    0    0  0.54153244014E+02 -0.28252847329E+02  0.24299924508E+03  0.25055825968E+03  0.10566000000E+00 0.  1.
        994    1    1    2    0    0 -0.62628920230E+02  0.63299236643E+02  0.32645616984E+02  0.19571497469E+03  0.17120000000E+03 0.  0.
        998    1    1    2    0    0  0.84756762159E+01 -0.35046389314E+02  0.12243551342E+04  0.12249267656E+04  0.10000000000E+02 0.  1.
</event>
<event>
 5    1  0.1800099E-008  0.3731406E+03  0.7957747E-01  0.3481581E+00
         13   -1    0    0    0    0  0.00000000000E+00  0.00000000000E+00  0.14999999963E+04  0.15000000000E+04  0.10566000000E+00 0.  1.
        994   -1    0    0    0    0 -0.00000000000E+00 -0.00000000000E+00  0.11368683772E-12  0.17120000000E+03  0.17120000000E+03 0.  0.
         13    1    1    2    0    0  0.88229188413E+02  0.28016216423E+02  0.51031430988E+03  0.51864246269E+03  0.10566000000E+00 0.  1.
        994    1    1    2    0    0 -0.55049925672E+02 -0.35086731489E+02  0.22357442708E+02  0.18458295774E+03  0.17120000000E+03 0.  0.
        998    1    1    2    0    0 -0.33179262741E+02  0.70705150657E+01  0.96732824369E+03  0.96797457957E+03  0.10000000000E+02 0.  1.
</event>
<event>
 5    1  0.1800099E-008  0.3773590E+03  0.7957747E-01  0.3462739E+00
         13   -1    0    0    0    0  0.00000000000E+00  0.00000000000E+00  0.14999999963E+04  0.15000000000E+04  0.10566000000E+00 0. -1.
        994   -1    0    0    0    0 -0.00000000000E+00 -0.00000000000E+00  0.11368683772E-12  0.17120000000E+03  0.17120000000E+03 0.  0.
         13    1    1    2    0    0 -0.35729113885E+02  0.11860189247E+02  0.11363703060E+03  0.11971056576E+03  0.10566000000E+00 0. -1.
        994    1    1    2    0    0  0.35733267303E+02 -0.41843856563E+02  0.15752028754E+02  0.18051410231E+03  0.17120000000E+03 0.  0.
        998    1    1    2    0    0 -0.41534179268E-02  0.29983667316E+02  0.13706109369E+04  0.13709753319E+04  0.10000000000E+02 0. -1.
</event>
<event>
 5    1  0.1800099E-008  0.3823663E+03  0.7957747E-01  0.3440919E+00
         13   -1    0    0    0    0  0.00000000000E+00  0.00000000000E+00  0.14999999963E+04  0.15000000000E+04  0.10566000000E+00 0.  1.
        994   -1    0    0    0    0 -0.00000000000E+00 -0.00000000000E+00  0.11368683772E-12  0.17120000000E+03  0.17120000000E+03 0.  0.
         13    1    1    2    0    0 -0.25443343969E+02 -0.11081519314E+02  0.13226389631E+03  0.13514404631E+03  0.10566000000E+00 0.  1.
        994    1    1    2    0    0  0.12126234705E+02  0.74085588734E+01  0.36134869575E+01  0.17182674297E+03  0.17120000000E+03 0.  0.
        998    1    1    2    0    0  0.13317109264E+02  0.36729604411E+01  0.13641226130E+04  0.13642292107E+04  0.10000000000E+02 0.  1.
</event>
<event>
 5    1  0.1800099E-008  0.3800457E+03  0.7957747E-01  0.3450959E+00
         13   -1    0    0    0    0  0.00000000000E+00  0.00000000000E+00  0.14999999963E+04  0.15000000000E+04  0.10566000000E+00 0.  1.
        994   -1    0    0    0    0 -0.00000000000E+00 -0.00000000000E+00  0.11368683772E-12  0.17120000000E+03  0.17120000000E+03 0.  0.
         13    1    1    2    0    0  0.17068680992E+02  0.36414877774E+01  0.34976001269E+02  0.39088772465E+02  0.10566000000E+00 0.  1.
        994    1    1    2    0    0 -0.16053403296E+02 -0.11567977366E+01  0.49763795857E+01  0.17202689991E+03  0.17120000000E+03 0.  0.
        998    1    1    2    0    0 -0.10152776963E+01 -0.24846900409E+01  0.14600476154E+04  0.14600843276E+04  0.10000000000E+02 0.  1.
</event>
<event>
 5    1  0.1800099E-008  0.3850974E+03  0.7957747E-01  0.3429259E+00
         13   -1    0    0    0    0  0.00000000000E+00  0.00000000000E+00  0.14999999963E+04  0.15000000000E+04  0.10566000000E+00 0. -1.
        994   -1    0    0    0    0 -0.00000000000E+00 -0.00000000000E+00  0.11368683772E-12  0.17120000000E+03  0.17120000000E+03 0.  0.
         13    1    1    2    0    0  0.14549979050E+02 -0.84562491600E+01  0.81786447781E+02  0.83499965538E+02  0.10566000000E+00 0. -1.
        994    1    1    2    0    0 -0.21893006071E+02  0.98104715907E+01  0.34762620801E+01  0.17290770216E+03  0.17120000000E+03 0.  0.
        998    1    1    2    0    0  0.73430270203E+01 -0.13542224307E+01  0.14147372864E+04  0.14147923323E+04  0.10000000000E+02 0. -1.
</event>
<event>
 5    1  0.1800099E-008  0.3786747E+03  0.7957747E-01  0.3456950E+00
         13   -1    0    0    0    0  0.00000000000E+00  0.00000000000E+00  0.14999999963E+04  0.15000000000E+04  0.10566000000E+00 0. -1.
        994   -1    0    0    0    0 -0.00000000000E+00 -0.00000000000E+00  0.11368683772E-12  0.17120000000E+03  0.17120000000E+03 0.  0.
         13    1    1    2    0    0  0.10476746920E+02 -0.66354484163E+01  0.13845173499E+02  0.18587398822E+02  0.10566000000E+00 0. -1.
        994    1    1    2    0    0 -0.85890779820E+01  0.67201139095E+01  0.52030730188E+01  0.17162588430E+03  0.17120000000E+03 0.  0.
        998    1    1    2    0    0 -0.18876689378E+01 -0.84665493132E-01  0.14809517498E+04  0.14809867169E+04  0.10000000000E+02 0. -1.
</event>
<event>
 5    1  0.1800099E-008  0.3778865E+03  0.7957747E-01  0.3460413E+00
         13   -1    0    0    0    0  0.00000000000E+00  0.00000000000E+00  0.14999999963E+04  0.15000000000E+04  0.10566000000E+00 0. -1.
        994   -1    0    0    0    0 -0.00000000000E+00 -0.00000000000E+00  0.11368683772E-12  0.17120000000E+03  0.17120000000E+03 0.  0.
         13    1    1    2    0    0  0.52243824994E+02  0.91486758406E+02  0.55140605462E+03  0.56138034562E+03  0.10566000000E+00 0. -1.
        994    1    1    2    0    0 -0.29355576018E+02 -0.12365877117E+03  0.61667452564E+02  0.22195845610E+03  0.17120000000E+03 0.  0.
        998    1    1    2    0    0 -0.22888248976E+02  0.32172012762E+02  0.88692648909E+03  0.88786119827E+03  0.10000000000E+02 0. -1.
</event>
<event>
 5    1  0.1800099E-008  0.3743390E+03  0.7957747E-01  0.3476184E+00
         13   -1    0    0    0    0  0.00000000000E+00  0.00000000000E+00  0.14999999963E+04  0.15000000000E+04  0.10566000000E+00 0. -1.
        994   -1    0    0    0    0 -0.00000000000E+00 -0.00000000000E+00  0.11368683772E-12  0.17120000000E+03  0.17120000000E+03 0.  0.
         13    1    1    2    0    0 -0.18824979592E+02 -0.15563532950E+02  0.38785709540E+02  0.45836075782E+02  0.10566000000E+00 0. -1.
        994    1    1    2    0    0  0.17189945497E+02  0.17679568590E+02  0.90928613749E+01  0.17320560470E+03  0.17120000000E+03 0.  0.
        998    1    1    2    0    0  0.16350340945E+01 -0.21160356398E+01  0.14521214254E+04  0.14521583195E+04  0.10000000000E+02 0. -1.
</event>
<event>
 5    1  0.1800099E-008  0.3818759E+03  0.7957747E-01  0.3443031E+00
         13   -1    0    0    0    0  0.00000000000E+00  0.00000000000E+00  0.14999999963E+04  0.15000000000E+04  0.10566000000E+00 0.  1.
        994   -1    0    0    0    0 -0.00000000000E+00 -0.00000000000E+00  0.11368683772E-12  0.17120000000E+03  0.17120000000E+03 0.  0.
         13    1    1    2    0    0  0.12323892444E+01 -0.17531800210E+02  0.47512368278E+02  0.50658850216E+02  0.10566000000E+00 0.  1.
        994    1    1    2    0    0 -0.35030969204E+01  0.10386606907E+02  0.35884670879E+01  0.17158808346E+03  0.17120000000E+03 0.  0.
        998    1    1    2    0    0  0.22707076760E+01  0.71451933033E+01  0.14488991609E+04  0.14489530663E+04  0.10000000000E+02 0.  1.
</event>
<event>
 5    1  0.1800099E-008  0.3842913E+03  0.7957747E-01  0.3432683E+00
         13   -1    0    0    0    0  0.00000000000E+00  0.00000000000E+00  0.14999999963E+04  0.15000000000E+04  0.10566000000E+00 0. -1.
        994   -1    0    0    0    0 -0.00000000000E+00 -0.00000000000E+00  0.11368683772E-12  0.17120000000E+03  0.17120000000E+03 0.  0.
         13    1    1    2    0    0  0.11491007343E+02 -0.18834089193E+02  0.12147636300E+03  0.12346369547E+03  0.10566000000E+00 0. -1.
        994    1    1    2    0    0 -0.16011859735E+02  0.75936566069E+01  0.30182337856E+01  0.17214120079E+03  0.17120000000E+03 0.  0.
        998    1    1    2    0    0  0.45208523924E+01  0.11240432586E+02  0.13755053995E+04  0.13755951037E+04  0.10000000000E+02 0. -1.
</event>
<event>
 5    1  0.1800099E-008  0.3723997E+03  0.7957747E-01  0.3484934E+00
         13   -1    0    0    0    0  0.00000000000E+00  0.00000000000E+00  0.14999999963E+04  0.15000000000E+04  0.10566000000E+00 0.  1.
        994   -1    0    0    0    0 -0.00000000000E+00 -0.00000000000E+00  0.11368683772E-12  0.17120000000E+03  0.17120000000E+03 0.  0.
         13    1    1    2    0    0  0.32480268354E+02 -0.27365270084E+02  0.12403183267E+03  0.13110199281E+03  0.10566000000E+00 0.  1.
        994    1    1    2    0    0  0.27749927543E+00 -0.29912540680E+01  0.80510871780E+01  0.17141553200E+03  0.17120000000E+03 0.  0.
        998    1    1    2    0    0 -0.32757767629E+02  0.30356524152E+02  0.13679170764E+04  0.13686824752E+04  0.10000000000E+02 0.  1.
</event>
<event>
 5    1  0.1800099E-008  0.3851817E+03  0.7957747E-01  0.3428902E+00
         13   -1    0    0    0    0  0.00000000000E+00  0.00000000000E+00  0.14999999963E+04  0.15000000000E+04  0.10566000000E+00 0.  1.
        994   -1    0    0    0    0 -0.00000000000E+00 -0.00000000000E+00  0.11368683772E-12  0.17120000000E+03  0.17120000000E+03 0.  0.
         13    1    1    2    0    0 -0.38553291107E+01  0.11724387199E+02  0.48933439105E+02  0.50466002857E+02  0.10566000000E+00 0.  1.
        994    1    1    2    0    0  0.18924832880E+01 -0.10189967688E+02  0.18930815373E+01  0.17152387791E+03  0.17120000000E+03 0.  0.
        998    1    1    2    0    0  0.19628458227E+01 -0.15344195108E+01  0.14491734756E+04  0.14492101192E+04  0.10000000000E+02 0.  1.
</event>
<event>
 5    1  0.1800099E-008  0.3859499E+03  0.7957747E-01  0.3425654E+00
         13   -1    0    0    0    0  0.00000000000E+00  0.00000000000E+00  0.14999999963E+04  0.15000000000E+04  0.10566000000E+00 0.  1.
        994   -1    0    0    0    0 -0.00000000000E+00 -0.00000000000E+00  0.11368683772E-12  0.17120000000E+03  0.17120000000E+03 0.  0.
         13    1    1    2    0    0  0.11094075678E+02  0.46625113260E+01  0.60112821731E+02  0.61305628025E+02  0.10566000000E+00 0.  1.
        994    1    1    2    0    0 -0.14960990186E+02 -0.30434831498E+01  0.19238680119E+01  0.17189018380E+03  0.17120000000E+03 0.  0.
        998    1    1    2    0    0  0.38669145080E+01 -0.16190281762E+01  0.14379633065E+04  0.14380041882E+04  0.10000000000E+02 0.  1.
</event>
<event>
 5    1  0.2746743E-008  0.3865189E+03  0.7957747E-01  0.3423256E+00
         13   -1    0    0    0    0  0.00000000000E+00  0.00000000000E+00  0.14999999963E+04  0.15000000000E+04  0.10566000000E+00 0.  1.
        994   -1    0    0    0    0 -0.00000000000E+00 -0.00000000000E+00  0.11368683772E-12  0.17120000000E+03  0.17120000000E+03 0.  0.
         13    1    1    2    0    0  0.67379322252E+00  0.10855994844E+02  0.64774954617E+02  0.65681904136E+02  0.10566000000E+00 0.  1.
        994    1    1    2    0    0  0.93549632277E+00 -0.14622278494E+02  0.15808033644E+01  0.17183313162E+03  0.17120000000E+03 0.  0.
        998    1    1    2    0    0 -0.16092895453E+01  0.37662836506E+01  0.14336442383E+04  0.14336849642E+04  0.10000000000E+02 0.  1.
</event>
<event>
 5    1  0.1800099E-008  0.3787767E+03  0.7957747E-01  0.3456502E+00
         13   -1    0    0    0    0  0.00000000000E+00  0.00000000000E+00  0.14999999963E+04  0.15000000000E+04  0.10566000000E+00 0.  1.
        994   -1    0    0    0    0 -0.00000000000E+00 -0.00000000000E+00  0.11368683772E-12  0.17120000000E+03  0.17120000000E+03 0.  0.
         13    1    1    2    0    0  0.17492116310E+02 -0.88240227850E+02  0.49274955388E+03  0.50089364735E+03  0.10566000000E+00 0.  1.
        994    1    1    2    0    0 -0.81879785005E+01  0.10142099462E+03  0.40327317469E+02  0.20319693324E+03  0.17120000000E+03 0.  0.
        998    1    1    2    0    0 -0.93041378099E+01 -0.13180766772E+02  0.96692312493E+03  0.96710941941E+03  0.10000000000E+02 0. -1.
</event>
<event>
 5    1  0.1800099E-008  0.3763575E+03  0.7957747E-01  0.3467174E+00
         13   -1    0    0    0    0  0.00000000000E+00  0.00000000000E+00  0.14999999963E+04  0.15000000000E+04  0.10566000000E+00 0. -1.
        994   -1    0    0    0    0 -0.00000000000E+00 -0.00000000000E+00  0.11368683772E-12  0.17120000000E+03  0.17120000000E+03 0.  0.
         13    1    1    2    0    0 -0.30379603596E+02 -0.11165684980E+02  0.83223859630E+02  0.89296219469E+02  0.10566000000E+00 0. -1.
        994    1    1    2    0    0  0.21515656335E+02  0.18043694621E+02  0.86559371337E+01  0.17370337829E+03  0.17120000000E+03 0.  0.
        998    1    1    2    0    0  0.88639472611E+01 -0.68780096414E+01  0.14081201995E+04  0.14082004022E+04  0.10000000000E+02 0. -1.
</event>
<event>
 5    1  0.1800099E-008  0.3821855E+03  0.7957747E-01  0.3441697E+00
         13   -1    0    0    0    0  0.00000000000E+00  0.00000000000E+00  0.14999999963E+04  0.15000000000E+04  0.10566000000E+00 0.  1.
        994   -1    0    0    0    0 -0.00000000000E+00 -0.00000000000E+00  0.11368683772E-12  0.17120000000E+03  0.17120000000E+03 0.  0.
         13    1    1    2    0    0  0.37511838417E+02  0.65793696206E+02  0.14389984245E+03  0.16261341981E+03  0.10566000000E+00 0.  1.
        994    1    1    2    0    0 -0.37122909027E+02 -0.64738884745E+02  0.38171302338E+02  0.19061931144E+03  0.17120000000E+03 0.  0.
        998    1    1    2    0    0 -0.38892938970E+00 -0.10548114609E+01  0.13179288515E+04  0.13179672687E+04  0.10000000000E+02 0.  0.
</event>
<event>
 5    1  0.1800099E-008  0.3842615E+03  0.7957747E-01  0.3432810E+00
         13   -1    0    0    0    0  0.00000000000E+00  0.00000000000E+00  0.14999999963E+04  0.15000000000E+04  0.10566000000E+00 0.  1.
        994   -1    0    0    0    0 -0.00000000000E+00 -0.00000000000E+00  0.11368683772E-12  0.17120000000E+03  0.17120000000E+03 0.  0.
         13    1    1    2    0    0  0.42674776875E+01 -0.17176027962E+02  0.79425948980E+02  0.81373950609E+02  0.10566000000E+00 0.  1.
        994    1    1    2    0    0  0.11480964009E+02  0.12120165146E+02  0.29165397729E+01  0.17203679008E+03  0.17120000000E+03 0.  0.
        998    1    1    2    0    0 -0.15748441696E+02  0.50558628165E+01  0.14176575075E+04  0.14177892593E+04  0.10000000000E+02 0.  1.
</event>
<event>
 5    1  0.1800099E-008  0.3810122E+03  0.7957747E-01  0.3446763E+00
         13   -1    0    0    0    0  0.00000000000E+00  0.00000000000E+00  0.14999999963E+04  0.15000000000E+04  0.10566000000E+00 0. -1.
        994   -1    0    0    0    0 -0.00000000000E+00 -0.00000000000E+00  0.11368683772E-12  0.17120000000E+03  0.17120000000E+03 0.  0.
         13    1    1    2    0    0  0.81287973630E+00 -0.16581796983E+02  0.36804723473E+02  0.40375928455E+02  0.10566000000E+00 0. -1.
        994    1    1    2    0    0  0.32484114463E+01  0.10307262913E+02  0.40122833559E+01  0.17158767515E+03  0.17120000000E+03 0.  0.
        998    1    1    2    0    0 -0.40612911826E+01  0.62745340699E+01  0.14591829894E+04  0.14592363964E+04  0.10000000000E+02 0. -1.
</event>
<event>
 5    1  0.1800099E-008  0.3812181E+03  0.7957747E-01  0.3445871E+00
         13   -1    0    0    0    0  0.00000000000E+00  0.00000000000E+00  0.14999999963E+04  0.15000000000E+04  0.10566000000E+00 0. -1.
        994   -1    0    0    0    0 -0.00000000000E+00 -0.00000000000E+00  0.11368683772E-12  0.17120000000E+03  0.17120000000E+03 0.  0.
         13    1    1    2    0    0  0.40375543323E+02  0.22761505805E+02  0.23175561024E+03  0.23634496967E+03  0.10566000000E+00 0. -1.
        994    1    1    2    0    0 -0.55341792200E+02 -0.23044146750E+02  0.15578817644E+02  0.18206011706E+03  0.17120000000E+03 0.  0.
        998    1    1    2    0    0  0.14966248877E+02  0.28264094472E+00  0.12526655684E+04  0.12527949133E+04  0.10000000000E+02 0. -1.
</event>
<event>
 5    1  0.1800099E-008  0.3766544E+03  0.7957747E-01  0.3465857E+00
         13   -1    0    0    0    0  0.00000000000E+00  0.00000000000E+00  0.14999999963E+04  0.15000000000E+04  0.10566000000E+00 0. -1.
        994   -1    0    0    0    0 -0.00000000000E+00 -0.00000000000E+00  0.11368683772E-12  0.17120000000E+03  0.17120000000E+03 0.  0.
         13    1    1    2    0    0  0.34501788053E+02  0.29016199130E+02  0.16236816731E+03  0.16851037390E+03  0.10566000000E+00 0. -1.
        994    1    1    2    0    0 -0.30036525069E+02 -0.21617579672E+02  0.10475041735E+02  0.17546703134E+03  0.17120000000E+03 0.  0.
        998    1    1    2    0    0 -0.44652629831E+01 -0.73986194585E+01  0.13271567872E+04  0.13272225948E+04  0.10000000000E+02 0. -1.
</event>
<event>
 5    1  0.1800099E-008  0.3857950E+03  0.7957747E-01  0.3426307E+00
         13   -1    0    0    0    0  0.00000000000E+00  0.00000000000E+00  0.14999999963E+04  0.15000000000E+04  0.10566000000E+00 0.  1.
        994   -1    0    0    0    0 -0.00000000000E+00 -0.00000000000E+00  0.11368683772E-12  0.17120000000E+03  0.17120000000E+03 0.  0.
         13    1    1    2    0    0  0.60075256617E+02  0.27429159060E+02  0.96519059236E+02  0.11695013974E+03  0.10566000000E+00 0.  1.
        994    1    1    2    0    0 -0.72883930854E+02 -0.15863728566E+02  0.40451583750E+02  0.19107458201E+03  0.17120000000E+03 0.  0.
        998    1    1    2    0    0  0.12808674237E+02 -0.11565430495E+02  0.13630293533E+04  0.13631752783E+04  0.10000000000E+02 0.  1.
</event>
<event>
 5    1  0.1800099E-008  0.3856877E+03  0.7957747E-01  0.3426761E+00
         13   -1    0    0    0    0  0.00000000000E+00  0.00000000000E+00  0.14999999963E+04  0.15000000000E+04  0.10566000000E+00 0. -1.
        994   -1    0    0    0    0 -0.00000000000E+00 -0.00000000000E+00  0.11368683772E-12  0.17120000000E+03  0.17120000000E+03 0.  0.
         13    1    1    2    0    0 -0.96126738254E+01  0.11021659668E+02  0.76365506522E+02  0.77753342245E+02  0.10566000000E+00 0. -1.
        994    1    1    2    0    0  0.11354798619E+02 -0.18637975891E+02  0.28535675453E+01  0.17260906246E+03  0.17120000000E+03 0.  0.
        998    1    1    2    0    0 -0.17421247935E+01  0.76163162222E+01  0.14207809222E+04  0.14208375953E+04  0.10000000000E+02 0. -1.
</event>
<event>
 5    1  0.1800099E-008  0.3834610E+03  0.7957747E-01  0.3436225E+00
         13   -1    0    0    0    0  0.00000000000E+00  0.00000000000E+00  0.14999999963E+04  0.15000000000E+04  0.10566000000E+00 0.  1.
        994   -1    0    0    0    0 -0.00000000000E+00 -0.00000000000E+00  0.11368683772E-12  0.17120000000E+03  0.17120000000E+03 0.  0.
         13    1    1    2    0    0 -0.11472029921E+02 -0.91653866201E+01  0.45467238912E+02  0.47779627047E+02  0.10566000000E+00 0.  1.
        994    1    1    2    0    0  0.19932871567E+01  0.41285672557E+01  0.24656109346E+01  0.17127912161E+03  0.17120000000E+03 0.  0.
        998    1    1    2    0    0  0.94787427644E+01  0.50368193644E+01  0.14520671464E+04  0.14521412513E+04  0.10000000000E+02 0.  1.
</event>
<event>
 5    1  0.1800099E-008  0.3793219E+03  0.7957747E-01  0.3454117E+00
         13   -1    0    0    0    0  0.00000000000E+00  0.00000000000E+00  0.14999999963E+04  0.15000000000E+04  0.10566000000E+00 0. -1.
        994   -1    0    0    0    0 -0.00000000000E+00 -0.00000000000E+00  0.11368683772E-12  0.17120000000E+03  0.17120000000E+03 0.  0.
         13    1    1    2    0    0 -0.12644420841E+00 -0.11984690132E+02  0.14309144368E+02  0.18665785873E+02  0.10566000000E+00 0. -1.
        994    1    1    2    0    0  0.12782784688E+01  0.26402822740E+01  0.45046923317E+01  0.17128437564E+03  0.17120000000E+03 0.  0.
        998    1    1    2    0    0 -0.11518342604E+01  0.93444078575E+01  0.14811861596E+04  0.14812498385E+04  0.10000000000E+02 0. -1.
</event>
<event>
 5    1  0.1800099E-008  0.3815657E+03  0.7957747E-01  0.3444369E+00
         13   -1    0    0    0    0  0.00000000000E+00  0.00000000000E+00  0.14999999963E+04  0.15000000000E+04  0.10566000000E+00 0. -1.
        994   -1    0    0    0    0 -0.00000000000E+00 -0.00000000000E+00  0.11368683772E-12  0.17120000000E+03  0.17120000000E+03 0.  0.
         13    1    1    2    0    0  0.16821622919E+02 -0.33990883538E+02  0.21683632080E+03  0.22012802717E+03  0.10566000000E+00 0. -1.
        994    1    1    2    0    0 -0.59119507237E+02 -0.76376827128E+00  0.15059071260E+02  0.18174684345E+03  0.17120000000E+03 0.  0.
        998    1    1    2    0    0  0.42297884319E+02  0.34754651809E+02  0.12681046042E+04  0.12693251294E+04  0.10000000000E+02 0. -1.
</event>
<event>
 5    1  0.1800099E-008  0.3847076E+03  0.7957747E-01  0.3430913E+00
         13   -1    0    0    0    0  0.00000000000E+00  0.00000000000E+00  0.14999999963E+04  0.15000000000E+04  0.10566000000E+00 0. -1.
        994   -1    0    0    0    0 -0.00000000000E+00 -0.00000000000E+00  0.11368683772E-12  0.17120000000E+03  0.17120000000E+03 0.  0.
         13    1    1    2    0    0 -0.14596224688E+01 -0.24926446792E+02  0.13876863159E+03  0.14099717204E+03  0.10566000000E+00 0. -1.
        994    1    1    2    0    0  0.83045745396E+01  0.42238086803E+02  0.78990736381E+01  0.17670556669E+03  0.17120000000E+03 0.  0.
        998    1    1    2    0    0 -0.68449520708E+01 -0.17311640011E+02  0.13533322911E+04  0.13534972613E+04  0.10000000000E+02 0. -1.
</event>
<event>
 5    1  0.1800099E-008  0.3795454E+03  0.7957747E-01  0.3453140E+00
         13   -1    0    0    0    0  0.00000000000E+00  0.00000000000E+00  0.14999999963E+04  0.15000000000E+04  0.10566000000E+00 0. -1.
        994   -1    0    0    0    0 -0.00000000000E+00 -0.00000000000E+00  0.11368683772E-12  0.17120000000E+03  0.17120000000E+03 0.  0.
         13    1    1    2    0    0 -0.24171694070E+02  0.35864184366E+01  0.65011461142E+02  0.69452389701E+02  0.10566000000E+00 0. -1.
        994    1    1    2    0    0  0.20385562664E+02 -0.14707555312E+02  0.64811803875E+01  0.17315694918E+03  0.17120000000E+03 0.  0.
        998    1    1    2    0    0  0.37861314058E+01  0.11121136875E+02  0.14285073547E+04  0.14285906611E+04  0.10000000000E+02 0. -1.
</event>
<event>
 5    1  0.1800099E-008  0.3689127E+03  0.7957747E-01  0.3500903E+00
         13   -1    0    0    0    0  0.00000000000E+00  0.00000000000E+00  0.14999999963E+04  0.15000000000E+04  0.10566000000E+00 0.  1.
        994   -1    0    0    0    0 -0.00000000000E+00 -0.00000000000E+00  0.11368683772E-12  0.17120000000E+03  0.17120000000E+03 0.  0.
         13    1    1    2    0    0  0.17192580487E+02  0.59482401787E+01  0.11470945312E+02  0.21507211242E+02  0.10566000000E+00 0.  1.
        994    1    1    2    0    0 -0.16263741754E+02  0.17149217639E+02  0.12312909016E+02  0.17326180390E+03  0.17120000000E+03 0.  0.
        998    1    1    2    0    0 -0.92883873327E+00 -0.23097457818E+02  0.14762161420E+04  0.14764309849E+04  0.10000000000E+02 0.  1.
</event>
<event>
 5    1  0.1800099E-008  0.3842959E+03  0.7957747E-01  0.3432664E+00
         13   -1    0    0    0    0  0.00000000000E+00  0.00000000000E+00  0.14999999963E+04  0.15000000000E+04  0.10566000000E+00 0. -1.
        994   -1    0    0    0    0 -0.00000000000E+00 -0.00000000000E+00  0.11368683772E-12  0.17120000000E+03  0.17120000000E+03 0.  0.
         13    1    1    2    0    0 -0.16335487947E+02 -0.25859277865E+01  0.71708512367E+02  0.73591148237E+02  0.10566000000E+00 0. -1.
        994    1    1    2    0    0  0.33989162674E+01  0.34589854673E+01  0.20576535933E+01  0.17128102975E+03  0.17120000000E+03 0.  0.
        998    1    1    2    0    0  0.12936571679E+02 -0.87305768086E+00  0.14262338303E+04  0.14263278220E+04  0.10000000000E+02 0. -1.
</event>
<event>
 5    1  0.1800099E-008  0.3854812E+03  0.7957747E-01  0.3427634E+00
         13   -1    0    0    0    0  0.00000000000E+00  0.00000000000E+00  0.14999999963E+04  0.15000000000E+04  0.10566000000E+00 0. -1.
        994   -1    0    0    0    0 -0.00000000000E+00 -0.00000000000E+00  0.11368683772E-12  0.17120000000E+03  0.17120000000E+03 0.  0.
         13    1    1    2    0    0  0.78112141400E+01 -0.10030177670E+02  0.63545642169E+02  0.64804932938E+02  0.10566000000E+00 0. -1.
        994    1    1    2    0    0  0.18389228968E+01 -0.35916518663E+01  0.14448642046E+01  0.17125364006E+03  0.17120000000E+03 0.  0.
        998    1    1    2    0    0 -0.96501370368E+01  0.13621829536E+02  0.14350094899E+04  0.14351414270E+04  0.10000000000E+02 0. -1.
</event>
<event>
 5    1  0.2893184E-008  0.3857672E+03  0.7957747E-01  0.3426425E+00
         13   -1    0    0    0    0  0.00000000000E+00  0.00000000000E+00  0.14999999963E+04  0.15000000000E+04  0.10566000000E+00 0. -1.
        994   -1    0    0    0    0 -0.00000000000E+00 -0.00000000000E+00  0.11368683772E-12  0.17120000000E+03  0.17120000000E+03 0.  0.
         13    1    1    2    0    0  0.99072845293E+01 -0.48625046760E+01  0.50238458752E+02  0.51436486469E+02  0.10566000000E+00 0. -1.
        994    1    1    2    0    0 -0.31425744926E+01  0.24026972402E+01  0.13010670643E+01  0.17125063943E+03  0.17120000000E+03 0.  0.
        998    1    1    2    0    0 -0.67647100368E+01  0.24598074357E+01  0.14484604705E+04  0.14485128741E+04  0.10000000000E+02 0. -1.
</event>
<event>
 5    1  0.1800099E-008  0.3737795E+03  0.7957747E-01  0.3478699E+00
         13   -1    0    0    0    0  0.00000000000E+00  0.00000000000E+00  0.14999999963E+04  0.15000000000E+04  0.10566000000E+00 0.  1.
        994   -1    0    0    0    0 -0.00000000000E+00 -0.00000000000E+00  0.11368683772E-12  0.17120000000E+03  0.17120000000E+03 0.  0.
         13    1    1    2    0    0 -0.15400651141E+02 -0.20132616293E+02  0.41105370373E+02  0.48292493536E+02  0.10566000000E+00 0.  1.
        994    1    1    2    0    0  0.71892889312E+01  0.15436711898E+02  0.82972003027E+01  0.17224477200E+03  0.17120000000E+03 0.  0.
        998    1    1    2    0    0  0.82113622100E+01  0.46959043959E+01  0.14505974256E+04  0.14506627345E+04  0.10000000000E+02 0.  1.
</event>
<event>
 5    1  0.1800099E-008  0.3794198E+03  0.7957747E-01  0.3453689E+00
         13   -1    0    0    0    0  0.00000000000E+00  0.00000000000E+00  0.14999999963E+04  0.15000000000E+04  0.10566000000E+00 0. -1.
        994   -1    0    0    0    0 -0.00000000000E+00 -0.00000000000E+00  0.11368683772E-12  0.17120000000E+03  0.17120000000E+03 0.  0.
         13    1    1    2    0    0 -0.75471720748E+01 -0.20737989089E+02  0.54779336016E+02  0.59057690576E+02  0.10566000000E+00 0. -1.
        994    1    1    2    0    0 -0.32175347454E+01  0.90463300238E+01  0.47351247877E+01  0.17153439895E+03  0.17120000000E+03 0.  0.
        998    1    1    2    0    0  0.10764706820E+02  0.11691659065E+02  0.14404855355E+04  0.14406079105E+04  0.10000000000E+02 0. -1.
</event>
<event>
 5    1  0.1800099E-008  0.3730030E+03  0.7957747E-01  0.3482202E+00
         13   -1    0    0    0    0  0.00000000000E+00  0.00000000000E+00  0.14999999963E+04  0.15000000000E+04  0.10566000000E+00 0. -1.
        994   -1    0    0    0    0 -0.00000000000E+00 -0.00000000000E+00  0.11368683772E-12  0.17120000000E+03  0.17120000000E+03 0.  0.
         13    1    1    2    0    0  0.29105344114E+02  0.35943055122E+01  0.29810964027E+02  0.41817996465E+02  0.10566000000E+00 0. -1.
        994    1    1    2    0    0 -0.13309527156E+02  0.42214859998E+01  0.13224736040E+02  0.17227680662E+03  0.17120000000E+03 0.  0.
        998    1    1    2    0    0 -0.15795816958E+02 -0.78157915120E+01  0.14569642962E+04  0.14571051969E+04  0.10000000000E+02 0. -1.
</event>
<event>
 5    1  0.1800099E-008  0.3747607E+03  0.7957747E-01  0.3474294E+00
         13   -1    0    0    0    0  0.00000000000E+00  0.00000000000E+00  0.14999999963E+04  0.15000000000E+04  0.10566000000E+00 0. -1.
        994   -1    0    0    0    0 -0.00000000000E+00 -0.00000000000E+00  0.11368683772E-12  0.17120000000E+03  0.17120000000E+03 0.  0.
         13    1    1    2    0    0  0.12592620574E+01  0.26896916550E+02  0.49177784995E+02  0.56066884717E+02  0.10566000000E+00 0. -1.
        994    1    1    2    0    0 -0.43145872822E+01 -0.26971093582E+02  0.93438503891E+01  0.17361682837E+03  0.17120000000E+03 0.  0.
        998    1    1    2    0    0  0.30553252249E+01  0.74177032371E-01  0.14414783609E+04  0.14415162869E+04  0.10000000000E+02 0. -1.
</event>
<event>
 5    1  0.1800099E-008  0.3713972E+03  0.7957747E-01  0.3489494E+00
         13   -1    0    0    0    0  0.00000000000E+00  0.00000000000E+00  0.14999999963E+04  0.15000000000E+04  0.10566000000E+00 0. -1.
        994   -1    0    0    0    0 -0.00000000000E+00 -0.00000000000E+00  0.11368683772E-12  0.17120000000E+03  0.17120000000E+03 0.  0.
         13    1    1    2    0    0 -0.42916361527E+02 -0.86008527836E+02  0.51658644565E+03  0.52545299309E+03  0.10566000000E+00 0. -1.
        994    1    1    2    0    0  0.28414384594E+02  0.52727745431E+02  0.20988649318E+02  0.18258574914E+03  0.17120000000E+03 0.  0.
        998    1    1    2    0    0  0.14501976933E+02  0.33280782405E+02  0.96242490131E+03  0.96316125777E+03  0.10000000000E+02 0. -1.
</event>
<event>
 5    1  0.1800099E-008  0.3802946E+03  0.7957747E-01  0.3449877E+00
         13   -1    0    0    0    0  0.00000000000E+00  0.00000000000E+00  0.14999999963E+04  0.15000000000E+04  0.10566000000E+00 0.  1.
        994   -1    0    0    0    0 -0.00000000000E+00 -0.00000000000E+00  0.11368683772E-12  0.17120000000E+03  0.17120000000E+03 0.  0.
         13    1    1    2    0    0  0.24208523663E+02 -0.11521403541E+02  0.73329922753E+02  0.78077423705E+02  0.10566000000E+00 0.  1.
        994    1    1    2    0    0 -0.40254547116E+02  0.55321970895E+02  0.19778868276E+02  0.18542274040E+03  0.17120000000E+03 0.  0.
        998    1    1    2    0    0  0.16046023452E+02 -0.43800567354E+02  0.14068912052E+04  0.14076998359E+04  0.10000000000E+02 0.  1.
</event>
<event>
 5    1  0.1800099E-008  0.3830636E+03  0.7957747E-01  0.3437926E+00
         13   -1    0    0    0    0  0.00000000000E+00  0.00000000000E+00  0.14999999963E+04  0.15000000000E+04  0.10566000000E+00 0.  1.
        994   -1    0    0    0    0 -0.00000000000E+00 -0.00000000000E+00  0.11368683772E-12  0.17120000000E+03  0.17120000000E+03 0.  0.
         13    1    1    2    0    0 -0.29603121148E+02 -0.77189864533E+00  0.15349509430E+03  0.15632560810E+03  0.10566000000E+00 0.  1.
        994    1    1    2    0    0  0.29252033154E+02  0.95053029408E+01  0.57317017738E+01  0.17403541201E+03  0.17120000000E+03 0.  0.
        998    1    1    2    0    0  0.35108799421E+00 -0.87334042955E+01  0.13407732002E+04  0.13408389799E+04  0.10000000000E+02 0.  1.
</event>
<event>
 5    1  0.1800099E-008  0.3799620E+03  0.7957747E-01  0.3451324E+00
         13   -1    0    0    0    0  0.00000000000E+00  0.00000000000E+00  0.14999999963E+04  0.15000000000E+04  0.10566000000E+00 0. -1.
        994   -1    0    0    0    0 -0.00000000000E+00 -0.00000000000E+00  0.11368683772E-12  0.17120000000E+03  0.17120000000E+03 0.  0.
         13    1    1    2    0    0  0.13190369320E+03 -0.20297887371E+02  0.79173849409E+03  0.80290749324E+03  0.10566000000E+00 0. -1.
        994    1    1    2    0    0 -0.14507758393E+03  0.12139286310E+01  0.78075834817E+02  0.23760104159E+03  0.17120000000E+03 0.  0.
        998    1    1    2    0    0  0.13173890737E+02  0.19083958740E+02  0.63018566737E+03  0.63069146517E+03  0.10000000000E+02 0. -1.
</event>
<event>
 5    1  0.1800099E-008  0.3812481E+03  0.7957747E-01  0.3445742E+00
         13   -1    0    0    0    0  0.00000000000E+00  0.00000000000E+00  0.14999999963E+04  0.15000000000E+04  0.10566000000E+00 0. -1.
        994   -1    0    0    0    0 -0.00000000000E+00 -0.00000000000E+00  0.11368683772E-12  0.17120000000E+03  0.17120000000E+03 0.  0.
         13    1    1    2    0    0  0.52524428117E+01 -0.42773122524E+02  0.24324622045E+03  0.24703413345E+03  0.10566000000E+00 0. -1.
        994    1    1    2    0    0 -0.74490826022E+01  0.33269915795E+02  0.73838813671E+01  0.17471788069E+03  0.17120000000E+03 0.  0.
        998    1    1    2    0    0  0.21966397905E+01  0.95032067286E+01  0.12493698945E+04  0.12494479859E+04  0.10000000000E+02 0. -1.
</event>
<event>
 5    1  0.1800099E-008  0.3855207E+03  0.7957747E-01  0.3427467E+00
         13   -1    0    0    0    0  0.00000000000E+00  0.00000000000E+00  0.14999999963E+04  0.15000000000E+04  0.10566000000E+00 0.  1.
        994   -1    0    0    0    0 -0.00000000000E+00 -0.00000000000E+00  0.11368683772E-12  0.17120000000E+03  0.17120000000E+03 0.  0.
         13    1    1    2    0    0 -0.60529417330E+01  0.94413588326E+01  0.45748395134E+02  0.47103122843E+02  0.10566000000E+00 0.  1.
        994    1    1    2    0    0  0.10266750838E+02 -0.37318772133E+01  0.17637123325E+01  0.17155723174E+03  0.17120000000E+03 0.  0.
        998    1    1    2    0    0 -0.42138091054E+01 -0.57094816193E+01  0.14524878888E+04  0.14525396454E+04  0.10000000000E+02 0.  1.
</event>
<event>
 5    1  0.1800099E-008  0.3827951E+03  0.7957747E-01  0.3439078E+00
         13   -1    0    0    0    0  0.00000000000E+00  0.00000000000E+00  0.14999999963E+04  0.15000000000E+04  0.10566000000E+00 0.  1.
        994   -1    0    0    0    0 -0.00000000000E+00 -0.00000000000E+00  0.11368683772E-12  0.17120000000E+03  0.17120000000E+03 0.  0.
         13    1    1    2    0    0 -0.73472759275E+00  0.11315569818E+02  0.22566466706E+02  0.25255465321E+02  0.10566000000E+00 0.  1.
        994    1    1    2    0    0 -0.62288207974E+01 -0.81450264890E+01  0.30771555432E+01  0.17153439466E+03  0.17120000000E+03 0.  0.
        998    1    1    2    0    0  0.69635483901E+01 -0.31705433289E+01  0.14743563740E+04  0.14744101400E+04  0.10000000000E+02 0.  1.
</event>
<event>
 5    1  0.1800099E-008  0.3827584E+03  0.7957747E-01  0.3439235E+00
         13   -1    0    0    0    0  0.00000000000E+00  0.00000000000E+00  0.14999999963E+04  0.15000000000E+04  0.10566000000E+00 0.  1.
        994   -1    0    0    0    0 -0.00000000000E+00 -0.00000000000E+00  0.11368683772E-12  0.17120000000E+03  0.17120000000E+03 0.  0.
         13    1    1    2    0    0  0.20681065442E+02 -0.23443699132E+02  0.14994868347E+03  0.15317288381E+03  0.10566000000E+00 0.  1.
        994    1    1    2    0    0 -0.25703356359E+02  0.31950594196E+02  0.83376042880E+01  0.17623977600E+03  0.17120000000E+03 0.  0.
        998    1    1    2    0    0  0.50222909170E+01 -0.85068950638E+01  0.13417137085E+04  0.13417873402E+04  0.10000000000E+02 0.  1.
</event>
<event>
 5    1  0.1800099E-008  0.3827304E+03  0.7957747E-01  0.3439355E+00
         13   -1    0    0    0    0  0.00000000000E+00  0.00000000000E+00  0.14999999963E+04  0.15000000000E+04  0.10566000000E+00 0. -1.
        994   -1    0    0    0    0 -0.00000000000E+00 -0.00000000000E+00  0.11368683772E-12  0.17120000000E+03  0.17120000000E+03 0.  0.
         13    1    1    2    0    0  0.12998665091E+02 -0.16541830270E+01  0.30368370791E+02  0.33074925914E+02  0.10566000000E+00 0. -1.
        994    1    1    2    0    0 -0.64904123775E+01  0.25088676467E+01  0.29215905357E+01  0.17136626144E+03  0.17120000000E+03 0.  0.
        998    1    1    2    0    0 -0.65082527134E+01 -0.85468461972E+00  0.14667100350E+04  0.14667588126E+04  0.10000000000E+02 0. -1.
</event>
<event>
 5    1  0.1800099E-008  0.3850500E+03  0.7957747E-01  0.3429460E+00
         13   -1    0    0    0    0  0.00000000000E+00  0.00000000000E+00  0.14999999963E+04  0.15000000000E+04  0.10566000000E+00 0.  1.
        994   -1    0    0    0    0 -0.00000000000E+00 -0.00000000000E+00  0.11368683772E-12  0.17120000000E+03  0.17120000000E+03 0.  0.
         13    1    1    2    0    0 -0.78614988692E+01 -0.13350801223E+02  0.72630742416E+02  0.74264951126E+02  0.10566000000E+00 0.  1.
        994    1    1    2    0    0  0.13357702867E+02  0.91439025604E+01  0.24674037100E+01  0.17198129916E+03  0.17120000000E+03 0.  0.
        998    1    1    2    0    0 -0.54962039978E+01  0.42068986625E+01  0.14249018502E+04  0.14249537497E+04  0.10000000000E+02 0.  1.
</event>
<event>
 5    1  0.1800099E-008  0.3818470E+03  0.7957747E-01  0.3443156E+00
         13   -1    0    0    0    0  0.00000000000E+00  0.00000000000E+00  0.14999999963E+04  0.15000000000E+04  0.10566000000E+00 0.  1.
        994   -1    0    0    0    0 -0.00000000000E+00 -0.00000000000E+00  0.11368683772E-12  0.17120000000E+03  0.17120000000E+03 0.  0.
         13    1    1    2    0    0  0.18897159948E+02  0.19778742690E+02  0.99803215248E+02  0.10348427056E+03  0.10566000000E+00 0.  1.
        994    1    1    2    0    0 -0.28101248180E+02 -0.32582831682E+02  0.93795104296E+01  0.17677312094E+03  0.17120000000E+03 0.  0.
        998    1    1    2    0    0  0.92040882322E+01  0.12804088993E+02  0.13908172706E+04  0.13909426085E+04  0.10000000000E+02 0.  1.
</event>
<event>
 5    1  0.1800099E-008  0.3688698E+03  0.7957747E-01  0.3501101E+00
         13   -1    0    0    0    0  0.00000000000E+00  0.00000000000E+00  0.14999999963E+04  0.15000000000E+04  0.10566000000E+00 0.  1.
        994   -1    0    0    0    0 -0.00000000000E+00 -0.00000000000E+00  0.11368683772E-12  0.17120000000E+03  0.17120000000E+03 0.  0.
         13    1    1    2    0    0  0.39845542285E+01  0.99532438690E+01  0.12412434826E+01  0.10793312065E+02  0.10566000000E+00 0.  1.
        994    1    1    2    0    0 -0.85731785440E+01 -0.33403463445E+01  0.10154961880E+02  0.17174754890E+03  0.17120000000E+03 0.  0.
        998    1    1    2    0    0  0.45886243155E+01 -0.66128975245E+01  0.14886037909E+04  0.14886591390E+04  0.10000000000E+02 0.  1.
</event>
<event>
 5    1  0.1800099E-008  0.3852528E+03  0.7957747E-01  0.3428601E+00
         13   -1    0    0    0    0  0.00000000000E+00  0.00000000000E+00  0.14999999963E+04  0.15000000000E+04  0.10566000000E+00 0.  1.
        994   -1    0    0    0    0 -0.00000000000E+00 -0.00000000000E+00  0.11368683772E-12  0.17120000000E+03  0.17120000000E+03 0.  0.
         13    1    1    2    0    0  0.13949219906E+02 -0.60741476434E+01  0.73740982587E+02  0.75294220778E+02  0.10566000000E+00 0.  1.
        994    1    1    2    0    0 -0.10858543272E+02  0.16596436018E+02  0.27982926095E+01  0.17236768865E+03  0.17120000000E+03 0.  0.
        998    1    1    2    0    0 -0.30906766335E+01 -0.10522288374E+02  0.14234607211E+04  0.14235380906E+04  0.10000000000E+02 0.  1.
</event>
<event>
 5    1  0.1800099E-008  0.3826494E+03  0.7957747E-01  0.3439703E+00
         13   -1    0    0    0    0  0.00000000000E+00  0.00000000000E+00  0.14999999963E+04  0.15000000000E+04  0.10566000000E+00 0.  1.
        994   -1    0    0    0    0 -0.00000000000E+00 -0.00000000000E+00  0.11368683772E-12  0.17120000000E+03  0.17120000000E+03 0.  0.
         13    1    1    2    0    0 -0.93989904160E+01 -0.16761883061E+02  0.71718163913E+02  0.74248285796E+02  0.10566000000E+00 0.  1.
        994    1    1    2    0    0 -0.45943243642E+01 -0.45307219609E+01  0.29396777865E+01  0.17134677401E+03  0.17120000000E+03 0.  0.
        998    1    1    2    0    0  0.13993314780E+02  0.21292605022E+02  0.14253421546E+04  0.14256049402E+04  0.10000000000E+02 0.  1.
</event>
<event>
 5    1  0.1800099E-008  0.3786326E+03  0.7957747E-01  0.3457134E+00
         13   -1    0    0    0    0  0.00000000000E+00  0.00000000000E+00  0.14999999963E+04  0.15000000000E+04  0.10566000000E+00 0.  1.
        994   -1    0    0    0    0 -0.00000000000E+00 -0.00000000000E+00  0.11368683772E-12  0.17120000000E+03  0.17120000000E+03 0.  0.
         13    1    1    2    0    0  0.11853968741E+02 -0.49712614204E+01  0.14971756136E+02  0.19733085437E+02  0.10566000000E+00 0.  1.
        994    1    1    2    0    0 -0.10662601464E+02  0.23141380154E+01  0.52248570649E+01  0.17162687854E+03  0.17120000000E+03 0.  0.
        998    1    1    2    0    0 -0.11913672771E+01  0.26571234051E+01  0.14798033831E+04  0.14798400360E+04  0.10000000000E+02 0.  1.
</event>
<event>
 5    1  0.1800099E-008  0.3842699E+03  0.7957747E-01  0.3432775E+00
         13   -1    0    0    0    0  0.00000000000E+00  0.00000000000E+00  0.14999999963E+04  0.15000000000E+04  0.10566000000E+00 0.  1.
        994   -1    0    0    0    0 -0.00000000000E+00 -0.00000000000E+00  0.11368683772E-12  0.17120000000E+03  0.17120000000E+03 0.  0.
         13    1    1    2    0    0  0.12282421721E+01  0.18482743430E+02  0.96751754178E+02  0.98509052803E+02  0.10566000000E+00 0.  1.
        994    1    1    2    0    0  0.11619438668E+01  0.48932131355E+01  0.20764329431E+01  0.17128644203E+03  0.17120000000E+03 0.  0.
        998    1    1    2    0    0 -0.23901860389E+01 -0.23375956566E+02  0.14011718092E+04  0.14014045052E+04  0.10000000000E+02 0.  1.
</event>
<event>
 5    1  0.1800099E-008  0.3775777E+03  0.7957747E-01  0.3461774E+00
         13   -1    0    0    0    0  0.00000000000E+00  0.00000000000E+00  0.14999999963E+04  0.15000000000E+04  0.10566000000E+00 0. -1.
        994   -1    0    0    0    0 -0.00000000000E+00 -0.00000000000E+00  0.11368683772E-12  0.17120000000E+03  0.17120000000E+03 0.  0.
         13    1    1    2    0    0 -0.10517102480E+03 -0.77804481297E+02  0.44092127007E+03  0.45991962269E+03  0.10566000000E+00 0. -1.
        994    1    1    2    0    0  0.83920525013E+02  0.76852417642E+02  0.63114935784E+02  0.21503926091E+03  0.17120000000E+03 0.  0.
        998    1    1    2    0    0  0.21250499791E+02  0.95206365538E+00  0.99596379042E+03  0.99624111640E+03  0.10000000000E+02 0. -1.
</event>
<event>
 5    1  0.1800099E-008  0.3854394E+03  0.7957747E-01  0.3427811E+00
         13   -1    0    0    0    0  0.00000000000E+00  0.00000000000E+00  0.14999999963E+04  0.15000000000E+04  0.10566000000E+00 0.  1.
        994   -1    0    0    0    0 -0.00000000000E+00 -0.00000000000E+00  0.11368683772E-12  0.17120000000E+03  0.17120000000E+03 0.  0.
         13    1    1    2    0    0 -0.43574476260E+01  0.14088358532E+02  0.80121259550E+02  0.81467150385E+02  0.10566000000E+00 0.  1.
        994    1    1    2    0    0 -0.69003020861E+01 -0.74867563983E+01  0.17526419996E+01  0.17151144989E+03  0.17120000000E+03 0.  0.
        998    1    1    2    0    0  0.11257749712E+02 -0.66016021340E+01  0.14181260947E+04  0.14182213997E+04  0.10000000000E+02 0.  1.
</event>
<event>
 5    1  0.1800099E-008  0.3778555E+03  0.7957747E-01  0.3460550E+00
         13   -1    0    0    0    0  0.00000000000E+00  0.00000000000E+00  0.14999999963E+04  0.15000000000E+04  0.10566000000E+00 0.  1.
        994   -1    0    0    0    0 -0.00000000000E+00 -0.00000000000E+00  0.11368683772E-12  0.17120000000E+03  0.17120000000E+03 0.  0.
         13    1    1    2    0    0  0.20049928892E+02  0.19820359632E+01  0.36373835768E+02  0.41581188146E+02  0.10566000000E+00 0.  1.
        994    1    1    2    0    0 -0.17234759223E+02 -0.22950275398E+01  0.62380718289E+01  0.17219366312E+03  0.17120000000E+03 0.  0.
        998    1    1    2    0    0 -0.28151696693E+01  0.31299157661E+00  0.14573880887E+04  0.14574251487E+04  0.10000000000E+02 0.  1.
</event>
<event>
 5    1  0.1800099E-008  0.3819848E+03  0.7957747E-01  0.3442562E+00
         13   -1    0    0    0    0  0.00000000000E+00  0.00000000000E+00  0.14999999963E+04  0.15000000000E+04  0.10566000000E+00 0. -1.
        994   -1    0    0    0    0 -0.00000000000E+00 -0.00000000000E+00  0.11368683772E-12  0.17120000000E+03  0.17120000000E+03 0.  0.
         13    1    1    2    0    0 -0.24720333357E+02 -0.13097768704E+02  0.12387038752E+03  0.12699027716E+03  0.10566000000E+00 0. -1.
        994    1    1    2    0    0  0.14559516634E+02  0.83905675071E+01  0.40729682143E+01  0.17207094530E+03  0.17120000000E+03 0.  0.
        998    1    1    2    0    0  0.10160816724E+02  0.47072011966E+01  0.13720566405E+04  0.13721387775E+04  0.10000000000E+02 0. -1.
</event>
<event>
 5    1  0.1800099E-008  0.3846624E+03  0.7957747E-01  0.3431105E+00
         13   -1    0    0    0    0  0.00000000000E+00  0.00000000000E+00  0.14999999963E+04  0.15000000000E+04  0.10566000000E+00 0. -1.
        994   -1    0    0    0    0 -0.00000000000E+00 -0.00000000000E+00  0.11368683772E-12  0.17120000000E+03  0.17120000000E+03 0.  0.
         13    1    1    2    0    0  0.57126332079E+01 -0.16861109723E+02  0.79837069814E+02  0.81797922222E+02  0.10566000000E+00 0. -1.
        994    1    1    2    0    0 -0.10658708095E+02  0.24129037371E+02  0.40920322798E+01  0.17326858697E+03  0.17120000000E+03 0.  0.
        998    1    1    2    0    0  0.49460748870E+01 -0.72679276472E+01  0.14160708942E+04  0.14161334908E+04  0.10000000000E+02 0. -1.
</event>
<event>
 5    1  0.1800099E-008  0.3751147E+03  0.7957747E-01  0.3472710E+00
         13   -1    0    0    0    0  0.00000000000E+00  0.00000000000E+00  0.14999999963E+04  0.15000000000E+04  0.10566000000E+00 0.  1.
        994   -1    0    0    0    0 -0.00000000000E+00 -0.00000000000E+00  0.11368683772E-12  0.17120000000E+03  0.17120000000E+03 0.  0.
         13    1    1    2    0    0  0.11361323103E+02  0.80829302398E+01  0.11659573328E+02  0.18176089737E+02  0.10566000000E+00 0.  1.
        994    1    1    2    0    0 -0.82658336533E+01 -0.10741702584E+02  0.72443100646E+01  0.17188841790E+03  0.17120000000E+03 0.  0.
        998    1    1    2    0    0 -0.30954894498E+01  0.26587723445E+01  0.14810961129E+04  0.14811354924E+04  0.10000000000E+02 0.  1.
</event>
<event>
 5    1  0.1800099E-008  0.3818250E+03  0.7957747E-01  0.3443251E+00
         13   -1    0    0    0    0  0.00000000000E+00  0.00000000000E+00  0.14999999963E+04  0.15000000000E+04  0.10566000000E+00 0.  1.
        994   -1    0    0    0    0 -0.00000000000E+00 -0.00000000000E+00  0.11368683772E-12  0.17120000000E+03  0.17120000000E+03 0.  0.
         13    1    1    2    0    0 -0.84498864765E+01  0.62961004675E+01  0.15696557532E+02  0.18905939410E+02  0.10566000000E+00 0.  1.
        994    1    1    2    0    0  0.12380546227E+02 -0.58537421389E+01  0.38381779717E+01  0.17178974309E+03  0.17120000000E+03 0.  0.
        998    1    1    2    0    0 -0.39306597501E+01 -0.44235832861E+00  0.14804652608E+04  0.14805043175E+04  0.10000000000E+02 0.  1.
</event>
<event>
 5    1  0.1800099E-008  0.3690897E+03  0.7957747E-01  0.3500085E+00
         13   -1    0    0    0    0  0.00000000000E+00  0.00000000000E+00  0.14999999963E+04  0.15000000000E+04  0.10566000000E+00 0.  1.
        994   -1    0    0    0    0 -0.00000000000E+00 -0.00000000000E+00  0.11368683772E-12  0.17120000000E+03  0.17120000000E+03 0.  0.
         13    1    1    2    0    0  0.71428370922E+02 -0.53808926181E+02  0.30159984340E+03  0.31457890808E+03  0.10566000000E+00 0.  1.
        994    1    1    2    0    0 -0.79176660664E+02  0.60134483859E+02  0.44860952777E+02  0.20299518425E+03  0.17120000000E+03 0.  0.
        998    1    1    2    0    0  0.77482897414E+01 -0.63255576785E+01  0.11535392001E+04  0.11536259077E+04  0.10000000000E+02 0.  1.
</event>
<event>
 5    1  0.1800099E-008  0.3858549E+03  0.7957747E-01  0.3426054E+00
         13   -1    0    0    0    0  0.00000000000E+00  0.00000000000E+00  0.14999999963E+04  0.15000000000E+04  0.10566000000E+00 0.  1.
        994   -1    0    0    0    0 -0.00000000000E+00 -0.00000000000E+00  0.11368683772E-12  0.17120000000E+03  0.17120000000E+03 0.  0.
         13    1    1    2    0    0  0.68771489725E+01  0.94907121330E+01  0.61274493295E+02  0.62385442912E+02  0.10566000000E+00 0.  1.
        994    1    1    2    0    0  0.42440978440E+01 -0.18253874358E+01  0.12762674485E+01  0.17126708167E+03  0.17120000000E+03 0.  0.
        998    1    1    2    0    0 -0.11121246817E+02 -0.76653246972E+01  0.14374492355E+04  0.14375474754E+04  0.10000000000E+02 0.  1.
</event>
<event>
 5    1  0.1800099E-008  0.3848760E+03  0.7957747E-01  0.3430198E+00
         13   -1    0    0    0    0  0.00000000000E+00  0.00000000000E+00  0.14999999963E+04  0.15000000000E+04  0.10566000000E+00 0.  1.
        994   -1    0    0    0    0 -0.00000000000E+00 -0.00000000000E+00  0.11368683772E-12  0.17120000000E+03  0.17120000000E+03 0.  0.
         13    1    1    2    0    0 -0.88353578919E+01  0.76944300660E+01  0.41755422058E+02  0.43368124682E+02  0.10566000000E+00 0.  1.
        994    1    1    2    0    0 -0.13000467292E+01 -0.35538634490E+01  0.17388212304E+01  0.17125064545E+03  0.17120000000E+03 0.  0.
        998    1    1    2    0    0  0.10135404621E+02 -0.41405666170E+01  0.14565057530E+04  0.14565812299E+04  0.10000000000E+02 0.  1.
</event>
<event>
 5    1  0.1800099E-008  0.3849103E+03  0.7957747E-01  0.3430053E+00
         13   -1    0    0    0    0  0.00000000000E+00  0.00000000000E+00  0.14999999963E+04  0.15000000000E+04  0.10566000000E+00 0. -1.
        994   -1    0    0    0    0 -0.00000000000E+00 -0.00000000000E+00  0.11368683772E-12  0.17120000000E+03  0.17120000000E+03 0.  0.
         13    1    1    2    0    0 -0.95185134523E+01 -0.10941966035E+02  0.60620149241E+02  0.62330910286E+02  0.10566000000E+00 0. -1.
        994    1    1    2    0    0  0.11844139073E+02  0.10031911872E+02  0.24676239820E+01  0.17191990011E+03  0.17120000000E+03 0.  0.
        998    1    1    2    0    0 -0.23256256203E+01  0.91005416213E+00  0.14369122231E+04  0.14369491896E+04  0.10000000000E+02 0. -1.
</event>
<event>
 5    1  0.1800099E-008  0.3858163E+03  0.7957747E-01  0.3426218E+00
         13   -1    0    0    0    0  0.00000000000E+00  0.00000000000E+00  0.14999999963E+04  0.15000000000E+04  0.10566000000E+00 0.  1.
        994   -1    0    0    0    0 -0.00000000000E+00 -0.00000000000E+00  0.11368683772E-12  0.17120000000E+03  0.17120000000E+03 0.  0.
         13    1    1    2    0    0  0.10321048967E+02 -0.20199580041E+01  0.45700936643E+02  0.46895533435E+02  0.10566000000E+00 0.  1.
        994    1    1    2    0    0 -0.34367918809E+01  0.17399771934E+02  0.22578502265E+01  0.17213105905E+03  0.17120000000E+03 0.  0.
        998    1    1    2    0    0 -0.68842570857E+01 -0.15379813930E+02  0.14520412094E+04  0.14521734075E+04  0.10000000000E+02 0.  1.
</event>
<event>
 5    1  0.1800099E-008  0.3768607E+03  0.7957747E-01  0.3464943E+00
         13   -1    0    0    0    0  0.00000000000E+00  0.00000000000E+00  0.14999999963E+04  0.15000000000E+04  0.10566000000E+00 0.  1.
        994   -1    0    0    0    0 -0.00000000000E+00 -0.00000000000E+00  0.11368683772E-12  0.17120000000E+03  0.17120000000E+03 0.  0.
         13    1    1    2    0    0 -0.71964818527E+02 -0.11600852181E+03  0.78151170483E+03  0.79334574316E+03  0.10566000000E+00 0.  1.
        994    1    1    2    0    0  0.64425389539E+02  0.11568972751E+03  0.67458990817E+02  0.22670443161E+03  0.17120000000E+03 0.  0.
        998    1    1    2    0    0  0.75394289883E+01  0.31879430085E+00  0.65102930063E+03  0.65114982523E+03  0.10000000000E+02 0.  0.
</event>
<event>
 5    1  0.1800099E-008  0.3841597E+03  0.7957747E-01  0.3433244E+00
         13   -1    0    0    0    0  0.00000000000E+00  0.00000000000E+00  0.14999999963E+04  0.15000000000E+04  0.10566000000E+00 0.  1.
        994   -1    0    0    0    0 -0.00000000000E+00 -0.00000000000E+00  0.11368683772E-12  0.17120000000E+03  0.17120000000E+03 0.  0.
         13    1    1    2    0    0 -0.48317731352E+01  0.19229428092E+02  0.91092867114E+02  0.93225739683E+02  0.10566000000E+00 0.  1.
        994    1    1    2    0    0 -0.25440622578E+01 -0.21152042131E+02  0.35460508126E+01  0.17255693442E+03  0.17120000000E+03 0.  0.
        998    1    1    2    0    0  0.73758353931E+01  0.19226140388E+01  0.14053610784E+04  0.14054173259E+04  0.10000000000E+02 0.  1.
</event>
<event>
 5    1  0.1800099E-008  0.3832595E+03  0.7957747E-01  0.3437088E+00
         13   -1    0    0    0    0  0.00000000000E+00  0.00000000000E+00  0.14999999963E+04  0.15000000000E+04  0.10566000000E+00 0. -1.
        994   -1    0    0    0    0 -0.00000000000E+00 -0.00000000000E+00  0.11368683772E-12  0.17120000000E+03  0.17120000000E+03 0.  0.
         13    1    1    2    0    0 -0.11993946740E+02 -0.17104062825E+02  0.91982170221E+02  0.94324623117E+02  0.10566000000E+00 0. -1.
        994    1    1    2    0    0 -0.11620101135E+01  0.53540781943E+01  0.25960251124E+01  0.17130731382E+03  0.17120000000E+03 0.  0.
        998    1    1    2    0    0  0.13155956854E+02  0.11749984631E+02  0.14054218009E+04  0.14055680631E+04  0.10000000000E+02 0. -1.
</event>
<event>
 5    1  0.1800099E-008  0.3716959E+03  0.7957747E-01  0.3488133E+00
         13   -1    0    0    0    0  0.00000000000E+00  0.00000000000E+00  0.14999999963E+04  0.15000000000E+04  0.10566000000E+00 0.  1.
        994   -1    0    0    0    0 -0.00000000000E+00 -0.00000000000E+00  0.11368683772E-12  0.17120000000E+03  0.17120000000E+03 0.  0.
         13    1    1    2    0    0  0.70437099858E+01 -0.15533651163E+02  0.13667068933E+02  0.21856534631E+02  0.10566000000E+00 0.  1.
        994    1    1    2    0    0 -0.51068682630E+01  0.10964912484E+02  0.88884187943E+01  0.17185678165E+03  0.17120000000E+03 0.  0.
        998    1    1    2    0    0 -0.19368417228E+01  0.45687386793E+01  0.14774445086E+04  0.14774866837E+04  0.10000000000E+02 0.  1.
</event>
<event>
 5    1  0.2466742E-008  0.3861075E+03  0.7957747E-01  0.3424989E+00
         13   -1    0    0    0    0  0.00000000000E+00  0.00000000000E+00  0.14999999963E+04  0.15000000000E+04  0.10566000000E+00 0.  1.
        994   -1    0    0    0    0 -0.00000000000E+00 -0.00000000000E+00  0.11368683772E-12  0.17120000000E+03  0.17120000000E+03 0.  0.
         13    1    1    2    0    0  0.78106865753E+01 -0.67754179266E+01  0.51216579617E+02  0.52249998130E+02  0.10566000000E+00 0.  1.
        994    1    1    2    0    0 -0.48441598371E+01  0.23718202052E+00  0.11583590289E+01  0.17127260124E+03  0.17120000000E+03 0.  0.
        998    1    1    2    0    0 -0.29665267382E+01  0.65382359061E+01  0.14476250576E+04  0.14476774006E+04  0.10000000000E+02 0.  1.
</event>
<event>
 5    1  0.1800099E-008  0.3784537E+03  0.7957747E-01  0.3457919E+00
         13   -1    0    0    0    0  0.00000000000E+00  0.00000000000E+00  0.14999999963E+04  0.15000000000E+04  0.10566000000E+00 0. -1.
        994   -1    0    0    0    0 -0.00000000000E+00 -0.00000000000E+00  0.11368683772E-12  0.17120000000E+03  0.17120000000E+03 0.  0.
         13    1    1    2    0    0 -0.29957323093E+00 -0.12920018628E+02  0.15257921453E+02  0.19995798473E+02  0.10566000000E+00 0. -1.
        994    1    1    2    0    0 -0.48273066169E+01 -0.18657862882E+01  0.50057510312E+01  0.17135133962E+03  0.17120000000E+03 0.  0.
        998    1    1    2    0    0  0.51268798478E+01  0.14785804917E+02  0.14797363238E+04  0.14798528619E+04  0.10000000000E+02 0. -1.
</event>
<event>
 5    1  0.1800099E-008  0.3764049E+03  0.7957747E-01  0.3466963E+00
         13   -1    0    0    0    0  0.00000000000E+00  0.00000000000E+00  0.14999999963E+04  0.15000000000E+04  0.10566000000E+00 0.  1.
        994   -1    0    0    0    0 -0.00000000000E+00 -0.00000000000E+00  0.11368683772E-12  0.17120000000E+03  0.17120000000E+03 0.  0.
         13    1    1    2    0    0  0.83358611664E+01  0.19922631124E+03  0.88371203007E+03  0.90592912136E+03  0.10566000000E+00 0.  1.
        994    1    1    2    0    0 -0.26520967585E+02 -0.20686870259E+03  0.17103495338E+03  0.31946896111E+03  0.17120000000E+03 0.  0.
        998    1    1    2    0    0  0.18185106419E+02  0.76423913498E+01  0.44525301283E+03  0.44580191754E+03  0.10000000000E+02 0.  0.
</event>
<event>
 5    1  0.1800099E-008  0.3821449E+03  0.7957747E-01  0.3441872E+00
         13   -1    0    0    0    0  0.00000000000E+00  0.00000000000E+00  0.14999999963E+04  0.15000000000E+04  0.10566000000E+00 0.  1.
        994   -1    0    0    0    0 -0.00000000000E+00 -0.00000000000E+00  0.11368683772E-12  0.17120000000E+03  0.17120000000E+03 0.  0.
         13    1    1    2    0    0 -0.87085011431E+01 -0.92475490500E+01  0.25705681613E+02  0.28673130049E+02  0.10566000000E+00 0.  1.
        994    1    1    2    0    0 -0.42953716536E+00  0.50512555992E+01  0.31396095047E+01  0.17130381442E+03  0.17120000000E+03 0.  0.
        998    1    1    2    0    0  0.91380383085E+01  0.41962934508E+01  0.14711547052E+04  0.14712230555E+04  0.10000000000E+02 0.  1.
</event>
<event>
 5    1  0.1800099E-008  0.3710779E+03  0.7957747E-01  0.3490952E+00
         13   -1    0    0    0    0  0.00000000000E+00  0.00000000000E+00  0.14999999963E+04  0.15000000000E+04  0.10566000000E+00 0. -1.
        994   -1    0    0    0    0 -0.00000000000E+00 -0.00000000000E+00  0.11368683772E-12  0.17120000000E+03  0.17120000000E+03 0.  0.
         13    1    1    2    0    0 -0.74073225115E+02 -0.52937727818E+02  0.32413501444E+03  0.33667902289E+03  0.10566000000E+00 0. -1.
        994    1    1    2    0    0  0.11019632934E+03  0.33979803216E+02  0.56011224834E+02  0.21387976841E+03  0.17120000000E+03 0.  0.
        998    1    1    2    0    0 -0.36123104222E+02  0.18957924602E+02  0.11198537570E+04  0.11206412087E+04  0.10000000000E+02 0. -1.
</event>
<event>
 5    1  0.1800099E-008  0.3785511E+03  0.7957747E-01  0.3457492E+00
         13   -1    0    0    0    0  0.00000000000E+00  0.00000000000E+00  0.14999999963E+04  0.15000000000E+04  0.10566000000E+00 0. -1.
        994   -1    0    0    0    0 -0.00000000000E+00 -0.00000000000E+00  0.11368683772E-12  0.17120000000E+03  0.17120000000E+03 0.  0.
         13    1    1    2    0    0  0.17809659875E+02  0.20277105744E+02  0.75936794930E+02  0.80590030342E+02  0.10566000000E+00 0. -1.
        994    1    1    2    0    0  0.10297276979E+02 -0.19689394672E+02  0.65264419125E+01  0.17275919837E+03  0.17120000000E+03 0.  0.
        998    1    1    2    0    0 -0.28106936854E+02 -0.58771107208E+00  0.14175367594E+04  0.14178507713E+04  0.10000000000E+02 0. -1.
</event>
<event>
 5    1  0.1800099E-008  0.3847770E+03  0.7957747E-01  0.3430619E+00
         13   -1    0    0    0    0  0.00000000000E+00  0.00000000000E+00  0.14999999963E+04  0.15000000000E+04  0.10566000000E+00 0. -1.
        994   -1    0    0    0    0 -0.00000000000E+00 -0.00000000000E+00  0.11368683772E-12  0.17120000000E+03  0.17120000000E+03 0.  0.
         13    1    1    2    0    0 -0.31927297504E+01  0.14298138595E+02  0.59811750308E+02  0.61579923103E+02  0.10566000000E+00 0. -1.
        994    1    1    2    0    0 -0.98021031582E+01 -0.17234911970E+02  0.30357586141E+01  0.17237105107E+03  0.17120000000E+03 0.  0.
        998    1    1    2    0    0  0.12994832909E+02  0.29367733749E+01  0.14371524874E+04  0.14372490258E+04  0.10000000000E+02 0. -1.
</event>
<event>
 5    1  0.1800099E-008  0.3699604E+03  0.7957747E-01  0.3496073E+00
         13   -1    0    0    0    0  0.00000000000E+00  0.00000000000E+00  0.14999999963E+04  0.15000000000E+04  0.10566000000E+00 0.  1.
        994   -1    0    0    0    0 -0.00000000000E+00 -0.00000000000E+00  0.11368683772E-12  0.17120000000E+03  0.17120000000E+03 0.  0.
         13    1    1    2    0    0  0.64771002834E+01  0.44465071159E+02  0.11302959028E+03  0.12163385559E+03  0.10566000000E+00 0.  1.
        994    1    1    2    0    0  0.94457534667E+01 -0.11834763464E+02  0.10083045749E+02  0.17216385131E+03  0.17120000000E+03 0.  0.
        998    1    1    2    0    0 -0.15922853750E+02 -0.32630307695E+02  0.13768873602E+04  0.13774022931E+04  0.10000000000E+02 0.  1.
</event>
<event>
 5    1  0.1800099E-008  0.3810647E+03  0.7957747E-01  0.3446536E+00
         13   -1    0    0    0    0  0.00000000000E+00  0.00000000000E+00  0.14999999963E+04  0.15000000000E+04  0.10566000000E+00 0. -1.
        994   -1    0    0    0    0 -0.00000000000E+00 -0.00000000000E+00  0.11368683772E-12  0.17120000000E+03  0.17120000000E+03 0.  0.
         13    1    1    2    0    0 -0.92440555732E+01  0.17828671190E+02  0.54425094969E+02  0.58012207390E+02  0.10566000000E+00 0. -1.
        994    1    1    2    0    0  0.53844011238E+01 -0.13700931807E+02  0.43188879021E+01  0.17188600903E+03  0.17120000000E+03 0.  0.
        998    1    1    2    0    0  0.38596544495E+01 -0.41277393830E+01  0.14412560134E+04  0.14413017836E+04  0.10000000000E+02 0. -1.
</event>
<event>
 5    1  0.1800099E-008  0.3860744E+03  0.7957747E-01  0.3425128E+00
         13   -1    0    0    0    0  0.00000000000E+00  0.00000000000E+00  0.14999999963E+04  0.15000000000E+04  0.10566000000E+00 0.  1.
        994   -1    0    0    0    0 -0.00000000000E+00 -0.00000000000E+00  0.11368683772E-12  0.17120000000E+03  0.17120000000E+03 0.  0.
         13    1    1    2    0    0 -0.16252366410E+03  0.13957722915E+03  0.12239957063E+04  0.12426026092E+04  0.10566000000E+00 0.  1.
        994    1    1    2    0    0  0.16770592230E+03 -0.14101240510E+03  0.17848220251E+03  0.33041657250E+03  0.17120000000E+03 0.  0.
        998    1    1    2    0    0 -0.51822582056E+01  0.14351759549E+01  0.97522087490E+02  0.98180818282E+02  0.10000000000E+02 0.  1.
</event>
<event>
 5    1  0.1800099E-008  0.3857836E+03  0.7957747E-01  0.3426355E+00
         13   -1    0    0    0    0  0.00000000000E+00  0.00000000000E+00  0.14999999963E+04  0.15000000000E+04  0.10566000000E+00 0. -1.
        994   -1    0    0    0    0 -0.00000000000E+00 -0.00000000000E+00  0.11368683772E-12  0.17120000000E+03  0.17120000000E+03 0.  0.
         13    1    1    2    0    0  0.51705321160E+01 -0.12790803051E+02  0.80484336453E+02  0.81658304068E+02  0.10566000000E+00 0. -1.
        994    1    1    2    0    0 -0.13686347414E+01  0.38290306314E+01  0.12958146884E+01  0.17125318617E+03  0.17120000000E+03 0.  0.
        998    1    1    2    0    0 -0.38018973746E+01  0.89617724198E+01  0.14182198451E+04  0.14182885098E+04  0.10000000000E+02 0. -1.
</event>
<event>
 5    1  0.1800099E-008  0.3763224E+03  0.7957747E-01  0.3467330E+00
         13   -1    0    0    0    0  0.00000000000E+00  0.00000000000E+00  0.14999999963E+04  0.15000000000E+04  0.10566000000E+00 0. -1.
        994   -1    0    0    0    0 -0.00000000000E+00 -0.00000000000E+00  0.11368683772E-12  0.17120000000E+03  0.17120000000E+03 0.  0.
         13    1    1    2    0    0 -0.71965581999E+02 -0.40770572353E+02  0.46281365798E+03  0.47014654922E+03  0.10566000000E+00 0. -1.
        994    1    1    2    0    0  0.57228208317E+02  0.36103147781E+02  0.21655985371E+02  0.18535621600E+03  0.17120000000E+03 0.  0.
        998    1    1    2    0    0  0.14737373682E+02  0.46674245721E+01  0.10155303529E+04  0.10156972348E+04  0.10000000000E+02 0. -1.
</event>
<event>
 5    1  0.1800099E-008  0.3768380E+03  0.7957747E-01  0.3465043E+00
         13   -1    0    0    0    0  0.00000000000E+00  0.00000000000E+00  0.14999999963E+04  0.15000000000E+04  0.10566000000E+00 0. -1.
        994   -1    0    0    0    0 -0.00000000000E+00 -0.00000000000E+00  0.11368683772E-12  0.17120000000E+03  0.17120000000E+03 0.  0.
         13    1    1    2    0    0 -0.60552732746E+00  0.13679421376E+02  0.13525686309E+02  0.19247040985E+02  0.10566000000E+00 0. -1.
        994    1    1    2    0    0  0.12028348573E+01 -0.18743462085E+02  0.69305062429E+01  0.17236657477E+03  0.17120000000E+03 0.  0.
        998    1    1    2    0    0 -0.59730752983E+00  0.50640407095E+01  0.14795438037E+04  0.14795863842E+04  0.10000000000E+02 0. -1.
</event>
<event>
 5    1  0.1800099E-008  0.3737156E+03  0.7957747E-01  0.3478987E+00
         13   -1    0    0    0    0  0.00000000000E+00  0.00000000000E+00  0.14999999963E+04  0.15000000000E+04  0.10566000000E+00 0.  1.
        994   -1    0    0    0    0 -0.00000000000E+00 -0.00000000000E+00  0.11368683772E-12  0.17120000000E+03  0.17120000000E+03 0.  0.
         13    1    1    2    0    0  0.43090204191E+02 -0.14476881872E+02  0.12525728043E+03  0.13325067831E+03  0.10566000000E+00 0.  1.
        994    1    1    2    0    0 -0.47220372058E+02  0.14097007666E+02  0.15676317979E+02  0.17883980571E+03  0.17120000000E+03 0.  0.
        998    1    1    2    0    0  0.41301678674E+01  0.37987420589E+00  0.13590663979E+04  0.13591095160E+04  0.10000000000E+02 0.  1.
</event>
<event>
 5    1  0.1800099E-008  0.3816015E+03  0.7957747E-01  0.3444215E+00
         13   -1    0    0    0    0  0.00000000000E+00  0.00000000000E+00  0.14999999963E+04  0.15000000000E+04  0.10566000000E+00 0. -1.
        994   -1    0    0    0    0 -0.00000000000E+00 -0.00000000000E+00  0.11368683772E-12  0.17120000000E+03  0.17120000000E+03 0.  0.
         13    1    1    2    0    0  0.39320912693E+02 -0.31865142183E+02  0.30077244674E+03  0.30500097925E+03  0.10566000000E+00 0. -1.
        994    1    1    2    0    0 -0.62242641373E+02  0.11379883596E+02  0.16756655419E+02  0.18328631606E+03  0.17120000000E+03 0.  0.
        998    1    1    2    0    0  0.22921728681E+02  0.20485258586E+02  0.11824708941E+04  0.11829127047E+04  0.10000000000E+02 0. -1.
</event>
<event>
 5    1  0.1800099E-008  0.3827081E+03  0.7957747E-01  0.3439451E+00
         13   -1    0    0    0    0  0.00000000000E+00  0.00000000000E+00  0.14999999963E+04  0.15000000000E+04  0.10566000000E+00 0.  1.
        994   -1    0    0    0    0 -0.00000000000E+00 -0.00000000000E+00  0.11368683772E-12  0.17120000000E+03  0.17120000000E+03 0.  0.
         13    1    1    2    0    0  0.11995374783E+02  0.86277531239E+01  0.39330425172E+02  0.42014529015E+02  0.10566000000E+00 0.  1.
        994    1    1    2    0    0 -0.34392306635E+01 -0.25599820152E+01  0.28332435867E+01  0.17127711197E+03  0.17120000000E+03 0.  0.
        998    1    1    2    0    0 -0.85561441191E+01 -0.60677711087E+01  0.14578363275E+04  0.14579083590E+04  0.10000000000E+02 0.  1.
</event>
<event>
 5    1  0.1800099E-008  0.3757124E+03  0.7957747E-01  0.3470043E+00
         13   -1    0    0    0    0  0.00000000000E+00  0.00000000000E+00  0.14999999963E+04  0.15000000000E+04  0.10566000000E+00 0.  1.
        994   -1    0    0    0    0 -0.00000000000E+00 -0.00000000000E+00  0.11368683772E-12  0.17120000000E+03  0.17120000000E+03 0.  0.
         13    1    1    2    0    0  0.33792118526E+02  0.39568675534E+02  0.11971283705E+03  0.13053260848E+03  0.10566000000E+00 0.  1.
        994    1    1    2    0    0  0.54931230550E+02  0.68079007306E+01  0.25003806292E+02  0.18165466669E+03  0.17120000000E+03 0.  0.
        998    1    1    2    0    0 -0.88723349076E+02 -0.46376576265E+02  0.13552833529E+04  0.13590127248E+04  0.10000000000E+02 0.  1.
</event>
<event>
 5    1  0.1800099E-008  0.3817391E+03  0.7957747E-01  0.3443621E+00
         13   -1    0    0    0    0  0.00000000000E+00  0.00000000000E+00  0.14999999963E+04  0.15000000000E+04  0.10566000000E+00 0. -1.
        994   -1    0    0    0    0 -0.00000000000E+00 -0.00000000000E+00  0.11368683772E-12  0.17120000000E+03  0.17120000000E+03 0.  0.
         13    1    1    2    0    0  0.15756468003E+02  0.18381135461E+02  0.86859740689E+02  0.90170716651E+02  0.10566000000E+00 0. -1.
        994    1    1    2    0    0 -0.77834844117E+01 -0.18893243546E+02  0.46468688233E+01  0.17247773964E+03  0.17120000000E+03 0.  0.
        998    1    1    2    0    0 -0.79729835910E+01  0.51210808462E+00  0.14084933868E+04  0.14085515437E+04  0.10000000000E+02 0. -1.
</event>
<event>
 5    1  0.1800099E-008  0.3804021E+03  0.7957747E-01  0.3449410E+00
         13   -1    0    0    0    0  0.00000000000E+00  0.00000000000E+00  0.14999999963E+04  0.15000000000E+04  0.10566000000E+00 0. -1.
        994   -1    0    0    0    0 -0.00000000000E+00 -0.00000000000E+00  0.11368683772E-12  0.17120000000E+03  0.17120000000E+03 0.  0.
         13    1    1    2    0    0 -0.29812058203E+02 -0.25306341036E+02  0.19329174623E+03  0.19720770785E+03  0.10566000000E+00 0. -1.
        994    1    1    2    0    0  0.25839705130E+02  0.48173218624E+01  0.62402895514E+01  0.17331842996E+03  0.17120000000E+03 0.  0.
        998    1    1    2    0    0  0.39723530728E+01  0.20489019173E+02  0.13004679605E+04  0.13006738622E+04  0.10000000000E+02 0. -1.
</event>
<event>
 5    1  0.1800099E-008  0.3796362E+03  0.7957747E-01  0.3452744E+00
         13   -1    0    0    0    0  0.00000000000E+00  0.00000000000E+00  0.14999999963E+04  0.15000000000E+04  0.10566000000E+00 0. -1.
        994   -1    0    0    0    0 -0.00000000000E+00 -0.00000000000E+00  0.11368683772E-12  0.17120000000E+03  0.17120000000E+03 0.  0.
         13    1    1    2    0    0  0.35912924629E+00  0.17396881027E+02  0.33912622916E+02  0.38116369192E+02  0.10566000000E+00 0. -1.
        994    1    1    2    0    0  0.46887481779E+01 -0.67320907846E+01  0.45422111624E+01  0.17145663326E+03  0.17120000000E+03 0.  0.
        998    1    1    2    0    0 -0.50478774242E+01 -0.10664790243E+02  0.14615451622E+04  0.14616269976E+04  0.10000000000E+02 0. -1.
</event>
<event>
 5    1  0.1800099E-008  0.3822888E+03  0.7957747E-01  0.3441253E+00
         13   -1    0    0    0    0  0.00000000000E+00  0.00000000000E+00  0.14999999963E+04  0.15000000000E+04  0.10566000000E+00 0.  1.
        994   -1    0    0    0    0 -0.00000000000E+00 -0.00000000000E+00  0.11368683772E-12  0.17120000000E+03  0.17120000000E+03 0.  0.
         13    1    1    2    0    0  0.19107507796E+02 -0.30016149807E+02  0.19432019498E+03  0.19755104516E+03  0.10566000000E+00 0.  1.
        994    1    1    2    0    0 -0.15469457629E+02  0.26608334095E+02  0.61315853436E+01  0.17405270438E+03  0.17120000000E+03 0.  0.
        998    1    1    2    0    0 -0.36380501669E+01  0.34078157117E+01  0.12995482160E+04  0.12995962505E+04  0.10000000000E+02 0.  1.
</event>
<event>
 5    1  0.1800099E-008  0.3713486E+03  0.7957747E-01  0.3489716E+00
         13   -1    0    0    0    0  0.00000000000E+00  0.00000000000E+00  0.14999999963E+04  0.15000000000E+04  0.10566000000E+00 0.  1.
        994   -1    0    0    0    0 -0.00000000000E+00 -0.00000000000E+00  0.11368683772E-12  0.17120000000E+03  0.17120000000E+03 0.  0.
         13    1    1    2    0    0 -0.42224443805E+02 -0.47761754415E+01  0.10176536113E+03  0.11028107451E+03  0.10566000000E+00 0.  1.
        994    1    1    2    0    0  0.27963120199E+02  0.15751841488E+01  0.11270297250E+02  0.17384152811E+03  0.17120000000E+03 0.  0.
        998    1    1    2    0    0  0.14261323606E+02  0.32009912926E+01  0.13869643379E+04  0.13870773974E+04  0.10000000000E+02 0.  1.
</event>
<event>
 5    1  0.1800099E-008  0.3709956E+03  0.7957747E-01  0.3491328E+00
         13   -1    0    0    0    0  0.00000000000E+00  0.00000000000E+00  0.14999999963E+04  0.15000000000E+04  0.10566000000E+00 0.  1.
        994   -1    0    0    0    0 -0.00000000000E+00 -0.00000000000E+00  0.11368683772E-12  0.17120000000E+03  0.17120000000E+03 0.  0.
         13    1    1    2    0    0  0.38005661258E+01 -0.14104363018E+02  0.82237015516E+01  0.16763585245E+02  0.10566000000E+00 0.  1.
        994    1    1    2    0    0 -0.38864542252E+01  0.11267593155E+02  0.92392527721E+01  0.17186293077E+03  0.17120000000E+03 0.  0.
        998    1    1    2    0    0  0.85888099306E-01  0.28367698624E+01  0.14825370420E+04  0.14825734840E+04  0.10000000000E+02 0.  1.
</event>
<event>
 5    1  0.1800099E-008  0.3950762E+03  0.7957747E-01  0.3388031E+00
         13   -1    0    0    0    0  0.00000000000E+00  0.00000000000E+00  0.14999999963E+04  0.15000000000E+04  0.10566000000E+00 0. -1.
        994   -1    0    0    0    0 -0.00000000000E+00 -0.00000000000E+00  0.11368683772E-12  0.17120000000E+03  0.17120000000E+03 0.  0.
         13    1    1    2    0    0  0.62423385007E+02  0.89744581265E+02  0.45156064849E+03  0.46460499275E+03  0.10566000000E+00 0. -1.
        994    1    1    2    0    0  0.61301998364E+02 -0.44889066520E+00  0.39437361408E+02  0.18607224936E+03  0.17120000000E+03 0.  0.
        998    1    1    2    0    0 -0.12372538337E+03 -0.89295690600E+02  0.10090019864E+04  0.10205227579E+04  0.10000000000E+02 0. -1.
</event>
<event>
 5    1  0.1800099E-008  0.3821657E+03  0.7957747E-01  0.3441783E+00
         13   -1    0    0    0    0  0.00000000000E+00  0.00000000000E+00  0.14999999963E+04  0.15000000000E+04  0.10566000000E+00 0.  1.
        994   -1    0    0    0    0 -0.00000000000E+00 -0.00000000000E+00  0.11368683772E-12  0.17120000000E+03  0.17120000000E+03 0.  0.
         13    1    1    2    0    0 -0.11570575256E+02 -0.22123602629E+01  0.22521794960E+02  0.25416828322E+02  0.10566000000E+00 0.  1.
        994    1    1    2    0    0 -0.54321151270E+01  0.11681226210E+01  0.31463847789E+01  0.17131903608E+03  0.17120000000E+03 0.  0.
        998    1    1    2    0    0  0.17002690383E+02  0.10442376419E+01  0.14743318165E+04  0.14744641356E+04  0.10000000000E+02 0.  1.
</event>
<event>
 5    1  0.1800099E-008  0.3844274E+03  0.7957747E-01  0.3432104E+00
         13   -1    0    0    0    0  0.00000000000E+00  0.00000000000E+00  0.14999999963E+04  0.15000000000E+04  0.10566000000E+00 0.  1.
        994   -1    0    0    0    0 -0.00000000000E+00 -0.00000000000E+00  0.11368683772E-12  0.17120000000E+03  0.17120000000E+03 0.  0.
         13    1    1    2    0    0 -0.64197994129E+01  0.80632739735E+01  0.27330410765E+02  0.29209462992E+02  0.10566000000E+00 0.  1.
        994    1    1    2    0    0  0.65579073271E+01 -0.30464024539E+01  0.20869588846E+01  0.17136534689E+03  0.17120000000E+03 0.  0.
        998    1    1    2    0    0 -0.13810791417E+00 -0.50168715195E+01  0.14705826266E+04  0.14706251901E+04  0.10000000000E+02 0.  1.
</event>
<event>
 5    1  0.1800099E-008  0.3721903E+03  0.7957747E-01  0.3485885E+00
         13   -1    0    0    0    0  0.00000000000E+00  0.00000000000E+00  0.14999999963E+04  0.15000000000E+04  0.10566000000E+00 0.  1.
        994   -1    0    0    0    0 -0.00000000000E+00 -0.00000000000E+00  0.11368683772E-12  0.17120000000E+03  0.17120000000E+03 0.  0.
         13    1    1    2    0    0 -0.46630435360E+02 -0.17643398470E+01  0.15691287014E+03  0.16370452155E+03  0.10566000000E+00 0.  1.
        994    1    1    2    0    0 -0.85067841114E+01  0.63642680164E+01  0.85160989566E+01  0.17174059865E+03  0.17120000000E+03 0.  0.
        998    1    1    2    0    0  0.55137219471E+02 -0.45999281694E+01  0.13345710272E+04  0.13357548798E+04  0.10000000000E+02 0.  1.
</event>
<event>
 5    1  0.1800099E-008  0.3831682E+03  0.7957747E-01  0.3437478E+00
         13   -1    0    0    0    0  0.00000000000E+00  0.00000000000E+00  0.14999999963E+04  0.15000000000E+04  0.10566000000E+00 0. -1.
        994   -1    0    0    0    0 -0.00000000000E+00 -0.00000000000E+00  0.11368683772E-12  0.17120000000E+03  0.17120000000E+03 0.  0.
         13    1    1    2    0    0  0.12993421020E+02  0.22683978368E+02  0.13047476424E+03  0.13306790422E+03  0.10566000000E+00 0. -1.
        994    1    1    2    0    0 -0.16115158711E+02 -0.12924368300E+02  0.39553588729E+01  0.17248716619E+03  0.17120000000E+03 0.  0.
        998    1    1    2    0    0  0.31217376914E+01 -0.97596100676E+01  0.13655698732E+04  0.13656449296E+04  0.10000000000E+02 0. -1.
</event>
<event>
 5    1  0.1800099E-008  0.3746383E+03  0.7957747E-01  0.3474842E+00
         13   -1    0    0    0    0  0.00000000000E+00  0.00000000000E+00  0.14999999963E+04  0.15000000000E+04  0.10566000000E+00 0. -1.
        994   -1    0    0    0    0 -0.00000000000E+00 -0.00000000000E+00  0.11368683772E-12  0.17120000000E+03  0.17120000000E+03 0.  0.
         13    1    1    2    0    0 -0.43436018560E+02  0.23885821400E+02  0.19476385924E+03  0.20097311314E+03  0.10566000000E+00 0. -1.
        994    1    1    2    0    0 -0.14122412169E+02 -0.58556174168E+02  0.19314819630E+02  0.18251238401E+03  0.17120000000E+03 0.  0.
        998    1    1    2    0    0  0.57558430729E+02  0.34670352767E+02  0.12859213174E+04  0.12877145029E+04  0.10000000000E+02 0. -1.
</event>
<event>
 5    1  0.1800099E-008  0.3756128E+03  0.7957747E-01  0.3470487E+00
         13   -1    0    0    0    0  0.00000000000E+00  0.00000000000E+00  0.14999999963E+04  0.15000000000E+04  0.10566000000E+00 0. -1.
        994   -1    0    0    0    0 -0.00000000000E+00 -0.00000000000E+00  0.11368683772E-12  0.17120000000E+03  0.17120000000E+03 0.  0.
         13    1    1    2    0    0 -0.67532078703E+02  0.93855807815E+01  0.36190362266E+03  0.36827016447E+03  0.10566000000E+00 0. -1.
        994    1    1    2    0    0  0.70133017974E+02  0.88417909182E+02  0.50872905658E+02  0.21126727007E+03  0.17120000000E+03 0.  0.
        998    1    1    2    0    0 -0.26009392710E+01 -0.97803489964E+02  0.10872234680E+04  0.10916625655E+04  0.10000000000E+02 0. -1.
</event>
<event>
 5    1  0.1800099E-008  0.3718324E+03  0.7957747E-01  0.3487512E+00
         13   -1    0    0    0    0  0.00000000000E+00  0.00000000000E+00  0.14999999963E+04  0.15000000000E+04  0.10566000000E+00 0. -1.
        994   -1    0    0    0    0 -0.00000000000E+00 -0.00000000000E+00  0.11368683772E-12  0.17120000000E+03  0.17120000000E+03 0.  0.
         13    1    1    2    0    0 -0.10150138456E+02  0.15865246851E+00  0.23216692161E+01  0.10414019073E+02  0.10566000000E+00 0. -1.
        994    1    1    2    0    0  0.69239563030E+01  0.12790951427E+01  0.84847915894E+01  0.17155468208E+03  0.17120000000E+03 0.  0.
        998    1    1    2    0    0  0.32261821526E+01 -0.14377476112E+01  0.14891935355E+04  0.14892312988E+04  0.10000000000E+02 0. -1.
</event>
<event>
 5    1  0.1800099E-008  0.3830649E+03  0.7957747E-01  0.3437921E+00
         13   -1    0    0    0    0  0.00000000000E+00  0.00000000000E+00  0.14999999963E+04  0.15000000000E+04  0.10566000000E+00 0.  1.
        994   -1    0    0    0    0 -0.00000000000E+00 -0.00000000000E+00  0.11368683772E-12  0.17120000000E+03  0.17120000000E+03 0.  0.
         13    1    1    2    0    0  0.27838158346E+02  0.98848679515E+01  0.14751373599E+03  0.15044263739E+03  0.10566000000E+00 0.  1.
        994    1    1    2    0    0 -0.32278104364E+02 -0.11648136277E+02  0.65007506036E+01  0.17472622831E+03  0.17120000000E+03 0.  0.
        998    1    1    2    0    0  0.44399460179E+01  0.17632683252E+01  0.13459855097E+04  0.13460311343E+04  0.10000000000E+02 0.  1.
</event>
<event>
 5    1  0.1800099E-008  0.3849083E+03  0.7957747E-01  0.3430061E+00
         13   -1    0    0    0    0  0.00000000000E+00  0.00000000000E+00  0.14999999963E+04  0.15000000000E+04  0.10566000000E+00 0. -1.
        994   -1    0    0    0    0 -0.00000000000E+00 -0.00000000000E+00  0.11368683772E-12  0.17120000000E+03  0.17120000000E+03 0.  0.
         13    1    1    2    0    0 -0.75397168231E+01 -0.11595808166E+02  0.56393326632E+02  0.58064865017E+02  0.10566000000E+00 0. -1.
        994    1    1    2    0    0  0.60962537795E+01  0.92480238623E+01  0.20794058317E+01  0.17157055162E+03  0.17120000000E+03 0.  0.
        998    1    1    2    0    0  0.14434630435E+01  0.23477843036E+01  0.14415272638E+04  0.14415645834E+04  0.10000000000E+02 0. -1.
</event>
<event>
 5    1  0.1800099E-008  0.3822675E+03  0.7957747E-01  0.3441344E+00
         13   -1    0    0    0    0  0.00000000000E+00  0.00000000000E+00  0.14999999963E+04  0.15000000000E+04  0.10566000000E+00 0.  1.
        994   -1    0    0    0    0 -0.00000000000E+00 -0.00000000000E+00  0.11368683772E-12  0.17120000000E+03  0.17120000000E+03 0.  0.
         13    1    1    2    0    0 -0.14377700267E+02 -0.58801253940E+01  0.38246110626E+02  0.41280386162E+02  0.10566000000E+00 0.  1.
        994    1    1    2    0    0  0.15188476792E+02  0.88519150172E+01  0.40189672842E+01  0.17214714149E+03  0.17120000000E+03 0.  0.
        998    1    1    2    0    0 -0.81077652470E+00 -0.29717896232E+01  0.14577349184E+04  0.14577724723E+04  0.10000000000E+02 0.  1.
</event>
<event>
 5    1  0.1800099E-008  0.2686441E+03  0.7957747E-01  0.4148881E+00
         13   -1    0    0    0    0  0.00000000000E+00  0.00000000000E+00  0.14999999963E+04  0.15000000000E+04  0.10566000000E+00 0. -1.
        994   -1    0    0    0    0 -0.00000000000E+00 -0.00000000000E+00  0.11368683772E-12  0.17120000000E+03  0.17120000000E+03 0.  0.
         13    1    1    2    0    0  0.85900404747E+01  0.13505804421E+03  0.59724441897E+03  0.61238498614E+03  0.10566000000E+00 0. -1.
        994    1    1    2    0    0 -0.45537945100E+02 -0.41373819514E+02  0.35097508247E+02  0.18527485655E+03  0.17120000000E+03 0.  0.
        998    1    1    2    0    0  0.36947904626E+02 -0.93684224697E+02  0.86765806906E+03  0.87354015730E+03  0.10000000000E+02 0. -1.
</event>
<event>
 5    1  0.1800099E-008  0.3782035E+03  0.7957747E-01  0.3459018E+00
         13   -1    0    0    0    0  0.00000000000E+00  0.00000000000E+00  0.14999999963E+04  0.15000000000E+04  0.10566000000E+00 0.  1.
        994   -1    0    0    0    0 -0.00000000000E+00 -0.00000000000E+00  0.11368683772E-12  0.17120000000E+03  0.17120000000E+03 0.  0.
         13    1    1    2    0    0  0.23887837023E+02  0.12137813746E+02  0.77401619743E+02  0.81908346235E+02  0.10566000000E+00 0.  1.
        994    1    1    2    0    0  0.94425026369E+01  0.15657868662E+01  0.53509164295E+01  0.17155082294E+03  0.17120000000E+03 0.  0.
        998    1    1    2    0    0 -0.33330339659E+02 -0.13703600612E+02  0.14172474601E+04  0.14177408308E+04  0.10000000000E+02 0.  1.
</event>
<event>
 5    1  0.1800099E-008  0.3999135E+03  0.7957747E-01  0.3368784E+00
         13   -1    0    0    0    0  0.00000000000E+00  0.00000000000E+00  0.14999999963E+04  0.15000000000E+04  0.10566000000E+00 0.  1.
        994   -1    0    0    0    0 -0.00000000000E+00 -0.00000000000E+00  0.11368683772E-12  0.17120000000E+03  0.17120000000E+03 0.  0.
         13    1    1    2    0    0 -0.31456325590E+02  0.86820425978E+02  0.13775248591E+03  0.16584042126E+03  0.10566000000E+00 0.  1.
        994    1    1    2    0    0  0.20228547583E+02 -0.78748476338E+02  0.54093201277E+02  0.19709396512E+03  0.17120000000E+03 0.  0.
        998    1    1    2    0    0  0.11227778007E+02 -0.80719496392E+01  0.13081543091E+04  0.13082656136E+04  0.10000000000E+02 0.  1.
</event>
<event>
 5    1  0.1800099E-008  0.3844452E+03  0.7957747E-01  0.3432028E+00
         13   -1    0    0    0    0  0.00000000000E+00  0.00000000000E+00  0.14999999963E+04  0.15000000000E+04  0.10566000000E+00 0.  1.
        994   -1    0    0    0    0 -0.00000000000E+00 -0.00000000000E+00  0.11368683772E-12  0.17120000000E+03  0.17120000000E+03 0.  0.
         13    1    1    2    0    0 -0.10804934262E+02  0.83325174986E+01  0.48232276241E+02  0.50125253991E+02  0.10566000000E+00 0.  1.
        994    1    1    2    0    0  0.13902672040E+02  0.99558141688E+00  0.25461312854E+01  0.17178532608E+03  0.17120000000E+03 0.  0.
        998    1    1    2    0    0 -0.30977377775E+01 -0.93280989155E+01  0.14492215888E+04  0.14492894199E+04  0.10000000000E+02 0.  1.
</event>
<event>
 5    1  0.1800099E-008  0.3843792E+03  0.7957747E-01  0.3432310E+00
         13   -1    0    0    0    0  0.00000000000E+00  0.00000000000E+00  0.14999999963E+04  0.15000000000E+04  0.10566000000E+00 0. -1.
        994   -1    0    0    0    0 -0.00000000000E+00 -0.00000000000E+00  0.11368683772E-12  0.17120000000E+03  0.17120000000E+03 0.  0.
         13    1    1    2    0    0  0.20679045691E+02  0.85248455037E+00  0.99707656681E+02  0.10183308709E+03  0.10566000000E+00 0. -1.
        994    1    1    2    0    0 -0.26852016326E+02 -0.81408905436E+01  0.45373886364E+01  0.17354346077E+03  0.17120000000E+03 0.  0.
        998    1    1    2    0    0  0.61729706354E+01  0.72884059932E+01  0.13957549510E+04  0.13958234521E+04  0.10000000000E+02 0. -1.
</event>
<event>
 5    1  0.1800099E-008  0.3703093E+03  0.7957747E-01  0.3494471E+00
         13   -1    0    0    0    0  0.00000000000E+00  0.00000000000E+00  0.14999999963E+04  0.15000000000E+04  0.10566000000E+00 0. -1.
        994   -1    0    0    0    0 -0.00000000000E+00 -0.00000000000E+00  0.11368683772E-12  0.17120000000E+03  0.17120000000E+03 0.  0.
         13    1    1    2    0    0 -0.66988638053E+02  0.42236589004E+02  0.39134010999E+03  0.39927246328E+03  0.10566000000E+00 0. -1.
        994    1    1    2    0    0  0.28889281663E+02 -0.77203729465E+01  0.12202223516E+02  0.17421977216E+03  0.17120000000E+03 0.  0.
        998    1    1    2    0    0  0.38099356390E+02 -0.34516216058E+02  0.10964576628E+04  0.10977077646E+04  0.10000000000E+02 0. -1.
</event>
<event>
 5    1  0.1800099E-008  0.3857384E+03  0.7957747E-01  0.3426546E+00
         13   -1    0    0    0    0  0.00000000000E+00  0.00000000000E+00  0.14999999963E+04  0.15000000000E+04  0.10566000000E+00 0. -1.
        994   -1    0    0    0    0 -0.00000000000E+00 -0.00000000000E+00  0.11368683772E-12  0.17120000000E+03  0.17120000000E+03 0.  0.
         13    1    1    2    0    0 -0.14235785349E+02 -0.43260740990E+01  0.89735182319E+02  0.90960357362E+02  0.10566000000E+00 0. -1.
        994    1    1    2    0    0  0.81459327270E+01 -0.36756682932E+00  0.14821334738E+01  0.17140049021E+03  0.17120000000E+03 0.  0.
        998    1    1    2    0    0  0.60898526218E+01  0.46936409284E+01  0.14087826805E+04  0.14088391524E+04  0.10000000000E+02 0. -1.
</event>
<event>
 5    1  0.1800099E-008  0.3718300E+03  0.7957747E-01  0.3487522E+00
         13   -1    0    0    0    0  0.00000000000E+00  0.00000000000E+00  0.14999999963E+04  0.15000000000E+04  0.10566000000E+00 0. -1.
        994   -1    0    0    0    0 -0.00000000000E+00 -0.00000000000E+00  0.11368683772E-12  0.17120000000E+03  0.17120000000E+03 0.  0.
         13    1    1    2    0    0  0.14631157487E+02  0.57784526040E+01  0.10900259564E+02  0.19138654772E+02  0.10566000000E+00 0. -1.
        994    1    1    2    0    0 -0.19131039953E+02 -0.11669001771E+02  0.10042971306E+02  0.17295220023E+03  0.17120000000E+03 0.  0.
        998    1    1    2    0    0  0.44998824662E+01  0.58905491670E+01  0.14790567654E+04  0.14791091450E+04  0.10000000000E+02 0. -1.
</event>
<event>
 5    1  0.1800099E-008  0.3833756E+03  0.7957747E-01  0.3436591E+00
         13   -1    0    0    0    0  0.00000000000E+00  0.00000000000E+00  0.14999999963E+04  0.15000000000E+04  0.10566000000E+00 0. -1.
        994   -1    0    0    0    0 -0.00000000000E+00 -0.00000000000E+00  0.11368683772E-12  0.17120000000E+03  0.17120000000E+03 0.  0.
         13    1    1    2    0    0 -0.16441875134E+02  0.43808208253E+01  0.61257830180E+02  0.63577195372E+02  0.10566000000E+00 0. -1.
        994    1    1    2    0    0  0.58222791319E+00 -0.90841906879E+01  0.27127459125E+01  0.17146329199E+03  0.17120000000E+03 0.  0.
        998    1    1    2    0    0  0.15859647221E+02  0.47033698626E+01  0.14360294202E+04  0.14361595126E+04  0.10000000000E+02 0. -1.
</event>
<event>
 5    1  0.1800099E-008  0.3809116E+03  0.7957747E-01  0.3447199E+00
         13   -1    0    0    0    0  0.00000000000E+00  0.00000000000E+00  0.14999999963E+04  0.15000000000E+04  0.10566000000E+00 0. -1.
        994   -1    0    0    0    0 -0.00000000000E+00 -0.00000000000E+00  0.11368683772E-12  0.17120000000E+03  0.17120000000E+03 0.  0.
         13    1    1    2    0    0  0.74211243793E+02  0.73918871344E+02  0.26392120579E+03  0.28394668914E+03  0.10566000000E+00 0. -1.
        994    1    1    2    0    0 -0.14462034214E+03 -0.58169566467E+01  0.97572186909E+02  0.24449673209E+03  0.17120000000E+03 0.  0.
        998    1    1    2    0    0  0.70409098347E+02 -0.68101914697E+02  0.11385066036E+04  0.11427565788E+04  0.10000000000E+02 0. -1.
</event>
<event>
 5    1  0.1800099E-008  0.3845181E+03  0.7957747E-01  0.3431718E+00
         13   -1    0    0    0    0  0.00000000000E+00  0.00000000000E+00  0.14999999963E+04  0.15000000000E+04  0.10566000000E+00 0. -1.
        994   -1    0    0    0    0 -0.00000000000E+00 -0.00000000000E+00  0.11368683772E-12  0.17120000000E+03  0.17120000000E+03 0.  0.
         13    1    1    2    0    0 -0.12676296749E+02 -0.49512595486E+01  0.50025724218E+02  0.51843878308E+02  0.10566000000E+00 0. -1.
        994    1    1    2    0    0  0.57424545269E+01  0.21359333506E+01  0.19932111021E+01  0.17132119217E+03  0.17120000000E+03 0.  0.
        998    1    1    2    0    0  0.69338422218E+01  0.28153261980E+01  0.14479810610E+04  0.14480349295E+04  0.10000000000E+02 0. -1.
</event>
<event>
 5    1  0.1800099E-008  0.3578591E+03  0.7957747E-01  0.3553619E+00
         13   -1    0    0    0    0  0.00000000000E+00  0.00000000000E+00  0.14999999963E+04  0.15000000000E+04  0.10566000000E+00 0.  1.
        994   -1    0    0    0    0 -0.00000000000E+00 -0.00000000000E+00  0.11368683772E-12  0.17120000000E+03  0.17120000000E+03 0.  0.
         13    1    1    2    0    0 -0.19200153542E+03 -0.44593538415E+02  0.11843860834E+04  0.12006763006E+04  0.10566000000E+00 0.  1.
        994    1    1    2    0    0  0.16119329753E+03  0.43281109217E+01  0.11206734435E+03  0.26051975238E+03  0.17120000000E+03 0.  0.
        998    1    1    2    0    0  0.30808237898E+02  0.40265427494E+02  0.20354656857E+03  0.21000394699E+03  0.10000000000E+02 0.  1.
</event>
<event>
 5    1  0.1800099E-008  0.3831471E+03  0.7957747E-01  0.3437569E+00
         13   -1    0    0    0    0  0.00000000000E+00  0.00000000000E+00  0.14999999963E+04  0.15000000000E+04  0.10566000000E+00 0. -1.
        994   -1    0    0    0    0 -0.00000000000E+00 -0.00000000000E+00  0.11368683772E-12  0.17120000000E+03  0.17120000000E+03 0.  0.
         13    1    1    2    0    0  0.67605048721E+01  0.12422327824E+02  0.36728986841E+02  0.39357950825E+02  0.10566000000E+00 0. -1.
        994    1    1    2    0    0 -0.11456440459E+02 -0.17186005321E+02  0.39655804650E+01  0.17248702744E+03  0.17120000000E+03 0.  0.
        998    1    1    2    0    0  0.46959355873E+01  0.47636774977E+01  0.14593054290E+04  0.14593550217E+04  0.10000000000E+02 0. -1.
</event>
<event>
 5    1  0.1800099E-008  0.3835848E+03  0.7957747E-01  0.3435697E+00
         13   -1    0    0    0    0  0.00000000000E+00  0.00000000000E+00  0.14999999963E+04  0.15000000000E+04  0.10566000000E+00 0.  1.
        994   -1    0    0    0    0 -0.00000000000E+00 -0.00000000000E+00  0.11368683772E-12  0.17120000000E+03  0.17120000000E+03 0.  0.
         13    1    1    2    0    0  0.16377363123E+02  0.59940201761E+01  0.62883632267E+02  0.65257249956E+02  0.10566000000E+00 0.  1.
        994    1    1    2    0    0 -0.16199210578E+02 -0.32968414755E+01  0.32377939017E+01  0.17202676215E+03  0.17120000000E+03 0.  0.
        998    1    1    2    0    0 -0.17815254464E+00 -0.26971787005E+01  0.14338785701E+04  0.14339159879E+04  0.10000000000E+02 0.  1.
</event>
<event>
 5    1  0.1800099E-008  0.3803314E+03  0.7957747E-01  0.3449717E+00
         13   -1    0    0    0    0  0.00000000000E+00  0.00000000000E+00  0.14999999963E+04  0.15000000000E+04  0.10566000000E+00 0. -1.
        994   -1    0    0    0    0 -0.00000000000E+00 -0.00000000000E+00  0.11368683772E-12  0.17120000000E+03  0.17120000000E+03 0.  0.
         13    1    1    2    0    0  0.18601275520E+02 -0.11075965316E+02  0.56996902160E+02  0.60970012946E+02  0.10566000000E+00 0. -1.
        994    1    1    2    0    0 -0.21055870719E+02 -0.24849779335E+01  0.54684660247E+01  0.17259452172E+03  0.17120000000E+03 0.  0.
        998    1    1    2    0    0  0.24545951985E+01  0.13560943249E+02  0.14375346281E+04  0.14376354653E+04  0.10000000000E+02 0. -1.
</event>
<event>
 5    1  0.1800099E-008  0.3798597E+03  0.7957747E-01  0.3451769E+00
         13   -1    0    0    0    0  0.00000000000E+00  0.00000000000E+00  0.14999999963E+04  0.15000000000E+04  0.10566000000E+00 0.  1.
        994   -1    0    0    0    0 -0.00000000000E+00 -0.00000000000E+00  0.11368683772E-12  0.17120000000E+03  0.17120000000E+03 0.  0.
         13    1    1    2    0    0  0.15575638616E+02  0.35182692916E+02  0.38730131402E+02  0.54593558608E+02  0.10566000000E+00 0.  1.
        994    1    1    2    0    0 -0.89123767519E+01 -0.32982900303E+02  0.20489377360E+02  0.17577416408E+03  0.17120000000E+03 0.  0.
        998    1    1    2    0    0 -0.66632618639E+01 -0.21997926134E+01  0.14407804875E+04  0.14408322773E+04  0.10000000000E+02 0.  1.
</event>
<event>
 5    1  0.1800099E-008  0.3826499E+03  0.7957747E-01  0.3439701E+00
         13   -1    0    0    0    0  0.00000000000E+00  0.00000000000E+00  0.14999999963E+04  0.15000000000E+04  0.10566000000E+00 0. -1.
        994   -1    0    0    0    0 -0.00000000000E+00 -0.00000000000E+00  0.11368683772E-12  0.17120000000E+03  0.17120000000E+03 0.  0.
         13    1    1    2    0    0  0.38667943220E+01 -0.49835793319E+02  0.26715349543E+03  0.27178955035E+03  0.10566000000E+00 0. -1.
        994    1    1    2    0    0 -0.15569441643E+02  0.81446962380E+02  0.25932298861E+02  0.19198421633E+03  0.17120000000E+03 0.  0.
        998    1    1    2    0    0  0.11702647321E+02 -0.31611169061E+02  0.12069142020E+04  0.12074262333E+04  0.10000000000E+02 0. -1.
</event>
<event>
 5    1  0.1800099E-008  0.3829399E+03  0.7957747E-01  0.3438457E+00
         13   -1    0    0    0    0  0.00000000000E+00  0.00000000000E+00  0.14999999963E+04  0.15000000000E+04  0.10566000000E+00 0.  1.
        994   -1    0    0    0    0 -0.00000000000E+00 -0.00000000000E+00  0.11368683772E-12  0.17120000000E+03  0.17120000000E+03 0.  0.
         13    1    1    2    0    0 -0.61354684956E+01  0.49492617762E+02  0.63124595969E+02  0.80448051355E+02  0.10566000000E+00 0.  1.
        994    1    1    2    0    0  0.61951456628E+01 -0.33478676175E+02  0.22209360743E+02  0.17595993093E+03  0.17120000000E+03 0.  0.
        998    1    1    2    0    0 -0.59677167249E-01 -0.16013941586E+02  0.14146660396E+04  0.14147920177E+04  0.10000000000E+02 0.  1.
</event>
<event>
 5    1  0.1800099E-008  0.3846262E+03  0.7957747E-01  0.3431259E+00
         13   -1    0    0    0    0  0.00000000000E+00  0.00000000000E+00  0.14999999963E+04  0.15000000000E+04  0.10566000000E+00 0.  1.
        994   -1    0    0    0    0 -0.00000000000E+00 -0.00000000000E+00  0.11368683772E-12  0.17120000000E+03  0.17120000000E+03 0.  0.
         13    1    1    2    0    0  0.11831516176E+02  0.14091358202E+02  0.96972272072E+02  0.98702501821E+02  0.10566000000E+00 0.  1.
        994    1    1    2    0    0 -0.17806014443E+02  0.62450899674E+01  0.29890497164E+01  0.17226267651E+03  0.17120000000E+03 0.  0.
        998    1    1    2    0    0  0.59744982670E+01 -0.20336448169E+02  0.14000386745E+04  0.14002348217E+04  0.10000000000E+02 0.  1.
</event>
<event>
 5    1  0.1800099E-008  0.3795083E+03  0.7957747E-01  0.3453302E+00
         13   -1    0    0    0    0  0.00000000000E+00  0.00000000000E+00  0.14999999963E+04  0.15000000000E+04  0.10566000000E+00 0.  1.
        994   -1    0    0    0    0 -0.00000000000E+00 -0.00000000000E+00  0.11368683772E-12  0.17120000000E+03  0.17120000000E+03 0.  0.
         13    1    1    2    0    0  0.23797213517E+02  0.48730353903E+01  0.63705494238E+02  0.68179579093E+02  0.10566000000E+00 0.  1.
        994    1    1    2    0    0 -0.23244372199E+02 -0.18843629277E+01  0.62046962206E+01  0.17289242296E+03  0.17120000000E+03 0.  0.
        998    1    1    2    0    0 -0.55284131736E+00 -0.29886724626E+01  0.14300898058E+04  0.14301279979E+04  0.10000000000E+02 0.  1.
</event>
<event>
 5    1  0.1800099E-008  0.3833080E+03  0.7957747E-01  0.3436880E+00
         13   -1    0    0    0    0  0.00000000000E+00  0.00000000000E+00  0.14999999963E+04  0.15000000000E+04  0.10566000000E+00 0. -1.
        994   -1    0    0    0    0 -0.00000000000E+00 -0.00000000000E+00  0.11368683772E-12  0.17120000000E+03  0.17120000000E+03 0.  0.
         13    1    1    2    0    0 -0.75055864752E+01  0.15157717721E+02  0.56106840922E+02  0.58601015325E+02  0.10566000000E+00 0. -1.
        994    1    1    2    0    0  0.24904341455E+01 -0.15446824047E+02  0.32824561682E+01  0.17194482008E+03  0.17120000000E+03 0.  0.
        998    1    1    2    0    0  0.50151523297E+01  0.28910632593E+00  0.14406106992E+04  0.14406541646E+04  0.10000000000E+02 0. -1.
</event>
<event>
 5    1  0.1800099E-008  0.3823729E+03  0.7957747E-01  0.3440891E+00
         13   -1    0    0    0    0  0.00000000000E+00  0.00000000000E+00  0.14999999963E+04  0.15000000000E+04  0.10566000000E+00 0. -1.
        994   -1    0    0    0    0 -0.00000000000E+00 -0.00000000000E+00  0.11368683772E-12  0.17120000000E+03  0.17120000000E+03 0.  0.
         13    1    1    2    0    0  0.16884166045E+02  0.16818362054E+02  0.94139363532E+02  0.97109027878E+02  0.10566000000E+00 0. -1.
        994    1    1    2    0    0 -0.49746889561E+01 -0.20020302644E+02  0.43529196220E+01  0.17249332728E+03  0.17120000000E+03 0.  0.
        998    1    1    2    0    0 -0.11909477089E+02  0.32019405901E+01  0.14015077131E+04  0.14015976448E+04  0.10000000000E+02 0. -1.
</event>
<event>
 5    1  0.1800099E-008  0.3826680E+03  0.7957747E-01  0.3439623E+00
         13   -1    0    0    0    0  0.00000000000E+00  0.00000000000E+00  0.14999999963E+04  0.15000000000E+04  0.10566000000E+00 0. -1.
        994   -1    0    0    0    0 -0.00000000000E+00 -0.00000000000E+00  0.11368683772E-12  0.17120000000E+03  0.17120000000E+03 0.  0.
         13    1    1    2    0    0  0.33492115567E+01  0.13861047745E+02  0.34976918932E+02  0.37772236956E+02  0.10566000000E+00 0. -1.
        994    1    1    2    0    0 -0.26728684004E+01 -0.13052212984E+02  0.33808101719E+01  0.17175090791E+03  0.17120000000E+03 0.  0.
        998    1    1    2    0    0 -0.67634315625E+00 -0.80883476019E+00  0.14616422672E+04  0.14616768551E+04  0.10000000000E+02 0. -1.
</event>
<event>
 5    1  0.1800099E-008  0.3834140E+03  0.7957747E-01  0.3436427E+00
         13   -1    0    0    0    0  0.00000000000E+00  0.00000000000E+00  0.14999999963E+04  0.15000000000E+04  0.10566000000E+00 0.  1.
        994   -1    0    0    0    0 -0.00000000000E+00 -0.00000000000E+00  0.11368683772E-12  0.17120000000E+03  0.17120000000E+03 0.  0.
         13    1    1    2    0    0 -0.19305996788E+02  0.18426284519E+02  0.15222183273E+03  0.15454367343E+03  0.10566000000E+00 0.  1.
        994    1    1    2    0    0  0.11866512201E+02 -0.40987973293E+01  0.29408002476E+01  0.17168489321E+03  0.17120000000E+03 0.  0.
        998    1    1    2    0    0  0.74394845865E+01 -0.14327487190E+02  0.13448373633E+04  0.13449714334E+04  0.10000000000E+02 0.  1.
</event>
<event>
 5    1  0.1800099E-008  0.3825200E+03  0.7957747E-01  0.3440259E+00
         13   -1    0    0    0    0  0.00000000000E+00  0.00000000000E+00  0.14999999963E+04  0.15000000000E+04  0.10566000000E+00 0. -1.
        994   -1    0    0    0    0 -0.00000000000E+00 -0.00000000000E+00  0.11368683772E-12  0.17120000000E+03  0.17120000000E+03 0.  0.
         13    1    1    2    0    0  0.18700422926E+02  0.18150493622E+02  0.13451542637E+03  0.13701663159E+03  0.10566000000E+00 0. -1.
        994    1    1    2    0    0  0.49239828035E+00  0.36239137355E+01  0.29108029572E+01  0.17126379647E+03  0.17120000000E+03 0.  0.
        998    1    1    2    0    0 -0.19192821206E+02 -0.21774407358E+02  0.13625737670E+04  0.13629195719E+04  0.10000000000E+02 0. -1.
</event>
<event>
 5    1  0.1800099E-008  0.3834606E+03  0.7957747E-01  0.3436227E+00
         13   -1    0    0    0    0  0.00000000000E+00  0.00000000000E+00  0.14999999963E+04  0.15000000000E+04  0.10566000000E+00 0. -1.
        994   -1    0    0    0    0 -0.00000000000E+00 -0.00000000000E+00  0.11368683772E-12  0.17120000000E+03  0.17120000000E+03 0.  0.
         13    1    1    2    0    0  0.76017822718E+01  0.67715233141E+01  0.20691258842E+02  0.23060355119E+02  0.10566000000E+00 0. -1.
        994    1    1    2    0    0 -0.65747699147E+01 -0.53692033039E+01  0.26345344651E+01  0.17143055946E+03  0.17120000000E+03 0.  0.
        998    1    1    2    0    0 -0.10270123572E+01 -0.14023200102E+01  0.14766742030E+04  0.14767090854E+04  0.10000000000E+02 0. -1.
</event>
<event>
 5    1  0.1800099E-008  0.3858472E+03  0.7957747E-01  0.3426087E+00
         13   -1    0    0    0    0  0.00000000000E+00  0.00000000000E+00  0.14999999963E+04  0.15000000000E+04  0.10566000000E+00 0.  1.
        994   -1    0    0    0    0 -0.00000000000E+00 -0.00000000000E+00  0.11368683772E-12  0.17120000000E+03  0.17120000000E+03 0.  0.
         13    1    1    2    0    0  0.75097721763E+01  0.10169695333E+02  0.63111743618E+02  0.64365539909E+02  0.10566000000E+00 0.  1.
        994    1    1    2    0    0 -0.10198965804E+02 -0.12459596399E+02  0.20608546221E+01  0.17196786783E+03  0.17120000000E+03 0.  0.
        998    1    1    2    0    0  0.26891936276E+01  0.22899010661E+01  0.14348273980E+04  0.14348665923E+04  0.10000000000E+02 0.  1.
</event>
<event>
 5    1  0.1800099E-008  0.3786566E+03  0.7957747E-01  0.3457029E+00
         13   -1    0    0    0    0  0.00000000000E+00  0.00000000000E+00  0.14999999963E+04  0.15000000000E+04  0.10566000000E+00 0. -1.
        994   -1    0    0    0    0 -0.00000000000E+00 -0.00000000000E+00  0.11368683772E-12  0.17120000000E+03  0.17120000000E+03 0.  0.
         13    1    1    2    0    0 -0.12225032682E+03  0.15638074754E+03  0.88858045817E+03  0.91048081936E+03  0.10566000000E+00 0. -1.
        994    1    1    2    0    0  0.10579504517E+03 -0.19595101076E+03  0.19490677447E+03  0.34188811171E+03  0.17120000000E+03 0.  0.
        998    1    1    2    0    0  0.16455281647E+02  0.39570263211E+02  0.41651276364E+03  0.41883106893E+03  0.10000000000E+02 0.  1.
</event>
<event>
 5    1  0.1800099E-008  0.3740954E+03  0.7957747E-01  0.3477278E+00
         13   -1    0    0    0    0  0.00000000000E+00  0.00000000000E+00  0.14999999963E+04  0.15000000000E+04  0.10566000000E+00 0. -1.
        994   -1    0    0    0    0 -0.00000000000E+00 -0.00000000000E+00  0.11368683772E-12  0.17120000000E+03  0.17120000000E+03 0.  0.
         13    1    1    2    0    0 -0.65480505398E+01  0.40874738358E+02  0.12256736563E+03  0.12936920609E+03  0.10566000000E+00 0. -1.
        994    1    1    2    0    0  0.18777706752E+02 -0.12981415407E+02  0.89228179384E+01  0.17294558710E+03  0.17120000000E+03 0.  0.
        998    1    1    2    0    0 -0.12229656212E+02 -0.27893322951E+02  0.13685098127E+04  0.13688852068E+04  0.10000000000E+02 0. -1.
</event>
<event>
 5    1  0.1800099E-008  0.3843559E+03  0.7957747E-01  0.3432409E+00
         13   -1    0    0    0    0  0.00000000000E+00  0.00000000000E+00  0.14999999963E+04  0.15000000000E+04  0.10566000000E+00 0.  1.
        994   -1    0    0    0    0 -0.00000000000E+00 -0.00000000000E+00  0.11368683772E-12  0.17120000000E+03  0.17120000000E+03 0.  0.
         13    1    1    2    0    0 -0.22101835765E+02 -0.46109756622E+01  0.55017083359E+01  0.23238592888E+02  0.10566000000E+00 0.  1.
        994    1    1    2    0    0 -0.61769202918E+01  0.58625693879E+02  0.31651827113E+02  0.18381078447E+03  0.17120000000E+03 0.  0.
        998    1    1    2    0    0  0.28278756057E+02 -0.54014718217E+02  0.14628464608E+04  0.14641506226E+04  0.10000000000E+02 0.  1.
</event>
<event>
 5    1  0.1800099E-008  0.3822295E+03  0.7957747E-01  0.3441508E+00
         13   -1    0    0    0    0  0.00000000000E+00  0.00000000000E+00  0.14999999963E+04  0.15000000000E+04  0.10566000000E+00 0. -1.
        994   -1    0    0    0    0 -0.00000000000E+00 -0.00000000000E+00  0.11368683772E-12  0.17120000000E+03  0.17120000000E+03 0.  0.
         13    1    1    2    0    0 -0.44445467071E+02 -0.12326971189E+02  0.26756657670E+03  0.27151286875E+03  0.10566000000E+00 0. -1.
        994    1    1    2    0    0  0.54092573372E+02  0.10779936298E+02  0.13173897465E+02  0.18034745658E+03  0.17120000000E+03 0.  0.
        998    1    1    2    0    0 -0.96471063005E+01  0.15470348910E+01  0.12192595221E+04  0.12193396747E+04  0.10000000000E+02 0. -1.
</event>
<event>
 5    1  0.1800099E-008  0.3834684E+03  0.7957747E-01  0.3436194E+00
         13   -1    0    0    0    0  0.00000000000E+00  0.00000000000E+00  0.14999999963E+04  0.15000000000E+04  0.10566000000E+00 0.  1.
        994   -1    0    0    0    0 -0.00000000000E+00 -0.00000000000E+00  0.11368683772E-12  0.17120000000E+03  0.17120000000E+03 0.  0.
         13    1    1    2    0    0 -0.83952123635E+01  0.16617696033E+02  0.64095444999E+02  0.66744772422E+02  0.10566000000E+00 0.  1.
        994    1    1    2    0    0  0.33049511750E+02 -0.21644803358E+02  0.75680437254E+01  0.17586211367E+03  0.17120000000E+03 0.  0.
        998    1    1    2    0    0 -0.24654299386E+02  0.50271073254E+01  0.14283365076E+04  0.14285931139E+04  0.10000000000E+02 0.  1.
</event>
<event>
 5    1  0.1800099E-008  0.4079263E+03  0.7957747E-01  0.3337902E+00
         13   -1    0    0    0    0  0.00000000000E+00  0.00000000000E+00  0.14999999963E+04  0.15000000000E+04  0.10566000000E+00 0.  1.
        994   -1    0    0    0    0 -0.00000000000E+00 -0.00000000000E+00  0.11368683772E-12  0.17120000000E+03  0.17120000000E+03 0.  0.
         13    1    1    2    0    0 -0.85195667714E+02  0.86973750385E+01  0.11323421341E+03  0.14197163231E+03  0.10566000000E+00 0.  1.
        994    1    1    2    0    0  0.20309666729E+02 -0.69577615916E+02  0.54189856951E+02  0.19364789644E+03  0.17120000000E+03 0.  0.
        998    1    1    2    0    0  0.64886000985E+02  0.60880240878E+02  0.13325759259E+04  0.13355804713E+04  0.10000000000E+02 0.  1.
</event>
<event>
 5    1  0.1800099E-008  0.3825718E+03  0.7957747E-01  0.3440036E+00
         13   -1    0    0    0    0  0.00000000000E+00  0.00000000000E+00  0.14999999963E+04  0.15000000000E+04  0.10566000000E+00 0. -1.
        994   -1    0    0    0    0 -0.00000000000E+00 -0.00000000000E+00  0.11368683772E-12  0.17120000000E+03  0.17120000000E+03 0.  0.
         13    1    1    2    0    0  0.11615459431E+02  0.40150144903E+01  0.27198181527E+02  0.29846130094E+02  0.10566000000E+00 0. -1.
        994    1    1    2    0    0  0.65434816305E+01  0.11626143688E+02  0.34307047722E+01  0.17175329430E+03  0.17120000000E+03 0.  0.
        998    1    1    2    0    0 -0.18158941062E+02 -0.15641158179E+02  0.14693711100E+04  0.14696005756E+04  0.10000000000E+02 0. -1.
</event>
<event>
 5    1  0.1800099E-008  0.3770287E+03  0.7957747E-01  0.3464199E+00
         13   -1    0    0    0    0  0.00000000000E+00  0.00000000000E+00  0.14999999963E+04  0.15000000000E+04  0.10566000000E+00 0.  1.
        994   -1    0    0    0    0 -0.00000000000E+00 -0.00000000000E+00  0.11368683772E-12  0.17120000000E+03  0.17120000000E+03 0.  0.
         13    1    1    2    0    0 -0.22295079079E+01 -0.21430851485E+02  0.90757757358E+01  0.23380183278E+02  0.10566000000E+00 0.  1.
        994    1    1    2    0    0  0.11094673693E+02  0.26231918988E+02  0.17617755399E+02  0.17444492158E+03  0.17120000000E+03 0.  0.
        998    1    1    2    0    0 -0.88651657847E+01 -0.48010675034E+01  0.14733064651E+04  0.14733748951E+04  0.10000000000E+02 0.  1.
</event>
<event>
 5    1  0.1800099E-008  0.3843519E+03  0.7957747E-01  0.3432426E+00
         13   -1    0    0    0    0  0.00000000000E+00  0.00000000000E+00  0.14999999963E+04  0.15000000000E+04  0.10566000000E+00 0.  1.
        994   -1    0    0    0    0 -0.00000000000E+00 -0.00000000000E+00  0.11368683772E-12  0.17120000000E+03  0.17120000000E+03 0.  0.
         13    1    1    2    0    0  0.15209499229E+02 -0.19114512071E+02  0.14543053114E+03  0.14746777272E+03  0.10566000000E+00 0.  1.
        994    1    1    2    0    0 -0.17319068835E+02  0.12260215938E+02  0.34375296867E+01  0.17254425418E+03  0.17120000000E+03 0.  0.
        998    1    1    2    0    0  0.21095696059E+01  0.68542961325E+01  0.13511319354E+04  0.13511879731E+04  0.10000000000E+02 0.  1.
</event>
<event>
 5    1  0.1800099E-008  0.3859925E+03  0.7957747E-01  0.3425474E+00
         13   -1    0    0    0    0  0.00000000000E+00  0.00000000000E+00  0.14999999963E+04  0.15000000000E+04  0.10566000000E+00 0. -1.
        994   -1    0    0    0    0 -0.00000000000E+00 -0.00000000000E+00  0.11368683772E-12  0.17120000000E+03  0.17120000000E+03 0.  0.
         13    1    1    2    0    0 -0.55106753350E+01 -0.85162021538E+01  0.43417251492E+02  0.44586568975E+02  0.10566000000E+00 0. -1.
        994    1    1    2    0    0 -0.18768965559E+00  0.18443054813E+02  0.22541427450E+01  0.17220540833E+03  0.17120000000E+03 0.  0.
        998    1    1    2    0    0  0.56983649905E+01 -0.99268526596E+01  0.14543286020E+04  0.14544080227E+04  0.10000000000E+02 0. -1.
</event>
<event>
 5    1  0.1800099E-008  0.3709984E+03  0.7957747E-01  0.3491315E+00
         13   -1    0    0    0    0  0.00000000000E+00  0.00000000000E+00  0.14999999963E+04  0.15000000000E+04  0.10566000000E+00 0. -1.
        994   -1    0    0    0    0 -0.00000000000E+00 -0.00000000000E+00  0.11368683772E-12  0.17120000000E+03  0.17120000000E+03 0.  0.
         13    1    1    2    0    0  0.39911049760E+02 -0.30470413113E+02  0.12939065327E+03  0.13879225585E+03  0.10566000000E+00 0. -1.
        994    1    1    2    0    0 -0.35271284852E+02  0.37439863605E+02  0.17920818424E+02  0.17965634599E+03  0.17120000000E+03 0.  0.
        998    1    1    2    0    0 -0.46397649081E+01 -0.69694504923E+01  0.13526885246E+04  0.13527513982E+04  0.10000000000E+02 0. -1.
</event>
<event>
 5    1  0.1800099E-008  0.3847307E+03  0.7957747E-01  0.3430815E+00
         13   -1    0    0    0    0  0.00000000000E+00  0.00000000000E+00  0.14999999963E+04  0.15000000000E+04  0.10566000000E+00 0. -1.
        994   -1    0    0    0    0 -0.00000000000E+00 -0.00000000000E+00  0.11368683772E-12  0.17120000000E+03  0.17120000000E+03 0.  0.
         13    1    1    2    0    0 -0.19335972339E+02  0.23719807883E+01  0.11041012796E+03  0.11211562620E+03  0.10566000000E+00 0. -1.
        994    1    1    2    0    0  0.90977294243E+01  0.82091761355E+00  0.20386188437E+01  0.17145564602E+03  0.17120000000E+03 0.  0.
        998    1    1    2    0    0  0.10238242915E+02 -0.31928984019E+01  0.13875512495E+04  0.13876287278E+04  0.10000000000E+02 0. -1.
</event>
<event>
 5    1  0.1800099E-008  0.3761900E+03  0.7957747E-01  0.3467918E+00
         13   -1    0    0    0    0  0.00000000000E+00  0.00000000000E+00  0.14999999963E+04  0.15000000000E+04  0.10566000000E+00 0. -1.
        994   -1    0    0    0    0 -0.00000000000E+00 -0.00000000000E+00  0.11368683772E-12  0.17120000000E+03  0.17120000000E+03 0.  0.
         13    1    1    2    0    0 -0.11249118597E+03 -0.15471249183E+03  0.87520688861E+03  0.89586680432E+03  0.10566000000E+00 0. -1.
        994    1    1    2    0    0  0.11944038046E+03  0.15648357604E+03  0.15111133388E+03  0.30149160732E+03  0.17120000000E+03 0.  0.
        998    1    1    2    0    0 -0.69491944967E+01 -0.17710842119E+01  0.47368177379E+03  0.47384158836E+03  0.10000000000E+02 0. -1.
</event>
<event>
 5    1  0.1800099E-008  0.3816453E+03  0.7957747E-01  0.3444026E+00
         13   -1    0    0    0    0  0.00000000000E+00  0.00000000000E+00  0.14999999963E+04  0.15000000000E+04  0.10566000000E+00 0. -1.
        994   -1    0    0    0    0 -0.00000000000E+00 -0.00000000000E+00  0.11368683772E-12  0.17120000000E+03  0.17120000000E+03 0.  0.
         13    1    1    2    0    0  0.19270099893E+02  0.16914656111E+01  0.58900944928E+02  0.61996211846E+02  0.10566000000E+00 0. -1.
        994    1    1    2    0    0  0.13167114355E+01 -0.41775468822E+01  0.33687217063E+01  0.17128915293E+03  0.17120000000E+03 0.  0.
        998    1    1    2    0    0 -0.20586811328E+02  0.24860812710E+01  0.14377303296E+04  0.14379146352E+04  0.10000000000E+02 0. -1.
</event>
<event>
 5    1  0.1800099E-008  0.3801193E+03  0.7957747E-01  0.3450639E+00
         13   -1    0    0    0    0  0.00000000000E+00  0.00000000000E+00  0.14999999963E+04  0.15000000000E+04  0.10566000000E+00 0.  1.
        994   -1    0    0    0    0 -0.00000000000E+00 -0.00000000000E+00  0.11368683772E-12  0.17120000000E+03  0.17120000000E+03 0.  0.
         13    1    1    2    0    0 -0.15836870467E+02 -0.17205041989E+02  0.67054692494E+02  0.71015229955E+02  0.10566000000E+00 0.  1.
        994    1    1    2    0    0  0.66129929563E+01  0.74613938952E+01  0.44051789787E+01  0.17154663995E+03  0.17120000000E+03 0.  0.
        998    1    1    2    0    0  0.92238775108E+01  0.97436480941E+01  0.14285401248E+04  0.14286381301E+04  0.10000000000E+02 0.  1.
</event>
<event>
 5    1  0.1800099E-008  0.3798010E+03  0.7957747E-01  0.3452025E+00
         13   -1    0    0    0    0  0.00000000000E+00  0.00000000000E+00  0.14999999963E+04  0.15000000000E+04  0.10566000000E+00 0. -1.
        994   -1    0    0    0    0 -0.00000000000E+00 -0.00000000000E+00  0.11368683772E-12  0.17120000000E+03  0.17120000000E+03 0.  0.
         13    1    1    2    0    0 -0.57824090121E+01 -0.11467251396E+02  0.17778311473E+02  0.21932022968E+02  0.10566000000E+00 0. -1.
        994    1    1    2    0    0 -0.45693759296E+00  0.81905043141E+01  0.44587533283E+01  0.17145440687E+03  0.17120000000E+03 0.  0.
        998    1    1    2    0    0  0.62393466050E+01  0.32767470822E+01  0.14777629315E+04  0.14778135702E+04  0.10000000000E+02 0. -1.
</event>
<event>
 5    1  0.1800099E-008  0.3817600E+03  0.7957747E-01  0.3443531E+00
         13   -1    0    0    0    0  0.00000000000E+00  0.00000000000E+00  0.14999999963E+04  0.15000000000E+04  0.10566000000E+00 0.  1.
        994   -1    0    0    0    0 -0.00000000000E+00 -0.00000000000E+00  0.11368683772E-12  0.17120000000E+03  0.17120000000E+03 0.  0.
         13    1    1    2    0    0 -0.14887011002E+02  0.33516752609E+02  0.19890643440E+03  0.20225918177E+03  0.10566000000E+00 0.  1.
        994    1    1    2    0    0  0.16217563674E+02 -0.20827997815E+02  0.55667151172E+01  0.17331255922E+03  0.17120000000E+03 0.  0.
        998    1    1    2    0    0 -0.13305526711E+01 -0.12688754794E+02  0.12955268468E+04  0.12956282590E+04  0.10000000000E+02 0.  1.
</event>
<event>
 5    1  0.1800099E-008  0.3698652E+03  0.7957747E-01  0.3496510E+00
         13   -1    0    0    0    0  0.00000000000E+00  0.00000000000E+00  0.14999999963E+04  0.15000000000E+04  0.10566000000E+00 0.  1.
        994   -1    0    0    0    0 -0.00000000000E+00 -0.00000000000E+00  0.11368683772E-12  0.17120000000E+03  0.17120000000E+03 0.  0.
         13    1    1    2    0    0  0.67265230700E+02  0.23561677368E+02  0.22551469988E+03  0.23650931256E+03  0.10566000000E+00 0.  1.
        994    1    1    2    0    0 -0.64760455003E+02 -0.38706401778E+02  0.29296246846E+02  0.18936687184E+03  0.17120000000E+03 0.  0.
        998    1    1    2    0    0 -0.25047756969E+01  0.15144724409E+02  0.12451890496E+04  0.12453238156E+04  0.10000000000E+02 0.  1.
</event>
<event>
 5    1  0.1800099E-008  0.3707200E+03  0.7957747E-01  0.3492588E+00
         13   -1    0    0    0    0  0.00000000000E+00  0.00000000000E+00  0.14999999963E+04  0.15000000000E+04  0.10566000000E+00 0. -1.
        994   -1    0    0    0    0 -0.00000000000E+00 -0.00000000000E+00  0.11368683772E-12  0.17120000000E+03  0.17120000000E+03 0.  0.
         13    1    1    2    0    0  0.25007025005E+02 -0.26571369691E+02  0.79933498930E+02  0.87867880378E+02  0.10566000000E+00 0. -1.
        994    1    1    2    0    0 -0.18269179792E+02 -0.28771967097E+02  0.12910192573E+02  0.17503628793E+03  0.17120000000E+03 0.  0.
        998    1    1    2    0    0 -0.67378452135E+01  0.55343336788E+02  0.14071563048E+04  0.14082958317E+04  0.10000000000E+02 0. -1.
</event>
<event>
 5    1  0.1800099E-008  0.3805781E+03  0.7957747E-01  0.3448645E+00
         13   -1    0    0    0    0  0.00000000000E+00  0.00000000000E+00  0.14999999963E+04  0.15000000000E+04  0.10566000000E+00 0. -1.
        994   -1    0    0    0    0 -0.00000000000E+00 -0.00000000000E+00  0.11368683772E-12  0.17120000000E+03  0.17120000000E+03 0.  0.
         13    1    1    2    0    0 -0.18613254054E+02  0.12912505212E+02  0.68933263625E+02  0.72560264714E+02  0.10566000000E+00 0. -1.
        994    1    1    2    0    0  0.61665985952E+00 -0.39082702518E+01  0.38938729173E+01  0.17128997954E+03  0.17120000000E+03 0.  0.
        998    1    1    2    0    0  0.17996594195E+02 -0.90042349601E+01  0.14271728597E+04  0.14273497557E+04  0.10000000000E+02 0. -1.
</event>
<event>
 5    1  0.1800099E-008  0.3858927E+03  0.7957747E-01  0.3425895E+00
         13   -1    0    0    0    0  0.00000000000E+00  0.00000000000E+00  0.14999999963E+04  0.15000000000E+04  0.10566000000E+00 0.  1.
        994   -1    0    0    0    0 -0.00000000000E+00 -0.00000000000E+00  0.11368683772E-12  0.17120000000E+03  0.17120000000E+03 0.  0.
         13    1    1    2    0    0 -0.11521197298E+02  0.24778175600E+01  0.60644684044E+02  0.61779174758E+02  0.10566000000E+00 0.  1.
        994    1    1    2    0    0  0.80962869199E+01  0.15724197069E+02  0.22139862382E+01  0.17212536702E+03  0.17120000000E+03 0.  0.
        998    1    1    2    0    0  0.34249103782E+01 -0.18202014629E+02  0.14371413260E+04  0.14372954582E+04  0.10000000000E+02 0.  1.
</event>
<event>
 5    1  0.1800099E-008  0.3750053E+03  0.7957747E-01  0.3473199E+00
         13   -1    0    0    0    0  0.00000000000E+00  0.00000000000E+00  0.14999999963E+04  0.15000000000E+04  0.10566000000E+00 0. -1.
        994   -1    0    0    0    0 -0.00000000000E+00 -0.00000000000E+00  0.11368683772E-12  0.17120000000E+03  0.17120000000E+03 0.  0.
         13    1    1    2    0    0  0.54951478534E+02 -0.22226731727E+02  0.12755976004E+03  0.14065985974E+03  0.10566000000E+00 0. -1.
        994    1    1    2    0    0 -0.29276739525E+02  0.10941651589E+02  0.17094200765E+02  0.17486708929E+03  0.17120000000E+03 0.  0.
        998    1    1    2    0    0 -0.25674739009E+02  0.11285080138E+02  0.13553460355E+04  0.13556730510E+04  0.10000000000E+02 0. -1.
</event>
<event>
 5    1  0.1800099E-008  0.3809120E+03  0.7957747E-01  0.3447197E+00
         13   -1    0    0    0    0  0.00000000000E+00  0.00000000000E+00  0.14999999963E+04  0.15000000000E+04  0.10566000000E+00 0. -1.
        994   -1    0    0    0    0 -0.00000000000E+00 -0.00000000000E+00  0.11368683772E-12  0.17120000000E+03  0.17120000000E+03 0.  0.
         13    1    1    2    0    0  0.25012646972E+01 -0.12854064674E+02  0.21164462057E+02  0.24888329031E+02  0.10566000000E+00 0. -1.
        994    1    1    2    0    0 -0.78012084266E+01  0.19214082514E+02  0.51080619286E+01  0.17252701851E+03  0.17120000000E+03 0.  0.
        998    1    1    2    0    0  0.52999437294E+01 -0.63600178402E+01  0.14737274723E+04  0.14737846525E+04  0.10000000000E+02 0. -1.
</event>
<event>
 5    1  0.1800099E-008  0.3782517E+03  0.7957747E-01  0.3458807E+00
         13   -1    0    0    0    0  0.00000000000E+00  0.00000000000E+00  0.14999999963E+04  0.15000000000E+04  0.10566000000E+00 0.  1.
        994   -1    0    0    0    0 -0.00000000000E+00 -0.00000000000E+00  0.11368683772E-12  0.17120000000E+03  0.17120000000E+03 0.  0.
         13    1    1    2    0    0  0.27286649937E+02 -0.22433022032E+02  0.11574708038E+03  0.12101735215E+03  0.10566000000E+00 0.  1.
        994    1    1    2    0    0 -0.25680593689E+02  0.19945681961E+02  0.85815934615E+01  0.17447179390E+03  0.17120000000E+03 0.  0.
        998    1    1    2    0    0 -0.16060562477E+01  0.24873400707E+01  0.13756713224E+04  0.13757108539E+04  0.10000000000E+02 0.  1.
</event>
<event>
 5    1  0.1800099E-008  0.3850902E+03  0.7957747E-01  0.3429290E+00
         13   -1    0    0    0    0  0.00000000000E+00  0.00000000000E+00  0.14999999963E+04  0.15000000000E+04  0.10566000000E+00 0.  1.
        994   -1    0    0    0    0 -0.00000000000E+00 -0.00000000000E+00  0.11368683772E-12  0.17120000000E+03  0.17120000000E+03 0.  0.
         13    1    1    2    0    0  0.11486888347E+02 -0.10467931597E+01  0.41404156490E+02  0.42980922727E+02  0.10566000000E+00 0.  1.
        994    1    1    2    0    0 -0.11034981384E+02 -0.96236839322E+01  0.22905089599E+01  0.17184025296E+03  0.17120000000E+03 0.  0.
        998    1    1    2    0    0 -0.45190696384E+00  0.10670477092E+02  0.14563053308E+04  0.14563788243E+04  0.10000000000E+02 0.  1.
</event>
<event>
 5    1  0.1800099E-008  0.3828858E+03  0.7957747E-01  0.3438689E+00
         13   -1    0    0    0    0  0.00000000000E+00  0.00000000000E+00  0.14999999963E+04  0.15000000000E+04  0.10566000000E+00 0. -1.
        994   -1    0    0    0    0 -0.00000000000E+00 -0.00000000000E+00  0.11368683772E-12  0.17120000000E+03  0.17120000000E+03 0.  0.
         13    1    1    2    0    0  0.11090181065E+02 -0.23142223711E+02  0.12855203361E+03  0.13108848593E+03  0.10566000000E+00 0. -1.
        994    1    1    2    0    0  0.13028395679E+01  0.97117180059E+01  0.30014542411E+01  0.17150645348E+03  0.17120000000E+03 0.  0.
        998    1    1    2    0    0 -0.12393020633E+02  0.13430505705E+02  0.13684465084E+04  0.13686050606E+04  0.10000000000E+02 0. -1.
</event>
<event>
 5    1  0.1800099E-008  0.3875710E+03  0.7957747E-01  0.3418841E+00
         13   -1    0    0    0    0  0.00000000000E+00  0.00000000000E+00  0.14999999963E+04  0.15000000000E+04  0.10566000000E+00 0. -1.
        994   -1    0    0    0    0 -0.00000000000E+00 -0.00000000000E+00  0.11368683772E-12  0.17120000000E+03  0.17120000000E+03 0.  0.
         13    1    1    2    0    0  0.78040067108E+02 -0.23638014920E+02  0.16812057100E+03  0.18685166678E+03  0.10566000000E+00 0. -1.
        994    1    1    2    0    0 -0.42216295347E+02 -0.29195285981E+02  0.30435825012E+02  0.18130184710E+03  0.17120000000E+03 0.  0.
        998    1    1    2    0    0 -0.35823771760E+02  0.52833300901E+02  0.13014436003E+04  0.13030464861E+04  0.10000000000E+02 0. -1.
</event>
<event>
 5    1  0.1800099E-008  0.3855350E+03  0.7957747E-01  0.3427406E+00
         13   -1    0    0    0    0  0.00000000000E+00  0.00000000000E+00  0.14999999963E+04  0.15000000000E+04  0.10566000000E+00 0. -1.
        994   -1    0    0    0    0 -0.00000000000E+00 -0.00000000000E+00  0.11368683772E-12  0.17120000000E+03  0.17120000000E+03 0.  0.
         13    1    1    2    0    0 -0.13623877038E+02  0.52819660900E+01  0.75920685088E+02  0.77314104661E+02  0.10566000000E+00 0. -1.
        994    1    1    2    0    0  0.14019908627E+02 -0.35499444938E+01  0.20517148942E+01  0.17182202850E+03  0.17120000000E+03 0.  0.
        998    1    1    2    0    0 -0.39603158904E+00 -0.17320215962E+01  0.14220275963E+04  0.14220638668E+04  0.10000000000E+02 0. -1.
</event>
<event>
 5    1  0.1800099E-008  0.3836241E+03  0.7957747E-01  0.3435529E+00
         13   -1    0    0    0    0  0.00000000000E+00  0.00000000000E+00  0.14999999963E+04  0.15000000000E+04  0.10566000000E+00 0. -1.
        994   -1    0    0    0    0 -0.00000000000E+00 -0.00000000000E+00  0.11368683772E-12  0.17120000000E+03  0.17120000000E+03 0.  0.
         13    1    1    2    0    0  0.70106384151E+00  0.12544944897E+02  0.34258698614E+02  0.36490227839E+02  0.10566000000E+00 0. -1.
        994    1    1    2    0    0  0.24775913688E+01 -0.25308658658E+01  0.23562482284E+01  0.17125284128E+03  0.17120000000E+03 0.  0.
        998    1    1    2    0    0 -0.31786552103E+01 -0.10014079031E+02  0.14633850494E+04  0.14634569309E+04  0.10000000000E+02 0. -1.
</event>
<event>
 5    1  0.1800099E-008  0.3839814E+03  0.7957747E-01  0.3434004E+00
         13   -1    0    0    0    0  0.00000000000E+00  0.00000000000E+00  0.14999999963E+04  0.15000000000E+04  0.10566000000E+00 0.  1.
        994   -1    0    0    0    0 -0.00000000000E+00 -0.00000000000E+00  0.11368683772E-12  0.17120000000E+03  0.17120000000E+03 0.  0.
         13    1    1    2    0    0  0.20875722972E+02 -0.15435179023E+02  0.12815883178E+03  0.13076214241E+03  0.10566000000E+00 0.  1.
        994    1    1    2    0    0 -0.48249004016E+02  0.79446162309E+01  0.10066453159E+02  0.17833075112E+03  0.17120000000E+03 0.  0.
        998    1    1    2    0    0  0.27373281043E+02  0.74905627918E+01  0.13617747113E+04  0.13621071065E+04  0.10000000000E+02 0.  1.
</event>
<event>
 5    1  0.1800099E-008  0.3839366E+03  0.7957747E-01  0.3434195E+00
         13   -1    0    0    0    0  0.00000000000E+00  0.00000000000E+00  0.14999999963E+04  0.15000000000E+04  0.10566000000E+00 0.  1.
        994   -1    0    0    0    0 -0.00000000000E+00 -0.00000000000E+00  0.11368683772E-12  0.17120000000E+03  0.17120000000E+03 0.  0.
         13    1    1    2    0    0 -0.23346464188E+02  0.10865969282E+01  0.12110129721E+03  0.12333601839E+03  0.10566000000E+00 0.  1.
        994    1    1    2    0    0  0.20275501141E+02  0.93534804161E+01  0.38060882037E+01  0.17269195074E+03  0.17120000000E+03 0.  0.
        998    1    1    2    0    0  0.30709630474E+01 -0.10440077344E+02  0.13750926109E+04  0.13751720309E+04  0.10000000000E+02 0.  1.
</event>
<event>
 5    1  0.1800099E-008  0.3852550E+03  0.7957747E-01  0.3428592E+00
         13   -1    0    0    0    0  0.00000000000E+00  0.00000000000E+00  0.14999999963E+04  0.15000000000E+04  0.10566000000E+00 0. -1.
        994   -1    0    0    0    0 -0.00000000000E+00 -0.00000000000E+00  0.11368683772E-12  0.17120000000E+03  0.17120000000E+03 0.  0.
         13    1    1    2    0    0  0.16190744069E+02 -0.34338288514E+01  0.88992810120E+02  0.90518853236E+02  0.10566000000E+00 0. -1.
        994    1    1    2    0    0 -0.13288697645E+02  0.52181479009E+01  0.21736316793E+01  0.17180798360E+03  0.17120000000E+03 0.  0.
        998    1    1    2    0    0 -0.29020464244E+01 -0.17843190495E+01  0.14088335545E+04  0.14088731632E+04  0.10000000000E+02 0. -1.
</event>
<event>
 5    1  0.1800099E-008  0.3817945E+03  0.7957747E-01  0.3443382E+00
         13   -1    0    0    0    0  0.00000000000E+00  0.00000000000E+00  0.14999999963E+04  0.15000000000E+04  0.10566000000E+00 0. -1.
        994   -1    0    0    0    0 -0.00000000000E+00 -0.00000000000E+00  0.11368683772E-12  0.17120000000E+03  0.17120000000E+03 0.  0.
         13    1    1    2    0    0  0.23311952535E+02  0.90212985507E+01  0.90781860619E+02  0.94160439357E+02  0.10566000000E+00 0. -1.
        994    1    1    2    0    0 -0.23981935757E+02 -0.75642594293E+01  0.53342722490E+01  0.17311916625E+03  0.17120000000E+03 0.  0.
        998    1    1    2    0    0  0.66998322254E+00 -0.14570391214E+01  0.14038838634E+04  0.14039203944E+04  0.10000000000E+02 0. -1.
</event>
<event>
 5    1  0.1800099E-008  0.3814547E+03  0.7957747E-01  0.3444849E+00
         13   -1    0    0    0    0  0.00000000000E+00  0.00000000000E+00  0.14999999963E+04  0.15000000000E+04  0.10566000000E+00 0. -1.
        994   -1    0    0    0    0 -0.00000000000E+00 -0.00000000000E+00  0.11368683772E-12  0.17120000000E+03  0.17120000000E+03 0.  0.
         13    1    1    2    0    0 -0.14528169333E+01 -0.21345406120E+02  0.65145594628E+02  0.68568919366E+02  0.10566000000E+00 0. -1.
        994    1    1    2    0    0 -0.33438783810E+02  0.19980350271E+02  0.84653037645E+01  0.17577960071E+03  0.17120000000E+03 0.  0.
        998    1    1    2    0    0  0.34891600744E+02  0.13650558492E+01  0.14263890979E+04  0.14268514799E+04  0.10000000000E+02 0. -1.
</event>
<event>
 5    1  0.1800099E-008  0.3752570E+03  0.7957747E-01  0.3472074E+00
         13   -1    0    0    0    0  0.00000000000E+00  0.00000000000E+00  0.14999999963E+04  0.15000000000E+04  0.10566000000E+00 0.  1.
        994   -1    0    0    0    0 -0.00000000000E+00 -0.00000000000E+00  0.11368683772E-12  0.17120000000E+03  0.17120000000E+03 0.  0.
         13    1    1    2    0    0 -0.38613326762E+02  0.63847519552E+02  0.19591404352E+03  0.20964211974E+03  0.10566000000E+00 0.  1.
        994    1    1    2    0    0  0.22405610905E+01 -0.55122798336E+02  0.24666603918E+02  0.18155281424E+03  0.17120000000E+03 0.  0.
        998    1    1    2    0    0  0.36372765672E+02 -0.87247212160E+01  0.12794193488E+04  0.12800050660E+04  0.10000000000E+02 0.  1.
</event>
<event>
 5    1  0.1800099E-008  0.3855617E+03  0.7957747E-01  0.3427293E+00
         13   -1    0    0    0    0  0.00000000000E+00  0.00000000000E+00  0.14999999963E+04  0.15000000000E+04  0.10566000000E+00 0.  1.
        994   -1    0    0    0    0 -0.00000000000E+00 -0.00000000000E+00  0.11368683772E-12  0.17120000000E+03  0.17120000000E+03 0.  0.
         13    1    1    2    0    0 -0.15137865821E+02 -0.25770593871E+01  0.80632021398E+02  0.82081241800E+02  0.10566000000E+00 0.  1.
        994    1    1    2    0    0  0.23168528051E+02 -0.87971638007E+01  0.33702300130E+01  0.17301725126E+03  0.17120000000E+03 0.  0.
        998    1    1    2    0    0 -0.80306622296E+01  0.11374223188E+02  0.14159977449E+04  0.14161015069E+04  0.10000000000E+02 0.  1.
</event>
<event>
 5    1  0.1800099E-008  0.3794003E+03  0.7957747E-01  0.3453774E+00
         13   -1    0    0    0    0  0.00000000000E+00  0.00000000000E+00  0.14999999963E+04  0.15000000000E+04  0.10566000000E+00 0.  1.
        994   -1    0    0    0    0 -0.00000000000E+00 -0.00000000000E+00  0.11368683772E-12  0.17120000000E+03  0.17120000000E+03 0.  0.
         13    1    1    2    0    0  0.26700816150E+02 -0.27009837601E+02  0.18209011604E+03  0.18600883429E+03  0.10566000000E+00 0.  1.
        994    1    1    2    0    0 -0.59488597614E+00  0.56518753903E+01  0.45443884240E+01  0.17135457114E+03  0.17120000000E+03 0.  0.
        998    1    1    2    0    0 -0.26105930174E+02  0.21357962210E+02  0.13133654918E+04  0.13138365946E+04  0.10000000000E+02 0.  1.
</event>
<event>
 5    1  0.1800099E-008  0.3781978E+03  0.7957747E-01  0.3459043E+00
         13   -1    0    0    0    0  0.00000000000E+00  0.00000000000E+00  0.14999999963E+04  0.15000000000E+04  0.10566000000E+00 0. -1.
        994   -1    0    0    0    0 -0.00000000000E+00 -0.00000000000E+00  0.11368683772E-12  0.17120000000E+03  0.17120000000E+03 0.  0.
         13    1    1    2    0    0 -0.30662328353E+02  0.15890599526E+02  0.35406735787E+02  0.49460465389E+02  0.10566000000E+00 0. -1.
        994    1    1    2    0    0  0.35590777823E+02  0.11203159388E+03  0.66929731010E+02  0.21818984941E+03  0.17120000000E+03 0.  0.
        998    1    1    2    0    0 -0.49284494699E+01 -0.12792219341E+03  0.13976635295E+04  0.14035496852E+04  0.10000000000E+02 0. -1.
</event>
<event>
 5    1  0.1800099E-008  0.3843124E+03  0.7957747E-01  0.3432594E+00
         13   -1    0    0    0    0  0.00000000000E+00  0.00000000000E+00  0.14999999963E+04  0.15000000000E+04  0.10566000000E+00 0.  1.
        994   -1    0    0    0    0 -0.00000000000E+00 -0.00000000000E+00  0.11368683772E-12  0.17120000000E+03  0.17120000000E+03 0.  0.
         13    1    1    2    0    0  0.13640682856E+02 -0.27909601626E+01  0.47312763267E+02  0.49319026951E+02  0.10566000000E+00 0.  1.
        994    1    1    2    0    0 -0.16114358367E+02 -0.14049450258E+01  0.28347471484E+01  0.17198581979E+03  0.17120000000E+03 0.  0.
        998    1    1    2    0    0  0.24736755101E+01  0.41959051884E+01  0.14498524859E+04  0.14498951533E+04  0.10000000000E+02 0.  1.
</event>
<event>
 5    1  0.1800099E-008  0.3827714E+03  0.7957747E-01  0.3439179E+00
         13   -1    0    0    0    0  0.00000000000E+00  0.00000000000E+00  0.14999999963E+04  0.15000000000E+04  0.10566000000E+00 0.  1.
        994   -1    0    0    0    0 -0.00000000000E+00 -0.00000000000E+00  0.11368683772E-12  0.17120000000E+03  0.17120000000E+03 0.  0.
         13    1    1    2    0    0  0.95104458882E+01 -0.13076363339E+02  0.51700287133E+02  0.54169832128E+02  0.10566000000E+00 0.  1.
        994    1    1    2    0    0 -0.52969454304E+00 -0.13960610203E+02  0.33874622242E+01  0.17180248576E+03  0.17120000000E+03 0.  0.
        998    1    1    2    0    0 -0.89807513451E+01  0.27036973542E+02  0.14449122469E+04  0.14452276821E+04  0.10000000000E+02 0.  1.
</event>
<event>
 5    1  0.1800099E-008  0.3835762E+03  0.7957747E-01  0.3435733E+00
         13   -1    0    0    0    0  0.00000000000E+00  0.00000000000E+00  0.14999999963E+04  0.15000000000E+04  0.10566000000E+00 0.  1.
        994   -1    0    0    0    0 -0.00000000000E+00 -0.00000000000E+00  0.11368683772E-12  0.17120000000E+03  0.17120000000E+03 0.  0.
         13    1    1    2    0    0 -0.39379422622E+01  0.11208751876E+02  0.29739578194E+02  0.32024946262E+02  0.10566000000E+00 0.  1.
        994    1    1    2    0    0 -0.52338650366E+01 -0.77293741755E+01  0.26266319189E+01  0.17147441723E+03  0.17120000000E+03 0.  0.
        998    1    1    2    0    0  0.91718072987E+01 -0.34793777002E+01  0.14676337862E+04  0.14677006365E+04  0.10000000000E+02 0.  1.
</event>
<event>
 5    1  0.1800099E-008  0.3744843E+03  0.7957747E-01  0.3475532E+00
         13   -1    0    0    0    0  0.00000000000E+00  0.00000000000E+00  0.14999999963E+04  0.15000000000E+04  0.10566000000E+00 0.  1.
        994   -1    0    0    0    0 -0.00000000000E+00 -0.00000000000E+00  0.11368683772E-12  0.17120000000E+03  0.17120000000E+03 0.  0.
         13    1    1    2    0    0 -0.49738404173E+02 -0.87271810028E+00  0.89123677325E+02  0.10206719116E+03  0.10566000000E+00 0.  1.
        994    1    1    2    0    0  0.29454867092E+02 -0.15357087085E+01  0.16425944442E+02  0.17449698922E+03  0.17120000000E+03 0.  0.
        998    1    1    2    0    0  0.20283537081E+02  0.24084268088E+01  0.13944503745E+04  0.13946358196E+04  0.10000000000E+02 0.  1.
</event>
<event>
 5    1  0.1952677E-008  0.3859522E+03  0.7957747E-01  0.3425644E+00
         13   -1    0    0    0    0  0.00000000000E+00  0.00000000000E+00  0.14999999963E+04  0.15000000000E+04  0.10566000000E+00 0.  1.
        994   -1    0    0    0    0 -0.00000000000E+00 -0.00000000000E+00  0.11368683772E-12  0.17120000000E+03  0.17120000000E+03 0.  0.
         13    1    1    2    0    0 -0.71893640502E+01  0.80885872496E+01  0.51723591099E+02  0.52843667922E+02  0.10566000000E+00 0.  1.
        994    1    1    2    0    0  0.37810355735E+01 -0.40067164216E+01  0.12576303862E+01  0.17129323291E+03  0.17120000000E+03 0.  0.
        998    1    1    2    0    0  0.34083284767E+01 -0.40818708280E+01  0.14470187748E+04  0.14470630992E+04  0.10000000000E+02 0.  1.
</event>
<event>
 5    1  0.1800099E-008  0.3054886E+03  0.7957747E-01  0.3857598E+00
         13   -1    0    0    0    0  0.00000000000E+00  0.00000000000E+00  0.14999999963E+04  0.15000000000E+04  0.10566000000E+00 0.  1.
        994   -1    0    0    0    0 -0.00000000000E+00 -0.00000000000E+00  0.11368683772E-12  0.17120000000E+03  0.17120000000E+03 0.  0.
         13    1    1    2    0    0  0.11836973133E+03  0.13195332160E+03  0.72412128056E+03  0.74550299295E+03  0.10566000000E+00 0.  1.
        994    1    1    2    0    0 -0.11261717416E+03 -0.10904877020E+03  0.10575708401E+03  0.25508481534E+03  0.17120000000E+03 0.  0.
        998    1    1    2    0    0 -0.57525571682E+01 -0.22904551397E+02  0.67012163171E+03  0.67061219171E+03  0.10000000000E+02 0.  1.
</event>
<event>
 5    1  0.1800099E-008  0.3836456E+03  0.7957747E-01  0.3435437E+00
         13   -1    0    0    0    0  0.00000000000E+00  0.00000000000E+00  0.14999999963E+04  0.15000000000E+04  0.10566000000E+00 0. -1.
        994   -1    0    0    0    0 -0.00000000000E+00 -0.00000000000E+00  0.11368683772E-12  0.17120000000E+03  0.17120000000E+03 0.  0.
         13    1    1    2    0    0  0.25537625810E+02 -0.13858830398E+01  0.14134058113E+03  0.14363586614E+03  0.10566000000E+00 0. -1.
        994    1    1    2    0    0 -0.15051194307E+02  0.12989582735E+02  0.36107901957E+01  0.17238835667E+03  0.17120000000E+03 0.  0.
        998    1    1    2    0    0 -0.10486431503E+02 -0.11603699696E+02  0.13550486250E+04  0.13551757772E+04  0.10000000000E+02 0. -1.
</event>
<event>
 5    1  0.1800099E-008  0.3761692E+03  0.7957747E-01  0.3468010E+00
         13   -1    0    0    0    0  0.00000000000E+00  0.00000000000E+00  0.14999999963E+04  0.15000000000E+04  0.10566000000E+00 0. -1.
        994   -1    0    0    0    0 -0.00000000000E+00 -0.00000000000E+00  0.11368683772E-12  0.17120000000E+03  0.17120000000E+03 0.  0.
         13    1    1    2    0    0  0.38160728713E+02 -0.20441126545E+02  0.15133612339E+03  0.15740620788E+03  0.10566000000E+00 0. -1.
        994    1    1    2    0    0 -0.27300094837E+02  0.50730968351E+01  0.86945472395E+01  0.17365502193E+03  0.17120000000E+03 0.  0.
        998    1    1    2    0    0 -0.10860633876E+02  0.15368029710E+02  0.13399693256E+04  0.13401387702E+04  0.10000000000E+02 0. -1.
</event>
<event>
 5    1  0.2350990E-008  0.3855513E+03  0.7957747E-01  0.3427338E+00
         13   -1    0    0    0    0  0.00000000000E+00  0.00000000000E+00  0.14999999963E+04  0.15000000000E+04  0.10566000000E+00 0.  1.
        994   -1    0    0    0    0 -0.00000000000E+00 -0.00000000000E+00  0.11368683772E-12  0.17120000000E+03  0.17120000000E+03 0.  0.
         13    1    1    2    0    0  0.38799279058E+01  0.94428290168E+01  0.39160577535E+02  0.40469529986E+02  0.10566000000E+00 0.  1.
        994    1    1    2    0    0 -0.10780272126E+01 -0.38376993545E+01  0.14088580727E+01  0.17125219695E+03  0.17120000000E+03 0.  0.
        998    1    1    2    0    0 -0.28019006932E+01 -0.56051296623E+01  0.14594305607E+04  0.14594782731E+04  0.10000000000E+02 0.  1.
</event>
<event>
 5    1  0.1800099E-008  0.3825443E+03  0.7957747E-01  0.3440154E+00
         13   -1    0    0    0    0  0.00000000000E+00  0.00000000000E+00  0.14999999963E+04  0.15000000000E+04  0.10566000000E+00 0. -1.
        994   -1    0    0    0    0 -0.00000000000E+00 -0.00000000000E+00  0.11368683772E-12  0.17120000000E+03  0.17120000000E+03 0.  0.
         13    1    1    2    0    0  0.11466795733E+02 -0.28124784894E+02  0.16098679685E+03  0.16382689295E+03  0.10566000000E+00 0. -1.
        994    1    1    2    0    0  0.11194094132E+01  0.19732376004E+02  0.41502820575E+01  0.17238701976E+03  0.17120000000E+03 0.  0.
        998    1    1    2    0    0 -0.12586205146E+02  0.83924088906E+01  0.13348629174E+04  0.13349860873E+04  0.10000000000E+02 0. -1.
</event>
<event>
 5    1  0.1800099E-008  0.3801270E+03  0.7957747E-01  0.3450606E+00
         13   -1    0    0    0    0  0.00000000000E+00  0.00000000000E+00  0.14999999963E+04  0.15000000000E+04  0.10566000000E+00 0. -1.
        994   -1    0    0    0    0 -0.00000000000E+00 -0.00000000000E+00  0.11368683772E-12  0.17120000000E+03  0.17120000000E+03 0.  0.
         13    1    1    2    0    0 -0.16873563919E+03 -0.12318029126E+02  0.91072109211E+03  0.92630252539E+03  0.10566000000E+00 0. -1.
        994    1    1    2    0    0  0.17755619632E+03  0.20726631142E+02  0.11950219558E+03  0.27485634582E+03  0.17120000000E+03 0.  0.
        998    1    1    2    0    0 -0.88205571237E+01 -0.84086020158E+01  0.46977670860E+03  0.47004112879E+03  0.10000000000E+02 0. -1.
</event>
<event>
 5    1  0.1800099E-008  0.3796875E+03  0.7957747E-01  0.3452520E+00
         13   -1    0    0    0    0  0.00000000000E+00  0.00000000000E+00  0.14999999963E+04  0.15000000000E+04  0.10566000000E+00 0. -1.
        994   -1    0    0    0    0 -0.00000000000E+00 -0.00000000000E+00  0.11368683772E-12  0.17120000000E+03  0.17120000000E+03 0.  0.
         13    1    1    2    0    0  0.84626254736E+01 -0.30815822945E+02  0.11511995349E+03  0.11947320130E+03  0.10566000000E+00 0. -1.
        994    1    1    2    0    0 -0.25789717476E+02  0.17130628270E+02  0.75053476844E+01  0.17413884746E+03  0.17120000000E+03 0.  0.
        998    1    1    2    0    0  0.17327092003E+02  0.13685194675E+02  0.13773746951E+04  0.13775879512E+04  0.10000000000E+02 0. -1.
</event>
<event>
 5    1  0.1800099E-008  0.3841824E+03  0.7957747E-01  0.3433147E+00
         13   -1    0    0    0    0  0.00000000000E+00  0.00000000000E+00  0.14999999963E+04  0.15000000000E+04  0.10566000000E+00 0.  1.
        994   -1    0    0    0    0 -0.00000000000E+00 -0.00000000000E+00  0.11368683772E-12  0.17120000000E+03  0.17120000000E+03 0.  0.
         13    1    1    2    0    0 -0.46237119897E+02 -0.78307252527E+02  0.18255964464E+03  0.20395571105E+03  0.10566000000E+00 0.  1.
        994    1    1    2    0    0  0.85074501608E+02  0.65268793711E+02  0.62300902219E+02  0.21139661462E+03  0.17120000000E+03 0.  0.
        998    1    1    2    0    0 -0.38837381712E+02  0.13038458815E+02  0.12551394494E+04  0.12558476743E+04  0.10000000000E+02 0.  1.
</event>
<event>
 5    1  0.1800099E-008  0.3830758E+03  0.7957747E-01  0.3437874E+00
         13   -1    0    0    0    0  0.00000000000E+00  0.00000000000E+00  0.14999999963E+04  0.15000000000E+04  0.10566000000E+00 0.  1.
        994   -1    0    0    0    0 -0.00000000000E+00 -0.00000000000E+00  0.11368683772E-12  0.17120000000E+03  0.17120000000E+03 0.  0.
         13    1    1    2    0    0 -0.11968462599E+02  0.12992198465E+02  0.62368089042E+02  0.64821532014E+02  0.10566000000E+00 0.  1.
        994    1    1    2    0    0 -0.81278291879E+01 -0.10784987555E+02  0.31922420323E+01  0.17176148571E+03  0.17120000000E+03 0.  0.
        998    1    1    2    0    0  0.20096291787E+02 -0.22072109103E+01  0.14344396652E+04  0.14346169823E+04  0.10000000000E+02 0.  1.
</event>
<event>
 5    1  0.1800099E-008  0.3816940E+03  0.7957747E-01  0.3443815E+00
         13   -1    0    0    0    0  0.00000000000E+00  0.00000000000E+00  0.14999999963E+04  0.15000000000E+04  0.10566000000E+00 0.  1.
        994   -1    0    0    0    0 -0.00000000000E+00 -0.00000000000E+00  0.11368683772E-12  0.17120000000E+03  0.17120000000E+03 0.  0.
         13    1    1    2    0    0  0.15439265670E+02 -0.26437256402E+02  0.17308749499E+03  0.17577426301E+03  0.10566000000E+00 0.  1.
        994    1    1    2    0    0  0.14136075874E+01 -0.75981869116E+01  0.34790429059E+01  0.17140966854E+03  0.17120000000E+03 0.  0.
        998    1    1    2    0    0 -0.16852873257E+02  0.34035443314E+02  0.13234334584E+04  0.13240160685E+04  0.10000000000E+02 0.  1.
</event>
<event>
 5    1  0.1800099E-008  0.3835268E+03  0.7957747E-01  0.3435945E+00
         13   -1    0    0    0    0  0.00000000000E+00  0.00000000000E+00  0.14999999963E+04  0.15000000000E+04  0.10566000000E+00 0.  1.
        994   -1    0    0    0    0 -0.00000000000E+00 -0.00000000000E+00  0.11368683772E-12  0.17120000000E+03  0.17120000000E+03 0.  0.
         13    1    1    2    0    0 -0.13839447235E+02 -0.70792952788E+01  0.54428951050E+02  0.56605376051E+02  0.10566000000E+00 0.  1.
        994    1    1    2    0    0 -0.26343542101E+01 -0.54425821013E+01  0.24841722373E+01  0.17132475780E+03  0.17120000000E+03 0.  0.
        998    1    1    2    0    0  0.16473801445E+02  0.12521877380E+02  0.14430868730E+04  0.14432698662E+04  0.10000000000E+02 0.  1.
</event>
<event>
 5    1  0.1800099E-008  0.3767889E+03  0.7957747E-01  0.3465261E+00
         13   -1    0    0    0    0  0.00000000000E+00  0.00000000000E+00  0.14999999963E+04  0.15000000000E+04  0.10566000000E+00 0. -1.
        994   -1    0    0    0    0 -0.00000000000E+00 -0.00000000000E+00  0.11368683772E-12  0.17120000000E+03  0.17120000000E+03 0.  0.
         13    1    1    2    0    0 -0.59572112320E+02  0.64206539353E+02  0.44176531291E+03  0.45036420718E+03  0.10566000000E+00 0. -1.
        994    1    1    2    0    0  0.93071160092E+02 -0.43542353546E+02  0.42313219719E+02  0.20410297880E+03  0.17120000000E+03 0.  0.
        998    1    1    2    0    0 -0.33499047772E+02 -0.20664185807E+02  0.10159214637E+04  0.10167328140E+04  0.10000000000E+02 0. -1.
</event>
<event>
 5    1  0.1834396E-008  0.3864099E+03  0.7957747E-01  0.3423715E+00
         13   -1    0    0    0    0  0.00000000000E+00  0.00000000000E+00  0.14999999963E+04  0.15000000000E+04  0.10566000000E+00 0.  1.
        994   -1    0    0    0    0 -0.00000000000E+00 -0.00000000000E+00  0.11368683772E-12  0.17120000000E+03  0.17120000000E+03 0.  0.
         13    1    1    2    0    0 -0.11506310235E+02  0.10770441896E+01  0.68065764046E+02  0.69039949294E+02  0.10566000000E+00 0.  1.
        994    1    1    2    0    0  0.16061040296E+02 -0.13940858308E+01  0.17830543213E+01  0.17196662401E+03  0.17120000000E+03 0.  0.
        998    1    1    2    0    0 -0.45547300605E+01  0.31704164114E+00  0.14301511779E+04  0.14301934267E+04  0.10000000000E+02 0.  1.
</event>
<event>
 5    1  0.1800099E-008  0.3727280E+03  0.7957747E-01  0.3483447E+00
         13   -1    0    0    0    0  0.00000000000E+00  0.00000000000E+00  0.14999999963E+04  0.15000000000E+04  0.10566000000E+00 0. -1.
        994   -1    0    0    0    0 -0.00000000000E+00 -0.00000000000E+00  0.11368683772E-12  0.17120000000E+03  0.17120000000E+03 0.  0.
         13    1    1    2    0    0  0.94859602040E+01 -0.35107134771E+02  0.47685891611E+02  0.59970407498E+02  0.10566000000E+00 0. -1.
        994    1    1    2    0    0  0.13909964277E+02  0.37130349252E+02  0.17958391807E+02  0.17664680517E+03  0.17120000000E+03 0.  0.
        998    1    1    2    0    0 -0.23395924481E+02 -0.20232144817E+01  0.14343557129E+04  0.14345827873E+04  0.10000000000E+02 0. -1.
</event>
<event>
 5    1  0.1800099E-008  0.3772302E+03  0.7957747E-01  0.3463308E+00
         13   -1    0    0    0    0  0.00000000000E+00  0.00000000000E+00  0.14999999963E+04  0.15000000000E+04  0.10566000000E+00 0.  1.
        994   -1    0    0    0    0 -0.00000000000E+00 -0.00000000000E+00  0.11368683772E-12  0.17120000000E+03  0.17120000000E+03 0.  0.
         13    1    1    2    0    0 -0.41869760466E+02 -0.29990847632E+02  0.22971286548E+03  0.23541567389E+03  0.10566000000E+00 0.  1.
        994    1    1    2    0    0  0.39263474118E+02  0.50619427345E+01  0.10843784068E+02  0.17605189950E+03  0.17120000000E+03 0.  0.
        998    1    1    2    0    0  0.26062863480E+01  0.24928904898E+02  0.12594433467E+04  0.12597324266E+04  0.10000000000E+02 0.  1.
</event>
<event>
 5    1  0.1800099E-008  0.3842057E+03  0.7957747E-01  0.3433048E+00
         13   -1    0    0    0    0  0.00000000000E+00  0.00000000000E+00  0.14999999963E+04  0.15000000000E+04  0.10566000000E+00 0.  1.
        994   -1    0    0    0    0 -0.00000000000E+00 -0.00000000000E+00  0.11368683772E-12  0.17120000000E+03  0.17120000000E+03 0.  0.
         13    1    1    2    0    0  0.44562080383E+01 -0.91743945758E+01  0.25365816325E+02  0.27339771539E+02  0.10566000000E+00 0.  1.
        994    1    1    2    0    0 -0.43184271475E+01  0.27560776751E+01  0.21115480318E+01  0.17128964771E+03  0.17120000000E+03 0.  0.
        998    1    1    2    0    0 -0.13778089083E+00  0.64183169007E+01  0.14725226319E+04  0.14725705808E+04  0.10000000000E+02 0.  1.
</event>
<event>
 5    1  0.1800099E-008  0.3769793E+03  0.7957747E-01  0.3464417E+00
         13   -1    0    0    0    0  0.00000000000E+00  0.00000000000E+00  0.14999999963E+04  0.15000000000E+04  0.10566000000E+00 0. -1.
        994   -1    0    0    0    0 -0.00000000000E+00 -0.00000000000E+00  0.11368683772E-12  0.17120000000E+03  0.17120000000E+03 0.  0.
         13    1    1    2    0    0 -0.28039557190E+02  0.25822653511E+02  0.13909482202E+03  0.14422346161E+03  0.10566000000E+00 0. -1.
        994    1    1    2    0    0  0.83948256550E+01  0.22256286311E+01  0.59205192496E+01  0.17152235734E+03  0.17120000000E+03 0.  0.
        998    1    1    2    0    0  0.19644731535E+02 -0.28048282142E+02  0.13549846550E+04  0.13554541810E+04  0.10000000000E+02 0. -1.
</event>
<event>
 5    1  0.1800099E-008  0.3727531E+03  0.7957747E-01  0.3483333E+00
         13   -1    0    0    0    0  0.00000000000E+00  0.00000000000E+00  0.14999999963E+04  0.15000000000E+04  0.10566000000E+00 0.  1.
        994   -1    0    0    0    0 -0.00000000000E+00 -0.00000000000E+00  0.11368683772E-12  0.17120000000E+03  0.17120000000E+03 0.  0.
         13    1    1    2    0    0 -0.11980299643E+02 -0.17408473546E+02  0.24824661830E+02  0.32601495821E+02  0.10566000000E+00 0.  1.
        994    1    1    2    0    0  0.14626442334E+02  0.15273689809E+02  0.93703829018E+01  0.17275549916E+03  0.17120000000E+03 0.  0.
        998    1    1    2    0    0 -0.26461426908E+01  0.21347837366E+01  0.14658049515E+04  0.14658430050E+04  0.10000000000E+02 0.  1.
</event>
<event>
 5    1  0.1800099E-008  0.3735456E+03  0.7957747E-01  0.3479753E+00
         13   -1    0    0    0    0  0.00000000000E+00  0.00000000000E+00  0.14999999963E+04  0.15000000000E+04  0.10566000000E+00 0. -1.
        994   -1    0    0    0    0 -0.00000000000E+00 -0.00000000000E+00  0.11368683772E-12  0.17120000000E+03  0.17120000000E+03 0.  0.
         13    1    1    2    0    0  0.21197522653E+02 -0.22334159717E+02  0.57720967245E+02  0.65420722104E+02  0.10566000000E+00 0. -1.
        994    1    1    2    0    0 -0.36161004675E+02  0.16733733753E+02  0.12870204095E+02  0.17624618651E+03  0.17120000000E+03 0.  0.
        998    1    1    2    0    0  0.14963482022E+02  0.56004259640E+01  0.14294088249E+04  0.14295330914E+04  0.10000000000E+02 0. -1.
</event>
<event>
 5    1  0.1800099E-008  0.3845196E+03  0.7957747E-01  0.3431712E+00
         13   -1    0    0    0    0  0.00000000000E+00  0.00000000000E+00  0.14999999963E+04  0.15000000000E+04  0.10566000000E+00 0. -1.
        994   -1    0    0    0    0 -0.00000000000E+00 -0.00000000000E+00  0.11368683772E-12  0.17120000000E+03  0.17120000000E+03 0.  0.
         13    1    1    2    0    0 -0.12577042288E+02  0.16007903336E+01  0.41574519740E+02  0.43464886725E+02  0.10566000000E+00 0. -1.
        994    1    1    2    0    0  0.14231993840E+02  0.43359444990E+00  0.25368857308E+01  0.17180981765E+03  0.17120000000E+03 0.  0.
        998    1    1    2    0    0 -0.16549515522E+01 -0.20343847835E+01  0.14558885908E+04  0.14559252956E+04  0.10000000000E+02 0. -1.
</event>
<event>
 5    1  0.1800099E-008  0.3733446E+03  0.7957747E-01  0.3480660E+00
         13   -1    0    0    0    0  0.00000000000E+00  0.00000000000E+00  0.14999999963E+04  0.15000000000E+04  0.10566000000E+00 0.  1.
        994   -1    0    0    0    0 -0.00000000000E+00 -0.00000000000E+00  0.11368683772E-12  0.17120000000E+03  0.17120000000E+03 0.  0.
         13    1    1    2    0    0  0.59605165202E+01  0.88616329043E+01  0.40794712216E+01  0.11432827489E+02  0.10566000000E+00 0.  1.
        994    1    1    2    0    0 -0.35122903835E+01 -0.74772027862E+01  0.77645879856E+01  0.17157497945E+03  0.17120000000E+03 0.  0.
        998    1    1    2    0    0 -0.24482261368E+01 -0.13844301181E+01  0.14881559371E+04  0.14881921931E+04  0.10000000000E+02 0.  1.
</event>
<event>
 5    1  0.1800099E-008  0.3820336E+03  0.7957747E-01  0.3442351E+00
         13   -1    0    0    0    0  0.00000000000E+00  0.00000000000E+00  0.14999999963E+04  0.15000000000E+04  0.10566000000E+00 0. -1.
        994   -1    0    0    0    0 -0.00000000000E+00 -0.00000000000E+00  0.11368683772E-12  0.17120000000E+03  0.17120000000E+03 0.  0.
         13    1    1    2    0    0 -0.28230399813E+02  0.21133314330E+00  0.11458558907E+03  0.11801215413E+03  0.10566000000E+00 0. -1.
        994    1    1    2    0    0  0.33925096790E+02 -0.44811443050E+01  0.70082802042E+01  0.17472706956E+03  0.17120000000E+03 0.  0.
        998    1    1    2    0    0 -0.56946969766E+01  0.42698111617E+01  0.13784061270E+04  0.13784607763E+04  0.10000000000E+02 0. -1.
</event>
<event>
 5    1  0.1800099E-008  0.3841239E+03  0.7957747E-01  0.3433397E+00
         13   -1    0    0    0    0  0.00000000000E+00  0.00000000000E+00  0.14999999963E+04  0.15000000000E+04  0.10566000000E+00 0. -1.
        994   -1    0    0    0    0 -0.00000000000E+00 -0.00000000000E+00  0.11368683772E-12  0.17120000000E+03  0.17120000000E+03 0.  0.
         13    1    1    2    0    0  0.59158594265E+02 -0.89592000475E+02  0.22718838992E+03  0.25127881228E+03  0.10566000000E+00 0. -1.
        994    1    1    2    0    0 -0.10632795307E+03  0.86605033792E+02  0.91580393772E+02  0.23770249053E+03  0.17120000000E+03 0.  0.
        998    1    1    2    0    0  0.47169358804E+02  0.29869666832E+01  0.11812312126E+04  0.11822186972E+04  0.10000000000E+02 0. -1.
</event>
<event>
 5    1  0.1800099E-008  0.3795218E+03  0.7957747E-01  0.3453243E+00
         13   -1    0    0    0    0  0.00000000000E+00  0.00000000000E+00  0.14999999963E+04  0.15000000000E+04  0.10566000000E+00 0.  1.
        994   -1    0    0    0    0 -0.00000000000E+00 -0.00000000000E+00  0.11368683772E-12  0.17120000000E+03  0.17120000000E+03 0.  0.
         13    1    1    2    0    0  0.29766358883E+02 -0.18357208249E+02  0.15030151647E+03  0.15431649372E+03  0.10566000000E+00 0.  1.
        994    1    1    2    0    0 -0.98181267292E+01 -0.19419790141E+01  0.47101862858E+01  0.17155696649E+03  0.17120000000E+03 0.  0.
        998    1    1    2    0    0 -0.19948232153E+02  0.20299187263E+02  0.13449882935E+04  0.13453265398E+04  0.10000000000E+02 0.  1.
</event>
<event>
 5    1  0.1800099E-008  0.3847618E+03  0.7957747E-01  0.3430683E+00
         13   -1    0    0    0    0  0.00000000000E+00  0.00000000000E+00  0.14999999963E+04  0.15000000000E+04  0.10566000000E+00 0.  1.
        994   -1    0    0    0    0 -0.00000000000E+00 -0.00000000000E+00  0.11368683772E-12  0.17120000000E+03  0.17120000000E+03 0.  0.
         13    1    1    2    0    0 -0.14244442334E+02 -0.59323017168E+01  0.76200699694E+02  0.77747373840E+02  0.10566000000E+00 0.  1.
        994    1    1    2    0    0 -0.64825279137E+01 -0.20086461590E+01  0.19000587622E+01  0.17134499716E+03  0.17120000000E+03 0.  0.
        998    1    1    2    0    0  0.20726970248E+02  0.79409478759E+01  0.14218992378E+04  0.14221076290E+04  0.10000000000E+02 0.  1.
</event>
<event>
 5    1  0.1800099E-008  0.3851305E+03  0.7957747E-01  0.3429119E+00
         13   -1    0    0    0    0  0.00000000000E+00  0.00000000000E+00  0.14999999963E+04  0.15000000000E+04  0.10566000000E+00 0.  1.
        994   -1    0    0    0    0 -0.00000000000E+00 -0.00000000000E+00  0.11368683772E-12  0.17120000000E+03  0.17120000000E+03 0.  0.
         13    1    1    2    0    0 -0.24388635586E+01 -0.11228945185E+02  0.42224954529E+02  0.43760658295E+02  0.10566000000E+00 0.  1.
        994    1    1    2    0    0 -0.49991989747E+01  0.85834659666E+01  0.18897819931E+01  0.17149833572E+03  0.17120000000E+03 0.  0.
        998    1    1    2    0    0  0.74380625333E+01  0.26454792182E+01  0.14558852598E+04  0.14559410060E+04  0.10000000000E+02 0.  1.
</event>
<event>
 5    1  0.1800099E-008  0.3811053E+03  0.7957747E-01  0.3446360E+00
         13   -1    0    0    0    0  0.00000000000E+00  0.00000000000E+00  0.14999999963E+04  0.15000000000E+04  0.10566000000E+00 0.  1.
        994   -1    0    0    0    0 -0.00000000000E+00 -0.00000000000E+00  0.11368683772E-12  0.17120000000E+03  0.17120000000E+03 0.  0.
         13    1    1    2    0    0 -0.99952602307E+01  0.34527306492E+02  0.19449116220E+03  0.19778489189E+03  0.10566000000E+00 0.  1.
        994    1    1    2    0    0 -0.14984592733E+02 -0.16039699138E+02  0.51826876668E+01  0.17267921189E+03  0.17120000000E+03 0.  0.
        998    1    1    2    0    0  0.24979852963E+02 -0.18487607354E+02  0.13003261464E+04  0.13007358962E+04  0.10000000000E+02 0.  1.
</event>
<event>
 5    1  0.1800099E-008  0.3763175E+03  0.7957747E-01  0.3467351E+00
         13   -1    0    0    0    0  0.00000000000E+00  0.00000000000E+00  0.14999999963E+04  0.15000000000E+04  0.10566000000E+00 0.  1.
        994   -1    0    0    0    0 -0.00000000000E+00 -0.00000000000E+00  0.11368683772E-12  0.17120000000E+03  0.17120000000E+03 0.  0.
         13    1    1    2    0    0 -0.16377702257E+02 -0.79075940518E+00  0.19156576915E+02  0.25215868710E+02  0.10566000000E+00 0.  1.
        994    1    1    2    0    0  0.24788337553E+02  0.92937026235E+01  0.83790746058E+01  0.17343726093E+03  0.17120000000E+03 0.  0.
        998    1    1    2    0    0 -0.84106352966E+01 -0.85029432184E+01  0.14724643448E+04  0.14725468704E+04  0.10000000000E+02 0.  1.
</event>
<event>
 5    1  0.1800099E-008  0.3745139E+03  0.7957747E-01  0.3475400E+00
         13   -1    0    0    0    0  0.00000000000E+00  0.00000000000E+00  0.14999999963E+04  0.15000000000E+04  0.10566000000E+00 0.  1.
        994   -1    0    0    0    0 -0.00000000000E+00 -0.00000000000E+00  0.11368683772E-12  0.17120000000E+03  0.17120000000E+03 0.  0.
         13    1    1    2    0    0 -0.56332861768E+02  0.61127773374E+02  0.42022541010E+03  0.42836830234E+03  0.10566000000E+00 0.  1.
        994    1    1    2    0    0  0.47061881885E+02 -0.46531885986E+02  0.21991107938E+02  0.18485963856E+03  0.17120000000E+03 0.  0.
        998    1    1    2    0    0  0.92709798831E+01 -0.14595887388E+02  0.10577834782E+04  0.10579720591E+04  0.10000000000E+02 0.  1.
</event>
<event>
 5    1  0.1800099E-008  0.4152710E+03  0.7957747E-01  0.3310630E+00
         13   -1    0    0    0    0  0.00000000000E+00  0.00000000000E+00  0.14999999963E+04  0.15000000000E+04  0.10566000000E+00 0.  1.
        994   -1    0    0    0    0 -0.00000000000E+00 -0.00000000000E+00  0.11368683772E-12  0.17120000000E+03  0.17120000000E+03 0.  0.
         13    1    1    2    0    0  0.19498843130E+02  0.62364611733E+02  0.43732548382E+02  0.78626310050E+02  0.10566000000E+00 0.  1.
        994    1    1    2    0    0 -0.20255126602E+02 -0.59101710058E+02  0.53733411135E+02  0.19000000463E+03  0.17120000000E+03 0.  0.
        998    1    1    2    0    0  0.75628347237E+00 -0.32629016751E+01  0.14025340368E+04  0.14025736853E+04  0.10000000000E+02 0.  0.
</event>
<event>
 5    1  0.1800099E-008  0.3694279E+03  0.7957747E-01  0.3498524E+00
         13   -1    0    0    0    0  0.00000000000E+00  0.00000000000E+00  0.14999999963E+04  0.15000000000E+04  0.10566000000E+00 0. -1.
        994   -1    0    0    0    0 -0.00000000000E+00 -0.00000000000E+00  0.11368683772E-12  0.17120000000E+03  0.17120000000E+03 0.  0.
         13    1    1    2    0    0 -0.10850147317E+03 -0.20450534802E+03  0.11661849532E+04  0.11889416989E+04  0.10566000000E+00 0. -1.
        994    1    1    2    0    0  0.10903155070E+03  0.18410199411E+03  0.18248009987E+03  0.32922613829E+03  0.17120000000E+03 0.  0.
        998    1    1    2    0    0 -0.53007752838E+00  0.20403353917E+02  0.15133494318E+03  0.15303216283E+03  0.10000000000E+02 0.  1.
</event>
<event>
 5    1  0.1800099E-008  0.3840074E+03  0.7957747E-01  0.3433893E+00
         13   -1    0    0    0    0  0.00000000000E+00  0.00000000000E+00  0.14999999963E+04  0.15000000000E+04  0.10566000000E+00 0.  1.
        994   -1    0    0    0    0 -0.00000000000E+00 -0.00000000000E+00  0.11368683772E-12  0.17120000000E+03  0.17120000000E+03 0.  0.
         13    1    1    2    0    0  0.12188740368E+02 -0.16035293473E+02  0.10848666920E+03  0.11034067512E+03  0.10566000000E+00 0.  1.
        994    1    1    2    0    0 -0.73543972808E+01 -0.11686011595E+02  0.27530225121E+01  0.17177796471E+03  0.17120000000E+03 0.  0.
        998    1    1    2    0    0 -0.48343430868E+01  0.27721305067E+02  0.13887603046E+04  0.13890813602E+04  0.10000000000E+02 0.  1.
</event>
<event>
 5    1  0.1800099E-008  0.3743627E+03  0.7957747E-01  0.3476078E+00
         13   -1    0    0    0    0  0.00000000000E+00  0.00000000000E+00  0.14999999963E+04  0.15000000000E+04  0.10566000000E+00 0.  1.
        994   -1    0    0    0    0 -0.00000000000E+00 -0.00000000000E+00  0.11368683772E-12  0.17120000000E+03  0.17120000000E+03 0.  0.
         13    1    1    2    0    0 -0.41992399510E+02  0.74209021439E+02  0.51213139501E+03  0.51918100639E+03  0.10566000000E+00 0.  1.
        994    1    1    2    0    0  0.44905568651E+02 -0.33393554069E+02  0.17750309009E+02  0.18098661005E+03  0.17120000000E+03 0.  0.
        998    1    1    2    0    0 -0.29131691411E+01 -0.40815467370E+02  0.97011829226E+03  0.97103238356E+03  0.10000000000E+02 0.  1.
</event>
<event>
 5    1  0.1800099E-008  0.3859252E+03  0.7957747E-01  0.3425758E+00
         13   -1    0    0    0    0  0.00000000000E+00  0.00000000000E+00  0.14999999963E+04  0.15000000000E+04  0.10566000000E+00 0.  1.
        994   -1    0    0    0    0 -0.00000000000E+00 -0.00000000000E+00  0.11368683772E-12  0.17120000000E+03  0.17120000000E+03 0.  0.
         13    1    1    2    0    0  0.19062743145E+01  0.10886299746E+02  0.55038944465E+02  0.56137705473E+02  0.10566000000E+00 0.  1.
        994    1    1    2    0    0  0.35970195535E+01 -0.17392911258E+01  0.12238423692E+01  0.17125098970E+03  0.17120000000E+03 0.  0.
        998    1    1    2    0    0 -0.55032938680E+01 -0.91470086197E+01  0.14437372094E+04  0.14438113048E+04  0.10000000000E+02 0.  1.
</event>
<event>
 5    1  0.1800099E-008  0.3845070E+03  0.7957747E-01  0.3431766E+00
         13   -1    0    0    0    0  0.00000000000E+00  0.00000000000E+00  0.14999999963E+04  0.15000000000E+04  0.10566000000E+00 0. -1.
        994   -1    0    0    0    0 -0.00000000000E+00 -0.00000000000E+00  0.11368683772E-12  0.17120000000E+03  0.17120000000E+03 0.  0.
         13    1    1    2    0    0 -0.41647975186E+01 -0.97468010105E+01  0.31651395916E+02  0.33379150615E+02  0.10566000000E+00 0. -1.
        994    1    1    2    0    0 -0.47949592724E+01 -0.76348300828E+01  0.21428646157E+01  0.17145061719E+03  0.17120000000E+03 0.  0.
        998    1    1    2    0    0  0.89597567911E+01  0.17381631093E+02  0.14662057357E+04  0.14663702322E+04  0.10000000000E+02 0. -1.
</event>
<event>
 5    1  0.1800099E-008  0.3767966E+03  0.7957747E-01  0.3465227E+00
         13   -1    0    0    0    0  0.00000000000E+00  0.00000000000E+00  0.14999999963E+04  0.15000000000E+04  0.10566000000E+00 0. -1.
        994   -1    0    0    0    0 -0.00000000000E+00 -0.00000000000E+00  0.11368683772E-12  0.17120000000E+03  0.17120000000E+03 0.  0.
         13    1    1    2    0    0 -0.17934765210E+02 -0.76664947104E+01  0.32026856343E+02  0.37498821789E+02  0.10566000000E+00 0. -1.
        994    1    1    2    0    0  0.15369374133E+01 -0.86053805352E+01  0.60172679056E+01  0.17152860480E+03  0.17120000000E+03 0.  0.
        998    1    1    2    0    0  0.16397827797E+02  0.16271875246E+02  0.14619558720E+04  0.14621725734E+04  0.10000000000E+02 0. -1.
</event>
<event>
 5    1  0.1800099E-008  0.3829132E+03  0.7957747E-01  0.3438571E+00
         13   -1    0    0    0    0  0.00000000000E+00  0.00000000000E+00  0.14999999963E+04  0.15000000000E+04  0.10566000000E+00 0. -1.
        994   -1    0    0    0    0 -0.00000000000E+00 -0.00000000000E+00  0.11368683772E-12  0.17120000000E+03  0.17120000000E+03 0.  0.
         13    1    1    2    0    0 -0.33062374930E+01 -0.13126106978E+02  0.31758933629E+02  0.34523425671E+02  0.10566000000E+00 0. -1.
        994    1    1    2    0    0  0.56747594587E+01  0.22365759490E+02  0.44346286759E+01  0.17280490741E+03  0.17120000000E+03 0.  0.
        998    1    1    2    0    0 -0.23685219657E+01 -0.92396525125E+01  0.14638064340E+04  0.14638716669E+04  0.10000000000E+02 0. -1.
</event>
<event>
 5    1  0.1800099E-008  0.3763652E+03  0.7957747E-01  0.3467139E+00
         13   -1    0    0    0    0  0.00000000000E+00  0.00000000000E+00  0.14999999963E+04  0.15000000000E+04  0.10566000000E+00 0. -1.
        994   -1    0    0    0    0 -0.00000000000E+00 -0.00000000000E+00  0.11368683772E-12  0.17120000000E+03  0.17120000000E+03 0.  0.
         13    1    1    2    0    0  0.28823392208E+02  0.48258323436E+02  0.10073824247E+03  0.11535969131E+03  0.10566000000E+00 0. -1.
        994    1    1    2    0    0 -0.25011284817E+02 -0.43451665079E+02  0.23388285705E+02  0.17991682377E+03  0.17120000000E+03 0.  0.
        998    1    1    2    0    0 -0.38121073913E+01 -0.48066583572E+01  0.13758734681E+04  0.13759234849E+04  0.10000000000E+02 0. -1.
</event>
<event>
 5    1  0.1800099E-008  0.3825572E+03  0.7957747E-01  0.3440099E+00
         13   -1    0    0    0    0  0.00000000000E+00  0.00000000000E+00  0.14999999963E+04  0.15000000000E+04  0.10566000000E+00 0.  1.
        994   -1    0    0    0    0 -0.00000000000E+00 -0.00000000000E+00  0.11368683772E-12  0.17120000000E+03  0.17120000000E+03 0.  0.
         13    1    1    2    0    0 -0.41990497621E+01 -0.21422473279E+02  0.80161796860E+02  0.83081160440E+02  0.10566000000E+00 0.  1.
        994    1    1    2    0    0  0.14359509989E+01  0.19815181110E+02  0.41573201780E+01  0.17239903326E+03  0.17120000000E+03 0.  0.
        998    1    1    2    0    0  0.27630987632E+01  0.16072921685E+01  0.14156808792E+04  0.14157198063E+04  0.10000000000E+02 0.  1.
</event>
<event>
 5    1  0.1800099E-008  0.3845759E+03  0.7957747E-01  0.3431473E+00
         13   -1    0    0    0    0  0.00000000000E+00  0.00000000000E+00  0.14999999963E+04  0.15000000000E+04  0.10566000000E+00 0. -1.
        994   -1    0    0    0    0 -0.00000000000E+00 -0.00000000000E+00  0.11368683772E-12  0.17120000000E+03  0.17120000000E+03 0.  0.
         13    1    1    2    0    0  0.21770679367E+01  0.23346244276E+02  0.13959376077E+03  0.14154934107E+03  0.10566000000E+00 0. -1.
        994    1    1    2    0    0  0.51168953497E+01 -0.22595302543E+02  0.36104040121E+01  0.17279816357E+03  0.17120000000E+03 0.  0.
        998    1    1    2    0    0 -0.72939632864E+01 -0.75094173257E+00  0.13567958315E+04  0.13568524954E+04  0.10000000000E+02 0. -1.
</event>
<event>
 5    1  0.1800099E-008  0.3697303E+03  0.7957747E-01  0.3497131E+00
         13   -1    0    0    0    0  0.00000000000E+00  0.00000000000E+00  0.14999999963E+04  0.15000000000E+04  0.10566000000E+00 0.  1.
        994   -1    0    0    0    0 -0.00000000000E+00 -0.00000000000E+00  0.11368683772E-12  0.17120000000E+03  0.17120000000E+03 0.  0.
         13    1    1    2    0    0 -0.12508828869E+03  0.65349050098E+01  0.69276640731E+03  0.70399935456E+03  0.10566000000E+00 0.  1.
        994    1    1    2    0    0  0.85232676728E+02  0.38358978185E+02  0.41964830695E+02  0.19951568210E+03  0.17120000000E+03 0.  0.
        998    1    1    2    0    0  0.39855611966E+02 -0.44893883194E+02  0.76526875827E+03  0.76768496334E+03  0.10000000000E+02 0.  1.
</event>
<event>
 5    1  0.1800099E-008  0.3812645E+03  0.7957747E-01  0.3445671E+00
         13   -1    0    0    0    0  0.00000000000E+00  0.00000000000E+00  0.14999999963E+04  0.15000000000E+04  0.10566000000E+00 0.  1.
        994   -1    0    0    0    0 -0.00000000000E+00 -0.00000000000E+00  0.11368683772E-12  0.17120000000E+03  0.17120000000E+03 0.  0.
         13    1    1    2    0    0  0.24185286318E+02  0.40616540645E+02  0.27657896378E+03  0.28058967518E+03  0.10566000000E+00 0.  1.
        994    1    1    2    0    0 -0.20724482917E+02 -0.36506905921E+02  0.93851061756E+01  0.17652132616E+03  0.17120000000E+03 0.  0.
        998    1    1    2    0    0 -0.34608034008E+01 -0.41096347240E+01  0.12140359263E+04  0.12140889987E+04  0.10000000000E+02 0.  1.
</event>
<event>
 5    1  0.1800099E-008  0.3791573E+03  0.7957747E-01  0.3454836E+00
         13   -1    0    0    0    0  0.00000000000E+00  0.00000000000E+00  0.14999999963E+04  0.15000000000E+04  0.10566000000E+00 0.  1.
        994   -1    0    0    0    0 -0.00000000000E+00 -0.00000000000E+00  0.11368683772E-12  0.17120000000E+03  0.17120000000E+03 0.  0.
         13    1    1    2    0    0 -0.73644394236E+01  0.13951065068E+02  0.24802914346E+02  0.29394946991E+02  0.10566000000E+00 0.  1.
        994    1    1    2    0    0  0.50194898778E+01 -0.19564055524E+02  0.59278600832E+01  0.17248920857E+03  0.17120000000E+03 0.  0.
        998    1    1    2    0    0  0.23449495458E+01  0.56129904567E+01  0.14692692218E+04  0.14693158444E+04  0.10000000000E+02 0.  1.
</event>
<event>
 5    1  0.1800099E-008  0.3714681E+03  0.7957747E-01  0.3489171E+00
         13   -1    0    0    0    0  0.00000000000E+00  0.00000000000E+00  0.14999999963E+04  0.15000000000E+04  0.10566000000E+00 0.  1.
        994   -1    0    0    0    0 -0.00000000000E+00 -0.00000000000E+00  0.11368683772E-12  0.17120000000E+03  0.17120000000E+03 0.  0.
         13    1    1    2    0    0  0.91054268784E+01 -0.11681674061E+02  0.91004169141E+01  0.17383873549E+02  0.10566000000E+00 0.  1.
        994    1    1    2    0    0 -0.91771467948E+00  0.11531262451E+02  0.89641716260E+01  0.17182435388E+03  0.17120000000E+03 0.  0.
        998    1    1    2    0    0 -0.81877121989E+01  0.15041161034E+00  0.14819354077E+04  0.14819917726E+04  0.10000000000E+02 0.  1.
</event>
<event>
 5    1  0.1800099E-008  0.3830352E+03  0.7957747E-01  0.3438048E+00
         13   -1    0    0    0    0  0.00000000000E+00  0.00000000000E+00  0.14999999963E+04  0.15000000000E+04  0.10566000000E+00 0.  1.
        994   -1    0    0    0    0 -0.00000000000E+00 -0.00000000000E+00  0.11368683772E-12  0.17120000000E+03  0.17120000000E+03 0.  0.
         13    1    1    2    0    0 -0.91356703394E+01  0.17365214407E+02  0.72244196828E+02  0.74861514033E+02  0.10566000000E+00 0.  1.
        994    1    1    2    0    0  0.51272951964E+01 -0.13808735119E+02  0.33272103889E+01  0.17186471613E+03  0.17120000000E+03 0.  0.
        998    1    1    2    0    0  0.40083751429E+01 -0.35564792876E+01  0.14244285891E+04  0.14244737698E+04  0.10000000000E+02 0.  1.
</event>
<event>
 5    1  0.1800099E-008  0.3785396E+03  0.7957747E-01  0.3457542E+00
         13   -1    0    0    0    0  0.00000000000E+00  0.00000000000E+00  0.14999999963E+04  0.15000000000E+04  0.10566000000E+00 0.  1.
        994   -1    0    0    0    0 -0.00000000000E+00 -0.00000000000E+00  0.11368683772E-12  0.17120000000E+03  0.17120000000E+03 0.  0.
         13    1    1    2    0    0 -0.59730657083E+02 -0.35752981845E+02  0.37300025576E+03  0.37944067924E+03  0.10566000000E+00 0.  1.
        994    1    1    2    0    0  0.58143626416E+02  0.38326249000E+02  0.21339185356E+02  0.18604941141E+03  0.17120000000E+03 0.  0.
        998    1    1    2    0    0  0.15870306670E+01 -0.25732671550E+01  0.11056605552E+04  0.11057099093E+04  0.10000000000E+02 0.  0.
</event>
<event>
 5    1  0.1800099E-008  0.3883216E+03  0.7957747E-01  0.3415706E+00
         13   -1    0    0    0    0  0.00000000000E+00  0.00000000000E+00  0.14999999963E+04  0.15000000000E+04  0.10566000000E+00 0. -1.
        994   -1    0    0    0    0 -0.00000000000E+00 -0.00000000000E+00  0.11368683772E-12  0.17120000000E+03  0.17120000000E+03 0.  0.
         13    1    1    2    0    0  0.73900410929E+02 -0.35069603411E+01  0.12705737366E+03  0.14702774184E+03  0.10566000000E+00 0. -1.
        994    1    1    2    0    0 -0.42878266814E+02 -0.13769831010E+02  0.28595370605E+02  0.17931895949E+03  0.17120000000E+03 0.  0.
        998    1    1    2    0    0 -0.31022144115E+02  0.17276791352E+02  0.13443472520E+04  0.13448532987E+04  0.10000000000E+02 0. -1.
</event>
<event>
 5    1  0.1800099E-008  0.3799348E+03  0.7957747E-01  0.3451442E+00
         13   -1    0    0    0    0  0.00000000000E+00  0.00000000000E+00  0.14999999963E+04  0.15000000000E+04  0.10566000000E+00 0.  1.
        994   -1    0    0    0    0 -0.00000000000E+00 -0.00000000000E+00  0.11368683772E-12  0.17120000000E+03  0.17120000000E+03 0.  0.
         13    1    1    2    0    0 -0.40418821888E+01 -0.10968078561E+02  0.14515270519E+02  0.18637054521E+02  0.10566000000E+00 0.  1.
        994    1    1    2    0    0  0.28870181392E+01  0.10508852478E+02  0.45632735509E+01  0.17160720940E+03  0.17120000000E+03 0.  0.
        998    1    1    2    0    0  0.11548640496E+01  0.45922608247E+00  0.14809214522E+04  0.14809557361E+04  0.10000000000E+02 0.  1.
</event>
<event>
 5    1  0.1800099E-008  0.3759061E+03  0.7957747E-01  0.3469180E+00
         13   -1    0    0    0    0  0.00000000000E+00  0.00000000000E+00  0.14999999963E+04  0.15000000000E+04  0.10566000000E+00 0.  1.
        994   -1    0    0    0    0 -0.00000000000E+00 -0.00000000000E+00  0.11368683772E-12  0.17120000000E+03  0.17120000000E+03 0.  0.
         13    1    1    2    0    0 -0.57034864726E+02  0.84752408356E+01  0.26036347477E+03  0.26667200014E+03  0.10566000000E+00 0.  1.
        994    1    1    2    0    0  0.36666938347E+02  0.31541235678E+01  0.10817813612E+02  0.17544480031E+03  0.17120000000E+03 0.  0.
        998    1    1    2    0    0  0.20367926380E+02 -0.11629364403E+02  0.12288187079E+04  0.12290831996E+04  0.10000000000E+02 0.  1.
</event>
<event>
 5    1  0.1800099E-008  0.3832905E+03  0.7957747E-01  0.3436955E+00
         13   -1    0    0    0    0  0.00000000000E+00  0.00000000000E+00  0.14999999963E+04  0.15000000000E+04  0.10566000000E+00 0.  1.
        994   -1    0    0    0    0 -0.00000000000E+00 -0.00000000000E+00  0.11368683772E-12  0.17120000000E+03  0.17120000000E+03 0.  0.
         13    1    1    2    0    0  0.95938789472E+01  0.86653401239E+01  0.36527310039E+02  0.38747724777E+02  0.10566000000E+00 0.  1.
        994    1    1    2    0    0 -0.13100634067E+01  0.26514606416E+02  0.48152853526E+01  0.17331291814E+03  0.17120000000E+03 0.  0.
        998    1    1    2    0    0 -0.82838155405E+01 -0.35179946539E+02  0.14586574009E+04  0.14591393571E+04  0.10000000000E+02 0.  1.
</event>
<event>
 5    1  0.1800099E-008  0.3852973E+03  0.7957747E-01  0.3428412E+00
         13   -1    0    0    0    0  0.00000000000E+00  0.00000000000E+00  0.14999999963E+04  0.15000000000E+04  0.10566000000E+00 0.  1.
        994   -1    0    0    0    0 -0.00000000000E+00 -0.00000000000E+00  0.11368683772E-12  0.17120000000E+03  0.17120000000E+03 0.  0.
         13    1    1    2    0    0 -0.73609439790E+01 -0.11675834522E+02  0.63470047923E+02  0.64953573846E+02  0.10566000000E+00 0.  1.
        994    1    1    2    0    0  0.62685057142E+01  0.95838537606E+01  0.19135734387E+01  0.17159325797E+03  0.17120000000E+03 0.  0.
        998    1    1    2    0    0  0.10924382647E+01  0.20919807609E+01  0.14346163749E+04  0.14346531682E+04  0.10000000000E+02 0.  1.
</event>
<event>
 5    1  0.1800099E-008  0.3788205E+03  0.7957747E-01  0.3456311E+00
         13   -1    0    0    0    0  0.00000000000E+00  0.00000000000E+00  0.14999999963E+04  0.15000000000E+04  0.10566000000E+00 0. -1.
        994   -1    0    0    0    0 -0.00000000000E+00 -0.00000000000E+00  0.11368683772E-12  0.17120000000E+03  0.17120000000E+03 0.  0.
         13    1    1    2    0    0  0.10629544545E+03 -0.70480898351E+02  0.63866120198E+03  0.65127138801E+03  0.10566000000E+00 0. -1.
        994    1    1    2    0    0 -0.12115296124E+03  0.93080256076E+02  0.87536435104E+02  0.24558917232E+03  0.17120000000E+03 0.  0.
        998    1    1    2    0    0  0.14857515797E+02 -0.22599357725E+02  0.77380235919E+03  0.77433943968E+03  0.10000000000E+02 0. -1.
</event>
<event>
 5    1  0.1800099E-008  0.3835729E+03  0.7957747E-01  0.3435747E+00
         13   -1    0    0    0    0  0.00000000000E+00  0.00000000000E+00  0.14999999963E+04  0.15000000000E+04  0.10566000000E+00 0.  1.
        994   -1    0    0    0    0 -0.00000000000E+00 -0.00000000000E+00  0.11368683772E-12  0.17120000000E+03  0.17120000000E+03 0.  0.
         13    1    1    2    0    0  0.65442353736E+01 -0.77012061200E+01  0.20560934368E+02  0.22910669533E+02  0.10566000000E+00 0.  1.
        994    1    1    2    0    0 -0.76996574372E+01  0.11454426081E+02  0.29699259696E+01  0.17178110799E+03  0.17120000000E+03 0.  0.
        998    1    1    2    0    0  0.11554220636E+01 -0.37532199612E+01  0.14764691359E+04  0.14765082225E+04  0.10000000000E+02 0.  1.
</event>
<event>
 5    1  0.1800099E-008  0.3807147E+03  0.7957747E-01  0.3448053E+00
         13   -1    0    0    0    0  0.00000000000E+00  0.00000000000E+00  0.14999999963E+04  0.15000000000E+04  0.10566000000E+00 0. -1.
        994   -1    0    0    0    0 -0.00000000000E+00 -0.00000000000E+00  0.11368683772E-12  0.17120000000E+03  0.17120000000E+03 0.  0.
         13    1    1    2    0    0  0.14341945089E+02  0.28719641476E+02  0.22839904567E+02  0.39397735977E+02  0.10566000000E+00 0. -1.
        994    1    1    2    0    0 -0.37352304747E+02 -0.30463573728E+02  0.25209030130E+02  0.17963340222E+03  0.17120000000E+03 0.  0.
        998    1    1    2    0    0  0.23010359657E+02  0.17439322521E+01  0.14519510616E+04  0.14521688618E+04  0.10000000000E+02 0. -1.
</event>
<event>
 5    1  0.1800099E-008  0.3846259E+03  0.7957747E-01  0.3431260E+00
         13   -1    0    0    0    0  0.00000000000E+00  0.00000000000E+00  0.14999999963E+04  0.15000000000E+04  0.10566000000E+00 0. -1.
        994   -1    0    0    0    0 -0.00000000000E+00 -0.00000000000E+00  0.11368683772E-12  0.17120000000E+03  0.17120000000E+03 0.  0.
         13    1    1    2    0    0 -0.39332545881E+01 -0.10480730402E+02  0.34107506657E+02  0.35897762825E+02  0.10566000000E+00 0. -1.
        994    1    1    2    0    0  0.24057942866E+01  0.76326955256E+01  0.20269085531E+01  0.17139893303E+03  0.17120000000E+03 0.  0.
        998    1    1    2    0    0  0.15274603016E+01  0.28480348761E+01  0.14638655811E+04  0.14639033041E+04  0.10000000000E+02 0. -1.
</event>
<event>
 5    1  0.1800099E-008  0.4012268E+03  0.7957747E-01  0.3363639E+00
         13   -1    0    0    0    0  0.00000000000E+00  0.00000000000E+00  0.14999999963E+04  0.15000000000E+04  0.10566000000E+00 0.  1.
        994   -1    0    0    0    0 -0.00000000000E+00 -0.00000000000E+00  0.11368683772E-12  0.17120000000E+03  0.17120000000E+03 0.  0.
         13    1    1    2    0    0  0.44597476498E+02 -0.32834949501E+02  0.42087690004E+02  0.69558993902E+02  0.10566000000E+00 0.  1.
        994    1    1    2    0    0 -0.46376956712E+02  0.34205728811E+02  0.41696985249E+02  0.18538859883E+03  0.17120000000E+03 0.  0.
        998    1    1    2    0    0  0.17794802135E+01 -0.13707793099E+01  0.14162153210E+04  0.14162524073E+04  0.10000000000E+02 0.  0.
</event>
<event>
 5    1  0.1800099E-008  0.3779548E+03  0.7957747E-01  0.3460112E+00
         13   -1    0    0    0    0  0.00000000000E+00  0.00000000000E+00  0.14999999963E+04  0.15000000000E+04  0.10566000000E+00 0.  1.
        994   -1    0    0    0    0 -0.00000000000E+00 -0.00000000000E+00  0.11368683772E-12  0.17120000000E+03  0.17120000000E+03 0.  0.
         13    1    1    2    0    0 -0.16873877902E+01 -0.11284834829E+02  0.10541766892E+02  0.15534953746E+02  0.10566000000E+00 0.  1.
        994    1    1    2    0    0  0.17961827500E+01 -0.29611462032E+01  0.52094914509E+01  0.17131425352E+03  0.17120000000E+03 0.  0.
        998    1    1    2    0    0 -0.10879495982E+00  0.14245981032E+02  0.14842487379E+04  0.14843507927E+04  0.10000000000E+02 0.  1.
</event>
<event>
 5    1  0.1800099E-008  0.3843581E+03  0.7957747E-01  0.3432399E+00
         13   -1    0    0    0    0  0.00000000000E+00  0.00000000000E+00  0.14999999963E+04  0.15000000000E+04  0.10566000000E+00 0. -1.
        994   -1    0    0    0    0 -0.00000000000E+00 -0.00000000000E+00  0.11368683772E-12  0.17120000000E+03  0.17120000000E+03 0.  0.
         13    1    1    2    0    0 -0.90552673086E+01 -0.17041020588E+02  0.99388462112E+02  0.10124461375E+03  0.10566000000E+00 0. -1.
        994    1    1    2    0    0  0.62820023897E+01  0.38866257885E+01  0.21290381905E+01  0.17137252469E+03  0.17120000000E+03 0.  0.
        998    1    1    2    0    0  0.27732649189E+01  0.13154394799E+02  0.13984824960E+04  0.13985828616E+04  0.10000000000E+02 0. -1.
</event>
<event>
 5    1  0.1800099E-008  0.3801188E+03  0.7957747E-01  0.3450641E+00
         13   -1    0    0    0    0  0.00000000000E+00  0.00000000000E+00  0.14999999963E+04  0.15000000000E+04  0.10566000000E+00 0.  1.
        994   -1    0    0    0    0 -0.00000000000E+00 -0.00000000000E+00  0.11368683772E-12  0.17120000000E+03  0.17120000000E+03 0.  0.
         13    1    1    2    0    0  0.10199253501E+02  0.36936710602E+01  0.12485931150E+02  0.16540181939E+02  0.10566000000E+00 0.  1.
        994    1    1    2    0    0 -0.14775463556E+02 -0.52440085237E-01  0.48030390594E+01  0.17190353765E+03  0.17120000000E+03 0.  0.
        998    1    1    2    0    0  0.45762100546E+01 -0.36412309750E+01  0.14827110261E+04  0.14827562804E+04  0.10000000000E+02 0.  1.
</event>
<event>
 5    1  0.1800099E-008  0.3798496E+03  0.7957747E-01  0.3451814E+00
         13   -1    0    0    0    0  0.00000000000E+00  0.00000000000E+00  0.14999999963E+04  0.15000000000E+04  0.10566000000E+00 0. -1.
        994   -1    0    0    0    0 -0.00000000000E+00 -0.00000000000E+00  0.11368683772E-12  0.17120000000E+03  0.17120000000E+03 0.  0.
         13    1    1    2    0    0 -0.39433014715E+02 -0.16872429293E+02  0.21467277788E+03  0.21891563271E+03  0.10566000000E+00 0. -1.
        994    1    1    2    0    0  0.22717351281E+02  0.13388563038E+02  0.65381380674E+01  0.17334220178E+03  0.17120000000E+03 0.  0.
        998    1    1    2    0    0  0.16715663434E+02  0.34838662552E+01  0.12787890803E+04  0.12789421655E+04  0.10000000000E+02 0. -1.
</event>
<event>
 5    1  0.1800099E-008  0.3818805E+03  0.7957747E-01  0.3443011E+00
         13   -1    0    0    0    0  0.00000000000E+00  0.00000000000E+00  0.14999999963E+04  0.15000000000E+04  0.10566000000E+00 0.  1.
        994   -1    0    0    0    0 -0.00000000000E+00 -0.00000000000E+00  0.11368683772E-12  0.17120000000E+03  0.17120000000E+03 0.  0.
         13    1    1    2    0    0  0.22031436821E+02 -0.43257645373E+01  0.76976030482E+02  0.80183644717E+02  0.10566000000E+00 0.  1.
        994    1    1    2    0    0 -0.17812806396E+02 -0.31018292329E+01  0.42737413266E+01  0.17220517495E+03  0.17120000000E+03 0.  0.
        998    1    1    2    0    0 -0.42186304252E+01  0.74275937702E+01  0.14187502245E+04  0.14188111803E+04  0.10000000000E+02 0.  1.
</event>
<event>
 5    1  0.1800099E-008  0.3822741E+03  0.7957747E-01  0.3441316E+00
         13   -1    0    0    0    0  0.00000000000E+00  0.00000000000E+00  0.14999999963E+04  0.15000000000E+04  0.10566000000E+00 0.  1.
        994   -1    0    0    0    0 -0.00000000000E+00 -0.00000000000E+00  0.11368683772E-12  0.17120000000E+03  0.17120000000E+03 0.  0.
         13    1    1    2    0    0  0.13071083450E+02  0.34501851072E+02  0.20492660669E+03  0.20822141159E+03  0.10566000000E+00 0.  1.
        994    1    1    2    0    0 -0.11115438383E+02 -0.31288200280E+02  0.66562928556E+01  0.17451719308E+03  0.17120000000E+03 0.  0.
        998    1    1    2    0    0 -0.19556450666E+01 -0.32136507914E+01  0.12884170967E+04  0.12884613953E+04  0.10000000000E+02 0.  1.
</event>
<event>
 5    1  0.1800099E-008  0.3864944E+03  0.7957747E-01  0.3423359E+00
         13   -1    0    0    0    0  0.00000000000E+00  0.00000000000E+00  0.14999999963E+04  0.15000000000E+04  0.10566000000E+00 0. -1.
        994   -1    0    0    0    0 -0.00000000000E+00 -0.00000000000E+00  0.11368683772E-12  0.17120000000E+03  0.17120000000E+03 0.  0.
         13    1    1    2    0    0  0.67342487774E+02 -0.55273856943E+02  0.17014038983E+03  0.19114908668E+03  0.10566000000E+00 0. -1.
        994    1    1    2    0    0 -0.55137332332E+02  0.54473416012E+02  0.42601875403E+02  0.19269623311E+03  0.17120000000E+03 0.  0.
        998    1    1    2    0    0 -0.12205155442E+02  0.80044093196E+00  0.12872577310E+04  0.12873546802E+04  0.10000000000E+02 0. -1.
</event>
<event>
 5    1  0.1800099E-008  0.3840009E+03  0.7957747E-01  0.3433921E+00
         13   -1    0    0    0    0  0.00000000000E+00  0.00000000000E+00  0.14999999963E+04  0.15000000000E+04  0.10566000000E+00 0.  1.
        994   -1    0    0    0    0 -0.00000000000E+00 -0.00000000000E+00  0.11368683772E-12  0.17120000000E+03  0.17120000000E+03 0.  0.
         13    1    1    2    0    0 -0.39869563826E+01 -0.18438669728E+02  0.82273417219E+02  0.84408570107E+02  0.10566000000E+00 0.  1.
        994    1    1    2    0    0 -0.26046331996E+01  0.14831029274E+02  0.28754370899E+01  0.17188499551E+03  0.17120000000E+03 0.  0.
        998    1    1    2    0    0  0.65915895822E+01  0.36076404542E+01  0.14148511420E+04  0.14149064344E+04  0.10000000000E+02 0.  1.
</event>
<event>
 5    1  0.1800099E-008  0.3846664E+03  0.7957747E-01  0.3431088E+00
         13   -1    0    0    0    0  0.00000000000E+00  0.00000000000E+00  0.14999999963E+04  0.15000000000E+04  0.10566000000E+00 0. -1.
        994   -1    0    0    0    0 -0.00000000000E+00 -0.00000000000E+00  0.11368683772E-12  0.17120000000E+03  0.17120000000E+03 0.  0.
         13    1    1    2    0    0 -0.40118410361E+01 -0.17180875541E+02  0.82724412497E+02  0.84584968759E+02  0.10566000000E+00 0. -1.
        994    1    1    2    0    0  0.81415153632E+01  0.16621773930E+02  0.29244579406E+01  0.17222241461E+03  0.17120000000E+03 0.  0.
        998    1    1    2    0    0 -0.41296743271E+01  0.55910161065E+00  0.14143511258E+04  0.14143926166E+04  0.10000000000E+02 0. -1.
</event>
<event>
 5    1  0.1800099E-008  0.3851281E+03  0.7957747E-01  0.3429129E+00
         13   -1    0    0    0    0  0.00000000000E+00  0.00000000000E+00  0.14999999963E+04  0.15000000000E+04  0.10566000000E+00 0. -1.
        994   -1    0    0    0    0 -0.00000000000E+00 -0.00000000000E+00  0.11368683772E-12  0.17120000000E+03  0.17120000000E+03 0.  0.
         13    1    1    2    0    0  0.91557091234E+01 -0.10829621340E+02  0.67427596196E+02  0.68902827233E+02  0.10566000000E+00 0. -1.
        994    1    1    2    0    0  0.12056517228E+01  0.38269451223E+01  0.16194830222E+01  0.17125466951E+03  0.17120000000E+03 0.  0.
        998    1    1    2    0    0 -0.10361360846E+02  0.70026762175E+01  0.14309529171E+04  0.14310425033E+04  0.10000000000E+02 0. -1.
</event>
<event>
 5    1  0.1800099E-008  0.3845361E+03  0.7957747E-01  0.3431642E+00
         13   -1    0    0    0    0  0.00000000000E+00  0.00000000000E+00  0.14999999963E+04  0.15000000000E+04  0.10566000000E+00 0.  1.
        994   -1    0    0    0    0 -0.00000000000E+00 -0.00000000000E+00  0.11368683772E-12  0.17120000000E+03  0.17120000000E+03 0.  0.
         13    1    1    2    0    0  0.12157327046E+02  0.53905371789E+01  0.46858078797E+02  0.48708820604E+02  0.10566000000E+00 0.  1.
        994    1    1    2    0    0 -0.77607015338E+01 -0.84924727482E+01  0.22966497843E+01  0.17160147197E+03  0.17120000000E+03 0.  0.
        998    1    1    2    0    0 -0.43966255120E+01  0.31019355693E+01  0.14508452677E+04  0.14508897074E+04  0.10000000000E+02 0.  1.
</event>
<event>
 5    1  0.1800099E-008  0.3804398E+03  0.7957747E-01  0.3449246E+00
         13   -1    0    0    0    0  0.00000000000E+00  0.00000000000E+00  0.14999999963E+04  0.15000000000E+04  0.10566000000E+00 0. -1.
        994   -1    0    0    0    0 -0.00000000000E+00 -0.00000000000E+00  0.11368683772E-12  0.17120000000E+03  0.17120000000E+03 0.  0.
         13    1    1    2    0    0  0.23270446348E+02 -0.24300486807E+02  0.14591316609E+03  0.14974208004E+03  0.10566000000E+00 0. -1.
        994    1    1    2    0    0  0.69486572868E+01  0.31564640440E+02  0.74061065929E+01  0.17438148061E+03  0.17120000000E+03 0.  0.
        998    1    1    2    0    0 -0.30219103635E+02 -0.72641536328E+01  0.13466807236E+04  0.13470764394E+04  0.10000000000E+02 0. -1.
</event>
<event>
 5    1  0.1800099E-008  0.3822697E+03  0.7957747E-01  0.3441335E+00
         13   -1    0    0    0    0  0.00000000000E+00  0.00000000000E+00  0.14999999963E+04  0.15000000000E+04  0.10566000000E+00 0.  1.
        994   -1    0    0    0    0 -0.00000000000E+00 -0.00000000000E+00  0.11368683772E-12  0.17120000000E+03  0.17120000000E+03 0.  0.
         13    1    1    2    0    0  0.10749022769E+03  0.42798516372E+02  0.60476606276E+03  0.61573359814E+03  0.10566000000E+00 0.  1.
        994    1    1    2    0    0 -0.14285101776E+03 -0.80713813027E+02  0.98156956048E+02  0.25664247682E+03  0.17120000000E+03 0.  0.
        998    1    1    2    0    0  0.35360790069E+02  0.37915296655E+02  0.79707697747E+03  0.79882392504E+03  0.10000000000E+02 0.  1.
</event>
<event>
 5    1  0.1800099E-008  0.3864124E+03  0.7957747E-01  0.3423704E+00
         13   -1    0    0    0    0  0.00000000000E+00  0.00000000000E+00  0.14999999963E+04  0.15000000000E+04  0.10566000000E+00 0. -1.
        994   -1    0    0    0    0 -0.00000000000E+00 -0.00000000000E+00  0.11368683772E-12  0.17120000000E+03  0.17120000000E+03 0.  0.
         13    1    1    2    0    0  0.10134727335E+02 -0.13025402783E+01  0.55930262764E+02  0.56856088207E+02  0.10566000000E+00 0. -1.
        994    1    1    2    0    0 -0.10670878633E+02 -0.52042673308E+01  0.13920630833E+01  0.17161681121E+03  0.17120000000E+03 0.  0.
        998    1    1    2    0    0  0.53615129843E+00  0.65068076091E+01  0.14426776704E+04  0.14427271006E+04  0.10000000000E+02 0. -1.
</event>
<event>
 5    1  0.1800099E-008  0.3730605E+03  0.7957747E-01  0.3481943E+00
         13   -1    0    0    0    0  0.00000000000E+00  0.00000000000E+00  0.14999999963E+04  0.15000000000E+04  0.10566000000E+00 0.  1.
        994   -1    0    0    0    0 -0.00000000000E+00 -0.00000000000E+00  0.11368683772E-12  0.17120000000E+03  0.17120000000E+03 0.  0.
         13    1    1    2    0    0  0.10560446420E+02  0.44981483966E+02  0.14946467489E+03  0.15644346305E+03  0.10566000000E+00 0.  1.
        994    1    1    2    0    0 -0.86706103817E+01 -0.71506700113E+01  0.81103874216E+01  0.17176009417E+03  0.17120000000E+03 0.  0.
        998    1    1    2    0    0 -0.18898360387E+01 -0.37830813955E+02  0.13424249340E+04  0.13429964428E+04  0.10000000000E+02 0.  1.
</event>
<event>
 5    1  0.1800099E-008  0.3831438E+03  0.7957747E-01  0.3437583E+00
         13   -1    0    0    0    0  0.00000000000E+00  0.00000000000E+00  0.14999999963E+04  0.15000000000E+04  0.10566000000E+00 0. -1.
        994   -1    0    0    0    0 -0.00000000000E+00 -0.00000000000E+00  0.11368683772E-12  0.17120000000E+03  0.17120000000E+03 0.  0.
         13    1    1    2    0    0 -0.14798208035E+02  0.41168708373E+01  0.44834365890E+02  0.47392690526E+02  0.10566000000E+00 0. -1.
        994    1    1    2    0    0  0.14089833462E+02  0.14136905051E+01  0.32182438043E+01  0.17181478115E+03  0.17120000000E+03 0.  0.
        998    1    1    2    0    0  0.70837457307E+00 -0.55305613424E+01  0.14519473866E+04  0.14519925283E+04  0.10000000000E+02 0. -1.
</event>
<event>
 5    1  0.1800099E-008  0.3785570E+03  0.7957747E-01  0.3457466E+00
         13   -1    0    0    0    0  0.00000000000E+00  0.00000000000E+00  0.14999999963E+04  0.15000000000E+04  0.10566000000E+00 0. -1.
        994   -1    0    0    0    0 -0.00000000000E+00 -0.00000000000E+00  0.11368683772E-12  0.17120000000E+03  0.17120000000E+03 0.  0.
         13    1    1    2    0    0  0.14606454036E+02  0.52913846072E+02  0.10159110953E+03  0.11547288992E+03  0.10566000000E+00 0. -1.
        994    1    1    2    0    0  0.26467717440E+02 -0.11724197267E+02  0.18563213702E+02  0.17461967178E+03  0.17120000000E+03 0.  0.
        998    1    1    2    0    0 -0.41074171476E+02 -0.41189648806E+02  0.13798456730E+04  0.13811074383E+04  0.10000000000E+02 0. -1.
</event>
