<event>
 5    1  0.5781797E-010  0.3820711E+03  0.7957747E-01  0.3442190E+00
         13   -1    0    0    0    0  0.00000000000E+00  0.00000000000E+00  0.14999999963E+04  0.15000000000E+04  0.10566000000E+00 0.  1.
        994   -1    0    0    0    0 -0.00000000000E+00 -0.00000000000E+00  0.11368683772E-12  0.17120000000E+03  0.17120000000E+03 0.  0.
         13    1    1    2    0    0 -0.74469195511E+02 -0.31047439004E+02  0.44740105353E+03  0.45461777177E+03  0.10566000000E+00 0.  1.
        994    1    1    2    0    0  0.14033405610E+03 -0.32787898812E+01  0.71536287903E+02  0.23266129513E+03  0.17120000000E+03 0.  0.
        998    1    1    2    0    0 -0.65864860590E+02  0.34326228886E+02  0.98106265485E+03  0.98392093310E+03  0.10000000000E+02 0.  1.
</event>
<event>
 5    1  0.5781797E-010  0.3833393E+03  0.7957747E-01  0.3436746E+00
         13   -1    0    0    0    0  0.00000000000E+00  0.00000000000E+00  0.14999999963E+04  0.15000000000E+04  0.10566000000E+00 0. -1.
        994   -1    0    0    0    0 -0.00000000000E+00 -0.00000000000E+00  0.11368683772E-12  0.17120000000E+03  0.17120000000E+03 0.  0.
         13    1    1    2    0    0 -0.15718777264E+03  0.62036199304E+02  0.83730494835E+03  0.85418737615E+03  0.10566000000E+00 0. -1.
        994    1    1    2    0    0  0.22528199679E+03 -0.36786336973E+02  0.19975883071E+03  0.34830768454E+03  0.17120000000E+03 0.  0.
        998    1    1    2    0    0 -0.68094224146E+02 -0.25249862331E+02  0.46293621723E+03  0.46870493931E+03  0.10000000000E+02 0.  1.
</event>
<event>
 5    1  0.5781797E-010  0.3852044E+03  0.7957747E-01  0.3428806E+00
         13   -1    0    0    0    0  0.00000000000E+00  0.00000000000E+00  0.14999999963E+04  0.15000000000E+04  0.10566000000E+00 0.  1.
        994   -1    0    0    0    0 -0.00000000000E+00 -0.00000000000E+00  0.11368683772E-12  0.17120000000E+03  0.17120000000E+03 0.  0.
         13    1    1    2    0    0 -0.17922679385E+02  0.25197955813E+02  0.16012227252E+03  0.16308069394E+03  0.10566000000E+00 0.  1.
        994    1    1    2    0    0  0.66048739360E+01 -0.11862707206E+03  0.49383379453E+02  0.21415920422E+03  0.17120000000E+03 0.  0.
        998    1    1    2    0    0  0.11317805449E+02  0.93429116248E+02  0.12904943443E+04  0.12939601018E+04  0.10000000000E+02 0.  1.
</event>
<event>
 5    1  0.5781797E-010  0.3855978E+03  0.7957747E-01  0.3427141E+00
         13   -1    0    0    0    0  0.00000000000E+00  0.00000000000E+00  0.14999999963E+04  0.15000000000E+04  0.10566000000E+00 0. -1.
        994   -1    0    0    0    0 -0.00000000000E+00 -0.00000000000E+00  0.11368683772E-12  0.17120000000E+03  0.17120000000E+03 0.  0.
         13    1    1    2    0    0 -0.95989303950E+02  0.24015095577E+02  0.41893567855E+03  0.43046229244E+03  0.10566000000E+00 0. -1.
        994    1    1    2    0    0  0.25747882866E+03  0.11831833743E+02  0.26311885145E+03  0.40617275818E+03  0.17120000000E+03 0.  0.
        998    1    1    2    0    0 -0.16148952471E+03 -0.35846929320E+02  0.81794546628E+03  0.83456494938E+03  0.10000000000E+02 0. -1.
</event>
<event>
 5    1  0.5781797E-010  0.3744191E+03  0.7957747E-01  0.3475825E+00
         13   -1    0    0    0    0  0.00000000000E+00  0.00000000000E+00  0.14999999963E+04  0.15000000000E+04  0.10566000000E+00 0. -1.
        994   -1    0    0    0    0 -0.00000000000E+00 -0.00000000000E+00  0.11368683772E-12  0.17120000000E+03  0.17120000000E+03 0.  0.
         13    1    1    2    0    0 -0.13702773863E+03  0.63451248786E+02  0.40318169742E+03  0.43053240810E+03  0.10566000000E+00 0. -1.
        994    1    1    2    0    0  0.20375717610E+03 -0.16691858437E+03  0.30017139628E+03  0.43450098707E+03  0.17120000000E+03 0.  0.
        998    1    1    2    0    0 -0.66729437470E+02  0.10346733559E+03  0.79664690257E+03  0.80616660483E+03  0.10000000000E+02 0. -1.
</event>
<event>
 5    1  0.5781797E-010  0.3879308E+03  0.7957747E-01  0.3417337E+00
         13   -1    0    0    0    0  0.00000000000E+00  0.00000000000E+00  0.14999999963E+04  0.15000000000E+04  0.10566000000E+00 0. -1.
        994   -1    0    0    0    0 -0.00000000000E+00 -0.00000000000E+00  0.11368683772E-12  0.17120000000E+03  0.17120000000E+03 0.  0.
         13    1    1    2    0    0  0.17347911513E+03  0.49269567510E+02  0.99338489771E+03  0.10096217410E+04  0.10566000000E+00 0. -1.
        994    1    1    2    0    0 -0.22947369039E+03 -0.60399254047E+02  0.21203615522E+03  0.36135165088E+03  0.17120000000E+03 0.  0.
        998    1    1    2    0    0  0.55994575266E+02  0.11129686537E+02  0.29457894334E+03  0.30022660815E+03  0.10000000000E+02 0.  1.
</event>
<event>
 5    1  0.5781797E-010  0.3870984E+03  0.7957747E-01  0.3420821E+00
         13   -1    0    0    0    0  0.00000000000E+00  0.00000000000E+00  0.14999999963E+04  0.15000000000E+04  0.10566000000E+00 0. -1.
        994   -1    0    0    0    0 -0.00000000000E+00 -0.00000000000E+00  0.11368683772E-12  0.17120000000E+03  0.17120000000E+03 0.  0.
         13    1    1    2    0    0  0.17790169038E+03  0.11462891851E+03  0.11135596635E+04  0.11334919213E+04  0.10566000000E+00 0. -1.
        994    1    1    2    0    0 -0.19337728807E+03 -0.13330365392E+03  0.20813523559E+03  0.35748336463E+03  0.17120000000E+03 0.  0.
        998    1    1    2    0    0  0.15475597691E+02  0.18674735410E+02  0.17830509721E+03  0.18022471406E+03  0.10000000000E+02 0. -1.
</event>
<event>
 5    1  0.5781797E-010  0.3732100E+03  0.7957747E-01  0.3481267E+00
         13   -1    0    0    0    0  0.00000000000E+00  0.00000000000E+00  0.14999999963E+04  0.15000000000E+04  0.10566000000E+00 0. -1.
        994   -1    0    0    0    0 -0.00000000000E+00 -0.00000000000E+00  0.11368683772E-12  0.17120000000E+03  0.17120000000E+03 0.  0.
         13    1    1    2    0    0 -0.85058805105E+02  0.19060652562E+03  0.12303870333E+04  0.12479655888E+04  0.10566000000E+00 0. -1.
        994    1    1    2    0    0  0.96477174843E+02 -0.21682243369E+03  0.22417373051E+03  0.36862326903E+03  0.17120000000E+03 0.  0.
        998    1    1    2    0    0 -0.11418369738E+02  0.26215908071E+02  0.45439232490E+02  0.54611142203E+02  0.10000000000E+02 0. -1.
</event>
<event>
 5    1  0.5781797E-010  0.3870257E+03  0.7957747E-01  0.3421126E+00
         13   -1    0    0    0    0  0.00000000000E+00  0.00000000000E+00  0.14999999963E+04  0.15000000000E+04  0.10566000000E+00 0.  1.
        994   -1    0    0    0    0 -0.00000000000E+00 -0.00000000000E+00  0.11368683772E-12  0.17120000000E+03  0.17120000000E+03 0.  0.
         13    1    1    2    0    0  0.50290563908E+02  0.11118846531E+03  0.51119285021E+03  0.52555699682E+03  0.10566000000E+00 0.  1.
        994    1    1    2    0    0 -0.13077401865E+03 -0.22084167266E+03  0.25787947102E+03  0.40209967658E+03  0.17120000000E+03 0.  0.
        998    1    1    2    0    0  0.80483454743E+02  0.10965320735E+03  0.73092767505E+03  0.74354332660E+03  0.10000000000E+02 0.  1.
</event>
<event>
 5    1  0.5781797E-010  0.3773257E+03  0.7957747E-01  0.3462886E+00
         13   -1    0    0    0    0  0.00000000000E+00  0.00000000000E+00  0.14999999963E+04  0.15000000000E+04  0.10566000000E+00 0.  1.
        994   -1    0    0    0    0 -0.00000000000E+00 -0.00000000000E+00  0.11368683772E-12  0.17120000000E+03  0.17120000000E+03 0.  0.
         13    1    1    2    0    0  0.85338345633E+02  0.63773098324E+02  0.51889234102E+03  0.52971588048E+03  0.10566000000E+00 0.  1.
        994    1    1    2    0    0 -0.21709435107E+03 -0.48403582607E+01  0.18584662570E+03  0.33316931824E+03  0.17120000000E+03 0.  0.
        998    1    1    2    0    0  0.13175600544E+03 -0.58932740063E+02  0.79526102956E+03  0.80831480128E+03  0.10000000000E+02 0. -1.
</event>
<event>
 5    1  0.5781797E-010  0.3880450E+03  0.7957747E-01  0.3416860E+00
         13   -1    0    0    0    0  0.00000000000E+00  0.00000000000E+00  0.14999999963E+04  0.15000000000E+04  0.10566000000E+00 0. -1.
        994   -1    0    0    0    0 -0.00000000000E+00 -0.00000000000E+00  0.11368683772E-12  0.17120000000E+03  0.17120000000E+03 0.  0.
         13    1    1    2    0    0 -0.15793000761E+02 -0.69655260807E+02  0.39954897033E+03  0.40588257549E+03  0.10566000000E+00 0. -1.
        994    1    1    2    0    0  0.39480049967E+02  0.21217875806E+03  0.17010089299E+03  0.32376264996E+03  0.17120000000E+03 0.  0.
        998    1    1    2    0    0 -0.23687049206E+02 -0.14252349725E+03  0.93035013296E+03  0.94155477454E+03  0.10000000000E+02 0. -1.
</event>
<event>
 5    1  0.5781797E-010  0.3847912E+03  0.7957747E-01  0.3430558E+00
         13   -1    0    0    0    0  0.00000000000E+00  0.00000000000E+00  0.14999999963E+04  0.15000000000E+04  0.10566000000E+00 0.  1.
        994   -1    0    0    0    0 -0.00000000000E+00 -0.00000000000E+00  0.11368683772E-12  0.17120000000E+03  0.17120000000E+03 0.  0.
         13    1    1    2    0    0 -0.12669303383E+02  0.12029159439E+01  0.39077792614E+02  0.41097971904E+02  0.10566000000E+00 0.  1.
        994    1    1    2    0    0  0.42586632347E+02 -0.37894563182E+02  0.12502064666E+02  0.18087388091E+03  0.17120000000E+03 0.  0.
        998    1    1    2    0    0 -0.29917328965E+02  0.36691647238E+02  0.14484201390E+04  0.14492281472E+04  0.10000000000E+02 0.  1.
</event>
<event>
 5    1  0.5781797E-010  0.3729199E+03  0.7957747E-01  0.3482578E+00
         13   -1    0    0    0    0  0.00000000000E+00  0.00000000000E+00  0.14999999963E+04  0.15000000000E+04  0.10566000000E+00 0.  1.
        994   -1    0    0    0    0 -0.00000000000E+00 -0.00000000000E+00  0.11368683772E-12  0.17120000000E+03  0.17120000000E+03 0.  0.
         13    1    1    2    0    0  0.38883552950E+02 -0.57184907536E+02  0.34317647739E+03  0.35007449227E+03  0.10566000000E+00 0.  1.
        994    1    1    2    0    0 -0.11283487591E+03 -0.95626634334E+02  0.94348904049E+02  0.24512714682E+03  0.17120000000E+03 0.  0.
        998    1    1    2    0    0  0.73951322955E+02  0.15281154187E+03  0.10624746148E+04  0.10759983609E+04  0.10000000000E+02 0.  1.
</event>
<event>
 5    1  0.5781797E-010  0.3835906E+03  0.7957747E-01  0.3435672E+00
         13   -1    0    0    0    0  0.00000000000E+00  0.00000000000E+00  0.14999999963E+04  0.15000000000E+04  0.10566000000E+00 0.  1.
        994   -1    0    0    0    0 -0.00000000000E+00 -0.00000000000E+00  0.11368683772E-12  0.17120000000E+03  0.17120000000E+03 0.  0.
         13    1    1    2    0    0 -0.93250921167E+02 -0.25689401265E+03  0.11034634093E+04  0.11368033140E+04  0.10566000000E+00 0.  1.
        994    1    1    2    0    0  0.11064492715E+03  0.26368415929E+03  0.35019355026E+03  0.48344244580E+03  0.17120000000E+03 0.  0.
        998    1    1    2    0    0 -0.17394005979E+02 -0.67901466345E+01  0.46343036745E+02  0.50954240158E+02  0.10000000000E+02 0.  1.
</event>
<event>
 5    1  0.5781797E-010  0.3755828E+03  0.7957747E-01  0.3470620E+00
         13   -1    0    0    0    0  0.00000000000E+00  0.00000000000E+00  0.14999999963E+04  0.15000000000E+04  0.10566000000E+00 0. -1.
        994   -1    0    0    0    0 -0.00000000000E+00 -0.00000000000E+00  0.11368683772E-12  0.17120000000E+03  0.17120000000E+03 0.  0.
         13    1    1    2    0    0  0.76540348650E+02  0.56465976633E+02  0.46871864217E+03  0.47827189775E+03  0.10566000000E+00 0. -1.
        994    1    1    2    0    0  0.29648747693E+02 -0.65603364924E+02  0.32642257097E+02  0.18856777741E+03  0.17120000000E+03 0.  0.
        998    1    1    2    0    0 -0.10618909634E+03  0.91373882919E+01  0.99863909701E+03  0.10043603248E+04  0.10000000000E+02 0. -1.
</event>
<event>
 5    1  0.5781797E-010  0.3810104E+03  0.7957747E-01  0.3446771E+00
         13   -1    0    0    0    0  0.00000000000E+00  0.00000000000E+00  0.14999999963E+04  0.15000000000E+04  0.10566000000E+00 0. -1.
        994   -1    0    0    0    0 -0.00000000000E+00 -0.00000000000E+00  0.11368683772E-12  0.17120000000E+03  0.17120000000E+03 0.  0.
         13    1    1    2    0    0  0.91411001303E+02 -0.12925289049E+02  0.47896294423E+03  0.48777919940E+03  0.10566000000E+00 0. -1.
        994    1    1    2    0    0 -0.13264548746E+03  0.84735096630E+02  0.91125684874E+02  0.24977628468E+03  0.17120000000E+03 0.  0.
        998    1    1    2    0    0  0.41234486156E+02 -0.71809807581E+02  0.92991136717E+03  0.93364451592E+03  0.10000000000E+02 0. -1.
</event>
<event>
 5    1  0.5781797E-010  0.3874845E+03  0.7957747E-01  0.3419203E+00
         13   -1    0    0    0    0  0.00000000000E+00  0.00000000000E+00  0.14999999963E+04  0.15000000000E+04  0.10566000000E+00 0. -1.
        994   -1    0    0    0    0 -0.00000000000E+00 -0.00000000000E+00  0.11368683772E-12  0.17120000000E+03  0.17120000000E+03 0.  0.
         13    1    1    2    0    0  0.22802992248E+02 -0.72655357898E+02  0.36574046916E+03  0.37358383187E+03  0.10566000000E+00 0. -1.
        994    1    1    2    0    0 -0.52136386068E+02  0.21713116149E+03  0.18459462049E+03  0.33652452802E+03  0.17120000000E+03 0.  0.
        998    1    1    2    0    0  0.29333393820E+02 -0.14447580359E+03  0.94966490663E+03  0.96109164012E+03  0.10000000000E+02 0. -1.
</event>
<event>
 5    1  0.5781797E-010  0.3852545E+03  0.7957747E-01  0.3428594E+00
         13   -1    0    0    0    0  0.00000000000E+00  0.00000000000E+00  0.14999999963E+04  0.15000000000E+04  0.10566000000E+00 0.  1.
        994   -1    0    0    0    0 -0.00000000000E+00 -0.00000000000E+00  0.11368683772E-12  0.17120000000E+03  0.17120000000E+03 0.  0.
         13    1    1    2    0    0  0.16123302946E+02  0.10238622327E+00  0.83112809275E+02  0.84662397854E+02  0.10566000000E+00 0.  1.
        994    1    1    2    0    0 -0.18160445213E+02 -0.38563400997E+02  0.74971175152E+01  0.17658591234E+03  0.17120000000E+03 0.  0.
        998    1    1    2    0    0  0.20371422672E+01  0.38461014774E+02  0.14093900695E+04  0.14099516898E+04  0.10000000000E+02 0.  1.
</event>
<event>
 5    1  0.5781797E-010  0.3837166E+03  0.7957747E-01  0.3435133E+00
         13   -1    0    0    0    0  0.00000000000E+00  0.00000000000E+00  0.14999999963E+04  0.15000000000E+04  0.10566000000E+00 0.  1.
        994   -1    0    0    0    0 -0.00000000000E+00 -0.00000000000E+00  0.11368683772E-12  0.17120000000E+03  0.17120000000E+03 0.  0.
         13    1    1    2    0    0 -0.21808117118E+02 -0.23739388545E+01  0.10370214643E+03  0.10599705608E+03  0.10566000000E+00 0.  1.
        994    1    1    2    0    0  0.34231609736E+02 -0.78680838278E+02  0.26974004249E+02  0.19338954036E+03  0.17120000000E+03 0.  0.
        998    1    1    2    0    0 -0.12423492619E+02  0.81054777133E+02  0.13693238456E+04  0.13718134036E+04  0.10000000000E+02 0.  1.
</event>
<event>
 5    1  0.5781797E-010  0.3869148E+03  0.7957747E-01  0.3421592E+00
         13   -1    0    0    0    0  0.00000000000E+00  0.00000000000E+00  0.14999999963E+04  0.15000000000E+04  0.10566000000E+00 0.  1.
        994   -1    0    0    0    0 -0.00000000000E+00 -0.00000000000E+00  0.11368683772E-12  0.17120000000E+03  0.17120000000E+03 0.  0.
         13    1    1    2    0    0 -0.28344447591E+02  0.19373544513E+03  0.10284866836E+04  0.10469583086E+04  0.10566000000E+00 0.  1.
        994    1    1    2    0    0  0.20816188458E+02 -0.23075981977E+03  0.20185184323E+03  0.35176272506E+03  0.17120000000E+03 0.  0.
        998    1    1    2    0    0  0.75282591336E+01  0.37024374644E+02  0.26966146947E+03  0.27247896638E+03  0.10000000000E+02 0.  1.
</event>
<event>
 5    1  0.5781797E-010  0.3874161E+03  0.7957747E-01  0.3419489E+00
         13   -1    0    0    0    0  0.00000000000E+00  0.00000000000E+00  0.14999999963E+04  0.15000000000E+04  0.10566000000E+00 0. -1.
        994   -1    0    0    0    0 -0.00000000000E+00 -0.00000000000E+00  0.11368683772E-12  0.17120000000E+03  0.17120000000E+03 0.  0.
         13    1    1    2    0    0 -0.50472169718E+02 -0.13458131422E+03  0.77068769467E+03  0.78397646899E+03  0.10566000000E+00 0. -1.
        994    1    1    2    0    0  0.10570115445E+03  0.22932206546E+03  0.24708626163E+03  0.39258426413E+03  0.17120000000E+03 0.  0.
        998    1    1    2    0    0 -0.55228984730E+02 -0.94740751240E+02  0.48222603998E+03  0.49463926687E+03  0.10000000000E+02 0.  0.
</event>
<event>
 5    1  0.5781797E-010  0.3831810E+03  0.7957747E-01  0.3437424E+00
         13   -1    0    0    0    0  0.00000000000E+00  0.00000000000E+00  0.14999999963E+04  0.15000000000E+04  0.10566000000E+00 0.  1.
        994   -1    0    0    0    0 -0.00000000000E+00 -0.00000000000E+00  0.11368683772E-12  0.17120000000E+03  0.17120000000E+03 0.  0.
         13    1    1    2    0    0  0.11490989209E+02  0.10232164481E+02  0.56982768726E+02  0.59023614924E+02  0.10566000000E+00 0.  1.
        994    1    1    2    0    0 -0.69521489128E+01  0.54487542073E+02  0.12582211540E+02  0.18023589172E+03  0.17120000000E+03 0.  0.
        998    1    1    2    0    0 -0.45388402964E+01 -0.64719706554E+02  0.14304350160E+04  0.14319404934E+04  0.10000000000E+02 0.  1.
</event>
<event>
 5    1  0.5781797E-010  0.3770045E+03  0.7957747E-01  0.3464306E+00
         13   -1    0    0    0    0  0.00000000000E+00  0.00000000000E+00  0.14999999963E+04  0.15000000000E+04  0.10566000000E+00 0.  1.
        994   -1    0    0    0    0 -0.00000000000E+00 -0.00000000000E+00  0.11368683772E-12  0.17120000000E+03  0.17120000000E+03 0.  0.
         13    1    1    2    0    0  0.11812911124E+02  0.27219454752E+02  0.33843773573E+02  0.45009507439E+02  0.10566000000E+00 0.  1.
        994    1    1    2    0    0 -0.20118480746E+03 -0.16393453744E+03  0.28383034781E+03  0.42097383013E+03  0.17120000000E+03 0.  0.
        998    1    1    2    0    0  0.18937189633E+03  0.13671508269E+03  0.11823258749E+04  0.12052166624E+04  0.10000000000E+02 0.  1.
</event>
<event>
 5    1  0.5781797E-010  0.3858604E+03  0.7957747E-01  0.3426031E+00
         13   -1    0    0    0    0  0.00000000000E+00  0.00000000000E+00  0.14999999963E+04  0.15000000000E+04  0.10566000000E+00 0. -1.
        994   -1    0    0    0    0 -0.00000000000E+00 -0.00000000000E+00  0.11368683772E-12  0.17120000000E+03  0.17120000000E+03 0.  0.
         13    1    1    2    0    0  0.14490434161E+02  0.75108146827E+01  0.77747758597E+02  0.79442495872E+02  0.10566000000E+00 0. -1.
        994    1    1    2    0    0 -0.27388824522E+02 -0.91375826311E+02  0.31636389462E+02  0.19851949648E+03  0.17120000000E+03 0.  0.
        998    1    1    2    0    0  0.12898390361E+02  0.83865011628E+02  0.13906158482E+04  0.13932380077E+04  0.10000000000E+02 0. -1.
</event>
<event>
 5    1  0.5781797E-010  0.3857681E+03  0.7957747E-01  0.3426421E+00
         13   -1    0    0    0    0  0.00000000000E+00  0.00000000000E+00  0.14999999963E+04  0.15000000000E+04  0.10566000000E+00 0. -1.
        994   -1    0    0    0    0 -0.00000000000E+00 -0.00000000000E+00  0.11368683772E-12  0.17120000000E+03  0.17120000000E+03 0.  0.
         13    1    1    2    0    0  0.75963084691E+02 -0.32906623516E+02  0.45434827325E+03  0.46182854035E+03  0.10566000000E+00 0. -1.
        994    1    1    2    0    0 -0.21366532843E+03  0.16411541630E+03  0.29403206393E+03  0.43399428229E+03  0.17120000000E+03 0.  0.
        998    1    1    2    0    0  0.13770224374E+03 -0.13120879278E+03  0.75161965909E+03  0.77537717736E+03  0.10000000000E+02 0.  1.
</event>
<event>
 5    1  0.5781797E-010  0.3873045E+03  0.7957747E-01  0.3419957E+00
         13   -1    0    0    0    0  0.00000000000E+00  0.00000000000E+00  0.14999999963E+04  0.15000000000E+04  0.10566000000E+00 0.  1.
        994   -1    0    0    0    0 -0.00000000000E+00 -0.00000000000E+00  0.11368683772E-12  0.17120000000E+03  0.17120000000E+03 0.  0.
         13    1    1    2    0    0 -0.22241842593E+02 -0.11452176246E+02  0.15115773382E+03  0.15321397965E+03  0.10566000000E+00 0.  1.
        994    1    1    2    0    0  0.13742965942E+03  0.29329583651E+02  0.67827988165E+02  0.23164026365E+03  0.17120000000E+03 0.  0.
        998    1    1    2    0    0 -0.11518781682E+03 -0.17877407405E+02  0.12810142743E+04  0.12863457567E+04  0.10000000000E+02 0.  1.
</event>
<event>
 5    1  0.5781797E-010  0.3873986E+03  0.7957747E-01  0.3419563E+00
         13   -1    0    0    0    0  0.00000000000E+00  0.00000000000E+00  0.14999999963E+04  0.15000000000E+04  0.10566000000E+00 0.  1.
        994   -1    0    0    0    0 -0.00000000000E+00 -0.00000000000E+00  0.11368683772E-12  0.17120000000E+03  0.17120000000E+03 0.  0.
         13    1    1    2    0    0 -0.26487350753E+02 -0.40741858898E+01  0.11173414677E+03  0.11490304373E+03  0.10566000000E+00 0.  1.
        994    1    1    2    0    0  0.21492705318E+03 -0.11715253050E+02  0.16983823947E+03  0.32324194178E+03  0.17120000000E+03 0.  0.
        998    1    1    2    0    0 -0.18843970243E+03  0.15789438939E+02  0.12184276100E+04  0.12330550145E+04  0.10000000000E+02 0.  1.
</event>
<event>
 5    1  0.5781797E-010  0.3710694E+03  0.7957747E-01  0.3490991E+00
         13   -1    0    0    0    0  0.00000000000E+00  0.00000000000E+00  0.14999999963E+04  0.15000000000E+04  0.10566000000E+00 0.  1.
        994   -1    0    0    0    0 -0.00000000000E+00 -0.00000000000E+00  0.11368683772E-12  0.17120000000E+03  0.17120000000E+03 0.  0.
         13    1    1    2    0    0 -0.27319504758E+02 -0.89310159522E+01  0.27557558686E+02  0.39818947637E+02  0.10566000000E+00 0.  1.
        994    1    1    2    0    0  0.14188288460E+03  0.11779448363E+03  0.13684779462E+03  0.28643158382E+03  0.17120000000E+03 0.  0.
        998    1    1    2    0    0 -0.11456337984E+03 -0.10886346768E+03  0.13355946430E+04  0.13449494685E+04  0.10000000000E+02 0.  1.
</event>
<event>
 5    1  0.5781797E-010  0.3841737E+03  0.7957747E-01  0.3433184E+00
         13   -1    0    0    0    0  0.00000000000E+00  0.00000000000E+00  0.14999999963E+04  0.15000000000E+04  0.10566000000E+00 0.  1.
        994   -1    0    0    0    0 -0.00000000000E+00 -0.00000000000E+00  0.11368683772E-12  0.17120000000E+03  0.17120000000E+03 0.  0.
         13    1    1    2    0    0  0.16709268197E+03 -0.23144315422E+02  0.81748597714E+03  0.83470890596E+03  0.10566000000E+00 0.  1.
        994    1    1    2    0    0 -0.21200398276E+03  0.25216557302E+02  0.17054393986E+03  0.32245346779E+03  0.17120000000E+03 0.  0.
        998    1    1    2    0    0  0.44911300782E+02 -0.20722418806E+01  0.51197007927E+03  0.51403762625E+03  0.10000000000E+02 0.  1.
</event>
<event>
 5    1  0.5781797E-010  0.3865147E+03  0.7957747E-01  0.3423273E+00
         13   -1    0    0    0    0  0.00000000000E+00  0.00000000000E+00  0.14999999963E+04  0.15000000000E+04  0.10566000000E+00 0.  1.
        994   -1    0    0    0    0 -0.00000000000E+00 -0.00000000000E+00  0.11368683772E-12  0.17120000000E+03  0.17120000000E+03 0.  0.
         13    1    1    2    0    0 -0.11181203993E+02  0.20725867748E+02  0.13650116156E+03  0.13851772156E+03  0.10566000000E+00 0.  1.
        994    1    1    2    0    0  0.14885445407E+02 -0.10457193817E+03  0.38281736965E+02  0.20477255217E+03  0.17120000000E+03 0.  0.
        998    1    1    2    0    0 -0.37042414137E+01  0.83846070419E+02  0.13252170978E+04  0.13279097263E+04  0.10000000000E+02 0.  1.
</event>
<event>
 5    1  0.7810460E-010  0.3866490E+03  0.7957747E-01  0.3422709E+00
         13   -1    0    0    0    0  0.00000000000E+00  0.00000000000E+00  0.14999999963E+04  0.15000000000E+04  0.10566000000E+00 0.  1.
        994   -1    0    0    0    0 -0.00000000000E+00 -0.00000000000E+00  0.11368683772E-12  0.17120000000E+03  0.17120000000E+03 0.  0.
         13    1    1    2    0    0  0.18813396547E+03 -0.18684976431E+03  0.10803289933E+04  0.11123929019E+04  0.10566000000E+00 0.  1.
        994    1    1    2    0    0 -0.19825684554E+03  0.19603811636E+03  0.31981089964E+03  0.45752067865E+03  0.17120000000E+03 0.  0.
        998    1    1    2    0    0  0.10122880064E+02 -0.91883520477E+01  0.99860103383E+02  0.10128641943E+03  0.10000000000E+02 0. -1.
</event>
<event>
 5    1  0.5781797E-010  0.3730981E+03  0.7957747E-01  0.3481773E+00
         13   -1    0    0    0    0  0.00000000000E+00  0.00000000000E+00  0.14999999963E+04  0.15000000000E+04  0.10566000000E+00 0.  1.
        994   -1    0    0    0    0 -0.00000000000E+00 -0.00000000000E+00  0.11368683772E-12  0.17120000000E+03  0.17120000000E+03 0.  0.
         13    1    1    2    0    0  0.62275323243E+02  0.24355430949E+03  0.11917781895E+04  0.12180033586E+04  0.10566000000E+00 0.  1.
        994    1    1    2    0    0 -0.82311261244E+02 -0.24385319766E+03  0.29444349071E+03  0.42690272306E+03  0.17120000000E+03 0.  0.
        998    1    1    2    0    0  0.20035938001E+02  0.29888817381E+00  0.13778316093E+02  0.26293918310E+02  0.10000000000E+02 0. -1.
</event>
<event>
 5    1  0.5781797E-010  0.3859657E+03  0.7957747E-01  0.3425587E+00
         13   -1    0    0    0    0  0.00000000000E+00  0.00000000000E+00  0.14999999963E+04  0.15000000000E+04  0.10566000000E+00 0.  1.
        994   -1    0    0    0    0 -0.00000000000E+00 -0.00000000000E+00  0.11368683772E-12  0.17120000000E+03  0.17120000000E+03 0.  0.
         13    1    1    2    0    0 -0.41601187493E+02  0.38067578453E+02  0.11506666475E+03  0.12814112466E+03  0.10566000000E+00 0.  1.
        994    1    1    2    0    0 -0.13374822134E+03  0.63808184587E+01  0.89553996170E+02  0.23507160565E+03  0.17120000000E+03 0.  0.
        998    1    1    2    0    0  0.17534940883E+03 -0.44448396912E+02  0.12953793354E+04  0.13079872697E+04  0.10000000000E+02 0.  1.
</event>
<event>
 5    1  0.5781797E-010  0.3799523E+03  0.7957747E-01  0.3451366E+00
         13   -1    0    0    0    0  0.00000000000E+00  0.00000000000E+00  0.14999999963E+04  0.15000000000E+04  0.10566000000E+00 0. -1.
        994   -1    0    0    0    0 -0.00000000000E+00 -0.00000000000E+00  0.11368683772E-12  0.17120000000E+03  0.17120000000E+03 0.  0.
         13    1    1    2    0    0 -0.15870418581E+02 -0.23769426408E+02  0.16259389665E+03  0.16508677176E+03  0.10566000000E+00 0. -1.
        994    1    1    2    0    0  0.25288171179E+02 -0.75225059485E+02  0.25511099486E+02  0.19041679908E+03  0.17120000000E+03 0.  0.
        998    1    1    2    0    0 -0.94177525977E+01  0.98994485893E+02  0.13118950001E+04  0.13156964292E+04  0.10000000000E+02 0. -1.
</event>
<event>
 5    1  0.5781797E-010  0.3881907E+03  0.7957747E-01  0.3416252E+00
         13   -1    0    0    0    0  0.00000000000E+00  0.00000000000E+00  0.14999999963E+04  0.15000000000E+04  0.10566000000E+00 0. -1.
        994   -1    0    0    0    0 -0.00000000000E+00 -0.00000000000E+00  0.11368683772E-12  0.17120000000E+03  0.17120000000E+03 0.  0.
         13    1    1    2    0    0 -0.28799897163E+02  0.70471409082E+02  0.43998387000E+03  0.44652152311E+03  0.10566000000E+00 0. -1.
        994    1    1    2    0    0  0.86656011747E+02 -0.20583766786E+03  0.18376549487E+03  0.33609166456E+03  0.17120000000E+03 0.  0.
        998    1    1    2    0    0 -0.57856114585E+02  0.13536625877E+03  0.87625063141E+03  0.88858681233E+03  0.10000000000E+02 0.  0.
</event>
<event>
 5    1  0.5781797E-010  0.3790589E+03  0.7957747E-01  0.3455266E+00
         13   -1    0    0    0    0  0.00000000000E+00  0.00000000000E+00  0.14999999963E+04  0.15000000000E+04  0.10566000000E+00 0.  1.
        994   -1    0    0    0    0 -0.00000000000E+00 -0.00000000000E+00  0.11368683772E-12  0.17120000000E+03  0.17120000000E+03 0.  0.
         13    1    1    2    0    0  0.97969734366E+01 -0.39139680599E+02  0.78151868510E+02  0.87952379170E+02  0.10566000000E+00 0.  1.
        994    1    1    2    0    0  0.37637551103E+02  0.21761378503E+03  0.19073709466E+03  0.33832295808E+03  0.17120000000E+03 0.  0.
        998    1    1    2    0    0 -0.47434524540E+02 -0.17847410443E+03  0.12311110331E+04  0.12449246627E+04  0.10000000000E+02 0.  1.
</event>
<event>
 5    1  0.5781797E-010  0.3880391E+03  0.7957747E-01  0.3416884E+00
         13   -1    0    0    0    0  0.00000000000E+00  0.00000000000E+00  0.14999999963E+04  0.15000000000E+04  0.10566000000E+00 0.  1.
        994   -1    0    0    0    0 -0.00000000000E+00 -0.00000000000E+00  0.11368683772E-12  0.17120000000E+03  0.17120000000E+03 0.  0.
         13    1    1    2    0    0 -0.35970345697E+02 -0.14227175027E+03  0.80405008825E+03  0.81733204530E+03  0.10566000000E+00 0.  1.
        994    1    1    2    0    0  0.49448241193E+02  0.22794729850E+03  0.20348423511E+03  0.35372358331E+03  0.17120000000E+03 0.  0.
        998    1    1    2    0    0 -0.13477895497E+02 -0.85675548226E+02  0.49246567293E+03  0.50014437140E+03  0.10000000000E+02 0.  0.
</event>
<event>
 5    1  0.6799164E-010  0.3863108E+03  0.7957747E-01  0.3424132E+00
         13   -1    0    0    0    0  0.00000000000E+00  0.00000000000E+00  0.14999999963E+04  0.15000000000E+04  0.10566000000E+00 0.  1.
        994   -1    0    0    0    0 -0.00000000000E+00 -0.00000000000E+00  0.11368683772E-12  0.17120000000E+03  0.17120000000E+03 0.  0.
         13    1    1    2    0    0 -0.12779968279E+01 -0.22836448142E+02  0.12793443034E+03  0.12996294191E+03  0.10566000000E+00 0.  1.
        994    1    1    2    0    0 -0.11635085341E+02  0.91308012825E+02  0.29234234819E+02  0.19656197217E+03  0.17120000000E+03 0.  0.
        998    1    1    2    0    0  0.12913082169E+02 -0.68471564683E+02  0.13428313311E+04  0.13446750859E+04  0.10000000000E+02 0.  1.
</event>
<event>
 5    1  0.5781797E-010  0.3826544E+03  0.7957747E-01  0.3439682E+00
         13   -1    0    0    0    0  0.00000000000E+00  0.00000000000E+00  0.14999999963E+04  0.15000000000E+04  0.10566000000E+00 0.  1.
        994   -1    0    0    0    0 -0.00000000000E+00 -0.00000000000E+00  0.11368683772E-12  0.17120000000E+03  0.17120000000E+03 0.  0.
         13    1    1    2    0    0 -0.14545769424E+02 -0.57390464683E+02  0.20619687016E+03  0.21452833209E+03  0.10566000000E+00 0.  1.
        994    1    1    2    0    0 -0.10848428979E+03  0.29405726762E+03  0.46737482631E+03  0.58820675450E+03  0.17120000000E+03 0.  0.
        998    1    1    2    0    0  0.12303005921E+03 -0.23666680294E+03  0.82642829982E+03  0.86846491341E+03  0.10000000000E+02 0.  1.
</event>
<event>
 5    1  0.5781797E-010  0.3877293E+03  0.7957747E-01  0.3418179E+00
         13   -1    0    0    0    0  0.00000000000E+00  0.00000000000E+00  0.14999999963E+04  0.15000000000E+04  0.10566000000E+00 0.  1.
        994   -1    0    0    0    0 -0.00000000000E+00 -0.00000000000E+00  0.11368683772E-12  0.17120000000E+03  0.17120000000E+03 0.  0.
         13    1    1    2    0    0  0.72351130222E+02 -0.96110300825E+01  0.39821001786E+03  0.40484353451E+03  0.10566000000E+00 0.  1.
        994    1    1    2    0    0 -0.20523423931E+03  0.47895691115E+02  0.16154777895E+03  0.31594653835E+03  0.17120000000E+03 0.  0.
        998    1    1    2    0    0  0.13288310909E+03 -0.38284661033E+02  0.94024219947E+03  0.95040992714E+03  0.10000000000E+02 0.  1.
</event>
<event>
 5    1  0.5781797E-010  0.3786841E+03  0.7957747E-01  0.3456908E+00
         13   -1    0    0    0    0  0.00000000000E+00  0.00000000000E+00  0.14999999963E+04  0.15000000000E+04  0.10566000000E+00 0. -1.
        994   -1    0    0    0    0 -0.00000000000E+00 -0.00000000000E+00  0.11368683772E-12  0.17120000000E+03  0.17120000000E+03 0.  0.
         13    1    1    2    0    0  0.93516744171E+02  0.37200065249E+02  0.51446458702E+03  0.52421660481E+03  0.10566000000E+00 0. -1.
        994    1    1    2    0    0 -0.16635117582E+03  0.27778934815E+02  0.10713359975E+03  0.26311866355E+03  0.17120000000E+03 0.  0.
        998    1    1    2    0    0  0.72834431646E+02 -0.64979000064E+02  0.87840180951E+03  0.88386473164E+03  0.10000000000E+02 0. -1.
</event>
<event>
 5    1  0.7769607E-010  0.3860809E+03  0.7957747E-01  0.3425101E+00
         13   -1    0    0    0    0  0.00000000000E+00  0.00000000000E+00  0.14999999963E+04  0.15000000000E+04  0.10566000000E+00 0. -1.
        994   -1    0    0    0    0 -0.00000000000E+00 -0.00000000000E+00  0.11368683772E-12  0.17120000000E+03  0.17120000000E+03 0.  0.
         13    1    1    2    0    0  0.12118835132E+02  0.94624580355E+00  0.64737611761E+02  0.65869044980E+02  0.10566000000E+00 0. -1.
        994    1    1    2    0    0 -0.16160080999E+02 -0.59233080897E+02  0.13547183903E+02  0.18238056991E+03  0.17120000000E+03 0.  0.
        998    1    1    2    0    0  0.40412458667E+01  0.58286835094E+02  0.14217152006E+04  0.14229503851E+04  0.10000000000E+02 0. -1.
</event>
<event>
 5    1  0.5781797E-010  0.3862571E+03  0.7957747E-01  0.3424358E+00
         13   -1    0    0    0    0  0.00000000000E+00  0.00000000000E+00  0.14999999963E+04  0.15000000000E+04  0.10566000000E+00 0.  1.
        994   -1    0    0    0    0 -0.00000000000E+00 -0.00000000000E+00  0.11368683772E-12  0.17120000000E+03  0.17120000000E+03 0.  0.
         13    1    1    2    0    0 -0.27108416277E+02  0.10162771633E+02  0.15237519065E+03  0.15510112202E+03  0.10566000000E+00 0.  1.
        994    1    1    2    0    0  0.10560687665E+03 -0.53954183692E+02  0.48507301146E+02  0.21383700474E+03  0.17120000000E+03 0.  0.
        998    1    1    2    0    0 -0.78498460369E+02  0.43791412059E+02  0.12991175045E+04  0.13022618732E+04  0.10000000000E+02 0.  1.
</event>
<event>
 5    1  0.6295274E-010  0.3865895E+03  0.7957747E-01  0.3422959E+00
         13   -1    0    0    0    0  0.00000000000E+00  0.00000000000E+00  0.14999999963E+04  0.15000000000E+04  0.10566000000E+00 0.  1.
        994   -1    0    0    0    0 -0.00000000000E+00 -0.00000000000E+00  0.11368683772E-12  0.17120000000E+03  0.17120000000E+03 0.  0.
         13    1    1    2    0    0  0.12355419316E+02  0.61873250830E+01  0.68760397733E+02  0.70135175473E+02  0.10566000000E+00 0.  1.
        994    1    1    2    0    0 -0.52527757556E+02 -0.62962440132E+02  0.23157458752E+02  0.19123059922E+03  0.17120000000E+03 0.  0.
        998    1    1    2    0    0  0.40172338240E+02  0.56775115049E+02  0.14080821398E+04  0.14098342253E+04  0.10000000000E+02 0.  1.
</event>
<event>
 5    1  0.5781797E-010  0.3777366E+03  0.7957747E-01  0.3461073E+00
         13   -1    0    0    0    0  0.00000000000E+00  0.00000000000E+00  0.14999999963E+04  0.15000000000E+04  0.10566000000E+00 0. -1.
        994   -1    0    0    0    0 -0.00000000000E+00 -0.00000000000E+00  0.11368683772E-12  0.17120000000E+03  0.17120000000E+03 0.  0.
         13    1    1    2    0    0  0.41720627734E+02 -0.15035344408E+02  0.10793740829E+03  0.11669262030E+03  0.10566000000E+00 0. -1.
        994    1    1    2    0    0 -0.16964061386E+03 -0.50150054885E+02  0.11916719935E+03  0.27350178660E+03  0.17120000000E+03 0.  0.
        998    1    1    2    0    0  0.12791998612E+03  0.65185399292E+02  0.12728953886E+04  0.12810055931E+04  0.10000000000E+02 0. -1.
</event>
<event>
 5    1  0.5781797E-010  0.3847576E+03  0.7957747E-01  0.3430701E+00
         13   -1    0    0    0    0  0.00000000000E+00  0.00000000000E+00  0.14999999963E+04  0.15000000000E+04  0.10566000000E+00 0. -1.
        994   -1    0    0    0    0 -0.00000000000E+00 -0.00000000000E+00  0.11368683772E-12  0.17120000000E+03  0.17120000000E+03 0.  0.
         13    1    1    2    0    0  0.46195744724E+02 -0.23046172737E+03  0.10703735198E+04  0.10958768807E+04  0.10566000000E+00 0. -1.
        994    1    1    2    0    0 -0.63316223318E+02  0.24321846160E+03  0.24863190206E+03  0.39279947418E+03  0.17120000000E+03 0.  0.
        998    1    1    2    0    0  0.17120478594E+02 -0.12756734229E+02  0.18099457446E+03  0.18252364515E+03  0.10000000000E+02 0.  1.
</event>
<event>
 5    1  0.5781797E-010  0.3873861E+03  0.7957747E-01  0.3419615E+00
         13   -1    0    0    0    0  0.00000000000E+00  0.00000000000E+00  0.14999999963E+04  0.15000000000E+04  0.10566000000E+00 0.  1.
        994   -1    0    0    0    0 -0.00000000000E+00 -0.00000000000E+00  0.11368683772E-12  0.17120000000E+03  0.17120000000E+03 0.  0.
         13    1    1    2    0    0  0.64333652089E+02  0.14360511831E+03  0.89549609177E+03  0.90921642656E+03  0.10566000000E+00 0.  1.
        994    1    1    2    0    0 -0.76594396819E+02 -0.22128012582E+03  0.20626067696E+03  0.35592766480E+03  0.17120000000E+03 0.  0.
        998    1    1    2    0    0  0.12260744730E+02  0.77675007513E+02  0.39824322754E+03  0.40605590864E+03  0.10000000000E+02 0. -1.
</event>
<event>
 5    1  0.5781797E-010  0.3880195E+03  0.7957747E-01  0.3416966E+00
         13   -1    0    0    0    0  0.00000000000E+00  0.00000000000E+00  0.14999999963E+04  0.15000000000E+04  0.10566000000E+00 0.  1.
        994   -1    0    0    0    0 -0.00000000000E+00 -0.00000000000E+00  0.11368683772E-12  0.17120000000E+03  0.17120000000E+03 0.  0.
         13    1    1    2    0    0 -0.13373135024E+03 -0.48829073902E+02  0.80868364933E+03  0.82111972839E+03  0.10566000000E+00 0.  1.
        994    1    1    2    0    0  0.22295508371E+03  0.77411490065E+02  0.20922534861E+03  0.35886793483E+03  0.17120000000E+03 0.  0.
        998    1    1    2    0    0 -0.89223733464E+02 -0.28582416163E+02  0.48209099834E+03  0.49121233678E+03  0.10000000000E+02 0.  0.
</event>
<event>
 5    1  0.5781797E-010  0.3875788E+03  0.7957747E-01  0.3418808E+00
         13   -1    0    0    0    0  0.00000000000E+00  0.00000000000E+00  0.14999999963E+04  0.15000000000E+04  0.10566000000E+00 0.  1.
        994   -1    0    0    0    0 -0.00000000000E+00 -0.00000000000E+00  0.11368683772E-12  0.17120000000E+03  0.17120000000E+03 0.  0.
         13    1    1    2    0    0  0.16508384716E+02  0.13352341172E+03  0.46172937926E+03  0.48093144946E+03  0.10566000000E+00 0.  1.
        994    1    1    2    0    0 -0.41670567280E+02 -0.32134154466E+03  0.50292170257E+03  0.62228329836E+03  0.17120000000E+03 0.  0.
        998    1    1    2    0    0  0.25162182564E+02  0.18781813294E+03  0.53534891444E+03  0.56798525218E+03  0.10000000000E+02 0.  1.
</event>
<event>
 5    1  0.5781797E-010  0.3862068E+03  0.7957747E-01  0.3424570E+00
         13   -1    0    0    0    0  0.00000000000E+00  0.00000000000E+00  0.14999999963E+04  0.15000000000E+04  0.10566000000E+00 0.  1.
        994   -1    0    0    0    0 -0.00000000000E+00 -0.00000000000E+00  0.11368683772E-12  0.17120000000E+03  0.17120000000E+03 0.  0.
         13    1    1    2    0    0 -0.50046334093E+02 -0.30630244437E+03  0.45941305979E+03  0.55442420009E+03  0.10566000000E+00 0.  1.
        994    1    1    2    0    0  0.47732149925E+02  0.33256431688E+03  0.97556752411E+03  0.10459057401E+04  0.17120000000E+03 0.  0.
        998    1    1    2    0    0  0.23141841675E+01 -0.26261872505E+02  0.65019412381E+02  0.70870059843E+02  0.10000000000E+02 0. -1.
</event>
<event>
 5    1  0.5781797E-010  0.3865864E+03  0.7957747E-01  0.3422972E+00
         13   -1    0    0    0    0  0.00000000000E+00  0.00000000000E+00  0.14999999963E+04  0.15000000000E+04  0.10566000000E+00 0.  1.
        994   -1    0    0    0    0 -0.00000000000E+00 -0.00000000000E+00  0.11368683772E-12  0.17120000000E+03  0.17120000000E+03 0.  0.
         13    1    1    2    0    0 -0.23511227099E+03  0.25226356064E+02  0.10631604242E+04  0.10891392233E+04  0.10566000000E+00 0.  1.
        994    1    1    2    0    0  0.26057231876E+03 -0.41986915383E+02  0.27741106314E+03  0.41943673220E+03  0.17120000000E+03 0.  0.
        998    1    1    2    0    0 -0.25460047769E+02  0.16760559319E+02  0.15942850898E+03  0.16262404453E+03  0.10000000000E+02 0. -1.
</event>
<event>
 5    1  0.5781797E-010  0.3844342E+03  0.7957747E-01  0.3432075E+00
         13   -1    0    0    0    0  0.00000000000E+00  0.00000000000E+00  0.14999999963E+04  0.15000000000E+04  0.10566000000E+00 0. -1.
        994   -1    0    0    0    0 -0.00000000000E+00 -0.00000000000E+00  0.11368683772E-12  0.17120000000E+03  0.17120000000E+03 0.  0.
         13    1    1    2    0    0  0.21237840513E+03  0.23410891759E+03  0.63559065686E+03  0.70985003100E+03  0.10566000000E+00 0. -1.
        994    1    1    2    0    0 -0.24192958396E+03 -0.24456318691E+03  0.75586259195E+03  0.84792616064E+03  0.17120000000E+03 0.  0.
        998    1    1    2    0    0  0.29551178828E+02  0.10454269316E+02  0.10854674747E+03  0.11342380836E+03  0.10000000000E+02 0.  1.
</event>
<event>
 5    1  0.5781797E-010  0.3833754E+03  0.7957747E-01  0.3436591E+00
         13   -1    0    0    0    0  0.00000000000E+00  0.00000000000E+00  0.14999999963E+04  0.15000000000E+04  0.10566000000E+00 0.  1.
        994   -1    0    0    0    0 -0.00000000000E+00 -0.00000000000E+00  0.11368683772E-12  0.17120000000E+03  0.17120000000E+03 0.  0.
         13    1    1    2    0    0 -0.15232225218E+03  0.16724894132E+03  0.10715124447E+04  0.10951315935E+04  0.10566000000E+00 0.  1.
        994    1    1    2    0    0  0.19741596395E+03 -0.18703856875E+03  0.30626481737E+03  0.44391898741E+03  0.17120000000E+03 0.  0.
        998    1    1    2    0    0 -0.45093711770E+02  0.19789627438E+02  0.12222273422E+03  0.13214941905E+03  0.10000000000E+02 0.  1.
</event>
<event>
 5    1  0.5781797E-010  0.3834198E+03  0.7957747E-01  0.3436402E+00
         13   -1    0    0    0    0  0.00000000000E+00  0.00000000000E+00  0.14999999963E+04  0.15000000000E+04  0.10566000000E+00 0.  1.
        994   -1    0    0    0    0 -0.00000000000E+00 -0.00000000000E+00  0.11368683772E-12  0.17120000000E+03  0.17120000000E+03 0.  0.
         13    1    1    2    0    0 -0.11136563921E+03  0.22233521827E+02  0.57268729319E+03  0.58383848968E+03  0.10566000000E+00 0.  1.
        994    1    1    2    0    0  0.19035581278E+03  0.11528792857E+02  0.13371036472E+03  0.28906080702E+03  0.17120000000E+03 0.  0.
        998    1    1    2    0    0 -0.78990173566E+02 -0.33762314684E+02  0.79360233837E+03  0.79830070329E+03  0.10000000000E+02 0.  1.
</event>
<event>
 5    1  0.5781797E-010  0.3862486E+03  0.7957747E-01  0.3424394E+00
         13   -1    0    0    0    0  0.00000000000E+00  0.00000000000E+00  0.14999999963E+04  0.15000000000E+04  0.10566000000E+00 0.  1.
        994   -1    0    0    0    0 -0.00000000000E+00 -0.00000000000E+00  0.11368683772E-12  0.17120000000E+03  0.17120000000E+03 0.  0.
         13    1    1    2    0    0 -0.95447953045E+02 -0.95834936695E+02  0.45512665774E+03  0.47479988688E+03  0.10566000000E+00 0.  1.
        994    1    1    2    0    0  0.22288460486E+03  0.17875693368E+03  0.34274010281E+03  0.47792447781E+03  0.17120000000E+03 0.  0.
        998    1    1    2    0    0 -0.12743665181E+03 -0.82921996986E+02  0.70213323573E+03  0.71847563531E+03  0.10000000000E+02 0.  1.
</event>
<event>
 5    1  0.5781797E-010  0.3857331E+03  0.7957747E-01  0.3426569E+00
         13   -1    0    0    0    0  0.00000000000E+00  0.00000000000E+00  0.14999999963E+04  0.15000000000E+04  0.10566000000E+00 0. -1.
        994   -1    0    0    0    0 -0.00000000000E+00 -0.00000000000E+00  0.11368683772E-12  0.17120000000E+03  0.17120000000E+03 0.  0.
         13    1    1    2    0    0  0.91348481503E+02  0.11056663560E+03  0.68117872036E+03  0.69611348659E+03  0.10566000000E+00 0. -1.
        994    1    1    2    0    0 -0.19638170384E+03 -0.15659195175E+03  0.24664452578E+03  0.39144574982E+03  0.17120000000E+03 0.  0.
        998    1    1    2    0    0  0.10503322234E+03  0.46025316143E+02  0.57217675014E+03  0.58364076358E+03  0.10000000000E+02 0. -1.
</event>
<event>
 5    1  0.5781797E-010  0.3877032E+03  0.7957747E-01  0.3418288E+00
         13   -1    0    0    0    0  0.00000000000E+00  0.00000000000E+00  0.14999999963E+04  0.15000000000E+04  0.10566000000E+00 0. -1.
        994   -1    0    0    0    0 -0.00000000000E+00 -0.00000000000E+00  0.11368683772E-12  0.17120000000E+03  0.17120000000E+03 0.  0.
         13    1    1    2    0    0  0.15926831971E+03 -0.14623983447E+03  0.86478591126E+03  0.89140740984E+03  0.10566000000E+00 0. -1.
        994    1    1    2    0    0 -0.22005824061E+03  0.19529220252E+03  0.36835763813E+03  0.50155903262E+03  0.17120000000E+03 0.  0.
        998    1    1    2    0    0  0.60789920904E+02 -0.49052368057E+02  0.26685644689E+03  0.27823355754E+03  0.10000000000E+02 0.  0.
</event>
<event>
 5    1  0.5781797E-010  0.3864273E+03  0.7957747E-01  0.3423641E+00
         13   -1    0    0    0    0  0.00000000000E+00  0.00000000000E+00  0.14999999963E+04  0.15000000000E+04  0.10566000000E+00 0.  1.
        994   -1    0    0    0    0 -0.00000000000E+00 -0.00000000000E+00  0.11368683772E-12  0.17120000000E+03  0.17120000000E+03 0.  0.
         13    1    1    2    0    0 -0.19054613020E+03  0.36987501428E+02  0.11141260992E+04  0.11309079888E+04  0.10566000000E+00 0.  1.
        994    1    1    2    0    0  0.22417553515E+03 -0.61275978514E+02  0.20395442384E+03  0.35343494890E+03  0.17120000000E+03 0.  0.
        998    1    1    2    0    0 -0.33629404943E+02  0.24288477086E+02  0.18191947320E+03  0.18685706229E+03  0.10000000000E+02 0.  0.
</event>
<event>
 5    1  0.5781797E-010  0.3836485E+03  0.7957747E-01  0.3435424E+00
         13   -1    0    0    0    0  0.00000000000E+00  0.00000000000E+00  0.14999999963E+04  0.15000000000E+04  0.10566000000E+00 0.  1.
        994   -1    0    0    0    0 -0.00000000000E+00 -0.00000000000E+00  0.11368683772E-12  0.17120000000E+03  0.17120000000E+03 0.  0.
         13    1    1    2    0    0  0.19236814326E+03  0.17283682681E+02  0.76737964929E+03  0.79131268506E+03  0.10566000000E+00 0.  1.
        994    1    1    2    0    0 -0.24845865968E+03 -0.36120455861E+02  0.24987097780E+03  0.39342259524E+03  0.17120000000E+03 0.  0.
        998    1    1    2    0    0  0.56090516425E+02  0.18836773181E+02  0.48274936920E+03  0.48646471970E+03  0.10000000000E+02 0.  1.
</event>
<event>
 5    1  0.5781797E-010  0.3762400E+03  0.7957747E-01  0.3467696E+00
         13   -1    0    0    0    0  0.00000000000E+00  0.00000000000E+00  0.14999999963E+04  0.15000000000E+04  0.10566000000E+00 0.  1.
        994   -1    0    0    0    0 -0.00000000000E+00 -0.00000000000E+00  0.11368683772E-12  0.17120000000E+03  0.17120000000E+03 0.  0.
         13    1    1    2    0    0  0.16449545670E+03  0.95383941436E+02  0.11142715955E+04  0.11303796049E+04  0.10566000000E+00 0.  1.
        994    1    1    2    0    0 -0.22164629974E+03 -0.69941958466E+02  0.21862891109E+03  0.36211462344E+03  0.17120000000E+03 0.  0.
        998    1    1    2    0    0  0.57150843038E+02 -0.25441982970E+02  0.16709948968E+03  0.17870577162E+03  0.10000000000E+02 0.  1.
</event>
<event>
 5    1  0.5781797E-010  0.3857818E+03  0.7957747E-01  0.3426363E+00
         13   -1    0    0    0    0  0.00000000000E+00  0.00000000000E+00  0.14999999963E+04  0.15000000000E+04  0.10566000000E+00 0.  1.
        994   -1    0    0    0    0 -0.00000000000E+00 -0.00000000000E+00  0.11368683772E-12  0.17120000000E+03  0.17120000000E+03 0.  0.
         13    1    1    2    0    0  0.13198298159E+03  0.47123328447E+02  0.47765740438E+03  0.49779184669E+03  0.10566000000E+00 0.  1.
        994    1    1    2    0    0 -0.26835948616E+03 -0.70872795968E+02  0.31789630441E+03  0.45541988030E+03  0.17120000000E+03 0.  0.
        998    1    1    2    0    0  0.13637650457E+03  0.23749467521E+02  0.70444628749E+03  0.71798827300E+03  0.10000000000E+02 0.  1.
</event>
<event>
 5    1  0.5781797E-010  0.3851629E+03  0.7957747E-01  0.3428982E+00
         13   -1    0    0    0    0  0.00000000000E+00  0.00000000000E+00  0.14999999963E+04  0.15000000000E+04  0.10566000000E+00 0.  1.
        994   -1    0    0    0    0 -0.00000000000E+00 -0.00000000000E+00  0.11368683772E-12  0.17120000000E+03  0.17120000000E+03 0.  0.
         13    1    1    2    0    0 -0.58702333560E+02  0.15023742609E+03  0.66306332160E+03  0.68240034275E+03  0.10566000000E+00 0.  1.
        994    1    1    2    0    0  0.46276103013E+02 -0.27375982826E+03  0.31952471281E+03  0.45660858881E+03  0.17120000000E+03 0.  0.
        998    1    1    2    0    0  0.12426230547E+02  0.12352240217E+03  0.51741196187E+03  0.53219106844E+03  0.10000000000E+02 0. -1.
</event>
<event>
 5    1  0.5781797E-010  0.3798811E+03  0.7957747E-01  0.3451676E+00
         13   -1    0    0    0    0  0.00000000000E+00  0.00000000000E+00  0.14999999963E+04  0.15000000000E+04  0.10566000000E+00 0.  1.
        994   -1    0    0    0    0 -0.00000000000E+00 -0.00000000000E+00  0.11368683772E-12  0.17120000000E+03  0.17120000000E+03 0.  0.
         13    1    1    2    0    0  0.48764172095E+02  0.62280211655E+02  0.41567998256E+03  0.42313901771E+03  0.10566000000E+00 0.  1.
        994    1    1    2    0    0 -0.25340088405E+03 -0.75988883760E+02  0.29213477800E+03  0.42969580753E+03  0.17120000000E+03 0.  0.
        998    1    1    2    0    0  0.20463671195E+03  0.13708672105E+02  0.79218523572E+03  0.81836517477E+03  0.10000000000E+02 0.  1.
</event>
<event>
 5    1  0.5781797E-010  0.3794561E+03  0.7957747E-01  0.3453530E+00
         13   -1    0    0    0    0  0.00000000000E+00  0.00000000000E+00  0.14999999963E+04  0.15000000000E+04  0.10566000000E+00 0.  1.
        994   -1    0    0    0    0 -0.00000000000E+00 -0.00000000000E+00  0.11368683772E-12  0.17120000000E+03  0.17120000000E+03 0.  0.
         13    1    1    2    0    0  0.98180243815E+02  0.83701947599E+02  0.46537410515E+03  0.48292695640E+03  0.10566000000E+00 0.  1.
        994    1    1    2    0    0 -0.27154485190E+03 -0.72457786378E+02  0.34399149063E+03  0.47605285739E+03  0.17120000000E+03 0.  0.
        998    1    1    2    0    0  0.17336460809E+03 -0.11244161221E+02  0.69063440050E+03  0.71222018621E+03  0.10000000000E+02 0.  1.
</event>
<event>
 5    1  0.6455968E-010  0.3867985E+03  0.7957747E-01  0.3422080E+00
         13   -1    0    0    0    0  0.00000000000E+00  0.00000000000E+00  0.14999999963E+04  0.15000000000E+04  0.10566000000E+00 0. -1.
        994   -1    0    0    0    0 -0.00000000000E+00 -0.00000000000E+00  0.11368683772E-12  0.17120000000E+03  0.17120000000E+03 0.  0.
         13    1    1    2    0    0  0.23063804394E+03  0.39226550201E+02  0.11638279733E+04  0.11871091745E+04  0.10566000000E+00 0. -1.
        994    1    1    2    0    0 -0.24193755450E+03 -0.44791637070E+02  0.23295442930E+03  0.37962781400E+03  0.17120000000E+03 0.  0.
        998    1    1    2    0    0  0.11299510556E+02  0.55650868692E+01  0.10321759366E+03  0.10446301150E+03  0.10000000000E+02 0. -1.
</event>
<event>
 5    1  0.5781797E-010  0.3868272E+03  0.7957747E-01  0.3421960E+00
         13   -1    0    0    0    0  0.00000000000E+00  0.00000000000E+00  0.14999999963E+04  0.15000000000E+04  0.10566000000E+00 0.  1.
        994   -1    0    0    0    0 -0.00000000000E+00 -0.00000000000E+00  0.11368683772E-12  0.17120000000E+03  0.17120000000E+03 0.  0.
         13    1    1    2    0    0  0.86819398784E+02 -0.11084042958E+03  0.45517611296E+03  0.47645410462E+03  0.10566000000E+00 0.  1.
        994    1    1    2    0    0 -0.16040358144E+03  0.25210298918E+03  0.38788519719E+03  0.51869990581E+03  0.17120000000E+03 0.  0.
        998    1    1    2    0    0  0.73584182652E+02 -0.14126255959E+03  0.65693868614E+03  0.67604598958E+03  0.10000000000E+02 0.  1.
</event>
<event>
 5    1  0.5781797E-010  0.3713930E+03  0.7957747E-01  0.3489513E+00
         13   -1    0    0    0    0  0.00000000000E+00  0.00000000000E+00  0.14999999963E+04  0.15000000000E+04  0.10566000000E+00 0.  1.
        994   -1    0    0    0    0 -0.00000000000E+00 -0.00000000000E+00  0.11368683772E-12  0.17120000000E+03  0.17120000000E+03 0.  0.
         13    1    1    2    0    0 -0.27808451258E+02 -0.16180534579E+03  0.43423989777E+03  0.46423978704E+03  0.10566000000E+00 0.  1.
        994    1    1    2    0    0 -0.10207562822E+03  0.30060367272E+03  0.55522423175E+03  0.66209167753E+03  0.17120000000E+03 0.  0.
        998    1    1    2    0    0  0.12988407948E+03 -0.13879832693E+03  0.51053586676E+03  0.54486853543E+03  0.10000000000E+02 0.  1.
</event>
<event>
 5    1  0.5781797E-010  0.3875049E+03  0.7957747E-01  0.3419118E+00
         13   -1    0    0    0    0  0.00000000000E+00  0.00000000000E+00  0.14999999963E+04  0.15000000000E+04  0.10566000000E+00 0.  1.
        994   -1    0    0    0    0 -0.00000000000E+00 -0.00000000000E+00  0.11368683772E-12  0.17120000000E+03  0.17120000000E+03 0.  0.
         13    1    1    2    0    0 -0.69047192820E+02  0.19123323179E+03  0.10597053639E+04  0.10790334255E+04  0.10566000000E+00 0.  1.
        994    1    1    2    0    0  0.89970917086E+02 -0.22218826609E+03  0.21782551405E+03  0.36636018626E+03  0.17120000000E+03 0.  0.
        998    1    1    2    0    0 -0.20923724266E+02  0.30955034300E+02  0.22246911830E+03  0.22580638827E+03  0.10000000000E+02 0.  1.
</event>
<event>
 5    1  0.5781797E-010  0.3786423E+03  0.7957747E-01  0.3457092E+00
         13   -1    0    0    0    0  0.00000000000E+00  0.00000000000E+00  0.14999999963E+04  0.15000000000E+04  0.10566000000E+00 0.  1.
        994   -1    0    0    0    0 -0.00000000000E+00 -0.00000000000E+00  0.11368683772E-12  0.17120000000E+03  0.17120000000E+03 0.  0.
         13    1    1    2    0    0 -0.72801026529E+02 -0.23730030375E+03  0.94956013351E+03  0.98146618991E+03  0.10566000000E+00 0.  1.
        994    1    1    2    0    0  0.41351301635E+02  0.26590842648E+03  0.30797956230E+03  0.44337125777E+03  0.17120000000E+03 0.  0.
        998    1    1    2    0    0  0.31449724894E+02 -0.28608122735E+02  0.24246030047E+03  0.24636255232E+03  0.10000000000E+02 0.  1.
</event>
<event>
 5    1  0.5781797E-010  0.3856379E+03  0.7957747E-01  0.3426971E+00
         13   -1    0    0    0    0  0.00000000000E+00  0.00000000000E+00  0.14999999963E+04  0.15000000000E+04  0.10566000000E+00 0. -1.
        994   -1    0    0    0    0 -0.00000000000E+00 -0.00000000000E+00  0.11368683772E-12  0.17120000000E+03  0.17120000000E+03 0.  0.
         13    1    1    2    0    0 -0.30266222181E+02 -0.29656024405E+03  0.47036633442E+03  0.55687388363E+03  0.10566000000E+00 0. -1.
        994    1    1    2    0    0  0.29894244577E+02  0.33077713239E+03  0.10014322908E+04  0.10688700811E+04  0.17120000000E+03 0.  0.
        998    1    1    2    0    0  0.37197760429E+00 -0.34216888340E+02  0.28201371075E+02  0.45456035304E+02  0.10000000000E+02 0. -1.
</event>
<event>
 5    1  0.5781797E-010  0.3856029E+03  0.7957747E-01  0.3427119E+00
         13   -1    0    0    0    0  0.00000000000E+00  0.00000000000E+00  0.14999999963E+04  0.15000000000E+04  0.10566000000E+00 0.  1.
        994   -1    0    0    0    0 -0.00000000000E+00 -0.00000000000E+00  0.11368683772E-12  0.17120000000E+03  0.17120000000E+03 0.  0.
         13    1    1    2    0    0 -0.19426404506E+03 -0.18403906299E+03  0.68887520620E+03  0.73902500417E+03  0.10566000000E+00 0.  1.
        994    1    1    2    0    0  0.25421712394E+03  0.21348224928E+03  0.56769342174E+03  0.67954858395E+03  0.17120000000E+03 0.  0.
        998    1    1    2    0    0 -0.59953078880E+02 -0.29443186293E+02  0.24343136834E+03  0.25262641188E+03  0.10000000000E+02 0.  0.
</event>
<event>
 5    1  0.5781797E-010  0.3728167E+03  0.7957747E-01  0.3483045E+00
         13   -1    0    0    0    0  0.00000000000E+00  0.00000000000E+00  0.14999999963E+04  0.15000000000E+04  0.10566000000E+00 0.  1.
        994   -1    0    0    0    0 -0.00000000000E+00 -0.00000000000E+00  0.11368683772E-12  0.17120000000E+03  0.17120000000E+03 0.  0.
         13    1    1    2    0    0 -0.54796746591E+02  0.57889669237E+02  0.18503384148E+03  0.20147315181E+03  0.10566000000E+00 0.  1.
        994    1    1    2    0    0 -0.48150660927E+01 -0.16818316223E+03  0.12036912870E+03  0.26852733206E+03  0.17120000000E+03 0.  0.
        998    1    1    2    0    0  0.59611812683E+02  0.11029349299E+03  0.11945970261E+04  0.12011995161E+04  0.10000000000E+02 0.  1.
</event>
<event>
 5    1  0.5781797E-010  0.3790231E+03  0.7957747E-01  0.3455423E+00
         13   -1    0    0    0    0  0.00000000000E+00  0.00000000000E+00  0.14999999963E+04  0.15000000000E+04  0.10566000000E+00 0. -1.
        994   -1    0    0    0    0 -0.00000000000E+00 -0.00000000000E+00  0.11368683772E-12  0.17120000000E+03  0.17120000000E+03 0.  0.
         13    1    1    2    0    0  0.33262278031E+02 -0.37063018900E+01  0.18947188583E+03  0.19240509998E+03  0.10566000000E+00 0. -1.
        994    1    1    2    0    0  0.44221163351E+02  0.29185902776E+02  0.14100396335E+02  0.17976537316E+03  0.17120000000E+03 0.  0.
        998    1    1    2    0    0 -0.77483441382E+02 -0.25479600886E+02  0.12964277141E+04  0.12990295269E+04  0.10000000000E+02 0. -1.
</event>
<event>
 5    1  0.5781797E-010  0.3864699E+03  0.7957747E-01  0.3423462E+00
         13   -1    0    0    0    0  0.00000000000E+00  0.00000000000E+00  0.14999999963E+04  0.15000000000E+04  0.10566000000E+00 0. -1.
        994   -1    0    0    0    0 -0.00000000000E+00 -0.00000000000E+00  0.11368683772E-12  0.17120000000E+03  0.17120000000E+03 0.  0.
         13    1    1    2    0    0 -0.77275361917E+01 -0.10887613761E+02  0.70179457696E+02  0.71438241828E+02  0.10566000000E+00 0. -1.
        994    1    1    2    0    0  0.89765698457E+02  0.11361242870E+02  0.28171668322E+02  0.19567841310E+03  0.17120000000E+03 0.  0.
        998    1    1    2    0    0 -0.82038162265E+02 -0.47362910906E+00  0.14016488703E+04  0.14040833451E+04  0.10000000000E+02 0. -1.
</event>
<event>
 5    1  0.5781797E-010  0.3945719E+03  0.7957747E-01  0.3390064E+00
         13   -1    0    0    0    0  0.00000000000E+00  0.00000000000E+00  0.14999999963E+04  0.15000000000E+04  0.10566000000E+00 0.  1.
        994   -1    0    0    0    0 -0.00000000000E+00 -0.00000000000E+00  0.11368683772E-12  0.17120000000E+03  0.17120000000E+03 0.  0.
         13    1    1    2    0    0  0.10428213753E+03  0.28699400206E+02  0.53331798645E+03  0.54417506890E+03  0.10566000000E+00 0.  1.
        994    1    1    2    0    0  0.28782651519E+02  0.58971983139E+02  0.41260353147E+02  0.18793081856E+03  0.17120000000E+03 0.  0.
        998    1    1    2    0    0 -0.13306478905E+03 -0.87671383346E+02  0.92542165669E+03  0.93909411254E+03  0.10000000000E+02 0.  1.
</event>
<event>
 5    1  0.5781797E-010  0.3835915E+03  0.7957747E-01  0.3435668E+00
         13   -1    0    0    0    0  0.00000000000E+00  0.00000000000E+00  0.14999999963E+04  0.15000000000E+04  0.10566000000E+00 0. -1.
        994   -1    0    0    0    0 -0.00000000000E+00 -0.00000000000E+00  0.11368683772E-12  0.17120000000E+03  0.17120000000E+03 0.  0.
         13    1    1    2    0    0  0.34709591023E+02 -0.18479626791E+03  0.94305588395E+03  0.96161781793E+03  0.10566000000E+00 0. -1.
        994    1    1    2    0    0 -0.83673740743E+02  0.21935467748E+03  0.21289820102E+03  0.36021223386E+03  0.17120000000E+03 0.  0.
        998    1    1    2    0    0  0.48964149720E+02 -0.34558409570E+02  0.34404591130E+03  0.34936994821E+03  0.10000000000E+02 0. -1.
</event>
<event>
 5    1  0.5781797E-010  0.3874995E+03  0.7957747E-01  0.3419140E+00
         13   -1    0    0    0    0  0.00000000000E+00  0.00000000000E+00  0.14999999963E+04  0.15000000000E+04  0.10566000000E+00 0. -1.
        994   -1    0    0    0    0 -0.00000000000E+00 -0.00000000000E+00  0.11368683772E-12  0.17120000000E+03  0.17120000000E+03 0.  0.
         13    1    1    2    0    0 -0.13626119177E+03  0.16662184537E+03  0.68092987588E+03  0.71413966335E+03  0.10566000000E+00 0. -1.
        994    1    1    2    0    0  0.18571219650E+03 -0.25709595581E+03  0.46602741028E+03  0.58913354815E+03  0.17120000000E+03 0.  0.
        998    1    1    2    0    0 -0.49451004733E+02  0.90474110438E+02  0.35304271012E+03  0.36792678851E+03  0.10000000000E+02 0. -1.
</event>
<event>
 5    1  0.5781797E-010  0.3342926E+03  0.7957747E-01  0.3678026E+00
         13   -1    0    0    0    0  0.00000000000E+00  0.00000000000E+00  0.14999999963E+04  0.15000000000E+04  0.10566000000E+00 0. -1.
        994   -1    0    0    0    0 -0.00000000000E+00 -0.00000000000E+00  0.11368683772E-12  0.17120000000E+03  0.17120000000E+03 0.  0.
         13    1    1    2    0    0  0.56937292819E+02  0.18261833236E+03  0.10037047963E+04  0.10217703459E+04  0.10566000000E+00 0. -1.
        994    1    1    2    0    0  0.25945996589E+02 -0.16944987426E+03  0.13288862748E+03  0.27632459525E+03  0.17120000000E+03 0.  0.
        998    1    1    2    0    0 -0.82883289408E+02 -0.13168458104E+02  0.36340657253E+03  0.37310505881E+03  0.10000000000E+02 0.  1.
</event>
<event>
 5    1  0.5781797E-010  0.3849882E+03  0.7957747E-01  0.3429722E+00
         13   -1    0    0    0    0  0.00000000000E+00  0.00000000000E+00  0.14999999963E+04  0.15000000000E+04  0.10566000000E+00 0. -1.
        994   -1    0    0    0    0 -0.00000000000E+00 -0.00000000000E+00  0.11368683772E-12  0.17120000000E+03  0.17120000000E+03 0.  0.
         13    1    1    2    0    0 -0.63581751726E+02 -0.19022096477E+02  0.32006718279E+03  0.32687534623E+03  0.10566000000E+00 0. -1.
        994    1    1    2    0    0  0.16078530363E+03  0.33557073020E+02  0.96060030639E+02  0.25595890392E+03  0.17120000000E+03 0.  0.
        998    1    1    2    0    0 -0.97203551899E+02 -0.14534976543E+02  0.10838727829E+04  0.10883657499E+04  0.10000000000E+02 0. -1.
</event>
<event>
 5    1  0.5781797E-010  0.3880056E+03  0.7957747E-01  0.3417024E+00
         13   -1    0    0    0    0  0.00000000000E+00  0.00000000000E+00  0.14999999963E+04  0.15000000000E+04  0.10566000000E+00 0. -1.
        994   -1    0    0    0    0 -0.00000000000E+00 -0.00000000000E+00  0.11368683772E-12  0.17120000000E+03  0.17120000000E+03 0.  0.
         13    1    1    2    0    0 -0.87098146987E+02 -0.10343009937E+03  0.47979555920E+03  0.49848536835E+03  0.10566000000E+00 0. -1.
        994    1    1    2    0    0  0.19765631404E+03  0.24367432490E+03  0.44745756082E+03  0.57268918606E+03  0.17120000000E+03 0.  0.
        998    1    1    2    0    0 -0.11055816705E+03 -0.14024422553E+03  0.57274687626E+03  0.60002544559E+03  0.10000000000E+02 0.  0.
</event>
<event>
 5    1  0.5781797E-010  0.3853839E+03  0.7957747E-01  0.3428046E+00
         13   -1    0    0    0    0  0.00000000000E+00  0.00000000000E+00  0.14999999963E+04  0.15000000000E+04  0.10566000000E+00 0.  1.
        994   -1    0    0    0    0 -0.00000000000E+00 -0.00000000000E+00  0.11368683772E-12  0.17120000000E+03  0.17120000000E+03 0.  0.
         13    1    1    2    0    0 -0.30865540534E+03  0.55012676318E+02  0.81390299206E+03  0.87219988847E+03  0.10566000000E+00 0.  1.
        994    1    1    2    0    0  0.32692383066E+03 -0.66929146418E+02  0.58356191648E+03  0.69369492723E+03  0.17120000000E+03 0.  0.
        998    1    1    2    0    0 -0.18268425321E+02  0.11916470100E+02  0.10253508774E+03  0.10530518430E+03  0.10000000000E+02 0.  1.
</event>
<event>
 5    1  0.5781797E-010  0.3805639E+03  0.7957747E-01  0.3448707E+00
         13   -1    0    0    0    0  0.00000000000E+00  0.00000000000E+00  0.14999999963E+04  0.15000000000E+04  0.10566000000E+00 0. -1.
        994   -1    0    0    0    0 -0.00000000000E+00 -0.00000000000E+00  0.11368683772E-12  0.17120000000E+03  0.17120000000E+03 0.  0.
         13    1    1    2    0    0  0.77512079899E+02  0.20136083688E+03  0.12860297961E+04  0.13040042012E+04  0.10566000000E+00 0. -1.
        994    1    1    2    0    0 -0.65157694189E+02 -0.20355105936E+03  0.17481793063E+03  0.32488352951E+03  0.17120000000E+03 0.  0.
        998    1    1    2    0    0 -0.12354385710E+02  0.21902224756E+01  0.39152269581E+02  0.42312269309E+02  0.10000000000E+02 0. -1.
</event>
<event>
 5    1  0.5781797E-010  0.3793891E+03  0.7957747E-01  0.3453823E+00
         13   -1    0    0    0    0  0.00000000000E+00  0.00000000000E+00  0.14999999963E+04  0.15000000000E+04  0.10566000000E+00 0. -1.
        994   -1    0    0    0    0 -0.00000000000E+00 -0.00000000000E+00  0.11368683772E-12  0.17120000000E+03  0.17120000000E+03 0.  0.
         13    1    1    2    0    0 -0.30879551238E+02 -0.11560547738E+02  0.16150490281E+03  0.16483639691E+03  0.10566000000E+00 0. -1.
        994    1    1    2    0    0 -0.37084027948E+02  0.40934271197E+02  0.14729824901E+02  0.18049168244E+03  0.17120000000E+03 0.  0.
        998    1    1    2    0    0  0.67963579186E+02 -0.29373723459E+02  0.13237652686E+04  0.13258719207E+04  0.10000000000E+02 0. -1.
</event>
<event>
 5    1  0.5781797E-010  0.3853195E+03  0.7957747E-01  0.3428318E+00
         13   -1    0    0    0    0  0.00000000000E+00  0.00000000000E+00  0.14999999963E+04  0.15000000000E+04  0.10566000000E+00 0.  1.
        994   -1    0    0    0    0 -0.00000000000E+00 -0.00000000000E+00  0.11368683772E-12  0.17120000000E+03  0.17120000000E+03 0.  0.
         13    1    1    2    0    0  0.11172105857E+03  0.11455250271E+03  0.90590530627E+03  0.91992842434E+03  0.10566000000E+00 0.  1.
        994    1    1    2    0    0 -0.13129884011E+03 -0.14469013844E+03  0.13895507611E+03  0.29460579552E+03  0.17120000000E+03 0.  0.
        998    1    1    2    0    0  0.19577781536E+02  0.30137635737E+02  0.45513961390E+03  0.45666578014E+03  0.10000000000E+02 0.  1.
</event>
<event>
 5    1  0.5781797E-010  0.3847540E+03  0.7957747E-01  0.3430716E+00
         13   -1    0    0    0    0  0.00000000000E+00  0.00000000000E+00  0.14999999963E+04  0.15000000000E+04  0.10566000000E+00 0. -1.
        994   -1    0    0    0    0 -0.00000000000E+00 -0.00000000000E+00  0.11368683772E-12  0.17120000000E+03  0.17120000000E+03 0.  0.
         13    1    1    2    0    0 -0.89167379384E+02  0.39708554029E+02  0.49791247074E+03  0.50738982104E+03  0.10566000000E+00 0. -1.
        994    1    1    2    0    0  0.15245106639E+03 -0.13672822651E+03  0.15475044801E+03  0.30853375298E+03  0.17120000000E+03 0.  0.
        998    1    1    2    0    0 -0.63283687004E+02  0.97019672479E+02  0.84733707753E+03  0.85527642599E+03  0.10000000000E+02 0. -1.
</event>
<event>
 5    1  0.5781797E-010  0.3868482E+03  0.7957747E-01  0.3421871E+00
         13   -1    0    0    0    0  0.00000000000E+00  0.00000000000E+00  0.14999999963E+04  0.15000000000E+04  0.10566000000E+00 0. -1.
        994   -1    0    0    0    0 -0.00000000000E+00 -0.00000000000E+00  0.11368683772E-12  0.17120000000E+03  0.17120000000E+03 0.  0.
         13    1    1    2    0    0 -0.73599305564E+02 -0.13867652481E+03  0.83490967820E+03  0.84954235811E+03  0.10566000000E+00 0. -1.
        994    1    1    2    0    0  0.87214079191E+02  0.22960051683E+03  0.23187004323E+03  0.37867644485E+03  0.17120000000E+03 0.  0.
        998    1    1    2    0    0 -0.13614773628E+02 -0.90923992023E+02  0.43322027485E+03  0.44298119703E+03  0.10000000000E+02 0. -1.
</event>
<event>
 5    1  0.5781797E-010  0.3877135E+03  0.7957747E-01  0.3418245E+00
         13   -1    0    0    0    0  0.00000000000E+00  0.00000000000E+00  0.14999999963E+04  0.15000000000E+04  0.10566000000E+00 0. -1.
        994   -1    0    0    0    0 -0.00000000000E+00 -0.00000000000E+00  0.11368683772E-12  0.17120000000E+03  0.17120000000E+03 0.  0.
         13    1    1    2    0    0 -0.28891312701E+02  0.12172652633E+02  0.13356130882E+03  0.13719152962E+03  0.10566000000E+00 0. -1.
        994    1    1    2    0    0  0.19935574023E+03 -0.11430540181E+03  0.19695581206E+03  0.34772038759E+03  0.17120000000E+03 0.  0.
        998    1    1    2    0    0 -0.17046442753E+03  0.10213274918E+03  0.11694828754E+04  0.11862880828E+04  0.10000000000E+02 0. -1.
</event>
<event>
 5    1  0.5781797E-010  0.3874687E+03  0.7957747E-01  0.3419269E+00
         13   -1    0    0    0    0  0.00000000000E+00  0.00000000000E+00  0.14999999963E+04  0.15000000000E+04  0.10566000000E+00 0.  1.
        994   -1    0    0    0    0 -0.00000000000E+00 -0.00000000000E+00  0.11368683772E-12  0.17120000000E+03  0.17120000000E+03 0.  0.
         13    1    1    2    0    0  0.53000027200E+01 -0.10174030196E+02  0.63950868424E+02  0.64971729664E+02  0.10566000000E+00 0.  1.
        994    1    1    2    0    0 -0.17103953127E+02  0.11314607485E+03  0.44356328322E+02  0.21064544460E+03  0.17120000000E+03 0.  0.
        998    1    1    2    0    0  0.11803950407E+02 -0.10297204466E+03  0.13916927995E+04  0.13955828257E+04  0.10000000000E+02 0.  1.
</event>
<event>
 5    1  0.5781797E-010  0.3879119E+03  0.7957747E-01  0.3417416E+00
         13   -1    0    0    0    0  0.00000000000E+00  0.00000000000E+00  0.14999999963E+04  0.15000000000E+04  0.10566000000E+00 0. -1.
        994   -1    0    0    0    0 -0.00000000000E+00 -0.00000000000E+00  0.11368683772E-12  0.17120000000E+03  0.17120000000E+03 0.  0.
         13    1    1    2    0    0  0.12809410913E+02  0.20937236687E+03  0.47400288797E+03  0.51834314694E+03  0.10566000000E+00 0. -1.
        994    1    1    2    0    0 -0.10364450985E+02 -0.34715564988E+03  0.73690616421E+03  0.83244495430E+03  0.17120000000E+03 0.  0.
        998    1    1    2    0    0 -0.24449599283E+01  0.13778328301E+03  0.28909094410E+03  0.32041189876E+03  0.10000000000E+02 0. -1.
</event>
<event>
 5    1  0.5781797E-010  0.3792687E+03  0.7957747E-01  0.3454349E+00
         13   -1    0    0    0    0  0.00000000000E+00  0.00000000000E+00  0.14999999963E+04  0.15000000000E+04  0.10566000000E+00 0. -1.
        994   -1    0    0    0    0 -0.00000000000E+00 -0.00000000000E+00  0.11368683772E-12  0.17120000000E+03  0.17120000000E+03 0.  0.
         13    1    1    2    0    0 -0.23688516918E+02  0.14436716540E+02  0.13771204059E+03  0.14047840370E+03  0.10566000000E+00 0. -1.
        994    1    1    2    0    0 -0.88580515193E+02 -0.44814009452E+02  0.38268113008E+02  0.20156560120E+03  0.17120000000E+03 0.  0.
        998    1    1    2    0    0  0.11226903211E+03  0.30377292912E+02  0.13240198427E+04  0.13291559951E+04  0.10000000000E+02 0.  0.
</event>
<event>
 5    1  0.5781797E-010  0.3837424E+03  0.7957747E-01  0.3435023E+00
         13   -1    0    0    0    0  0.00000000000E+00  0.00000000000E+00  0.14999999963E+04  0.15000000000E+04  0.10566000000E+00 0.  1.
        994   -1    0    0    0    0 -0.00000000000E+00 -0.00000000000E+00  0.11368683772E-12  0.17120000000E+03  0.17120000000E+03 0.  0.
         13    1    1    2    0    0 -0.12246203609E+03  0.65365147522E+02  0.80136652808E+03  0.81330060635E+03  0.10566000000E+00 0.  1.
        994    1    1    2    0    0  0.16365612785E+03 -0.63757164139E+02  0.11182563309E+03  0.26956022773E+03  0.17120000000E+03 0.  0.
        998    1    1    2    0    0 -0.41194091752E+02 -0.16079833833E+01  0.58680783511E+03  0.58833916591E+03  0.10000000000E+02 0.  1.
</event>
<event>
 5    1  0.5781797E-010  0.3877293E+03  0.7957747E-01  0.3418179E+00
         13   -1    0    0    0    0  0.00000000000E+00  0.00000000000E+00  0.14999999963E+04  0.15000000000E+04  0.10566000000E+00 0.  1.
        994   -1    0    0    0    0 -0.00000000000E+00 -0.00000000000E+00  0.11368683772E-12  0.17120000000E+03  0.17120000000E+03 0.  0.
         13    1    1    2    0    0  0.23644324727E+02  0.16702917419E+03  0.82579875189E+03  0.84285312416E+03  0.10566000000E+00 0.  1.
        994    1    1    2    0    0 -0.22239404793E+02 -0.24597247278E+03  0.23362612931E+03  0.38064111284E+03  0.17120000000E+03 0.  0.
        998    1    1    2    0    0 -0.14049199336E+01  0.78943298589E+02  0.44057511508E+03  0.44770576300E+03  0.10000000000E+02 0. -1.
</event>
<event>
 5    1  0.5781797E-010  0.3873008E+03  0.7957747E-01  0.3419972E+00
         13   -1    0    0    0    0  0.00000000000E+00  0.00000000000E+00  0.14999999963E+04  0.15000000000E+04  0.10566000000E+00 0. -1.
        994   -1    0    0    0    0 -0.00000000000E+00 -0.00000000000E+00  0.11368683772E-12  0.17120000000E+03  0.17120000000E+03 0.  0.
         13    1    1    2    0    0 -0.45850403091E+02 -0.12876900097E+03  0.57990957474E+03  0.59580100798E+03  0.10566000000E+00 0. -1.
        994    1    1    2    0    0  0.12309705350E+03  0.26518316947E+03  0.36281189475E+03  0.49640397754E+03  0.17120000000E+03 0.  0.
        998    1    1    2    0    0 -0.77246650409E+02 -0.13641416850E+03  0.55727852679E+03  0.57899501448E+03  0.10000000000E+02 0. -1.
</event>
<event>
 5    1  0.5781797E-010  0.3708343E+03  0.7957747E-01  0.3492065E+00
         13   -1    0    0    0    0  0.00000000000E+00  0.00000000000E+00  0.14999999963E+04  0.15000000000E+04  0.10566000000E+00 0.  1.
        994   -1    0    0    0    0 -0.00000000000E+00 -0.00000000000E+00  0.11368683772E-12  0.17120000000E+03  0.17120000000E+03 0.  0.
         13    1    1    2    0    0 -0.39635386676E+01  0.41011862300E+02  0.10517129740E+03  0.11295439544E+03  0.10566000000E+00 0.  1.
        994    1    1    2    0    0 -0.17795388010E+03 -0.22445760957E+02  0.12950246918E+03  0.27973509818E+03  0.17120000000E+03 0.  0.
        998    1    1    2    0    0  0.18191741877E+03 -0.18566101343E+02  0.12653262297E+04  0.12785105064E+04  0.10000000000E+02 0.  1.
</event>
<event>
 5    1  0.5781797E-010  0.3791052E+03  0.7957747E-01  0.3455064E+00
         13   -1    0    0    0    0  0.00000000000E+00  0.00000000000E+00  0.14999999963E+04  0.15000000000E+04  0.10566000000E+00 0.  1.
        994   -1    0    0    0    0 -0.00000000000E+00 -0.00000000000E+00  0.11368683772E-12  0.17120000000E+03  0.17120000000E+03 0.  0.
         13    1    1    2    0    0  0.11843879782E+03 -0.20501460288E+02  0.70129564356E+03  0.71152206539E+03  0.10566000000E+00 0.  1.
        994    1    1    2    0    0 -0.13794579657E+03  0.10202223901E+03  0.11060822100E+03  0.26642296935E+03  0.17120000000E+03 0.  0.
        998    1    1    2    0    0  0.19506998754E+02 -0.81520778726E+02  0.68809613172E+03  0.69325496525E+03  0.10000000000E+02 0.  1.
</event>
<event>
 5    1  0.5781797E-010  0.3782919E+03  0.7957747E-01  0.3458630E+00
         13   -1    0    0    0    0  0.00000000000E+00  0.00000000000E+00  0.14999999963E+04  0.15000000000E+04  0.10566000000E+00 0. -1.
        994   -1    0    0    0    0 -0.00000000000E+00 -0.00000000000E+00  0.11368683772E-12  0.17120000000E+03  0.17120000000E+03 0.  0.
         13    1    1    2    0    0 -0.17740982835E+02  0.87359754481E+02  0.34422101090E+03  0.35557641188E+03  0.10566000000E+00 0. -1.
        994    1    1    2    0    0  0.10835862193E+03 -0.14174407881E+03  0.12077365247E+03  0.27518846261E+03  0.17120000000E+03 0.  0.
        998    1    1    2    0    0 -0.90617639092E+02  0.54384324330E+02  0.10350053329E+04  0.10404351255E+04  0.10000000000E+02 0. -1.
</event>
<event>
 5    1  0.5781797E-010  0.3849883E+03  0.7957747E-01  0.3429722E+00
         13   -1    0    0    0    0  0.00000000000E+00  0.00000000000E+00  0.14999999963E+04  0.15000000000E+04  0.10566000000E+00 0.  1.
        994   -1    0    0    0    0 -0.00000000000E+00 -0.00000000000E+00  0.11368683772E-12  0.17120000000E+03  0.17120000000E+03 0.  0.
         13    1    1    2    0    0  0.70355104533E+02  0.90453881148E+02  0.60480610916E+03  0.61556655707E+03  0.10566000000E+00 0.  1.
        994    1    1    2    0    0 -0.79962297695E+02 -0.19489923383E+03  0.16455954168E+03  0.31744127513E+03  0.17120000000E+03 0.  0.
        998    1    1    2    0    0  0.96071931615E+01  0.10444535268E+03  0.73063434544E+03  0.73819216780E+03  0.10000000000E+02 0.  1.
</event>
<event>
 5    1  0.5781797E-010  0.3878981E+03  0.7957747E-01  0.3417473E+00
         13   -1    0    0    0    0  0.00000000000E+00  0.00000000000E+00  0.14999999963E+04  0.15000000000E+04  0.10566000000E+00 0.  1.
        994   -1    0    0    0    0 -0.00000000000E+00 -0.00000000000E+00  0.11368683772E-12  0.17120000000E+03  0.17120000000E+03 0.  0.
         13    1    1    2    0    0  0.13928327013E+03  0.16383225899E+03  0.10295671540E+04  0.10517839009E+04  0.10566000000E+00 0.  1.
        994    1    1    2    0    0 -0.16688919844E+03 -0.19725099203E+03  0.26068052550E+03  0.40499843801E+03  0.17120000000E+03 0.  0.
        998    1    1    2    0    0  0.27605928316E+02  0.33418733043E+02  0.20975231674E+03  0.21441766106E+03  0.10000000000E+02 0.  0.
</event>
<event>
 5    1  0.5781797E-010  0.3854252E+03  0.7957747E-01  0.3427871E+00
         13   -1    0    0    0    0  0.00000000000E+00  0.00000000000E+00  0.14999999963E+04  0.15000000000E+04  0.10566000000E+00 0. -1.
        994   -1    0    0    0    0 -0.00000000000E+00 -0.00000000000E+00  0.11368683772E-12  0.17120000000E+03  0.17120000000E+03 0.  0.
         13    1    1    2    0    0 -0.35837028043E+02 -0.56035888644E+02  0.33648418004E+03  0.34299552180E+03  0.10566000000E+00 0. -1.
        994    1    1    2    0    0  0.11708114320E+03  0.12244598024E+03  0.10215469697E+03  0.26162193005E+03  0.17120000000E+03 0.  0.
        998    1    1    2    0    0 -0.81244115161E+02 -0.66410091601E+02  0.10613611193E+04  0.10665825481E+04  0.10000000000E+02 0. -1.
</event>
<event>
 5    1  0.5781797E-010  0.3872411E+03  0.7957747E-01  0.3420222E+00
         13   -1    0    0    0    0  0.00000000000E+00  0.00000000000E+00  0.14999999963E+04  0.15000000000E+04  0.10566000000E+00 0. -1.
        994   -1    0    0    0    0 -0.00000000000E+00 -0.00000000000E+00  0.11368683772E-12  0.17120000000E+03  0.17120000000E+03 0.  0.
         13    1    1    2    0    0  0.11753780762E+02 -0.11592288013E+02  0.69154724668E+02  0.71097957857E+02  0.10566000000E+00 0. -1.
        994    1    1    2    0    0 -0.12093564196E+03  0.11256478842E+03  0.95349903565E+02  0.25631485560E+03  0.17120000000E+03 0.  0.
        998    1    1    2    0    0  0.10918186120E+03 -0.10097250041E+03  0.13354953680E+04  0.13437871865E+04  0.10000000000E+02 0. -1.
</event>
<event>
 5    1  0.5781797E-010  0.3800024E+03  0.7957747E-01  0.3451148E+00
         13   -1    0    0    0    0  0.00000000000E+00  0.00000000000E+00  0.14999999963E+04  0.15000000000E+04  0.10566000000E+00 0. -1.
        994   -1    0    0    0    0 -0.00000000000E+00 -0.00000000000E+00  0.11368683772E-12  0.17120000000E+03  0.17120000000E+03 0.  0.
         13    1    1    2    0    0 -0.49618714850E+01 -0.17397087756E+02  0.76303789336E+02  0.78419119238E+02  0.10566000000E+00 0. -1.
        994    1    1    2    0    0 -0.10174230049E+03 -0.96008204000E+02  0.72593195487E+02  0.23269783621E+03  0.17120000000E+03 0.  0.
        998    1    1    2    0    0  0.10670417198E+03  0.11340529176E+03  0.13511030115E+04  0.13600830446E+04  0.10000000000E+02 0. -1.
</event>
<event>
 5    1  0.5781797E-010  0.3832567E+03  0.7957747E-01  0.3437099E+00
         13   -1    0    0    0    0  0.00000000000E+00  0.00000000000E+00  0.14999999963E+04  0.15000000000E+04  0.10566000000E+00 0.  1.
        994   -1    0    0    0    0 -0.00000000000E+00 -0.00000000000E+00  0.11368683772E-12  0.17120000000E+03  0.17120000000E+03 0.  0.
         13    1    1    2    0    0 -0.10415944167E+02  0.94342857871E+01  0.44047137250E+02  0.46234825675E+02  0.10566000000E+00 0.  1.
        994    1    1    2    0    0  0.58744383176E+02  0.84436051570E+02  0.38315371633E+02  0.20336631251E+03  0.17120000000E+03 0.  0.
        998    1    1    2    0    0 -0.48328439009E+02 -0.93870337357E+02  0.14176374874E+04  0.14215988618E+04  0.10000000000E+02 0.  1.
</event>
<event>
 5    1  0.5781797E-010  0.3872595E+03  0.7957747E-01  0.3420146E+00
         13   -1    0    0    0    0  0.00000000000E+00  0.00000000000E+00  0.14999999963E+04  0.15000000000E+04  0.10566000000E+00 0. -1.
        994   -1    0    0    0    0 -0.00000000000E+00 -0.00000000000E+00  0.11368683772E-12  0.17120000000E+03  0.17120000000E+03 0.  0.
         13    1    1    2    0    0  0.15895041557E+03 -0.75948488282E+02  0.98941377376E+03  0.10049741461E+04  0.10566000000E+00 0. -1.
        994    1    1    2    0    0 -0.20737018857E+03  0.82045844612E+02  0.18432432211E+03  0.33618270545E+03  0.17120000000E+03 0.  0.
        998    1    1    2    0    0  0.48419772994E+02 -0.60973563294E+01  0.32626190041E+03  0.33004314844E+03  0.10000000000E+02 0. -1.
</event>
<event>
 5    1  0.5781797E-010  0.3859316E+03  0.7957747E-01  0.3425731E+00
         13   -1    0    0    0    0  0.00000000000E+00  0.00000000000E+00  0.14999999963E+04  0.15000000000E+04  0.10566000000E+00 0. -1.
        994   -1    0    0    0    0 -0.00000000000E+00 -0.00000000000E+00  0.11368683772E-12  0.17120000000E+03  0.17120000000E+03 0.  0.
         13    1    1    2    0    0  0.11202080003E+02 -0.77355822094E+01  0.74449125214E+02  0.75683612742E+02  0.10566000000E+00 0. -1.
        994    1    1    2    0    0 -0.13852843510E+03 -0.89344749202E+02  0.95991103374E+02  0.25631297952E+03  0.17120000000E+03 0.  0.
        998    1    1    2    0    0  0.12732635510E+03  0.97080331411E+02  0.13295597677E+04  0.13392034077E+04  0.10000000000E+02 0. -1.
</event>
<event>
 5    1  0.5781797E-010  0.3845406E+03  0.7957747E-01  0.3431623E+00
         13   -1    0    0    0    0  0.00000000000E+00  0.00000000000E+00  0.14999999963E+04  0.15000000000E+04  0.10566000000E+00 0. -1.
        994   -1    0    0    0    0 -0.00000000000E+00 -0.00000000000E+00  0.11368683772E-12  0.17120000000E+03  0.17120000000E+03 0.  0.
         13    1    1    2    0    0  0.76902725457E+01  0.13521165352E+02  0.39649843300E+02  0.42592058439E+02  0.10566000000E+00 0. -1.
        994    1    1    2    0    0 -0.58190667906E+02 -0.10245617864E+03  0.49007112759E+02  0.21352882586E+03  0.17120000000E+03 0.  0.
        998    1    1    2    0    0  0.50500395361E+02  0.88935013283E+02  0.14113430402E+04  0.14150791157E+04  0.10000000000E+02 0. -1.
</event>
<event>
 5    1  0.8505355E-010  0.3854298E+03  0.7957747E-01  0.3427852E+00
         13   -1    0    0    0    0  0.00000000000E+00  0.00000000000E+00  0.14999999963E+04  0.15000000000E+04  0.10566000000E+00 0.  1.
        994   -1    0    0    0    0 -0.00000000000E+00 -0.00000000000E+00  0.11368683772E-12  0.17120000000E+03  0.17120000000E+03 0.  0.
         13    1    1    2    0    0 -0.15294572618E+02 -0.62618791356E+01  0.97842109679E+02  0.99228144557E+02  0.10566000000E+00 0.  1.
        994    1    1    2    0    0 -0.86902319091E+01  0.66048568590E+02  0.16129564556E+02  0.18441132394E+03  0.17120000000E+03 0.  0.
        998    1    1    2    0    0  0.23984804527E+02 -0.59786689455E+02  0.13860283220E+04  0.13875605315E+04  0.10000000000E+02 0.  1.
</event>
<event>
 5    1  0.5781797E-010  0.3869601E+03  0.7957747E-01  0.3421401E+00
         13   -1    0    0    0    0  0.00000000000E+00  0.00000000000E+00  0.14999999963E+04  0.15000000000E+04  0.10566000000E+00 0. -1.
        994   -1    0    0    0    0 -0.00000000000E+00 -0.00000000000E+00  0.11368683772E-12  0.17120000000E+03  0.17120000000E+03 0.  0.
         13    1    1    2    0    0 -0.13100254083E+03 -0.37869243630E+02  0.75115265006E+03  0.76343045536E+03  0.10566000000E+00 0. -1.
        994    1    1    2    0    0  0.19835469281E+03  0.57590152546E+02  0.15525501040E+03  0.30995930069E+03  0.17120000000E+03 0.  0.
        998    1    1    2    0    0 -0.67352151980E+02 -0.19720908917E+02  0.59359233582E+03  0.59781024395E+03  0.10000000000E+02 0. -1.
</event>
<event>
 5    1  0.5781797E-010  0.3732329E+03  0.7957747E-01  0.3481164E+00
         13   -1    0    0    0    0  0.00000000000E+00  0.00000000000E+00  0.14999999963E+04  0.15000000000E+04  0.10566000000E+00 0. -1.
        994   -1    0    0    0    0 -0.00000000000E+00 -0.00000000000E+00  0.11368683772E-12  0.17120000000E+03  0.17120000000E+03 0.  0.
         13    1    1    2    0    0  0.24494727632E+02 -0.13602138919E+03  0.13503701843E+03  0.19322737257E+03  0.10566000000E+00 0. -1.
        994    1    1    2    0    0 -0.13588073488E+03  0.29056021146E+03  0.73921954741E+03  0.82379839152E+03  0.17120000000E+03 0.  0.
        998    1    1    2    0    0  0.11138600725E+03 -0.15453882227E+03  0.62574343043E+03  0.65417423591E+03  0.10000000000E+02 0. -1.
</event>
<event>
 5    1  0.6684146E-010  0.3874484E+03  0.7957747E-01  0.3419354E+00
         13   -1    0    0    0    0  0.00000000000E+00  0.00000000000E+00  0.14999999963E+04  0.15000000000E+04  0.10566000000E+00 0. -1.
        994   -1    0    0    0    0 -0.00000000000E+00 -0.00000000000E+00  0.11368683772E-12  0.17120000000E+03  0.17120000000E+03 0.  0.
         13    1    1    2    0    0  0.13887962534E+03  0.17602590427E+03  0.11252117433E+04  0.11473334946E+04  0.10566000000E+00 0. -1.
        994    1    1    2    0    0 -0.15346710727E+03 -0.19221550013E+03  0.23175821231E+03  0.37884067955E+03  0.17120000000E+03 0.  0.
        998    1    1    2    0    0  0.14587481938E+02  0.16189595868E+02  0.14303004062E+03  0.14502582585E+03  0.10000000000E+02 0.  0.
</event>
<event>
 5    1  0.5781797E-010  0.3862195E+03  0.7957747E-01  0.3424517E+00
         13   -1    0    0    0    0  0.00000000000E+00  0.00000000000E+00  0.14999999963E+04  0.15000000000E+04  0.10566000000E+00 0.  1.
        994   -1    0    0    0    0 -0.00000000000E+00 -0.00000000000E+00  0.11368683772E-12  0.17120000000E+03  0.17120000000E+03 0.  0.
         13    1    1    2    0    0 -0.58862909971E+02  0.53721152754E+02  0.34583911339E+03  0.35490211036E+03  0.10566000000E+00 0.  1.
        994    1    1    2    0    0  0.13048160631E+03 -0.19220244516E+03  0.20405413438E+03  0.35343282143E+03  0.17120000000E+03 0.  0.
        998    1    1    2    0    0 -0.71618696336E+02  0.13848129240E+03  0.95010674851E+03  0.96286506821E+03  0.10000000000E+02 0. -1.
</event>
<event>
 5    1  0.5781797E-010  0.3792310E+03  0.7957747E-01  0.3454514E+00
         13   -1    0    0    0    0  0.00000000000E+00  0.00000000000E+00  0.14999999963E+04  0.15000000000E+04  0.10566000000E+00 0.  1.
        994   -1    0    0    0    0 -0.00000000000E+00 -0.00000000000E+00  0.11368683772E-12  0.17120000000E+03  0.17120000000E+03 0.  0.
         13    1    1    2    0    0 -0.17694339265E+02  0.25861809819E+02  0.51109650715E+02  0.59951066791E+02  0.10566000000E+00 0.  1.
        994    1    1    2    0    0 -0.49915617829E+01 -0.24393577881E+03  0.24021595623E+03  0.38280899349E+03  0.17120000000E+03 0.  0.
        998    1    1    2    0    0  0.22685901048E+02  0.21807396899E+03  0.12086743893E+04  0.12284399397E+04  0.10000000000E+02 0.  1.
</event>
<event>
 5    1  0.5781797E-010  0.3879988E+03  0.7957747E-01  0.3417053E+00
         13   -1    0    0    0    0  0.00000000000E+00  0.00000000000E+00  0.14999999963E+04  0.15000000000E+04  0.10566000000E+00 0.  1.
        994   -1    0    0    0    0 -0.00000000000E+00 -0.00000000000E+00  0.11368683772E-12  0.17120000000E+03  0.17120000000E+03 0.  0.
         13    1    1    2    0    0 -0.18257878440E+02  0.65565529538E+02  0.34453900980E+03  0.35119699490E+03  0.10566000000E+00 0.  1.
        994    1    1    2    0    0  0.71284427169E+02 -0.21839016759E+03  0.19643472223E+03  0.34737843190E+03  0.17120000000E+03 0.  0.
        998    1    1    2    0    0 -0.53026548729E+02  0.15282463805E+03  0.95902626425E+03  0.97262457319E+03  0.10000000000E+02 0.  1.
</event>
<event>
 5    1  0.5781797E-010  0.3719806E+03  0.7957747E-01  0.3486838E+00
         13   -1    0    0    0    0  0.00000000000E+00  0.00000000000E+00  0.14999999963E+04  0.15000000000E+04  0.10566000000E+00 0. -1.
        994   -1    0    0    0    0 -0.00000000000E+00 -0.00000000000E+00  0.11368683772E-12  0.17120000000E+03  0.17120000000E+03 0.  0.
         13    1    1    2    0    0 -0.14268240880E+03  0.76173754574E+02  0.96510265418E+03  0.97856213648E+03  0.10566000000E+00 0. -1.
        994    1    1    2    0    0  0.15010806222E+03 -0.24343119510E+02  0.92374558368E+02  0.24691601172E+03  0.17120000000E+03 0.  0.
        998    1    1    2    0    0 -0.74256534181E+01 -0.51830635064E+02  0.44252278373E+03  0.44572185180E+03  0.10000000000E+02 0.  1.
</event>
<event>
 5    1  0.5781797E-010  0.3818150E+03  0.7957747E-01  0.3443293E+00
         13   -1    0    0    0    0  0.00000000000E+00  0.00000000000E+00  0.14999999963E+04  0.15000000000E+04  0.10566000000E+00 0. -1.
        994   -1    0    0    0    0 -0.00000000000E+00 -0.00000000000E+00  0.11368683772E-12  0.17120000000E+03  0.17120000000E+03 0.  0.
         13    1    1    2    0    0 -0.62447808048E+02  0.21083760443E+02  0.39414197818E+03  0.39961501950E+03  0.10566000000E+00 0. -1.
        994    1    1    2    0    0 -0.99407764354E+02  0.72822197939E+02  0.75062379846E+02  0.22389456669E+03  0.17120000000E+03 0.  0.
        998    1    1    2    0    0  0.16185557240E+03 -0.93905958382E+02  0.10307956383E+04  0.10476904138E+04  0.10000000000E+02 0. -1.
</event>
<event>
 5    1  0.5781797E-010  0.3749001E+03  0.7957747E-01  0.3473669E+00
         13   -1    0    0    0    0  0.00000000000E+00  0.00000000000E+00  0.14999999963E+04  0.15000000000E+04  0.10566000000E+00 0. -1.
        994   -1    0    0    0    0 -0.00000000000E+00 -0.00000000000E+00  0.11368683772E-12  0.17120000000E+03  0.17120000000E+03 0.  0.
         13    1    1    2    0    0  0.23414322105E+02  0.84204667060E+02  0.44709013860E+03  0.45555269688E+03  0.10566000000E+00 0. -1.
        994    1    1    2    0    0  0.74869338498E+02 -0.12395772225E+03  0.81755562738E+02  0.23867204862E+03  0.17120000000E+03 0.  0.
        998    1    1    2    0    0 -0.98283660602E+02  0.39753055187E+02  0.97115429494E+03  0.97697525451E+03  0.10000000000E+02 0.  1.
</event>
<event>
 5    1  0.1384586E-009  0.3869474E+03  0.7957747E-01  0.3421455E+00
         13   -1    0    0    0    0  0.00000000000E+00  0.00000000000E+00  0.14999999963E+04  0.15000000000E+04  0.10566000000E+00 0.  1.
        994   -1    0    0    0    0 -0.00000000000E+00 -0.00000000000E+00  0.11368683772E-12  0.17120000000E+03  0.17120000000E+03 0.  0.
         13    1    1    2    0    0 -0.86234804852E+01  0.77265084625E+01  0.67999759021E+02  0.68978560000E+02  0.10566000000E+00 0.  1.
        994    1    1    2    0    0  0.66380410172E+02 -0.10936960376E+02  0.15599099317E+02  0.18460430075E+03  0.17120000000E+03 0.  0.
        998    1    1    2    0    0 -0.57756929687E+02  0.32104519136E+01  0.14164011379E+04  0.14176171392E+04  0.10000000000E+02 0.  1.
</event>
<event>
 5    1  0.5781797E-010  0.3860862E+03  0.7957747E-01  0.3425078E+00
         13   -1    0    0    0    0  0.00000000000E+00  0.00000000000E+00  0.14999999963E+04  0.15000000000E+04  0.10566000000E+00 0. -1.
        994   -1    0    0    0    0 -0.00000000000E+00 -0.00000000000E+00  0.11368683772E-12  0.17120000000E+03  0.17120000000E+03 0.  0.
         13    1    1    2    0    0  0.21212690900E+02  0.16426309548E+03  0.73548384601E+03  0.75390240860E+03  0.10566000000E+00 0. -1.
        994    1    1    2    0    0 -0.74797727042E+02 -0.25229395368E+03  0.27625439239E+03  0.41817803428E+03  0.17120000000E+03 0.  0.
        998    1    1    2    0    0  0.53585036142E+02  0.88030858205E+02  0.48826175788E+03  0.49911955712E+03  0.10000000000E+02 0. -1.
</event>
<event>
 5    1  0.5781797E-010  0.3812236E+03  0.7957747E-01  0.3445848E+00
         13   -1    0    0    0    0  0.00000000000E+00  0.00000000000E+00  0.14999999963E+04  0.15000000000E+04  0.10566000000E+00 0.  1.
        994   -1    0    0    0    0 -0.00000000000E+00 -0.00000000000E+00  0.11368683772E-12  0.17120000000E+03  0.17120000000E+03 0.  0.
         13    1    1    2    0    0  0.21182390729E+02 -0.97022135809E+01  0.72804805265E+02  0.76441987540E+02  0.10566000000E+00 0.  1.
        994    1    1    2    0    0 -0.83874610134E+02 -0.10117012385E+03  0.63332045149E+02  0.22492383628E+03  0.17120000000E+03 0.  0.
        998    1    1    2    0    0  0.62692219405E+02  0.11087233743E+03  0.13638631459E+04  0.13698341762E+04  0.10000000000E+02 0.  1.
</event>
<event>
 5    1  0.5781797E-010  0.3875886E+03  0.7957747E-01  0.3418767E+00
         13   -1    0    0    0    0  0.00000000000E+00  0.00000000000E+00  0.14999999963E+04  0.15000000000E+04  0.10566000000E+00 0.  1.
        994   -1    0    0    0    0 -0.00000000000E+00 -0.00000000000E+00  0.11368683772E-12  0.17120000000E+03  0.17120000000E+03 0.  0.
         13    1    1    2    0    0  0.31459248517E+02  0.10966479358E+00  0.13718035744E+03  0.14074145791E+03  0.10566000000E+00 0.  1.
        994    1    1    2    0    0 -0.21450431174E+03  0.13805606174E+02  0.16908119799E+03  0.32264622426E+03  0.17120000000E+03 0.  0.
        998    1    1    2    0    0  0.18304506322E+03 -0.13915270967E+02  0.11937384409E+04  0.12078123178E+04  0.10000000000E+02 0.  1.
</event>
<event>
 5    1  0.5781797E-010  0.3689118E+03  0.7957747E-01  0.3500907E+00
         13   -1    0    0    0    0  0.00000000000E+00  0.00000000000E+00  0.14999999963E+04  0.15000000000E+04  0.10566000000E+00 0.  1.
        994   -1    0    0    0    0 -0.00000000000E+00 -0.00000000000E+00  0.11368683772E-12  0.17120000000E+03  0.17120000000E+03 0.  0.
         13    1    1    2    0    0 -0.93325921211E+02  0.11425643838E+03  0.61711481608E+03  0.63450371841E+03  0.10566000000E+00 0.  1.
        994    1    1    2    0    0  0.23027656181E+02 -0.20842070298E+03  0.18255308829E+03  0.32650349527E+03  0.17120000000E+03 0.  0.
        998    1    1    2    0    0  0.70298265029E+02  0.94164264602E+02  0.70033209190E+03  0.71019278632E+03  0.10000000000E+02 0.  1.
</event>
<event>
 5    1  0.5781797E-010  0.3802389E+03  0.7957747E-01  0.3450119E+00
         13   -1    0    0    0    0  0.00000000000E+00  0.00000000000E+00  0.14999999963E+04  0.15000000000E+04  0.10566000000E+00 0.  1.
        994   -1    0    0    0    0 -0.00000000000E+00 -0.00000000000E+00  0.11368683772E-12  0.17120000000E+03  0.17120000000E+03 0.  0.
         13    1    1    2    0    0 -0.76118621771E+02  0.45507731183E+02  0.44765371769E+03  0.45635387618E+03  0.10566000000E+00 0.  1.
        994    1    1    2    0    0  0.97940374852E+02 -0.21651298796E+03  0.22407933962E+03  0.36876982174E+03  0.17120000000E+03 0.  0.
        998    1    1    2    0    0 -0.21821753081E+02  0.17100525678E+03  0.82826693897E+03  0.84607630208E+03  0.10000000000E+02 0.  1.
</event>
<event>
 5    1  0.5781797E-010  0.3877354E+03  0.7957747E-01  0.3418153E+00
         13   -1    0    0    0    0  0.00000000000E+00  0.00000000000E+00  0.14999999963E+04  0.15000000000E+04  0.10566000000E+00 0.  1.
        994   -1    0    0    0    0 -0.00000000000E+00 -0.00000000000E+00  0.11368683772E-12  0.17120000000E+03  0.17120000000E+03 0.  0.
         13    1    1    2    0    0 -0.84393398012E+02 -0.16717276733E+03  0.94229839215E+03  0.96072641827E+03  0.10566000000E+00 0.  1.
        994    1    1    2    0    0  0.11006573678E+03  0.21479467496E+03  0.22104972370E+03  0.36935570817E+03  0.17120000000E+03 0.  0.
        998    1    1    2    0    0 -0.25672338773E+02 -0.47621907639E+02  0.33665188043E+03  0.34111787356E+03  0.10000000000E+02 0. -1.
</event>
<event>
 5    1  0.5781797E-010  0.3861447E+03  0.7957747E-01  0.3424832E+00
         13   -1    0    0    0    0  0.00000000000E+00  0.00000000000E+00  0.14999999963E+04  0.15000000000E+04  0.10566000000E+00 0. -1.
        994   -1    0    0    0    0 -0.00000000000E+00 -0.00000000000E+00  0.11368683772E-12  0.17120000000E+03  0.17120000000E+03 0.  0.
         13    1    1    2    0    0  0.20179716440E+03 -0.24115496788E+02  0.88265359690E+03  0.90574888133E+03  0.10566000000E+00 0. -1.
        994    1    1    2    0    0 -0.25231258475E+03  0.23517194993E+02  0.25136536058E+03  0.39586447603E+03  0.17120000000E+03 0.  0.
        998    1    1    2    0    0  0.50515420353E+02  0.59830179547E+00  0.36598103879E+03  0.36958664264E+03  0.10000000000E+02 0. -1.
</event>
<event>
 5    1  0.5781797E-010  0.3860942E+03  0.7957747E-01  0.3425045E+00
         13   -1    0    0    0    0  0.00000000000E+00  0.00000000000E+00  0.14999999963E+04  0.15000000000E+04  0.10566000000E+00 0. -1.
        994   -1    0    0    0    0 -0.00000000000E+00 -0.00000000000E+00  0.11368683772E-12  0.17120000000E+03  0.17120000000E+03 0.  0.
         13    1    1    2    0    0  0.12102721701E+03  0.44644227719E+02  0.73556412647E+03  0.74678999032E+03  0.10566000000E+00 0. -1.
        994    1    1    2    0    0 -0.17376643900E+03 -0.79494434638E+02  0.13159556704E+03  0.28834176549E+03  0.17120000000E+03 0.  0.
        998    1    1    2    0    0  0.52739221990E+02  0.34850206919E+02  0.63284030277E+03  0.63606824419E+03  0.10000000000E+02 0. -1.
</event>
<event>
 5    1  0.5781797E-010  0.3860939E+03  0.7957747E-01  0.3425046E+00
         13   -1    0    0    0    0  0.00000000000E+00  0.00000000000E+00  0.14999999963E+04  0.15000000000E+04  0.10566000000E+00 0.  1.
        994   -1    0    0    0    0 -0.00000000000E+00 -0.00000000000E+00  0.11368683772E-12  0.17120000000E+03  0.17120000000E+03 0.  0.
         13    1    1    2    0    0 -0.68724853505E+02 -0.71766578007E+02  0.56777265888E+03  0.57640207368E+03  0.10566000000E+00 0.  1.
        994    1    1    2    0    0  0.14159935594E+03  0.11293890919E+03  0.11717791089E+03  0.27540093975E+03  0.17120000000E+03 0.  0.
        998    1    1    2    0    0 -0.72874502432E+02 -0.41172331186E+02  0.81504942651E+03  0.81939698658E+03  0.10000000000E+02 0.  1.
</event>
<event>
 5    1  0.5781797E-010  0.3878451E+03  0.7957747E-01  0.3417695E+00
         13   -1    0    0    0    0  0.00000000000E+00  0.00000000000E+00  0.14999999963E+04  0.15000000000E+04  0.10566000000E+00 0.  1.
        994   -1    0    0    0    0 -0.00000000000E+00 -0.00000000000E+00  0.11368683772E-12  0.17120000000E+03  0.17120000000E+03 0.  0.
         13    1    1    2    0    0 -0.72984492503E+02  0.22392712096E+03  0.76104528019E+03  0.79665552236E+03  0.10566000000E+00 0.  1.
        994    1    1    2    0    0  0.10417745324E+03 -0.29743221476E+03  0.45471276714E+03  0.57913038665E+03  0.17120000000E+03 0.  0.
        998    1    1    2    0    0 -0.31192960738E+02  0.73505093798E+02  0.28424194895E+03  0.29541409099E+03  0.10000000000E+02 0.  0.
</event>
<event>
 5    1  0.5781797E-010  0.3865308E+03  0.7957747E-01  0.3423206E+00
         13   -1    0    0    0    0  0.00000000000E+00  0.00000000000E+00  0.14999999963E+04  0.15000000000E+04  0.10566000000E+00 0.  1.
        994   -1    0    0    0    0 -0.00000000000E+00 -0.00000000000E+00  0.11368683772E-12  0.17120000000E+03  0.17120000000E+03 0.  0.
         13    1    1    2    0    0 -0.19229840114E+02 -0.41513247348E+02  0.25445188275E+03  0.25853221898E+03  0.10566000000E+00 0.  1.
        994    1    1    2    0    0  0.76750821368E+02  0.12870972193E+03  0.78160267067E+02  0.24057295868E+03  0.17120000000E+03 0.  0.
        998    1    1    2    0    0 -0.57520981254E+02 -0.87196474587E+02  0.11673878465E+04  0.11720948223E+04  0.10000000000E+02 0.  1.
</event>
<event>
 5    1  0.5781797E-010  0.3859516E+03  0.7957747E-01  0.3425646E+00
         13   -1    0    0    0    0  0.00000000000E+00  0.00000000000E+00  0.14999999963E+04  0.15000000000E+04  0.10566000000E+00 0. -1.
        994   -1    0    0    0    0 -0.00000000000E+00 -0.00000000000E+00  0.11368683772E-12  0.17120000000E+03  0.17120000000E+03 0.  0.
         13    1    1    2    0    0  0.70473586708E+01  0.18623090236E+02  0.94575052820E+02  0.96648520599E+02  0.10566000000E+00 0. -1.
        994    1    1    2    0    0 -0.31782013656E+02 -0.81229450248E+02  0.26512253394E+02  0.19396045875E+03  0.17120000000E+03 0.  0.
        998    1    1    2    0    0  0.24734654985E+02  0.62606360012E+02  0.13789126901E+04  0.13805910206E+04  0.10000000000E+02 0. -1.
</event>
<event>
 5    1  0.5781797E-010  0.3827588E+03  0.7957747E-01  0.3439233E+00
         13   -1    0    0    0    0  0.00000000000E+00  0.00000000000E+00  0.14999999963E+04  0.15000000000E+04  0.10566000000E+00 0.  1.
        994   -1    0    0    0    0 -0.00000000000E+00 -0.00000000000E+00  0.11368683772E-12  0.17120000000E+03  0.17120000000E+03 0.  0.
         13    1    1    2    0    0  0.56934915360E+00  0.21864486179E+02  0.61000859909E+02  0.64803518330E+02  0.10566000000E+00 0.  1.
        994    1    1    2    0    0 -0.85171741880E+02 -0.88480936048E+02  0.54432818899E+02  0.21761312789E+03  0.17120000000E+03 0.  0.
        998    1    1    2    0    0  0.84602392727E+02  0.66616449869E+02  0.13845663175E+04  0.13887833538E+04  0.10000000000E+02 0.  1.
</event>
<event>
 5    1  0.5781797E-010  0.3845926E+03  0.7957747E-01  0.3431402E+00
         13   -1    0    0    0    0  0.00000000000E+00  0.00000000000E+00  0.14999999963E+04  0.15000000000E+04  0.10566000000E+00 0. -1.
        994   -1    0    0    0    0 -0.00000000000E+00 -0.00000000000E+00  0.11368683772E-12  0.17120000000E+03  0.17120000000E+03 0.  0.
         13    1    1    2    0    0 -0.10171882483E+02 -0.33379161667E+01  0.33511046031E+02  0.35179685156E+02  0.10566000000E+00 0. -1.
        994    1    1    2    0    0  0.23031695884E+02 -0.89165172380E+02  0.30277837778E+02  0.19674113561E+03  0.17120000000E+03 0.  0.
        998    1    1    2    0    0 -0.12859813401E+02  0.92503088547E+02  0.14362111125E+04  0.14392791792E+04  0.10000000000E+02 0. -1.
</event>
<event>
 5    1  0.5781797E-010  0.3840962E+03  0.7957747E-01  0.3433514E+00
         13   -1    0    0    0    0  0.00000000000E+00  0.00000000000E+00  0.14999999963E+04  0.15000000000E+04  0.10566000000E+00 0.  1.
        994   -1    0    0    0    0 -0.00000000000E+00 -0.00000000000E+00  0.11368683772E-12  0.17120000000E+03  0.17120000000E+03 0.  0.
         13    1    1    2    0    0  0.25731518581E+03 -0.73834699823E+01  0.85022155180E+03  0.88833682733E+03  0.10566000000E+00 0.  1.
        994    1    1    2    0    0 -0.29670721929E+03 -0.64822080913E+01  0.38814377219E+03  0.51772794100E+03  0.17120000000E+03 0.  0.
        998    1    1    2    0    0  0.39392033482E+02  0.13865678074E+02  0.26163467228E+03  0.26513523167E+03  0.10000000000E+02 0.  1.
</event>
<event>
 5    1  0.5781797E-010  0.3874518E+03  0.7957747E-01  0.3419340E+00
         13   -1    0    0    0    0  0.00000000000E+00  0.00000000000E+00  0.14999999963E+04  0.15000000000E+04  0.10566000000E+00 0. -1.
        994   -1    0    0    0    0 -0.00000000000E+00 -0.00000000000E+00  0.11368683772E-12  0.17120000000E+03  0.17120000000E+03 0.  0.
         13    1    1    2    0    0  0.22285453881E+03  0.22060005113E+03  0.61920909534E+03  0.69408100604E+03  0.10566000000E+00 0. -1.
        994    1    1    2    0    0 -0.25032228729E+03 -0.24087324471E+03  0.81444886833E+03  0.90184120922E+03  0.17120000000E+03 0.  0.
        998    1    1    2    0    0  0.27467748481E+02  0.20273193573E+02  0.66342032613E+02  0.75277784741E+02  0.10000000000E+02 0.  0.
</event>
<event>
 5    1  0.5781797E-010  0.2942422E+03  0.7957747E-01  0.3938001E+00
         13   -1    0    0    0    0  0.00000000000E+00  0.00000000000E+00  0.14999999963E+04  0.15000000000E+04  0.10566000000E+00 0.  1.
        994   -1    0    0    0    0 -0.00000000000E+00 -0.00000000000E+00  0.11368683772E-12  0.17120000000E+03  0.17120000000E+03 0.  0.
         13    1    1    2    0    0  0.12441120051E+03 -0.22560421868E+02  0.75869768738E+03  0.76916143393E+03  0.10566000000E+00 0.  1.
        994    1    1    2    0    0 -0.54511949770E+02  0.90363381225E+02  0.54599213457E+02  0.20839291601E+03  0.17120000000E+03 0.  0.
        998    1    1    2    0    0 -0.69899250743E+02 -0.67802959357E+02  0.68670309545E+03  0.69364565006E+03  0.10000000000E+02 0.  1.
</event>
<event>
 5    1  0.5781797E-010  0.3435510E+03  0.7957747E-01  0.3627038E+00
         13   -1    0    0    0    0  0.00000000000E+00  0.00000000000E+00  0.14999999963E+04  0.15000000000E+04  0.10566000000E+00 0. -1.
        994   -1    0    0    0    0 -0.00000000000E+00 -0.00000000000E+00  0.11368683772E-12  0.17120000000E+03  0.17120000000E+03 0.  0.
         13    1    1    2    0    0  0.60940511195E+02  0.22267904938E+03  0.11991934245E+04  0.12212143897E+04  0.10566000000E+00 0. -1.
        994    1    1    2    0    0 -0.18567743217E+02 -0.14510836483E+03  0.13701417370E+03  0.26359727318E+03  0.17120000000E+03 0.  0.
        998    1    1    2    0    0 -0.42372767977E+02 -0.77570684550E+02  0.16379239805E+03  0.18638833715E+03  0.10000000000E+02 0. -1.
</event>
<event>
 5    1  0.5781797E-010  0.3733445E+03  0.7957747E-01  0.3480660E+00
         13   -1    0    0    0    0  0.00000000000E+00  0.00000000000E+00  0.14999999963E+04  0.15000000000E+04  0.10566000000E+00 0. -1.
        994   -1    0    0    0    0 -0.00000000000E+00 -0.00000000000E+00  0.11368683772E-12  0.17120000000E+03  0.17120000000E+03 0.  0.
         13    1    1    2    0    0  0.11469597717E+03 -0.71258600826E+02  0.36764001971E+03  0.39165309985E+03  0.10566000000E+00 0. -1.
        994    1    1    2    0    0 -0.86461982949E+02  0.23523455117E+03  0.28635357811E+03  0.41727542494E+03  0.17120000000E+03 0.  0.
        998    1    1    2    0    0 -0.28233994216E+02 -0.16397595035E+03  0.84600639846E+03  0.86227147521E+03  0.10000000000E+02 0. -1.
</event>
<event>
 5    1  0.5781797E-010  0.3844376E+03  0.7957747E-01  0.3432061E+00
         13   -1    0    0    0    0  0.00000000000E+00  0.00000000000E+00  0.14999999963E+04  0.15000000000E+04  0.10566000000E+00 0. -1.
        994   -1    0    0    0    0 -0.00000000000E+00 -0.00000000000E+00  0.11368683772E-12  0.17120000000E+03  0.17120000000E+03 0.  0.
         13    1    1    2    0    0 -0.97454087859E+01 -0.34738680403E+01  0.35614030440E+02  0.37086535020E+02  0.10566000000E+00 0. -1.
        994    1    1    2    0    0 -0.41560662962E+02 -0.27640671895E+02  0.10161109778E+02  0.17861686259E+03  0.17120000000E+03 0.  0.
        998    1    1    2    0    0  0.51306071748E+02  0.31114539935E+02  0.14542248561E+04  0.14554966024E+04  0.10000000000E+02 0. -1.
</event>
<event>
 5    1  0.5781797E-010  0.3877145E+03  0.7957747E-01  0.3418241E+00
         13   -1    0    0    0    0  0.00000000000E+00  0.00000000000E+00  0.14999999963E+04  0.15000000000E+04  0.10566000000E+00 0.  1.
        994   -1    0    0    0    0 -0.00000000000E+00 -0.00000000000E+00  0.11368683772E-12  0.17120000000E+03  0.17120000000E+03 0.  0.
         13    1    1    2    0    0  0.20315373040E+03  0.17974655687E+03  0.42750473230E+03  0.50630086923E+03  0.10566000000E+00 0.  1.
        994    1    1    2    0    0 -0.25351904743E+03 -0.22225460923E+03  0.98366766676E+03  0.10538408501E+04  0.17120000000E+03 0.  0.
        998    1    1    2    0    0  0.50365317033E+02  0.42508052361E+02  0.88827597212E+02  0.11105828065E+03  0.10000000000E+02 0.  0.
</event>
<event>
 5    1  0.5781797E-010  0.3184624E+03  0.7957747E-01  0.3772437E+00
         13   -1    0    0    0    0  0.00000000000E+00  0.00000000000E+00  0.14999999963E+04  0.15000000000E+04  0.10566000000E+00 0. -1.
        994   -1    0    0    0    0 -0.00000000000E+00 -0.00000000000E+00  0.11368683772E-12  0.17120000000E+03  0.17120000000E+03 0.  0.
         13    1    1    2    0    0  0.20240996874E+03  0.11033709204E+03  0.11070443458E+04  0.11307923170E+04  0.10566000000E+00 0. -1.
        994    1    1    2    0    0 -0.20553100493E+03 -0.15643680550E+02  0.33467437132E+03  0.42872379634E+03  0.17120000000E+03 0.  0.
        998    1    1    2    0    0  0.31210361977E+01 -0.94693411494E+02  0.58281279112E+02  0.11168388667E+03  0.10000000000E+02 0.  1.
</event>
<event>
 5    1  0.5781797E-010  0.3817591E+03  0.7957747E-01  0.3443534E+00
         13   -1    0    0    0    0  0.00000000000E+00  0.00000000000E+00  0.14999999963E+04  0.15000000000E+04  0.10566000000E+00 0.  1.
        994   -1    0    0    0    0 -0.00000000000E+00 -0.00000000000E+00  0.11368683772E-12  0.17120000000E+03  0.17120000000E+03 0.  0.
         13    1    1    2    0    0  0.14531525285E+02 -0.18927308673E+02  0.11823130337E+03  0.12061534107E+03  0.10566000000E+00 0.  1.
        994    1    1    2    0    0  0.59449170670E+02  0.90231836272E+01  0.15359223860E+02  0.18210153073E+03  0.17120000000E+03 0.  0.
        998    1    1    2    0    0 -0.73980695956E+02  0.99041250455E+01  0.13664094691E+04  0.13684831282E+04  0.10000000000E+02 0.  1.
</event>
<event>
 5    1  0.1451987E-009  0.3864990E+03  0.7957747E-01  0.3423339E+00
         13   -1    0    0    0    0  0.00000000000E+00  0.00000000000E+00  0.14999999963E+04  0.15000000000E+04  0.10566000000E+00 0.  1.
        994   -1    0    0    0    0 -0.00000000000E+00 -0.00000000000E+00  0.11368683772E-12  0.17120000000E+03  0.17120000000E+03 0.  0.
         13    1    1    2    0    0  0.10862628861E+02  0.44111149860E+01  0.51768710382E+02  0.53079800111E+02  0.10566000000E+00 0.  1.
        994    1    1    2    0    0 -0.66863742136E+02 -0.16588690700E+02  0.16576615878E+02  0.18528402215E+03  0.17120000000E+03 0.  0.
        998    1    1    2    0    0  0.56001113276E+02  0.12177575714E+02  0.14316546700E+04  0.14328361777E+04  0.10000000000E+02 0.  1.
</event>
<event>
 5    1  0.5781797E-010  0.3861375E+03  0.7957747E-01  0.3424862E+00
         13   -1    0    0    0    0  0.00000000000E+00  0.00000000000E+00  0.14999999963E+04  0.15000000000E+04  0.10566000000E+00 0.  1.
        994   -1    0    0    0    0 -0.00000000000E+00 -0.00000000000E+00  0.11368683772E-12  0.17120000000E+03  0.17120000000E+03 0.  0.
         13    1    1    2    0    0  0.19239327087E+03 -0.64898022106E+02  0.11790076050E+04  0.11963636018E+04  0.10566000000E+00 0.  1.
        994    1    1    2    0    0 -0.22167263948E+03  0.79540140743E+02  0.21082724567E+03  0.35947595274E+03  0.17120000000E+03 0.  0.
        998    1    1    2    0    0  0.29279368611E+02 -0.14642118637E+02  0.11016514560E+03  0.11536044543E+03  0.10000000000E+02 0. -1.
</event>
<event>
 5    1  0.5781797E-010  0.3820287E+03  0.7957747E-01  0.3442372E+00
         13   -1    0    0    0    0  0.00000000000E+00  0.00000000000E+00  0.14999999963E+04  0.15000000000E+04  0.10566000000E+00 0. -1.
        994   -1    0    0    0    0 -0.00000000000E+00 -0.00000000000E+00  0.11368683772E-12  0.17120000000E+03  0.17120000000E+03 0.  0.
         13    1    1    2    0    0  0.25849465761E+03 -0.11432293825E+03  0.89302050200E+03  0.93668289745E+03  0.10566000000E+00 0. -1.
        994    1    1    2    0    0 -0.30372923268E+03  0.11550188690E+03  0.53935942370E+03  0.65254130949E+03  0.17120000000E+03 0.  0.
        998    1    1    2    0    0  0.45234575067E+02 -0.11789486484E+01  0.67620070585E+02  0.81975793057E+02  0.10000000000E+02 0. -1.
</event>
<event>
 5    1  0.5781797E-010  0.3833864E+03  0.7957747E-01  0.3436545E+00
         13   -1    0    0    0    0  0.00000000000E+00  0.00000000000E+00  0.14999999963E+04  0.15000000000E+04  0.10566000000E+00 0.  1.
        994   -1    0    0    0    0 -0.00000000000E+00 -0.00000000000E+00  0.11368683772E-12  0.17120000000E+03  0.17120000000E+03 0.  0.
         13    1    1    2    0    0  0.75685792393E+02 -0.70461584397E+02  0.58697116559E+03  0.59601034760E+03  0.10566000000E+00 0.  1.
        994    1    1    2    0    0 -0.11539073804E+03  0.95645789422E+02  0.80623429955E+02  0.24139742525E+03  0.17120000000E+03 0.  0.
        998    1    1    2    0    0  0.39704945644E+02 -0.25184205026E+02  0.83240540074E+03  0.83379222716E+03  0.10000000000E+02 0.  1.
</event>
<event>
 5    1  0.5781797E-010  0.3745828E+03  0.7957747E-01  0.3475091E+00
         13   -1    0    0    0    0  0.00000000000E+00  0.00000000000E+00  0.14999999963E+04  0.15000000000E+04  0.10566000000E+00 0.  1.
        994   -1    0    0    0    0 -0.00000000000E+00 -0.00000000000E+00  0.11368683772E-12  0.17120000000E+03  0.17120000000E+03 0.  0.
         13    1    1    2    0    0  0.22118071643E+03  0.37876441933E+02  0.12288440798E+04  0.12491650483E+04  0.10566000000E+00 0.  1.
        994    1    1    2    0    0 -0.21558554070E+03 -0.63575543058E+02  0.20184924078E+03  0.34723411560E+03  0.17120000000E+03 0.  0.
        998    1    1    2    0    0 -0.55951757218E+01  0.25699101125E+02  0.69306675696E+02  0.74800836131E+02  0.10000000000E+02 0. -1.
</event>
<event>
 5    1  0.5781797E-010  0.3756622E+03  0.7957747E-01  0.3470266E+00
         13   -1    0    0    0    0  0.00000000000E+00  0.00000000000E+00  0.14999999963E+04  0.15000000000E+04  0.10566000000E+00 0. -1.
        994   -1    0    0    0    0 -0.00000000000E+00 -0.00000000000E+00  0.11368683772E-12  0.17120000000E+03  0.17120000000E+03 0.  0.
         13    1    1    2    0    0  0.16070799438E+03 -0.11366190554E+03  0.22991417139E+03  0.30266586461E+03  0.10566000000E+00 0. -1.
        994    1    1    2    0    0 -0.24891176914E+03  0.21707649648E+03  0.88334053385E+03  0.95847754949E+03  0.17120000000E+03 0.  0.
        998    1    1    2    0    0  0.88203774759E+02 -0.10341459095E+03  0.38674529104E+03  0.41005658590E+03  0.10000000000E+02 0. -1.
</event>
<event>
 5    1  0.5781797E-010  0.3879837E+03  0.7957747E-01  0.3417116E+00
         13   -1    0    0    0    0  0.00000000000E+00  0.00000000000E+00  0.14999999963E+04  0.15000000000E+04  0.10566000000E+00 0. -1.
        994   -1    0    0    0    0 -0.00000000000E+00 -0.00000000000E+00  0.11368683772E-12  0.17120000000E+03  0.17120000000E+03 0.  0.
         13    1    1    2    0    0 -0.56749995293E+02 -0.36436833620E+02  0.40500697268E+03  0.41058356506E+03  0.10566000000E+00 0. -1.
        994    1    1    2    0    0  0.20278582370E+03  0.12878741070E+03  0.21823557643E+03  0.36693936048E+03  0.17120000000E+03 0.  0.
        998    1    1    2    0    0 -0.14603582841E+03 -0.92350577078E+02  0.87675744716E+03  0.89367707446E+03  0.10000000000E+02 0. -1.
</event>
<event>
 5    1  0.5781797E-010  0.3834248E+03  0.7957747E-01  0.3436380E+00
         13   -1    0    0    0    0  0.00000000000E+00  0.00000000000E+00  0.14999999963E+04  0.15000000000E+04  0.10566000000E+00 0.  1.
        994   -1    0    0    0    0 -0.00000000000E+00 -0.00000000000E+00  0.11368683772E-12  0.17120000000E+03  0.17120000000E+03 0.  0.
         13    1    1    2    0    0  0.23332518535E+02 -0.51328616093E+02  0.18724543645E+03  0.19555024389E+03  0.10566000000E+00 0.  1.
        994    1    1    2    0    0  0.42708154857E+02  0.27729372379E+03  0.33270729440E+03  0.46767443750E+03  0.17120000000E+03 0.  0.
        998    1    1    2    0    0 -0.66040673392E+02 -0.22596510770E+03  0.98004726543E+03  0.10079753186E+04  0.10000000000E+02 0.  1.
</event>
<event>
 5    1  0.5781797E-010  0.3861893E+03  0.7957747E-01  0.3424644E+00
         13   -1    0    0    0    0  0.00000000000E+00  0.00000000000E+00  0.14999999963E+04  0.15000000000E+04  0.10566000000E+00 0.  1.
        994   -1    0    0    0    0 -0.00000000000E+00 -0.00000000000E+00  0.11368683772E-12  0.17120000000E+03  0.17120000000E+03 0.  0.
         13    1    1    2    0    0  0.19253911787E+03 -0.90617180781E+02  0.59124672936E+03  0.62837527920E+03  0.10566000000E+00 0.  1.
        994    1    1    2    0    0 -0.28519399235E+03  0.14380916366E+03  0.48345008275E+03  0.60419376970E+03  0.17120000000E+03 0.  0.
        998    1    1    2    0    0  0.92654874483E+02 -0.53191982884E+02  0.42530318416E+03  0.43863095110E+03  0.10000000000E+02 0.  1.
</event>
<event>
 5    1  0.5781797E-010  0.3877204E+03  0.7957747E-01  0.3418216E+00
         13   -1    0    0    0    0  0.00000000000E+00  0.00000000000E+00  0.14999999963E+04  0.15000000000E+04  0.10566000000E+00 0.  1.
        994   -1    0    0    0    0 -0.00000000000E+00 -0.00000000000E+00  0.11368683772E-12  0.17120000000E+03  0.17120000000E+03 0.  0.
         13    1    1    2    0    0 -0.12406693080E+02 -0.17056368785E+03  0.96247842333E+03  0.97755338687E+03  0.10566000000E+00 0.  1.
        994    1    1    2    0    0  0.16724377667E+02  0.22034822451E+03  0.17992899849E+03  0.33244086595E+03  0.17120000000E+03 0.  0.
        998    1    1    2    0    0 -0.43176845872E+01 -0.49784536658E+02  0.35759257446E+03  0.36120574718E+03  0.10000000000E+02 0. -1.
</event>
<event>
 5    1  0.5781797E-010  0.3877769E+03  0.7957747E-01  0.3417980E+00
         13   -1    0    0    0    0  0.00000000000E+00  0.00000000000E+00  0.14999999963E+04  0.15000000000E+04  0.10566000000E+00 0.  1.
        994   -1    0    0    0    0 -0.00000000000E+00 -0.00000000000E+00  0.11368683772E-12  0.17120000000E+03  0.17120000000E+03 0.  0.
         13    1    1    2    0    0 -0.84041422838E+02  0.10905240934E+03  0.60913537808E+03  0.62450084766E+03  0.10566000000E+00 0.  1.
        994    1    1    2    0    0  0.14800552219E+03 -0.21218503267E+03  0.26171013703E+03  0.40586913964E+03  0.17120000000E+03 0.  0.
        998    1    1    2    0    0 -0.63964099350E+02  0.10313262333E+03  0.62915448117E+03  0.64083001270E+03  0.10000000000E+02 0.  1.
</event>
<event>
 5    1  0.5781797E-010  0.3843354E+03  0.7957747E-01  0.3432496E+00
         13   -1    0    0    0    0  0.00000000000E+00  0.00000000000E+00  0.14999999963E+04  0.15000000000E+04  0.10566000000E+00 0.  1.
        994   -1    0    0    0    0 -0.00000000000E+00 -0.00000000000E+00  0.11368683772E-12  0.17120000000E+03  0.17120000000E+03 0.  0.
         13    1    1    2    0    0 -0.15910573058E+03  0.26417849953E+03  0.99649874621E+03  0.10431273534E+04  0.10566000000E+00 0.  1.
        994    1    1    2    0    0  0.16875543943E+03 -0.26891767582E+03  0.48143887470E+03  0.60157123001E+03  0.17120000000E+03 0.  0.
        998    1    1    2    0    0 -0.96497088450E+01  0.47391762855E+01  0.22062375367E+02  0.26501416557E+02  0.10000000000E+02 0. -1.
</event>
<event>
 5    1  0.5781797E-010  0.3877982E+03  0.7957747E-01  0.3417891E+00
         13   -1    0    0    0    0  0.00000000000E+00  0.00000000000E+00  0.14999999963E+04  0.15000000000E+04  0.10566000000E+00 0.  1.
        994   -1    0    0    0    0 -0.00000000000E+00 -0.00000000000E+00  0.11368683772E-12  0.17120000000E+03  0.17120000000E+03 0.  0.
         13    1    1    2    0    0 -0.83328169630E+02 -0.19161523920E+03  0.10748452863E+04  0.10949668417E+04  0.10566000000E+00 0.  1.
        994    1    1    2    0    0  0.10155641712E+03  0.22624434436E+03  0.23585202712E+03  0.38266934540E+03  0.17120000000E+03 0.  0.
        998    1    1    2    0    0 -0.18228247487E+02 -0.34629105160E+02  0.18930268289E+03  0.19356381294E+03  0.10000000000E+02 0.  0.
</event>
<event>
 5    1  0.5781797E-010  0.3862195E+03  0.7957747E-01  0.3424517E+00
         13   -1    0    0    0    0  0.00000000000E+00  0.00000000000E+00  0.14999999963E+04  0.15000000000E+04  0.10566000000E+00 0. -1.
        994   -1    0    0    0    0 -0.00000000000E+00 -0.00000000000E+00  0.11368683772E-12  0.17120000000E+03  0.17120000000E+03 0.  0.
         13    1    1    2    0    0 -0.87667807186E+02 -0.13179399551E+03  0.70400292290E+03  0.72157842836E+03  0.10566000000E+00 0. -1.
        994    1    1    2    0    0  0.18748342509E+03  0.21482437135E+03  0.34088962838E+03  0.47625069443E+03  0.17120000000E+03 0.  0.
        998    1    1    2    0    0 -0.99815617904E+02 -0.83030375841E+02  0.45510744500E+03  0.47337087720E+03  0.10000000000E+02 0. -1.
</event>
<event>
 5    1  0.5781797E-010  0.3845226E+03  0.7957747E-01  0.3431699E+00
         13   -1    0    0    0    0  0.00000000000E+00  0.00000000000E+00  0.14999999963E+04  0.15000000000E+04  0.10566000000E+00 0. -1.
        994   -1    0    0    0    0 -0.00000000000E+00 -0.00000000000E+00  0.11368683772E-12  0.17120000000E+03  0.17120000000E+03 0.  0.
         13    1    1    2    0    0  0.28445549730E+02 -0.90304624719E+01  0.17375890532E+03  0.17630333773E+03  0.10566000000E+00 0. -1.
        994    1    1    2    0    0 -0.71365524284E+02 -0.33520652191E+02  0.22619049406E+02  0.18983607027E+03  0.17120000000E+03 0.  0.
        998    1    1    2    0    0  0.42919974554E+02  0.42551114663E+02  0.13036220415E+04  0.13050605920E+04  0.10000000000E+02 0. -1.
</event>
<event>
 5    1  0.5781797E-010  0.3873691E+03  0.7957747E-01  0.3419686E+00
         13   -1    0    0    0    0  0.00000000000E+00  0.00000000000E+00  0.14999999963E+04  0.15000000000E+04  0.10566000000E+00 0. -1.
        994   -1    0    0    0    0 -0.00000000000E+00 -0.00000000000E+00  0.11368683772E-12  0.17120000000E+03  0.17120000000E+03 0.  0.
         13    1    1    2    0    0  0.10419025508E+03 -0.93827777643E+02  0.41110823666E+03  0.43436074238E+03  0.10566000000E+00 0. -1.
        994    1    1    2    0    0 -0.22574590801E+03  0.24802368555E+03  0.58235101906E+03  0.69348331846E+03  0.17120000000E+03 0.  0.
        998    1    1    2    0    0  0.12155565294E+03 -0.15419590790E+03  0.50654074056E+03  0.54335593916E+03  0.10000000000E+02 0. -1.
</event>
<event>
 5    1  0.5781797E-010  0.3846814E+03  0.7957747E-01  0.3431024E+00
         13   -1    0    0    0    0  0.00000000000E+00  0.00000000000E+00  0.14999999963E+04  0.15000000000E+04  0.10566000000E+00 0.  1.
        994   -1    0    0    0    0 -0.00000000000E+00 -0.00000000000E+00  0.11368683772E-12  0.17120000000E+03  0.17120000000E+03 0.  0.
         13    1    1    2    0    0  0.12220429719E+03  0.13191874041E+03  0.89837149018E+03  0.91619200491E+03  0.10566000000E+00 0.  1.
        994    1    1    2    0    0 -0.13133813345E+03 -0.18136188652E+03  0.18937524487E+03  0.33957953789E+03  0.17120000000E+03 0.  0.
        998    1    1    2    0    0  0.91338362683E+01  0.49443146116E+02  0.41225326123E+03  0.41542845720E+03  0.10000000000E+02 0. -1.
</event>
<event>
 5    1  0.6634459E-010  0.3868347E+03  0.7957747E-01  0.3421928E+00
         13   -1    0    0    0    0  0.00000000000E+00  0.00000000000E+00  0.14999999963E+04  0.15000000000E+04  0.10566000000E+00 0. -1.
        994   -1    0    0    0    0 -0.00000000000E+00 -0.00000000000E+00  0.11368683772E-12  0.17120000000E+03  0.17120000000E+03 0.  0.
         13    1    1    2    0    0 -0.73167868623E+01 -0.25115948427E+03  0.11531774561E+04  0.11802342472E+04  0.10566000000E+00 0. -1.
        994    1    1    2    0    0  0.52449021456E+01  0.26220664065E+03  0.27252878982E+03  0.41516407923E+03  0.17120000000E+03 0.  0.
        998    1    1    2    0    0  0.20718847167E+01 -0.11047156373E+02  0.74293750398E+02  0.75801673586E+02  0.10000000000E+02 0. -1.
</event>
<event>
 5    1  0.5781797E-010  0.3840321E+03  0.7957747E-01  0.3433788E+00
         13   -1    0    0    0    0  0.00000000000E+00  0.00000000000E+00  0.14999999963E+04  0.15000000000E+04  0.10566000000E+00 0. -1.
        994   -1    0    0    0    0 -0.00000000000E+00 -0.00000000000E+00  0.11368683772E-12  0.17120000000E+03  0.17120000000E+03 0.  0.
         13    1    1    2    0    0 -0.29178375569E+02 -0.17870302820E+03  0.89213871412E+03  0.91032831785E+03  0.10566000000E+00 0. -1.
        994    1    1    2    0    0  0.18475253754E+02  0.21668264719E+03  0.17795881765E+03  0.32904632710E+03  0.17120000000E+03 0.  0.
        998    1    1    2    0    0  0.10703121815E+02 -0.37979618988E+02  0.42990246451E+03  0.43182535505E+03  0.10000000000E+02 0. -1.
</event>
<event>
 5    1  0.5781797E-010  0.3865442E+03  0.7957747E-01  0.3423149E+00
         13   -1    0    0    0    0  0.00000000000E+00  0.00000000000E+00  0.14999999963E+04  0.15000000000E+04  0.10566000000E+00 0. -1.
        994   -1    0    0    0    0 -0.00000000000E+00 -0.00000000000E+00  0.11368683772E-12  0.17120000000E+03  0.17120000000E+03 0.  0.
         13    1    1    2    0    0 -0.79423039873E+02  0.20604127087E+03  0.10094854053E+04  0.10333546435E+04  0.10566000000E+00 0. -1.
        994    1    1    2    0    0  0.79044085291E+02 -0.24269111582E+03  0.25518653688E+03  0.39947034148E+03  0.17120000000E+03 0.  0.
        998    1    1    2    0    0  0.37895458208E+00  0.36649844945E+02  0.23532805409E+03  0.23837501501E+03  0.10000000000E+02 0. -1.
</event>
<event>
 5    1  0.5781797E-010  0.3817871E+03  0.7957747E-01  0.3443414E+00
         13   -1    0    0    0    0  0.00000000000E+00  0.00000000000E+00  0.14999999963E+04  0.15000000000E+04  0.10566000000E+00 0.  1.
        994   -1    0    0    0    0 -0.00000000000E+00 -0.00000000000E+00  0.11368683772E-12  0.17120000000E+03  0.17120000000E+03 0.  0.
         13    1    1    2    0    0  0.48771640866E+02  0.27914240842E+03  0.10162221448E+04  0.10549912871E+04  0.10566000000E+00 0.  1.
        994    1    1    2    0    0 -0.27794093386E+02 -0.29356091309E+03  0.38765798657E+03  0.51627383807E+03  0.17120000000E+03 0.  0.
        998    1    1    2    0    0 -0.20977547480E+02  0.14418504675E+02  0.96119864877E+02  0.99934874790E+02  0.10000000000E+02 0.  1.
</event>
<event>
 5    1  0.5781797E-010  0.3878711E+03  0.7957747E-01  0.3417586E+00
         13   -1    0    0    0    0  0.00000000000E+00  0.00000000000E+00  0.14999999963E+04  0.15000000000E+04  0.10566000000E+00 0.  1.
        994   -1    0    0    0    0 -0.00000000000E+00 -0.00000000000E+00  0.11368683772E-12  0.17120000000E+03  0.17120000000E+03 0.  0.
         13    1    1    2    0    0 -0.16850119743E+03 -0.12652071384E+03  0.10462495093E+04  0.10672573220E+04  0.10566000000E+00 0.  1.
        994    1    1    2    0    0  0.20196353275E+03  0.14930362957E+03  0.24312749129E+03  0.38923162691E+03  0.17120000000E+03 0.  0.
        998    1    1    2    0    0 -0.33462335316E+02 -0.22782915725E+02  0.21062299568E+03  0.21471105105E+03  0.10000000000E+02 0.  0.
</event>
<event>
 5    1  0.5781797E-010  0.3245197E+03  0.7957747E-01  0.3735161E+00
         13   -1    0    0    0    0  0.00000000000E+00  0.00000000000E+00  0.14999999963E+04  0.15000000000E+04  0.10566000000E+00 0. -1.
        994   -1    0    0    0    0 -0.00000000000E+00 -0.00000000000E+00  0.11368683772E-12  0.17120000000E+03  0.17120000000E+03 0.  0.
         13    1    1    2    0    0  0.53228528613E+02  0.20248374599E+03  0.11816536648E+04  0.12000576396E+04  0.10566000000E+00 0. -1.
        994    1    1    2    0    0  0.21901386486E+02 -0.10655180525E+03  0.11308712189E+03  0.23223069364E+03  0.17120000000E+03 0.  0.
        998    1    1    2    0    0 -0.75129915099E+02 -0.95931940737E+02  0.20525920962E+03  0.23891166679E+03  0.10000000000E+02 0. -1.
</event>
<event>
 5    1  0.5781797E-010  0.3848540E+03  0.7957747E-01  0.3430291E+00
         13   -1    0    0    0    0  0.00000000000E+00  0.00000000000E+00  0.14999999963E+04  0.15000000000E+04  0.10566000000E+00 0. -1.
        994   -1    0    0    0    0 -0.00000000000E+00 -0.00000000000E+00  0.11368683772E-12  0.17120000000E+03  0.17120000000E+03 0.  0.
         13    1    1    2    0    0  0.27047938559E+02 -0.43006283374E+02  0.26599099098E+03  0.27079946425E+03  0.10566000000E+00 0. -1.
        994    1    1    2    0    0 -0.13829787643E+03  0.81184907128E+02  0.91471295262E+02  0.25178111452E+03  0.17120000000E+03 0.  0.
        998    1    1    2    0    0  0.11124993787E+03 -0.38178623755E+02  0.11425377100E+04  0.11486194212E+04  0.10000000000E+02 0. -1.
</event>
<event>
 5    1  0.5781797E-010  0.3867103E+03  0.7957747E-01  0.3422451E+00
         13   -1    0    0    0    0  0.00000000000E+00  0.00000000000E+00  0.14999999963E+04  0.15000000000E+04  0.10566000000E+00 0. -1.
        994   -1    0    0    0    0 -0.00000000000E+00 -0.00000000000E+00  0.11368683772E-12  0.17120000000E+03  0.17120000000E+03 0.  0.
         13    1    1    2    0    0 -0.52194976893E+02 -0.63064503663E+02  0.49259925335E+03  0.49935506686E+03  0.10566000000E+00 0. -1.
        994    1    1    2    0    0  0.13447589889E+03  0.21763057037E+03  0.25635469097E+03  0.40059206198E+03  0.17120000000E+03 0.  0.
        998    1    1    2    0    0 -0.82280922000E+02 -0.15456606671E+03  0.75104605196E+03  0.77125287115E+03  0.10000000000E+02 0. -1.
</event>
<event>
 5    1  0.5781797E-010  0.3872822E+03  0.7957747E-01  0.3420050E+00
         13   -1    0    0    0    0  0.00000000000E+00  0.00000000000E+00  0.14999999963E+04  0.15000000000E+04  0.10566000000E+00 0. -1.
        994   -1    0    0    0    0 -0.00000000000E+00 -0.00000000000E+00  0.11368683772E-12  0.17120000000E+03  0.17120000000E+03 0.  0.
         13    1    1    2    0    0  0.26397965876E+03  0.88780464699E+01  0.90060922206E+03  0.93854198733E+03  0.10566000000E+00 0. -1.
        994    1    1    2    0    0 -0.30547654154E+03 -0.53401243305E+01  0.41343068912E+03  0.54182913272E+03  0.17120000000E+03 0.  0.
        998    1    1    2    0    0  0.41496882780E+02 -0.35379221394E+01  0.18596008510E+03  0.19082887995E+03  0.10000000000E+02 0.  0.
</event>
<event>
 5    1  0.5781797E-010  0.3874350E+03  0.7957747E-01  0.3419410E+00
         13   -1    0    0    0    0  0.00000000000E+00  0.00000000000E+00  0.14999999963E+04  0.15000000000E+04  0.10566000000E+00 0.  1.
        994   -1    0    0    0    0 -0.00000000000E+00 -0.00000000000E+00  0.11368683772E-12  0.17120000000E+03  0.17120000000E+03 0.  0.
         13    1    1    2    0    0 -0.14617261463E+02 -0.17661601017E+02  0.13469863084E+03  0.13663575226E+03  0.10566000000E+00 0.  1.
        994    1    1    2    0    0  0.66398988831E+02  0.12807362428E+03  0.71540731817E+02  0.23503020075E+03  0.17120000000E+03 0.  0.
        998    1    1    2    0    0 -0.51781727368E+02 -0.11041202326E+03  0.12937606336E+04  0.12995340470E+04  0.10000000000E+02 0.  1.
</event>
<event>
 5    1  0.5781797E-010  0.3859517E+03  0.7957747E-01  0.3425646E+00
         13   -1    0    0    0    0  0.00000000000E+00  0.00000000000E+00  0.14999999963E+04  0.15000000000E+04  0.10566000000E+00 0. -1.
        994   -1    0    0    0    0 -0.00000000000E+00 -0.00000000000E+00  0.11368683772E-12  0.17120000000E+03  0.17120000000E+03 0.  0.
         13    1    1    2    0    0 -0.14589502281E+02 -0.35131154288E+02  0.19221108186E+03  0.19593918121E+03  0.10566000000E+00 0. -1.
        994    1    1    2    0    0  0.12054599796E+03  0.11122848757E+03  0.94969839847E+02  0.25540521637E+03  0.17120000000E+03 0.  0.
        998    1    1    2    0    0 -0.10595649568E+03 -0.76097333282E+02  0.12128190746E+04  0.12198556024E+04  0.10000000000E+02 0. -1.
</event>
<event>
 5    1  0.5781797E-010  0.3292161E+03  0.7957747E-01  0.3707259E+00
         13   -1    0    0    0    0  0.00000000000E+00  0.00000000000E+00  0.14999999963E+04  0.15000000000E+04  0.10566000000E+00 0. -1.
        994   -1    0    0    0    0 -0.00000000000E+00 -0.00000000000E+00  0.11368683772E-12  0.17120000000E+03  0.17120000000E+03 0.  0.
         13    1    1    2    0    0  0.17813926006E+03 -0.69741458094E+02  0.91836331911E+03  0.93807710984E+03  0.10566000000E+00 0. -1.
        994    1    1    2    0    0 -0.15122080335E+03  0.16819872335E+03  0.22510383348E+03  0.36213218271E+03  0.17120000000E+03 0.  0.
        998    1    1    2    0    0 -0.26918456706E+02 -0.98457265254E+02  0.35653284368E+03  0.37099070745E+03  0.10000000000E+02 0. -1.
</event>
<event>
 5    1  0.5781797E-010  0.3822957E+03  0.7957747E-01  0.3441223E+00
         13   -1    0    0    0    0  0.00000000000E+00  0.00000000000E+00  0.14999999963E+04  0.15000000000E+04  0.10566000000E+00 0. -1.
        994   -1    0    0    0    0 -0.00000000000E+00 -0.00000000000E+00  0.11368683772E-12  0.17120000000E+03  0.17120000000E+03 0.  0.
         13    1    1    2    0    0 -0.49499334742E+02  0.29947481072E+02  0.21744325765E+03  0.22500803813E+03  0.10566000000E+00 0. -1.
        994    1    1    2    0    0  0.11661451209E+03 -0.10710659010E+03  0.91172504007E+02  0.25038496672E+03  0.17120000000E+03 0.  0.
        998    1    1    2    0    0 -0.67115177351E+02  0.77159109027E+02  0.11913842346E+04  0.11958069951E+04  0.10000000000E+02 0. -1.
</event>
<event>
 5    1  0.5781797E-010  0.3853047E+03  0.7957747E-01  0.3428381E+00
         13   -1    0    0    0    0  0.00000000000E+00  0.00000000000E+00  0.14999999963E+04  0.15000000000E+04  0.10566000000E+00 0. -1.
        994   -1    0    0    0    0 -0.00000000000E+00 -0.00000000000E+00  0.11368683772E-12  0.17120000000E+03  0.17120000000E+03 0.  0.
         13    1    1    2    0    0 -0.14741544638E+02  0.19983456043E+03  0.10236080188E+04  0.10430362180E+04  0.10566000000E+00 0. -1.
        994    1    1    2    0    0  0.48044924990E+02 -0.24332525628E+03  0.23987822637E+03  0.38518372065E+03  0.17120000000E+03 0.  0.
        998    1    1    2    0    0 -0.33303380352E+02  0.43490695850E+02  0.23651375107E+03  0.24298006135E+03  0.10000000000E+02 0. -1.
</event>
<event>
 5    1  0.5781797E-010  0.3873243E+03  0.7957747E-01  0.3419874E+00
         13   -1    0    0    0    0  0.00000000000E+00  0.00000000000E+00  0.14999999963E+04  0.15000000000E+04  0.10566000000E+00 0. -1.
        994   -1    0    0    0    0 -0.00000000000E+00 -0.00000000000E+00  0.11368683772E-12  0.17120000000E+03  0.17120000000E+03 0.  0.
         13    1    1    2    0    0  0.16582653155E+03  0.10416209418E+03  0.10914093749E+04  0.11088384081E+04  0.10566000000E+00 0. -1.
        994    1    1    2    0    0 -0.19131826871E+03 -0.13452949266E+03  0.20576890724E+03  0.35545906589E+03  0.17120000000E+03 0.  0.
        998    1    1    2    0    0  0.25491737162E+02  0.30367398487E+02  0.20282171414E+03  0.20690252604E+03  0.10000000000E+02 0. -1.
</event>
<event>
 5    1  0.5781797E-010  0.3836380E+03  0.7957747E-01  0.3435469E+00
         13   -1    0    0    0    0  0.00000000000E+00  0.00000000000E+00  0.14999999963E+04  0.15000000000E+04  0.10566000000E+00 0. -1.
        994   -1    0    0    0    0 -0.00000000000E+00 -0.00000000000E+00  0.11368683772E-12  0.17120000000E+03  0.17120000000E+03 0.  0.
         13    1    1    2    0    0  0.31367965991E+02 -0.54558668919E+02  0.34095204834E+03  0.34671156323E+03  0.10566000000E+00 0. -1.
        994    1    1    2    0    0 -0.28095858702E+02  0.12527727111E+03  0.58806790911E+02  0.22192667841E+03  0.17120000000E+03 0.  0.
        998    1    1    2    0    0 -0.32721072896E+01 -0.70718602193E+02  0.11002411570E+04  0.11025617584E+04  0.10000000000E+02 0. -1.
</event>
<event>
 5    1  0.5781797E-010  0.3847541E+03  0.7957747E-01  0.3430716E+00
         13   -1    0    0    0    0  0.00000000000E+00  0.00000000000E+00  0.14999999963E+04  0.15000000000E+04  0.10566000000E+00 0.  1.
        994   -1    0    0    0    0 -0.00000000000E+00 -0.00000000000E+00  0.11368683772E-12  0.17120000000E+03  0.17120000000E+03 0.  0.
         13    1    1    2    0    0 -0.10680883421E+02 -0.71170259907E+01  0.41643051409E+02  0.43576234627E+02  0.10566000000E+00 0.  1.
        994    1    1    2    0    0 -0.28030863278E+02  0.11702352243E+03  0.50959518808E+02  0.21537536223E+03  0.17120000000E+03 0.  0.
        998    1    1    2    0    0  0.38711746699E+02 -0.10990649644E+03  0.14073974261E+04  0.14122484031E+04  0.10000000000E+02 0.  1.
</event>
<event>
 5    1  0.6154041E-010  0.3854668E+03  0.7957747E-01  0.3427695E+00
         13   -1    0    0    0    0  0.00000000000E+00  0.00000000000E+00  0.14999999963E+04  0.15000000000E+04  0.10566000000E+00 0. -1.
        994   -1    0    0    0    0 -0.00000000000E+00 -0.00000000000E+00  0.11368683772E-12  0.17120000000E+03  0.17120000000E+03 0.  0.
         13    1    1    2    0    0  0.42732139452E+01  0.28326477721E+02  0.15004899166E+03  0.15275915933E+03  0.10566000000E+00 0. -1.
        994    1    1    2    0    0 -0.37530365557E+02 -0.87000144688E+02  0.31454540011E+02  0.19818269753E+03  0.17120000000E+03 0.  0.
        998    1    1    2    0    0  0.33257151612E+02  0.58673666967E+02  0.13184964646E+04  0.13202581431E+04  0.10000000000E+02 0. -1.
</event>
<event>
 5    1  0.5781797E-010  0.3864442E+03  0.7957747E-01  0.3423570E+00
         13   -1    0    0    0    0  0.00000000000E+00  0.00000000000E+00  0.14999999963E+04  0.15000000000E+04  0.10566000000E+00 0. -1.
        994   -1    0    0    0    0 -0.00000000000E+00 -0.00000000000E+00  0.11368683772E-12  0.17120000000E+03  0.17120000000E+03 0.  0.
         13    1    1    2    0    0  0.79006513559E+02 -0.53363731499E+02  0.50973016296E+03  0.51856973226E+03  0.10566000000E+00 0. -1.
        994    1    1    2    0    0 -0.14362460228E+03  0.15087201061E+03  0.15880945783E+03  0.31292215303E+03  0.17120000000E+03 0.  0.
        998    1    1    2    0    0  0.64618088716E+02 -0.97508279110E+02  0.83146037550E+03  0.83970811471E+03  0.10000000000E+02 0. -1.
</event>
<event>
 5    1  0.5781797E-010  0.3827752E+03  0.7957747E-01  0.3439163E+00
         13   -1    0    0    0    0  0.00000000000E+00  0.00000000000E+00  0.14999999963E+04  0.15000000000E+04  0.10566000000E+00 0.  1.
        994   -1    0    0    0    0 -0.00000000000E+00 -0.00000000000E+00  0.11368683772E-12  0.17120000000E+03  0.17120000000E+03 0.  0.
         13    1    1    2    0    0 -0.31113572936E+02  0.46435192790E+02  0.30428027499E+03  0.30937158638E+03  0.10566000000E+00 0.  1.
        994    1    1    2    0    0  0.14336481747E+03 -0.44672987554E+02  0.81419259308E+02  0.24184226779E+03  0.17120000000E+03 0.  0.
        998    1    1    2    0    0 -0.11225124453E+03 -0.17622052361E+01  0.11143004620E+04  0.11199861458E+04  0.10000000000E+02 0. -1.
</event>
<event>
 5    1  0.5781797E-010  0.3866170E+03  0.7957747E-01  0.3422843E+00
         13   -1    0    0    0    0  0.00000000000E+00  0.00000000000E+00  0.14999999963E+04  0.15000000000E+04  0.10566000000E+00 0.  1.
        994   -1    0    0    0    0 -0.00000000000E+00 -0.00000000000E+00  0.11368683772E-12  0.17120000000E+03  0.17120000000E+03 0.  0.
         13    1    1    2    0    0 -0.75617402748E+02  0.33020193876E+02  0.45143066341E+03  0.45890955517E+03  0.10566000000E+00 0.  1.
        994    1    1    2    0    0  0.18278133938E+03 -0.49086269588E+02  0.12835187492E+03  0.28566085431E+03  0.17120000000E+03 0.  0.
        998    1    1    2    0    0 -0.10716393664E+03  0.16066075712E+02  0.92021745795E+03  0.92662959052E+03  0.10000000000E+02 0.  1.
</event>
<event>
 5    1  0.5781797E-010  0.3881521E+03  0.7957747E-01  0.3416413E+00
         13   -1    0    0    0    0  0.00000000000E+00  0.00000000000E+00  0.14999999963E+04  0.15000000000E+04  0.10566000000E+00 0. -1.
        994   -1    0    0    0    0 -0.00000000000E+00 -0.00000000000E+00  0.11368683772E-12  0.17120000000E+03  0.17120000000E+03 0.  0.
         13    1    1    2    0    0 -0.13691407692E+03 -0.14099777613E+02  0.57226494905E+03  0.58858427711E+03  0.10566000000E+00 0. -1.
        994    1    1    2    0    0  0.27789798548E+03  0.31658297417E+02  0.31918781486E+03  0.45762412445E+03  0.17120000000E+03 0.  0.
        998    1    1    2    0    0 -0.14098390856E+03 -0.17558519804E+02  0.60854723237E+03  0.62499159844E+03  0.10000000000E+02 0.  1.
</event>
<event>
 5    1  0.5781797E-010  0.3843937E+03  0.7957747E-01  0.3432248E+00
         13   -1    0    0    0    0  0.00000000000E+00  0.00000000000E+00  0.14999999963E+04  0.15000000000E+04  0.10566000000E+00 0.  1.
        994   -1    0    0    0    0 -0.00000000000E+00 -0.00000000000E+00  0.11368683772E-12  0.17120000000E+03  0.17120000000E+03 0.  0.
         13    1    1    2    0    0 -0.44338982160E+02 -0.80651559242E+02  0.43577784930E+03  0.44539079970E+03  0.10566000000E+00 0.  1.
        994    1    1    2    0    0  0.55790019960E+02  0.18084987056E+03  0.13055661798E+03  0.28665950622E+03  0.17120000000E+03 0.  0.
        998    1    1    2    0    0 -0.11451037800E+02 -0.10019831132E+03  0.93366552900E+03  0.93914969408E+03  0.10000000000E+02 0.  1.
</event>
<event>
 5    1  0.5781797E-010  0.3851154E+03  0.7957747E-01  0.3429183E+00
         13   -1    0    0    0    0  0.00000000000E+00  0.00000000000E+00  0.14999999963E+04  0.15000000000E+04  0.10566000000E+00 0. -1.
        994   -1    0    0    0    0 -0.00000000000E+00 -0.00000000000E+00  0.11368683772E-12  0.17120000000E+03  0.17120000000E+03 0.  0.
         13    1    1    2    0    0 -0.12995457007E+03  0.26340420015E+03  0.90451204328E+03  0.95100578891E+03  0.10566000000E+00 0. -1.
        994    1    1    2    0    0  0.15869125998E+03 -0.27828387971E+03  0.49372486853E+03  0.61294250913E+03  0.17120000000E+03 0.  0.
        998    1    1    2    0    0 -0.28736689909E+02  0.14879679560E+02  0.10176308447E+03  0.10725170195E+03  0.10000000000E+02 0.  1.
</event>
<event>
 5    1  0.5781797E-010  0.3823675E+03  0.7957747E-01  0.3440914E+00
         13   -1    0    0    0    0  0.00000000000E+00  0.00000000000E+00  0.14999999963E+04  0.15000000000E+04  0.10566000000E+00 0.  1.
        994   -1    0    0    0    0 -0.00000000000E+00 -0.00000000000E+00  0.11368683772E-12  0.17120000000E+03  0.17120000000E+03 0.  0.
         13    1    1    2    0    0 -0.42774202811E+02  0.27700252267E+02  0.20024313900E+03  0.20662589935E+03  0.10566000000E+00 0.  1.
        994    1    1    2    0    0  0.71907256687E+02 -0.15513262349E+03  0.10688517493E+03  0.26451968746E+03  0.17120000000E+03 0.  0.
        998    1    1    2    0    0 -0.29133053876E+02  0.12743237122E+03  0.11928716823E+04  0.12000544132E+04  0.10000000000E+02 0.  1.
</event>
<event>
 5    1  0.5781797E-010  0.3847093E+03  0.7957747E-01  0.3430906E+00
         13   -1    0    0    0    0  0.00000000000E+00  0.00000000000E+00  0.14999999963E+04  0.15000000000E+04  0.10566000000E+00 0.  1.
        994   -1    0    0    0    0 -0.00000000000E+00 -0.00000000000E+00  0.11368683772E-12  0.17120000000E+03  0.17120000000E+03 0.  0.
         13    1    1    2    0    0 -0.24470861599E+02 -0.11484346190E+02  0.11062094397E+03  0.11387588719E+03  0.10566000000E+00 0.  1.
        994    1    1    2    0    0  0.87004687902E+02  0.57515802801E+02  0.38441920667E+02  0.20412031882E+03  0.17120000000E+03 0.  0.
        998    1    1    2    0    0 -0.62533826303E+02 -0.46031456611E+02  0.13509371316E+04  0.13532037940E+04  0.10000000000E+02 0. -1.
</event>
<event>
 5    1  0.5781797E-010  0.3856707E+03  0.7957747E-01  0.3426833E+00
         13   -1    0    0    0    0  0.00000000000E+00  0.00000000000E+00  0.14999999963E+04  0.15000000000E+04  0.10566000000E+00 0. -1.
        994   -1    0    0    0    0 -0.00000000000E+00 -0.00000000000E+00  0.11368683772E-12  0.17120000000E+03  0.17120000000E+03 0.  0.
         13    1    1    2    0    0  0.27451246773E+02  0.11181446315E+02  0.14196233616E+03  0.14502383164E+03  0.10566000000E+00 0. -1.
        994    1    1    2    0    0 -0.91011001681E+02 -0.10311615231E+03  0.66044476706E+02  0.22931911433E+03  0.17120000000E+03 0.  0.
        998    1    1    2    0    0  0.63559754908E+02  0.91934705991E+02  0.12919931834E+04  0.12968570540E+04  0.10000000000E+02 0. -1.
</event>
<event>
 5    1  0.5781797E-010  0.3843423E+03  0.7957747E-01  0.3432466E+00
         13   -1    0    0    0    0  0.00000000000E+00  0.00000000000E+00  0.14999999963E+04  0.15000000000E+04  0.10566000000E+00 0.  1.
        994   -1    0    0    0    0 -0.00000000000E+00 -0.00000000000E+00  0.11368683772E-12  0.17120000000E+03  0.17120000000E+03 0.  0.
         13    1    1    2    0    0 -0.19740065884E+03  0.27389504554E+02  0.11479951738E+04  0.11651652824E+04  0.10566000000E+00 0.  1.
        994    1    1    2    0    0  0.21920184917E+03 -0.50750070770E+01  0.18091258943E+03  0.33183431316E+03  0.17120000000E+03 0.  0.
        998    1    1    2    0    0 -0.21801190333E+02 -0.22314497477E+02  0.17109223307E+03  0.17420040446E+03  0.10000000000E+02 0.  1.
</event>
<event>
 5    1  0.5781797E-010  0.3838079E+03  0.7957747E-01  0.3434744E+00
         13   -1    0    0    0    0  0.00000000000E+00  0.00000000000E+00  0.14999999963E+04  0.15000000000E+04  0.10566000000E+00 0. -1.
        994   -1    0    0    0    0 -0.00000000000E+00 -0.00000000000E+00  0.11368683772E-12  0.17120000000E+03  0.17120000000E+03 0.  0.
         13    1    1    2    0    0  0.11716675004E+03  0.16191058454E+03  0.79247159120E+03  0.81728472317E+03  0.10566000000E+00 0. -1.
        994    1    1    2    0    0 -0.11999087523E+03 -0.25318138889E+03  0.33056143495E+03  0.46591729748E+03  0.17120000000E+03 0.  0.
        998    1    1    2    0    0  0.28241251954E+01  0.91270804344E+02  0.37696697013E+03  0.38799797935E+03  0.10000000000E+02 0. -1.
</event>
<event>
 5    1  0.5781797E-010  0.3862911E+03  0.7957747E-01  0.3424215E+00
         13   -1    0    0    0    0  0.00000000000E+00  0.00000000000E+00  0.14999999963E+04  0.15000000000E+04  0.10566000000E+00 0.  1.
        994   -1    0    0    0    0 -0.00000000000E+00 -0.00000000000E+00  0.11368683772E-12  0.17120000000E+03  0.17120000000E+03 0.  0.
         13    1    1    2    0    0 -0.23268792636E+02 -0.20203268019E+02  0.18197860058E+03  0.18456931214E+03  0.10566000000E+00 0.  1.
        994    1    1    2    0    0  0.72496761475E+02  0.77397450949E+02  0.38727628899E+02  0.20507416970E+03  0.17120000000E+03 0.  0.
        998    1    1    2    0    0 -0.49227968839E+02 -0.57194182931E+02  0.12792937668E+04  0.12815565182E+04  0.10000000000E+02 0.  1.
</event>
<event>
 5    1  0.5781797E-010  0.3879744E+03  0.7957747E-01  0.3417155E+00
         13   -1    0    0    0    0  0.00000000000E+00  0.00000000000E+00  0.14999999963E+04  0.15000000000E+04  0.10566000000E+00 0. -1.
        994   -1    0    0    0    0 -0.00000000000E+00 -0.00000000000E+00  0.11368683772E-12  0.17120000000E+03  0.17120000000E+03 0.  0.
         13    1    1    2    0    0  0.18592838602E+02  0.14910188989E+03  0.77218329272E+03  0.78666645787E+03  0.10566000000E+00 0. -1.
        994    1    1    2    0    0 -0.38900090768E+02 -0.24995167639E+03  0.24724929495E+03  0.39297673143E+03  0.17120000000E+03 0.  0.
        998    1    1    2    0    0  0.20307252165E+02  0.10084978650E+03  0.48056740861E+03  0.49155681070E+03  0.10000000000E+02 0.  0.
</event>
<event>
 5    1  0.5781797E-010  0.3059184E+03  0.7957747E-01  0.3854652E+00
         13   -1    0    0    0    0  0.00000000000E+00  0.00000000000E+00  0.14999999963E+04  0.15000000000E+04  0.10566000000E+00 0. -1.
        994   -1    0    0    0    0 -0.00000000000E+00 -0.00000000000E+00  0.11368683772E-12  0.17120000000E+03  0.17120000000E+03 0.  0.
         13    1    1    2    0    0  0.73245902796E+02  0.16966416911E+03  0.89606109605E+03  0.91491878960E+03  0.10566000000E+00 0. -1.
        994    1    1    2    0    0  0.79036809379E+02 -0.20007554770E+03  0.25832450345E+03  0.37725062108E+03  0.17120000000E+03 0.  0.
        998    1    1    2    0    0 -0.15228271218E+03  0.30411378585E+02  0.34561439678E+03  0.37903058932E+03  0.10000000000E+02 0. -1.
</event>
<event>
 5    1  0.5781797E-010  0.3880469E+03  0.7957747E-01  0.3416852E+00
         13   -1    0    0    0    0  0.00000000000E+00  0.00000000000E+00  0.14999999963E+04  0.15000000000E+04  0.10566000000E+00 0. -1.
        994   -1    0    0    0    0 -0.00000000000E+00 -0.00000000000E+00  0.11368683772E-12  0.17120000000E+03  0.17120000000E+03 0.  0.
         13    1    1    2    0    0  0.34497064463E+02 -0.33966194629E+02  0.21502259738E+03  0.22040525942E+03  0.10566000000E+00 0. -1.
        994    1    1    2    0    0 -0.18381575929E+03  0.16856689355E+03  0.23873234335E+03  0.38536424682E+03  0.17120000000E+03 0.  0.
        998    1    1    2    0    0  0.14931869483E+03 -0.13460069892E+03  0.10462450555E+04  0.10654304938E+04  0.10000000000E+02 0.  0.
</event>
<event>
 5    1  0.5781797E-010  0.3846595E+03  0.7957747E-01  0.3431118E+00
         13   -1    0    0    0    0  0.00000000000E+00  0.00000000000E+00  0.14999999963E+04  0.15000000000E+04  0.10566000000E+00 0.  1.
        994   -1    0    0    0    0 -0.00000000000E+00 -0.00000000000E+00  0.11368683772E-12  0.17120000000E+03  0.17120000000E+03 0.  0.
         13    1    1    2    0    0  0.79328588527E+01  0.98165597140E+01  0.69042228248E+02  0.70186434157E+02  0.10566000000E+00 0.  1.
        994    1    1    2    0    0  0.45306821669E+02  0.37183118376E+02  0.13192266232E+02  0.18143530051E+03  0.17120000000E+03 0.  0.
        998    1    1    2    0    0 -0.53239680521E+02 -0.46999678090E+02  0.14177655018E+04  0.14195782653E+04  0.10000000000E+02 0.  1.
</event>
<event>
 5    1  0.5781797E-010  0.3827273E+03  0.7957747E-01  0.3439368E+00
         13   -1    0    0    0    0  0.00000000000E+00  0.00000000000E+00  0.14999999963E+04  0.15000000000E+04  0.10566000000E+00 0. -1.
        994   -1    0    0    0    0 -0.00000000000E+00 -0.00000000000E+00  0.11368683772E-12  0.17120000000E+03  0.17120000000E+03 0.  0.
         13    1    1    2    0    0 -0.20061156764E+02  0.70379204402E+02  0.34709865863E+03  0.35472971741E+03  0.10566000000E+00 0. -1.
        994    1    1    2    0    0  0.53574165334E+02 -0.13195026349E+03  0.73144638245E+02  0.23439420072E+03  0.17120000000E+03 0.  0.
        998    1    1    2    0    0 -0.33513008569E+02  0.61571059091E+02  0.10797566994E+04  0.10820760819E+04  0.10000000000E+02 0. -1.
</event>
<event>
 5    1  0.5781797E-010  0.3847743E+03  0.7957747E-01  0.3430630E+00
         13   -1    0    0    0    0  0.00000000000E+00  0.00000000000E+00  0.14999999963E+04  0.15000000000E+04  0.10566000000E+00 0. -1.
        994   -1    0    0    0    0 -0.00000000000E+00 -0.00000000000E+00  0.11368683772E-12  0.17120000000E+03  0.17120000000E+03 0.  0.
         13    1    1    2    0    0  0.13481846527E+03 -0.17548884612E+03  0.12244908006E+04  0.12443271618E+04  0.10566000000E+00 0. -1.
        994    1    1    2    0    0 -0.13709656582E+03  0.19501267270E+03  0.21893512885E+03  0.36615221086E+03  0.17120000000E+03 0.  0.
        998    1    1    2    0    0  0.22781005472E+01 -0.19523826577E+02  0.56574066821E+02  0.60720627327E+02  0.10000000000E+02 0.  0.
</event>
<event>
 5    1  0.5781797E-010  0.3840449E+03  0.7957747E-01  0.3433733E+00
         13   -1    0    0    0    0  0.00000000000E+00  0.00000000000E+00  0.14999999963E+04  0.15000000000E+04  0.10566000000E+00 0.  1.
        994   -1    0    0    0    0 -0.00000000000E+00 -0.00000000000E+00  0.11368683772E-12  0.17120000000E+03  0.17120000000E+03 0.  0.
         13    1    1    2    0    0 -0.11002633629E+01 -0.28289088868E+02  0.13810498715E+03  0.14097688381E+03  0.10566000000E+00 0.  1.
        994    1    1    2    0    0  0.66380458485E+02  0.62188541620E+02  0.29894097205E+02  0.19615523706E+03  0.17120000000E+03 0.  0.
        998    1    1    2    0    0 -0.65280195122E+02 -0.33899452751E+02  0.13320009119E+04  0.13340678791E+04  0.10000000000E+02 0.  1.
</event>
<event>
 5    1  0.5781797E-010  0.3875418E+03  0.7957747E-01  0.3418963E+00
         13   -1    0    0    0    0  0.00000000000E+00  0.00000000000E+00  0.14999999963E+04  0.15000000000E+04  0.10566000000E+00 0. -1.
        994   -1    0    0    0    0 -0.00000000000E+00 -0.00000000000E+00  0.11368683772E-12  0.17120000000E+03  0.17120000000E+03 0.  0.
         13    1    1    2    0    0  0.22802830293E+03 -0.52266842052E+01  0.72470419852E+03  0.75975022980E+03  0.10566000000E+00 0. -1.
        994    1    1    2    0    0 -0.31305119268E+03  0.15038513855E+02  0.44757950725E+03  0.57259415072E+03  0.17120000000E+03 0.  0.
        998    1    1    2    0    0  0.85022889752E+02 -0.98118296503E+01  0.32771629051E+03  0.33885561947E+03  0.10000000000E+02 0. -1.
</event>
<event>
 5    1  0.5781797E-010  0.3877645E+03  0.7957747E-01  0.3418032E+00
         13   -1    0    0    0    0  0.00000000000E+00  0.00000000000E+00  0.14999999963E+04  0.15000000000E+04  0.10566000000E+00 0. -1.
        994   -1    0    0    0    0 -0.00000000000E+00 -0.00000000000E+00  0.11368683772E-12  0.17120000000E+03  0.17120000000E+03 0.  0.
         13    1    1    2    0    0  0.73449171641E+02  0.14070301765E+03  0.85500136033E+03  0.86960879556E+03  0.10566000000E+00 0. -1.
        994    1    1    2    0    0 -0.10503036636E+03 -0.22342695723E+03  0.23335843550E+03  0.38041632785E+03  0.17120000000E+03 0.  0.
        998    1    1    2    0    0  0.31581194723E+02  0.82723939582E+02  0.41164020045E+03  0.42117487659E+03  0.10000000000E+02 0. -1.
</event>
<event>
 5    1  0.5781797E-010  0.3861277E+03  0.7957747E-01  0.3424904E+00
         13   -1    0    0    0    0  0.00000000000E+00  0.00000000000E+00  0.14999999963E+04  0.15000000000E+04  0.10566000000E+00 0.  1.
        994   -1    0    0    0    0 -0.00000000000E+00 -0.00000000000E+00  0.11368683772E-12  0.17120000000E+03  0.17120000000E+03 0.  0.
         13    1    1    2    0    0 -0.59860963197E+02  0.21379201628E+03  0.10362961915E+04  0.10598113836E+04  0.10566000000E+00 0.  1.
        994    1    1    2    0    0  0.78797192134E+02 -0.26306768269E+03  0.30829718193E+03  0.44695659247E+03  0.17120000000E+03 0.  0.
        998    1    1    2    0    0 -0.18936228938E+02  0.49275666413E+02  0.15540662284E+03  0.16443202392E+03  0.10000000000E+02 0. -1.
</event>
<event>
 5    1  0.5781797E-010  0.3744210E+03  0.7957747E-01  0.3475816E+00
         13   -1    0    0    0    0  0.00000000000E+00  0.00000000000E+00  0.14999999963E+04  0.15000000000E+04  0.10566000000E+00 0.  1.
        994   -1    0    0    0    0 -0.00000000000E+00 -0.00000000000E+00  0.11368683772E-12  0.17120000000E+03  0.17120000000E+03 0.  0.
         13    1    1    2    0    0  0.21112375906E+02 -0.33692863172E+02  0.90617594598E+02  0.98957066750E+02  0.10566000000E+00 0.  1.
        994    1    1    2    0    0 -0.19155692775E+03 -0.24995197112E+02  0.14706474764E+03  0.29707961297E+03  0.17120000000E+03 0.  0.
        998    1    1    2    0    0  0.17044455184E+03  0.58688060284E+02  0.12623176540E+04  0.12751633203E+04  0.10000000000E+02 0.  1.
</event>
<event>
 5    1  0.5781797E-010  0.3863405E+03  0.7957747E-01  0.3424007E+00
         13   -1    0    0    0    0  0.00000000000E+00  0.00000000000E+00  0.14999999963E+04  0.15000000000E+04  0.10566000000E+00 0.  1.
        994   -1    0    0    0    0 -0.00000000000E+00 -0.00000000000E+00  0.11368683772E-12  0.17120000000E+03  0.17120000000E+03 0.  0.
         13    1    1    2    0    0 -0.11019645127E+03 -0.18160019994E+03  0.12367733777E+04  0.12548825800E+04  0.10566000000E+00 0.  1.
        994    1    1    2    0    0  0.12083130578E+03  0.19588114848E+03  0.19949974553E+03  0.34939836469E+03  0.17120000000E+03 0.  0.
        998    1    1    2    0    0 -0.10634854509E+02 -0.14280948542E+02  0.63726873012E+02  0.66919055325E+02  0.10000000000E+02 0.  0.
</event>
<event>
 5    1  0.5781797E-010  0.3841397E+03  0.7957747E-01  0.3433329E+00
         13   -1    0    0    0    0  0.00000000000E+00  0.00000000000E+00  0.14999999963E+04  0.15000000000E+04  0.10566000000E+00 0.  1.
        994   -1    0    0    0    0 -0.00000000000E+00 -0.00000000000E+00  0.11368683772E-12  0.17120000000E+03  0.17120000000E+03 0.  0.
         13    1    1    2    0    0 -0.15117007537E+03 -0.12603772930E+03  0.61948985389E+03  0.65000430086E+03  0.10566000000E+00 0.  1.
        994    1    1    2    0    0  0.22392063438E+03  0.18340602331E+03  0.36088345182E+03  0.49327935866E+03  0.17120000000E+03 0.  0.
        998    1    1    2    0    0 -0.72750559006E+02 -0.57368294003E+02  0.51962669058E+03  0.52791634048E+03  0.10000000000E+02 0. -1.
</event>
<event>
 5    1  0.5781797E-010  0.3857278E+03  0.7957747E-01  0.3426592E+00
         13   -1    0    0    0    0  0.00000000000E+00  0.00000000000E+00  0.14999999963E+04  0.15000000000E+04  0.10566000000E+00 0.  1.
        994   -1    0    0    0    0 -0.00000000000E+00 -0.00000000000E+00  0.11368683772E-12  0.17120000000E+03  0.17120000000E+03 0.  0.
         13    1    1    2    0    0  0.19466131567E+03 -0.16198791218E+03  0.76296018691E+03  0.80389139160E+03  0.10566000000E+00 0.  1.
        994    1    1    2    0    0 -0.26792359168E+03  0.18263914177E+03  0.51367943753E+03  0.63112289740E+03  0.17120000000E+03 0.  0.
        998    1    1    2    0    0  0.73262276012E+02 -0.20651229591E+02  0.22336037184E+03  0.23618571099E+03  0.10000000000E+02 0.  1.
</event>
<event>
 5    1  0.5781797E-010  0.3839786E+03  0.7957747E-01  0.3434016E+00
         13   -1    0    0    0    0  0.00000000000E+00  0.00000000000E+00  0.14999999963E+04  0.15000000000E+04  0.10566000000E+00 0.  1.
        994   -1    0    0    0    0 -0.00000000000E+00 -0.00000000000E+00  0.11368683772E-12  0.17120000000E+03  0.17120000000E+03 0.  0.
         13    1    1    2    0    0  0.13240595441E+02 -0.34276674340E+02  0.17320598931E+03  0.17706080783E+03  0.10566000000E+00 0.  1.
        994    1    1    2    0    0 -0.30712830984E+02  0.88373907741E+02  0.31575594057E+02  0.19763522889E+03  0.17120000000E+03 0.  0.
        998    1    1    2    0    0  0.17472235544E+02 -0.54097233401E+02  0.12952184129E+04  0.12965039633E+04  0.10000000000E+02 0.  1.
</event>
<event>
 5    1  0.6017844E-010  0.3866105E+03  0.7957747E-01  0.3422870E+00
         13   -1    0    0    0    0  0.00000000000E+00  0.00000000000E+00  0.14999999963E+04  0.15000000000E+04  0.10566000000E+00 0. -1.
        994   -1    0    0    0    0 -0.00000000000E+00 -0.00000000000E+00  0.11368683772E-12  0.17120000000E+03  0.17120000000E+03 0.  0.
         13    1    1    2    0    0  0.17577167699E+03 -0.12898011274E+03  0.12560405292E+04  0.12748213106E+04  0.10566000000E+00 0. -1.
        994    1    1    2    0    0 -0.18206990293E+03  0.13365901941E+03  0.19064172641E+03  0.34156681758E+03  0.17120000000E+03 0.  0.
        998    1    1    2    0    0  0.62982259398E+01 -0.46789066719E+01  0.53317740691E+02  0.54811871798E+02  0.10000000000E+02 0. -1.
</event>
<event>
 5    1  0.5781797E-010  0.3790025E+03  0.7957747E-01  0.3455513E+00
         13   -1    0    0    0    0  0.00000000000E+00  0.00000000000E+00  0.14999999963E+04  0.15000000000E+04  0.10566000000E+00 0.  1.
        994   -1    0    0    0    0 -0.00000000000E+00 -0.00000000000E+00  0.11368683772E-12  0.17120000000E+03  0.17120000000E+03 0.  0.
         13    1    1    2    0    0 -0.11980310988E+01 -0.22036385450E+03  0.79039437887E+03  0.82053942560E+03  0.10566000000E+00 0.  1.
        994    1    1    2    0    0 -0.49767802794E+02  0.26649538896E+03  0.31321674887E+03  0.44823074226E+03  0.17120000000E+03 0.  0.
        998    1    1    2    0    0  0.50965833893E+02 -0.46131534463E+02  0.39638886854E+03  0.40242983214E+03  0.10000000000E+02 0.  1.
</event>
<event>
 5    1  0.5781797E-010  0.3793163E+03  0.7957747E-01  0.3454141E+00
         13   -1    0    0    0    0  0.00000000000E+00  0.00000000000E+00  0.14999999963E+04  0.15000000000E+04  0.10566000000E+00 0.  1.
        994   -1    0    0    0    0 -0.00000000000E+00 -0.00000000000E+00  0.11368683772E-12  0.17120000000E+03  0.17120000000E+03 0.  0.
         13    1    1    2    0    0 -0.59994816169E+02  0.39148192320E+02  0.32235720791E+03  0.33022134938E+03  0.10566000000E+00 0.  1.
        994    1    1    2    0    0  0.51012835251E+02 -0.21434339265E+03  0.18939504726E+03  0.33723185386E+03  0.17120000000E+03 0.  0.
        998    1    1    2    0    0  0.89819809179E+01  0.17519520033E+03  0.98824774111E+03  0.10037467968E+04  0.10000000000E+02 0.  1.
</event>
<event>
 5    1  0.5781797E-010  0.3881177E+03  0.7957747E-01  0.3416556E+00
         13   -1    0    0    0    0  0.00000000000E+00  0.00000000000E+00  0.14999999963E+04  0.15000000000E+04  0.10566000000E+00 0. -1.
        994   -1    0    0    0    0 -0.00000000000E+00 -0.00000000000E+00  0.11368683772E-12  0.17120000000E+03  0.17120000000E+03 0.  0.
         13    1    1    2    0    0  0.20806808620E+02 -0.76163024045E+02  0.33508487892E+03  0.34426097188E+03  0.10566000000E+00 0. -1.
        994    1    1    2    0    0 -0.60356513675E+02  0.27831714484E+03  0.33523335292E+03  0.47201078670E+03  0.17120000000E+03 0.  0.
        998    1    1    2    0    0  0.39549705054E+02 -0.20215412079E+03  0.82968176444E+03  0.85492824142E+03  0.10000000000E+02 0.  0.
</event>
<event>
 5    1  0.5781797E-010  0.3805479E+03  0.7957747E-01  0.3448776E+00
         13   -1    0    0    0    0  0.00000000000E+00  0.00000000000E+00  0.14999999963E+04  0.15000000000E+04  0.10566000000E+00 0. -1.
        994   -1    0    0    0    0 -0.00000000000E+00 -0.00000000000E+00  0.11368683772E-12  0.17120000000E+03  0.17120000000E+03 0.  0.
         13    1    1    2    0    0 -0.14761394681E+03  0.23406604663E+03  0.11475829310E+04  0.11804759151E+04  0.10566000000E+00 0. -1.
        994    1    1    2    0    0  0.15630632054E+03 -0.23208379128E+03  0.34028757997E+03  0.47265169956E+03  0.17120000000E+03 0.  0.
        998    1    1    2    0    0 -0.86923737330E+01 -0.19822553580E+01  0.12129485297E+02  0.18072385315E+02  0.10000000000E+02 0. -1.
</event>
<event>
 5    1  0.5781797E-010  0.3879264E+03  0.7957747E-01  0.3417355E+00
         13   -1    0    0    0    0  0.00000000000E+00  0.00000000000E+00  0.14999999963E+04  0.15000000000E+04  0.10566000000E+00 0.  1.
        994   -1    0    0    0    0 -0.00000000000E+00 -0.00000000000E+00  0.11368683772E-12  0.17120000000E+03  0.17120000000E+03 0.  0.
         13    1    1    2    0    0 -0.16078331010E+03 -0.14249867852E+03  0.88587607964E+03  0.91155558570E+03  0.10566000000E+00 0.  1.
        994    1    1    2    0    0  0.20664352853E+03  0.19103359947E+03  0.32500111100E+03  0.46274241881E+03  0.17120000000E+03 0.  0.
        998    1    1    2    0    0 -0.45860218432E+02 -0.48534920944E+02  0.28912280564E+03  0.29690199549E+03  0.10000000000E+02 0.  0.
</event>
<event>
 5    1  0.5781797E-010  0.3881103E+03  0.7957747E-01  0.3416587E+00
         13   -1    0    0    0    0  0.00000000000E+00  0.00000000000E+00  0.14999999963E+04  0.15000000000E+04  0.10566000000E+00 0.  1.
        994   -1    0    0    0    0 -0.00000000000E+00 -0.00000000000E+00  0.11368683772E-12  0.17120000000E+03  0.17120000000E+03 0.  0.
         13    1    1    2    0    0  0.90528188328E+00  0.18822057583E+03  0.52405090969E+03  0.55682777572E+03  0.10566000000E+00 0.  1.
        994    1    1    2    0    0 -0.79512637841E+01 -0.33405356369E+03  0.56711938325E+03  0.68013883940E+03  0.17120000000E+03 0.  0.
        998    1    1    2    0    0  0.70459819008E+01  0.14583298786E+03  0.40882970334E+03  0.43423338488E+03  0.10000000000E+02 0.  0.
</event>
<event>
 5    1  0.5781797E-010  0.3859105E+03  0.7957747E-01  0.3425820E+00
         13   -1    0    0    0    0  0.00000000000E+00  0.00000000000E+00  0.14999999963E+04  0.15000000000E+04  0.10566000000E+00 0.  1.
        994   -1    0    0    0    0 -0.00000000000E+00 -0.00000000000E+00  0.11368683772E-12  0.17120000000E+03  0.17120000000E+03 0.  0.
         13    1    1    2    0    0  0.67493696093E+02 -0.14338288476E+03  0.76691677584E+03  0.78311902217E+03  0.10566000000E+00 0.  1.
        994    1    1    2    0    0 -0.94304073871E+02  0.20167245475E+03  0.18531190127E+03  0.33647433499E+03  0.17120000000E+03 0.  0.
        998    1    1    2    0    0  0.26810377779E+02 -0.58289569988E+02  0.54777131916E+03  0.55160664284E+03  0.10000000000E+02 0. -1.
</event>
<event>
 5    1  0.5781797E-010  0.3783817E+03  0.7957747E-01  0.3458235E+00
         13   -1    0    0    0    0  0.00000000000E+00  0.00000000000E+00  0.14999999963E+04  0.15000000000E+04  0.10566000000E+00 0.  1.
        994   -1    0    0    0    0 -0.00000000000E+00 -0.00000000000E+00  0.11368683772E-12  0.17120000000E+03  0.17120000000E+03 0.  0.
         13    1    1    2    0    0 -0.92748899661E+02  0.12963512902E+03  0.32712109617E+03  0.36388988415E+03  0.10566000000E+00 0.  1.
        994    1    1    2    0    0  0.89427011422E+02 -0.32123244154E+03  0.88762134993E+03  0.96351884918E+03  0.17120000000E+03 0.  0.
        998    1    1    2    0    0  0.33218882385E+01  0.19159731251E+03  0.28525755018E+03  0.34379126667E+03  0.10000000000E+02 0.  1.
</event>
<event>
 5    1  0.5781797E-010  0.3760633E+03  0.7957747E-01  0.3468481E+00
         13   -1    0    0    0    0  0.00000000000E+00  0.00000000000E+00  0.14999999963E+04  0.15000000000E+04  0.10566000000E+00 0.  1.
        994   -1    0    0    0    0 -0.00000000000E+00 -0.00000000000E+00  0.11368683772E-12  0.17120000000E+03  0.17120000000E+03 0.  0.
         13    1    1    2    0    0 -0.63457182071E+01  0.63979698803E+02  0.25326784392E+03  0.26130113265E+03  0.10566000000E+00 0.  1.
        994    1    1    2    0    0 -0.12026719033E+03 -0.11277253419E+03  0.10457672241E+03  0.25966819676E+03  0.17120000000E+03 0.  0.
        998    1    1    2    0    0  0.12661290854E+03  0.48792835389E+02  0.11421554300E+04  0.11502306706E+04  0.10000000000E+02 0.  1.
</event>
<event>
 5    1  0.5781797E-010  0.3851635E+03  0.7957747E-01  0.3428979E+00
         13   -1    0    0    0    0  0.00000000000E+00  0.00000000000E+00  0.14999999963E+04  0.15000000000E+04  0.10566000000E+00 0.  1.
        994   -1    0    0    0    0 -0.00000000000E+00 -0.00000000000E+00  0.11368683772E-12  0.17120000000E+03  0.17120000000E+03 0.  0.
         13    1    1    2    0    0 -0.11542557982E+02 -0.11107667832E+03  0.63948254404E+03  0.64916037649E+03  0.10566000000E+00 0.  1.
        994    1    1    2    0    0 -0.80931687767E+01  0.17657042137E+03  0.11204043755E+03  0.27037957158E+03  0.17120000000E+03 0.  0.
        998    1    1    2    0    0  0.19635726759E+02 -0.65493743052E+02  0.74847701469E+03  0.75166005193E+03  0.10000000000E+02 0.  1.
</event>
<event>
 5    1  0.5781797E-010  0.3861892E+03  0.7957747E-01  0.3424644E+00
         13   -1    0    0    0    0  0.00000000000E+00  0.00000000000E+00  0.14999999963E+04  0.15000000000E+04  0.10566000000E+00 0.  1.
        994   -1    0    0    0    0 -0.00000000000E+00 -0.00000000000E+00  0.11368683772E-12  0.17120000000E+03  0.17120000000E+03 0.  0.
         13    1    1    2    0    0 -0.41097129879E+02  0.15204209186E+03  0.84523660324E+03  0.85978526296E+03  0.10566000000E+00 0.  1.
        994    1    1    2    0    0  0.99088299777E+02 -0.22388586032E+03  0.23113106865E+03  0.37772262376E+03  0.17120000000E+03 0.  0.
        998    1    1    2    0    0 -0.57991169899E+02  0.71843768464E+02  0.42363232439E+03  0.43369211328E+03  0.10000000000E+02 0. -1.
</event>
<event>
 5    1  0.5781797E-010  0.3849335E+03  0.7957747E-01  0.3429954E+00
         13   -1    0    0    0    0  0.00000000000E+00  0.00000000000E+00  0.14999999963E+04  0.15000000000E+04  0.10566000000E+00 0.  1.
        994   -1    0    0    0    0 -0.00000000000E+00 -0.00000000000E+00  0.11368683772E-12  0.17120000000E+03  0.17120000000E+03 0.  0.
         13    1    1    2    0    0  0.20712253000E+03  0.96186941426E+02  0.11800527726E+04  0.12019468488E+04  0.10566000000E+00 0.  1.
        994    1    1    2    0    0 -0.22505424342E+03 -0.11460950694E+03  0.25132955473E+03  0.39529828819E+03  0.17120000000E+03 0.  0.
        998    1    1    2    0    0  0.17931713422E+02  0.18422565519E+02  0.68617668970E+02  0.73954863001E+02  0.10000000000E+02 0.  1.
</event>
<event>
 5    1  0.5781797E-010  0.3869585E+03  0.7957747E-01  0.3421408E+00
         13   -1    0    0    0    0  0.00000000000E+00  0.00000000000E+00  0.14999999963E+04  0.15000000000E+04  0.10566000000E+00 0. -1.
        994   -1    0    0    0    0 -0.00000000000E+00 -0.00000000000E+00  0.11368683772E-12  0.17120000000E+03  0.17120000000E+03 0.  0.
         13    1    1    2    0    0 -0.12560279021E+02  0.89277924605E+01  0.84653109926E+02  0.86044327363E+02  0.10566000000E+00 0. -1.
        994    1    1    2    0    0  0.65808039419E+02 -0.66420249246E+02  0.29768410941E+02  0.19732700234E+03  0.17120000000E+03 0.  0.
        998    1    1    2    0    0 -0.53247760398E+02  0.57492456786E+02  0.13855784754E+04  0.13878286703E+04  0.10000000000E+02 0. -1.
</event>
<event>
 5    1  0.5781797E-010  0.3839045E+03  0.7957747E-01  0.3434332E+00
         13   -1    0    0    0    0  0.00000000000E+00  0.00000000000E+00  0.14999999963E+04  0.15000000000E+04  0.10566000000E+00 0. -1.
        994   -1    0    0    0    0 -0.00000000000E+00 -0.00000000000E+00  0.11368683772E-12  0.17120000000E+03  0.17120000000E+03 0.  0.
         13    1    1    2    0    0  0.26412672973E+03 -0.79126027852E+02  0.10013799974E+04  0.10386461226E+04  0.10566000000E+00 0. -1.
        994    1    1    2    0    0 -0.29802419412E+03  0.79240965908E+02  0.43774466536E+03  0.56216312847E+03  0.17120000000E+03 0.  0.
        998    1    1    2    0    0  0.33897464392E+02 -0.11493805615E+00  0.60875333477E+02  0.70390748888E+02  0.10000000000E+02 0. -1.
</event>
<event>
 5    1  0.5781797E-010  0.3871854E+03  0.7957747E-01  0.3420456E+00
         13   -1    0    0    0    0  0.00000000000E+00  0.00000000000E+00  0.14999999963E+04  0.15000000000E+04  0.10566000000E+00 0.  1.
        994   -1    0    0    0    0 -0.00000000000E+00 -0.00000000000E+00  0.11368683772E-12  0.17120000000E+03  0.17120000000E+03 0.  0.
         13    1    1    2    0    0  0.96897237390E+02 -0.18018571164E+03  0.11086198917E+04  0.11273393636E+04  0.10566000000E+00 0.  1.
        994    1    1    2    0    0 -0.11462629836E+03  0.19868370756E+03  0.19681590991E+03  0.34736198168E+03  0.17120000000E+03 0.  0.
        998    1    1    2    0    0  0.17729060971E+02 -0.18497995918E+02  0.19456419463E+03  0.19649865467E+03  0.10000000000E+02 0.  1.
</event>
<event>
 5    1  0.5781797E-010  0.3866995E+03  0.7957747E-01  0.3422496E+00
         13   -1    0    0    0    0  0.00000000000E+00  0.00000000000E+00  0.14999999963E+04  0.15000000000E+04  0.10566000000E+00 0.  1.
        994   -1    0    0    0    0 -0.00000000000E+00 -0.00000000000E+00  0.11368683772E-12  0.17120000000E+03  0.17120000000E+03 0.  0.
         13    1    1    2    0    0  0.14854523785E+03 -0.92612502509E+02  0.97122785791E+03  0.98687705742E+03  0.10566000000E+00 0.  1.
        994    1    1    2    0    0 -0.21357832640E+03  0.13125953811E+03  0.24391172744E+03  0.38941897570E+03  0.17120000000E+03 0.  0.
        998    1    1    2    0    0  0.65033088552E+02 -0.38647035603E+02  0.28486041093E+03  0.29490396688E+03  0.10000000000E+02 0. -1.
</event>
<event>
 5    1  0.5781797E-010  0.3859515E+03  0.7957747E-01  0.3425647E+00
         13   -1    0    0    0    0  0.00000000000E+00  0.00000000000E+00  0.14999999963E+04  0.15000000000E+04  0.10566000000E+00 0.  1.
        994   -1    0    0    0    0 -0.00000000000E+00 -0.00000000000E+00  0.11368683772E-12  0.17120000000E+03  0.17120000000E+03 0.  0.
         13    1    1    2    0    0 -0.46235477981E+02  0.68382734100E+02  0.45439310024E+03  0.46183007530E+03  0.10566000000E+00 0.  1.
        994    1    1    2    0    0  0.60142011967E+02 -0.22625056155E+03  0.20814863141E+03  0.35698973509E+03  0.17120000000E+03 0.  0.
        998    1    1    2    0    0 -0.13906533985E+02  0.15786782745E+03  0.83745826463E+03  0.85238018961E+03  0.10000000000E+02 0.  1.
</event>
<event>
 5    1  0.5781797E-010  0.3863969E+03  0.7957747E-01  0.3423769E+00
         13   -1    0    0    0    0  0.00000000000E+00  0.00000000000E+00  0.14999999963E+04  0.15000000000E+04  0.10566000000E+00 0.  1.
        994   -1    0    0    0    0 -0.00000000000E+00 -0.00000000000E+00  0.11368683772E-12  0.17120000000E+03  0.17120000000E+03 0.  0.
         13    1    1    2    0    0 -0.22469199446E+02  0.22110178512E+03  0.12002617134E+04  0.12206633672E+04  0.10566000000E+00 0.  1.
        994    1    1    2    0    0  0.19627672301E+02 -0.22934902197E+03  0.19949631048E+03  0.34942014437E+03  0.17120000000E+03 0.  0.
        998    1    1    2    0    0  0.28415271454E+01  0.82472368586E+01  0.10024197241E+03  0.10111648840E+03  0.10000000000E+02 0.  1.
</event>
<event>
 5    1  0.5781797E-010  0.3857763E+03  0.7957747E-01  0.3426387E+00
         13   -1    0    0    0    0  0.00000000000E+00  0.00000000000E+00  0.14999999963E+04  0.15000000000E+04  0.10566000000E+00 0.  1.
        994   -1    0    0    0    0 -0.00000000000E+00 -0.00000000000E+00  0.11368683772E-12  0.17120000000E+03  0.17120000000E+03 0.  0.
         13    1    1    2    0    0  0.73964594699E+02 -0.45548153717E+02  0.47763483618E+03  0.48546930229E+03  0.10566000000E+00 0.  1.
        994    1    1    2    0    0 -0.16834081726E+03  0.63107683980E+02  0.11561196149E+03  0.27385539281E+03  0.17120000000E+03 0.  0.
        998    1    1    2    0    0  0.94376222559E+02 -0.17559530263E+02  0.90675319861E+03  0.91187530489E+03  0.10000000000E+02 0.  1.
</event>
<event>
 5    1  0.5781797E-010  0.3867632E+03  0.7957747E-01  0.3422229E+00
         13   -1    0    0    0    0  0.00000000000E+00  0.00000000000E+00  0.14999999963E+04  0.15000000000E+04  0.10566000000E+00 0. -1.
        994   -1    0    0    0    0 -0.00000000000E+00 -0.00000000000E+00  0.11368683772E-12  0.17120000000E+03  0.17120000000E+03 0.  0.
         13    1    1    2    0    0  0.12529293940E+02  0.33106377642E+01  0.65852334058E+02  0.67115457191E+02  0.10566000000E+00 0. -1.
        994    1    1    2    0    0 -0.11531297789E+03  0.70667486862E+02  0.63033594343E+02  0.22709832801E+03  0.17120000000E+03 0.  0.
        998    1    1    2    0    0  0.10278368395E+03 -0.73978124626E+02  0.13711140679E+04  0.13769862148E+04  0.10000000000E+02 0. -1.
</event>
<event>
 5    1  0.5781797E-010  0.3860296E+03  0.7957747E-01  0.3425317E+00
         13   -1    0    0    0    0  0.00000000000E+00  0.00000000000E+00  0.14999999963E+04  0.15000000000E+04  0.10566000000E+00 0.  1.
        994   -1    0    0    0    0 -0.00000000000E+00 -0.00000000000E+00  0.11368683772E-12  0.17120000000E+03  0.17120000000E+03 0.  0.
         13    1    1    2    0    0 -0.48988532155E+02  0.90322361309E+02  0.55187627365E+03  0.56136034578E+03  0.10566000000E+00 0.  1.
        994    1    1    2    0    0  0.56058407596E+02 -0.19637953782E+03  0.15240790725E+03  0.30699361252E+03  0.17120000000E+03 0.  0.
        998    1    1    2    0    0 -0.70698754413E+01  0.10605717651E+03  0.79571581538E+03  0.80284604170E+03  0.10000000000E+02 0.  1.
</event>
<event>
 5    1  0.5781797E-010  0.3875009E+03  0.7957747E-01  0.3419134E+00
         13   -1    0    0    0    0  0.00000000000E+00  0.00000000000E+00  0.14999999963E+04  0.15000000000E+04  0.10566000000E+00 0. -1.
        994   -1    0    0    0    0 -0.00000000000E+00 -0.00000000000E+00  0.11368683772E-12  0.17120000000E+03  0.17120000000E+03 0.  0.
         13    1    1    2    0    0  0.65072932856E+02  0.48840124087E+01  0.28144975624E+03  0.28891576042E+03  0.10566000000E+00 0. -1.
        994    1    1    2    0    0 -0.25865524297E+03  0.32234113599E+02  0.26716526661E+03  0.41064375373E+03  0.17120000000E+03 0.  0.
        998    1    1    2    0    0  0.19358231012E+03 -0.37118126007E+02  0.95138497343E+03  0.97164048584E+03  0.10000000000E+02 0. -1.
</event>
<event>
 5    1  0.5781797E-010  0.3764291E+03  0.7957747E-01  0.3466856E+00
         13   -1    0    0    0    0  0.00000000000E+00  0.00000000000E+00  0.14999999963E+04  0.15000000000E+04  0.10566000000E+00 0. -1.
        994   -1    0    0    0    0 -0.00000000000E+00 -0.00000000000E+00  0.11368683772E-12  0.17120000000E+03  0.17120000000E+03 0.  0.
         13    1    1    2    0    0  0.22373101260E+03 -0.24227801882E+03  0.72134166776E+03  0.79315069010E+03  0.10566000000E+00 0. -1.
        994    1    1    2    0    0 -0.24061111314E+03  0.24155109608E+03  0.76251724979E+03  0.85263276738E+03  0.17120000000E+03 0.  0.
        998    1    1    2    0    0  0.16880100542E+02  0.72692273750E+00  0.16141078727E+02  0.25416542516E+02  0.10000000000E+02 0. -1.
</event>
<event>
 5    1  0.5781797E-010  0.3852880E+03  0.7957747E-01  0.3428452E+00
         13   -1    0    0    0    0  0.00000000000E+00  0.00000000000E+00  0.14999999963E+04  0.15000000000E+04  0.10566000000E+00 0. -1.
        994   -1    0    0    0    0 -0.00000000000E+00 -0.00000000000E+00  0.11368683772E-12  0.17120000000E+03  0.17120000000E+03 0.  0.
         13    1    1    2    0    0  0.15009684509E+03  0.10991937269E+03  0.10122388946E+04  0.10291933357E+04  0.10566000000E+00 0. -1.
        994    1    1    2    0    0 -0.16387211169E+03 -0.13315315867E+03  0.16505867503E+03  0.31802144402E+03  0.17120000000E+03 0.  0.
        998    1    1    2    0    0  0.13775266600E+02  0.23233785981E+02  0.32270242669E+03  0.32398522030E+03  0.10000000000E+02 0. -1.
</event>
<event>
 5    1  0.5781797E-010  0.3847491E+03  0.7957747E-01  0.3430737E+00
         13   -1    0    0    0    0  0.00000000000E+00  0.00000000000E+00  0.14999999963E+04  0.15000000000E+04  0.10566000000E+00 0.  1.
        994   -1    0    0    0    0 -0.00000000000E+00 -0.00000000000E+00  0.11368683772E-12  0.17120000000E+03  0.17120000000E+03 0.  0.
         13    1    1    2    0    0  0.15329757472E+02 -0.41877617620E+01  0.61261824280E+02  0.63289502217E+02  0.10566000000E+00 0.  1.
        994    1    1    2    0    0 -0.57909974598E+02 -0.51767736406E+02  0.21871661711E+02  0.18926508732E+03  0.17120000000E+03 0.  0.
        998    1    1    2    0    0  0.42580217125E+02  0.55955498168E+02  0.14168665103E+04  0.14186454105E+04  0.10000000000E+02 0.  1.
</event>
<event>
 5    1  0.5781797E-010  0.3763233E+03  0.7957747E-01  0.3467326E+00
         13   -1    0    0    0    0  0.00000000000E+00  0.00000000000E+00  0.14999999963E+04  0.15000000000E+04  0.10566000000E+00 0. -1.
        994   -1    0    0    0    0 -0.00000000000E+00 -0.00000000000E+00  0.11368683772E-12  0.17120000000E+03  0.17120000000E+03 0.  0.
         13    1    1    2    0    0  0.33661627622E+02  0.10183712490E+03  0.48391673081E+03  0.49566048733E+03  0.10566000000E+00 0. -1.
        994    1    1    2    0    0  0.15429176624E+03 -0.18411414933E+03  0.26385681267E+03  0.39576991637E+03  0.17120000000E+03 0.  0.
        998    1    1    2    0    0 -0.18795339387E+03  0.82277024422E+02  0.75222645280E+03  0.77976959630E+03  0.10000000000E+02 0. -1.
</event>
<event>
 5    1  0.8462560E-010  0.3859838E+03  0.7957747E-01  0.3425510E+00
         13   -1    0    0    0    0  0.00000000000E+00  0.00000000000E+00  0.14999999963E+04  0.15000000000E+04  0.10566000000E+00 0. -1.
        994   -1    0    0    0    0 -0.00000000000E+00 -0.00000000000E+00  0.11368683772E-12  0.17120000000E+03  0.17120000000E+03 0.  0.
         13    1    1    2    0    0  0.62738645181E+01  0.96357520122E+01  0.63030240766E+02  0.64070519803E+02  0.10566000000E+00 0. -1.
        994    1    1    2    0    0  0.43789875172E+02 -0.31388316787E+02  0.10716760884E+02  0.17979729854E+03  0.17120000000E+03 0.  0.
        998    1    1    2    0    0 -0.50063739690E+02  0.21752564775E+02  0.14262529946E+04  0.14273321817E+04  0.10000000000E+02 0. -1.
</event>
<event>
 5    1  0.5781797E-010  0.3780089E+03  0.7957747E-01  0.3459874E+00
         13   -1    0    0    0    0  0.00000000000E+00  0.00000000000E+00  0.14999999963E+04  0.15000000000E+04  0.10566000000E+00 0. -1.
        994   -1    0    0    0    0 -0.00000000000E+00 -0.00000000000E+00  0.11368683772E-12  0.17120000000E+03  0.17120000000E+03 0.  0.
         13    1    1    2    0    0  0.32713473588E+02  0.10375321704E+01  0.17329866760E+03  0.17636237463E+03  0.10566000000E+00 0. -1.
        994    1    1    2    0    0  0.56096027219E+02  0.26991713866E+02  0.18295108714E+02  0.18308322668E+03  0.17120000000E+03 0.  0.
        998    1    1    2    0    0 -0.88809500807E+02 -0.28029246037E+02  0.13084062200E+04  0.13117543987E+04  0.10000000000E+02 0. -1.
</event>
<event>
 5    1  0.5781797E-010  0.3687993E+03  0.7957747E-01  0.3501427E+00
         13   -1    0    0    0    0  0.00000000000E+00  0.00000000000E+00  0.14999999963E+04  0.15000000000E+04  0.10566000000E+00 0. -1.
        994   -1    0    0    0    0 -0.00000000000E+00 -0.00000000000E+00  0.11368683772E-12  0.17120000000E+03  0.17120000000E+03 0.  0.
         13    1    1    2    0    0  0.68895772434E+00  0.24534554403E+03  0.11219360034E+04  0.11484490923E+04  0.10566000000E+00 0. -1.
        994    1    1    2    0    0 -0.26320509627E+02 -0.27158929247E+03  0.32619955856E+03  0.45844204106E+03  0.17120000000E+03 0.  0.
        998    1    1    2    0    0  0.25631551903E+02  0.26243748438E+02  0.51864434307E+02  0.64308866659E+02  0.10000000000E+02 0. -1.
</event>
<event>
 5    1  0.5781797E-010  0.3689801E+03  0.7957747E-01  0.3500592E+00
         13   -1    0    0    0    0  0.00000000000E+00  0.00000000000E+00  0.14999999963E+04  0.15000000000E+04  0.10566000000E+00 0.  1.
        994   -1    0    0    0    0 -0.00000000000E+00 -0.00000000000E+00  0.11368683772E-12  0.17120000000E+03  0.17120000000E+03 0.  0.
         13    1    1    2    0    0  0.10149497631E+02 -0.71522931381E+02  0.11246566456E+03  0.13366779299E+03  0.10566000000E+00 0.  1.
        994    1    1    2    0    0 -0.12732483748E+03  0.20648464519E+03  0.25633310997E+03  0.39225454262E+03  0.17120000000E+03 0.  0.
        998    1    1    2    0    0  0.11717533985E+03 -0.13496171381E+03  0.11312012217E+04  0.11452776644E+04  0.10000000000E+02 0.  1.
</event>
<event>
 5    1  0.5781797E-010  0.3783842E+03  0.7957747E-01  0.3458224E+00
         13   -1    0    0    0    0  0.00000000000E+00  0.00000000000E+00  0.14999999963E+04  0.15000000000E+04  0.10566000000E+00 0. -1.
        994   -1    0    0    0    0 -0.00000000000E+00 -0.00000000000E+00  0.11368683772E-12  0.17120000000E+03  0.17120000000E+03 0.  0.
         13    1    1    2    0    0 -0.14432638664E+02  0.19931459290E+02  0.79833327094E+02  0.83540022787E+02  0.10566000000E+00 0. -1.
        994    1    1    2    0    0 -0.55249391630E+02  0.22659414722E+02  0.17030702033E+02  0.18211378081E+03  0.17120000000E+03 0.  0.
        998    1    1    2    0    0  0.69682030294E+02 -0.42590874012E+02  0.14031359672E+04  0.14055461964E+04  0.10000000000E+02 0. -1.
</event>
<event>
 5    1  0.5781797E-010  0.3879624E+03  0.7957747E-01  0.3417205E+00
         13   -1    0    0    0    0  0.00000000000E+00  0.00000000000E+00  0.14999999963E+04  0.15000000000E+04  0.10566000000E+00 0.  1.
        994   -1    0    0    0    0 -0.00000000000E+00 -0.00000000000E+00  0.11368683772E-12  0.17120000000E+03  0.17120000000E+03 0.  0.
         13    1    1    2    0    0 -0.18107895768E+02  0.34957040133E+02  0.19382130484E+03  0.19777916957E+03  0.10566000000E+00 0.  1.
        994    1    1    2    0    0  0.76936221170E+02 -0.24684747965E+03  0.26102071083E+03  0.40533210065E+03  0.17120000000E+03 0.  0.
        998    1    1    2    0    0 -0.58828325402E+02  0.21189043952E+03  0.10451579806E+04  0.10680887298E+04  0.10000000000E+02 0.  1.
</event>
<event>
 5    1  0.5781797E-010  0.4048115E+03  0.7957747E-01  0.3349763E+00
         13   -1    0    0    0    0  0.00000000000E+00  0.00000000000E+00  0.14999999963E+04  0.15000000000E+04  0.10566000000E+00 0. -1.
        994   -1    0    0    0    0 -0.00000000000E+00 -0.00000000000E+00  0.11368683772E-12  0.17120000000E+03  0.17120000000E+03 0.  0.
         13    1    1    2    0    0  0.12073367134E+02  0.47734705219E+02  0.43222505598E+02  0.65517665026E+02  0.10566000000E+00 0. -1.
        994    1    1    2    0    0  0.11008807731E+03  0.21844458199E+03  0.34655082823E+03  0.45743233020E+03  0.17120000000E+03 0.  0.
        998    1    1    2    0    0 -0.12216144444E+03 -0.26617928721E+03  0.11102266625E+04  0.11482500048E+04  0.10000000000E+02 0. -1.
</event>
<event>
 5    1  0.5781797E-010  0.3765151E+03  0.7957747E-01  0.3466474E+00
         13   -1    0    0    0    0  0.00000000000E+00  0.00000000000E+00  0.14999999963E+04  0.15000000000E+04  0.10566000000E+00 0.  1.
        994   -1    0    0    0    0 -0.00000000000E+00 -0.00000000000E+00  0.11368683772E-12  0.17120000000E+03  0.17120000000E+03 0.  0.
         13    1    1    2    0    0 -0.86681695736E+01 -0.15533182132E+02  0.32892445947E+02  0.37394398983E+02  0.10566000000E+00 0.  1.
        994    1    1    2    0    0 -0.11159171912E+03 -0.48827315180E+02  0.57851894929E+02  0.21792911745E+03  0.17120000000E+03 0.  0.
        998    1    1    2    0    0  0.12025988870E+03  0.64360497311E+02  0.14092556554E+04  0.14158764836E+04  0.10000000000E+02 0.  1.
</event>
<event>
 5    1  0.5781797E-010  0.3834870E+03  0.7957747E-01  0.3436114E+00
         13   -1    0    0    0    0  0.00000000000E+00  0.00000000000E+00  0.14999999963E+04  0.15000000000E+04  0.10566000000E+00 0.  1.
        994   -1    0    0    0    0 -0.00000000000E+00 -0.00000000000E+00  0.11368683772E-12  0.17120000000E+03  0.17120000000E+03 0.  0.
         13    1    1    2    0    0  0.40176904886E+01  0.11218576766E+02  0.20146315661E+02  0.23406911378E+02  0.10566000000E+00 0.  1.
        994    1    1    2    0    0 -0.35691451085E+02 -0.11207973565E+03  0.49536333804E+02  0.21353930596E+03  0.17120000000E+03 0.  0.
        998    1    1    2    0    0  0.31673760596E+02  0.10086115888E+03  0.14303173468E+04  0.14342537827E+04  0.10000000000E+02 0.  1.
</event>
<event>
 5    1  0.5781797E-010  0.3862074E+03  0.7957747E-01  0.3424568E+00
         13   -1    0    0    0    0  0.00000000000E+00  0.00000000000E+00  0.14999999963E+04  0.15000000000E+04  0.10566000000E+00 0. -1.
        994   -1    0    0    0    0 -0.00000000000E+00 -0.00000000000E+00  0.11368683772E-12  0.17120000000E+03  0.17120000000E+03 0.  0.
         13    1    1    2    0    0  0.34904059020E+02 -0.66475534628E+02  0.43934946137E+03  0.44571880195E+03  0.10566000000E+00 0. -1.
        994    1    1    2    0    0 -0.95448161691E+02  0.13328586825E+03  0.94652767709E+02  0.25523334555E+03  0.17120000000E+03 0.  0.
        998    1    1    2    0    0  0.60544102672E+02 -0.66810333625E+02  0.96599776720E+03  0.97024785250E+03  0.10000000000E+02 0. -1.
</event>
<event>
 5    1  0.5781797E-010  0.3850604E+03  0.7957747E-01  0.3429416E+00
         13   -1    0    0    0    0  0.00000000000E+00  0.00000000000E+00  0.14999999963E+04  0.15000000000E+04  0.10566000000E+00 0. -1.
        994   -1    0    0    0    0 -0.00000000000E+00 -0.00000000000E+00  0.11368683772E-12  0.17120000000E+03  0.17120000000E+03 0.  0.
         13    1    1    2    0    0 -0.10814877347E+03 -0.13095452513E+03  0.81210307692E+03  0.82967262433E+03  0.10566000000E+00 0. -1.
        994    1    1    2    0    0  0.20313693031E+03  0.17378560341E+03  0.28958920671E+03  0.42969453924E+03  0.17120000000E+03 0.  0.
        998    1    1    2    0    0 -0.94988156841E+02 -0.42831078288E+02  0.39830771264E+03  0.41183283643E+03  0.10000000000E+02 0. -1.
</event>
<event>
 5    1  0.5781797E-010  0.3860454E+03  0.7957747E-01  0.3425251E+00
         13   -1    0    0    0    0  0.00000000000E+00  0.00000000000E+00  0.14999999963E+04  0.15000000000E+04  0.10566000000E+00 0. -1.
        994   -1    0    0    0    0 -0.00000000000E+00 -0.00000000000E+00  0.11368683772E-12  0.17120000000E+03  0.17120000000E+03 0.  0.
         13    1    1    2    0    0  0.34684282040E+01 -0.16106018991E+02  0.83443011967E+02  0.85053990219E+02  0.10566000000E+00 0. -1.
        994    1    1    2    0    0  0.40405223130E+01  0.62226356604E+02  0.13961768358E+02  0.18273701391E+03  0.17120000000E+03 0.  0.
        998    1    1    2    0    0 -0.75089505169E+01 -0.46120337613E+02  0.14025952160E+04  0.14034089959E+04  0.10000000000E+02 0. -1.
</event>
<event>
 5    1  0.5781797E-010  0.3860424E+03  0.7957747E-01  0.3425263E+00
         13   -1    0    0    0    0  0.00000000000E+00  0.00000000000E+00  0.14999999963E+04  0.15000000000E+04  0.10566000000E+00 0. -1.
        994   -1    0    0    0    0 -0.00000000000E+00 -0.00000000000E+00  0.11368683772E-12  0.17120000000E+03  0.17120000000E+03 0.  0.
         13    1    1    2    0    0  0.45203558625E+02 -0.21827538004E+03  0.12604713408E+04  0.12800294978E+04  0.10566000000E+00 0. -1.
        994    1    1    2    0    0 -0.47697560331E+02  0.22553574286E+03  0.20065727206E+03  0.35030587977E+03  0.17120000000E+03 0.  0.
        998    1    1    2    0    0  0.24940017067E+01 -0.72603628227E+01  0.38871383466E+02  0.40864622418E+02  0.10000000000E+02 0.  0.
</event>
<event>
 5    1  0.5781797E-010  0.3833249E+03  0.7957747E-01  0.3436808E+00
         13   -1    0    0    0    0  0.00000000000E+00  0.00000000000E+00  0.14999999963E+04  0.15000000000E+04  0.10566000000E+00 0.  1.
        994   -1    0    0    0    0 -0.00000000000E+00 -0.00000000000E+00  0.11368683772E-12  0.17120000000E+03  0.17120000000E+03 0.  0.
         13    1    1    2    0    0 -0.11459402732E+03  0.14063390039E+03  0.10467499585E+04  0.10623536002E+04  0.10566000000E+00 0.  1.
        994    1    1    2    0    0  0.15980037362E+03 -0.13802752198E+03  0.16737771236E+03  0.31923736440E+03  0.17120000000E+03 0.  0.
        998    1    1    2    0    0 -0.45206346306E+02 -0.26063784169E+01  0.28587232537E+03  0.28960903537E+03  0.10000000000E+02 0.  1.
</event>
<event>
 5    1  0.5781797E-010  0.3868056E+03  0.7957747E-01  0.3422050E+00
         13   -1    0    0    0    0  0.00000000000E+00  0.00000000000E+00  0.14999999963E+04  0.15000000000E+04  0.10566000000E+00 0.  1.
        994   -1    0    0    0    0 -0.00000000000E+00 -0.00000000000E+00  0.11368683772E-12  0.17120000000E+03  0.17120000000E+03 0.  0.
         13    1    1    2    0    0 -0.13186614522E+03 -0.27937354929E+02  0.76432668569E+03  0.77612142715E+03  0.10566000000E+00 0.  1.
        994    1    1    2    0    0  0.20519518075E+03  0.20973271801E+02  0.15495385419E+03  0.30962086051E+03  0.17120000000E+03 0.  0.
        998    1    1    2    0    0 -0.73329035524E+02  0.69640831285E+01  0.58071945640E+03  0.58545771234E+03  0.10000000000E+02 0.  0.
</event>
<event>
 5    1  0.5781797E-010  0.3847706E+03  0.7957747E-01  0.3430646E+00
         13   -1    0    0    0    0  0.00000000000E+00  0.00000000000E+00  0.14999999963E+04  0.15000000000E+04  0.10566000000E+00 0. -1.
        994   -1    0    0    0    0 -0.00000000000E+00 -0.00000000000E+00  0.11368683772E-12  0.17120000000E+03  0.17120000000E+03 0.  0.
         13    1    1    2    0    0  0.23751981893E+03  0.16983258169E+03  0.70684196637E+03  0.76477731842E+03  0.10566000000E+00 0. -1.
        994    1    1    2    0    0 -0.27924622148E+03 -0.18565559809E+03  0.60338357832E+03  0.71121560436E+03  0.17120000000E+03 0.  0.
        998    1    1    2    0    0  0.41726402550E+02  0.15823016401E+02  0.18977445159E+03  0.19520707721E+03  0.10000000000E+02 0.  1.
</event>
<event>
 5    1  0.5781797E-010  0.3876536E+03  0.7957747E-01  0.3418495E+00
         13   -1    0    0    0    0  0.00000000000E+00  0.00000000000E+00  0.14999999963E+04  0.15000000000E+04  0.10566000000E+00 0. -1.
        994   -1    0    0    0    0 -0.00000000000E+00 -0.00000000000E+00  0.11368683772E-12  0.17120000000E+03  0.17120000000E+03 0.  0.
         13    1    1    2    0    0 -0.14946026585E+03 -0.72414748613E+02  0.96883164263E+03  0.98296339190E+03  0.10566000000E+00 0. -1.
        994    1    1    2    0    0  0.19510047738E+03  0.11031393430E+03  0.18595347915E+03  0.33781873362E+03  0.17120000000E+03 0.  0.
        998    1    1    2    0    0 -0.45640211532E+02 -0.37899185685E+02  0.34521487450E+03  0.35041787449E+03  0.10000000000E+02 0. -1.
</event>
<event>
 5    1  0.5781797E-010  0.3880704E+03  0.7957747E-01  0.3416754E+00
         13   -1    0    0    0    0  0.00000000000E+00  0.00000000000E+00  0.14999999963E+04  0.15000000000E+04  0.10566000000E+00 0. -1.
        994   -1    0    0    0    0 -0.00000000000E+00 -0.00000000000E+00  0.11368683772E-12  0.17120000000E+03  0.17120000000E+03 0.  0.
         13    1    1    2    0    0  0.10586402261E+03  0.11100214919E+03  0.80814922128E+03  0.82257756074E+03  0.10566000000E+00 0. -1.
        994    1    1    2    0    0 -0.16982681607E+03 -0.17895735510E+03  0.23249625679E+03  0.37977734506E+03  0.17120000000E+03 0.  0.
        998    1    1    2    0    0  0.63962793458E+02  0.67955205902E+02  0.45935451821E+03  0.46884509420E+03  0.10000000000E+02 0.  0.
</event>
<event>
 5    1  0.5781797E-010  0.3767702E+03  0.7957747E-01  0.3465343E+00
         13   -1    0    0    0    0  0.00000000000E+00  0.00000000000E+00  0.14999999963E+04  0.15000000000E+04  0.10566000000E+00 0. -1.
        994   -1    0    0    0    0 -0.00000000000E+00 -0.00000000000E+00  0.11368683772E-12  0.17120000000E+03  0.17120000000E+03 0.  0.
         13    1    1    2    0    0 -0.58610826265E+02 -0.21085331786E+03  0.10630964669E+04  0.10853886215E+04  0.10566000000E+00 0. -1.
        994    1    1    2    0    0  0.14942081122E+02  0.24197825874E+03  0.24059028744E+03  0.38206003442E+03  0.17120000000E+03 0.  0.
        998    1    1    2    0    0  0.43668745142E+02 -0.31124940882E+02  0.19631324194E+03  0.20375134406E+03  0.10000000000E+02 0.  1.
</event>
<event>
 5    1  0.5781797E-010  0.3824807E+03  0.7957747E-01  0.3440428E+00
         13   -1    0    0    0    0  0.00000000000E+00  0.00000000000E+00  0.14999999963E+04  0.15000000000E+04  0.10566000000E+00 0.  1.
        994   -1    0    0    0    0 -0.00000000000E+00 -0.00000000000E+00  0.11368683772E-12  0.17120000000E+03  0.17120000000E+03 0.  0.
         13    1    1    2    0    0 -0.68173799272E+02  0.41981827740E+02  0.43843130430E+03  0.44568168072E+03  0.10566000000E+00 0.  1.
        994    1    1    2    0    0  0.16401406462E+03 -0.88240033549E+01  0.98193210359E+02  0.25676803342E+03  0.17120000000E+03 0.  0.
        998    1    1    2    0    0 -0.95840265345E+02 -0.33157824385E+02  0.96337548162E+03  0.96875028586E+03  0.10000000000E+02 0. -1.
</event>
<event>
 5    1  0.5781797E-010  0.3832374E+03  0.7957747E-01  0.3437182E+00
         13   -1    0    0    0    0  0.00000000000E+00  0.00000000000E+00  0.14999999963E+04  0.15000000000E+04  0.10566000000E+00 0. -1.
        994   -1    0    0    0    0 -0.00000000000E+00 -0.00000000000E+00  0.11368683772E-12  0.17120000000E+03  0.17120000000E+03 0.  0.
         13    1    1    2    0    0 -0.63303407557E+02 -0.35196366506E+02  0.18907208384E+03  0.20247066374E+03  0.10566000000E+00 0. -1.
        994    1    1    2    0    0  0.23038674091E+03  0.12239689994E+03  0.27554547308E+03  0.41628571827E+03  0.17120000000E+03 0.  0.
        998    1    1    2    0    0 -0.16708333335E+03 -0.87200533433E+02  0.10353824394E+04  0.10524436180E+04  0.10000000000E+02 0. -1.
</event>
<event>
 5    1  0.5781797E-010  0.3816856E+03  0.7957747E-01  0.3443852E+00
         13   -1    0    0    0    0  0.00000000000E+00  0.00000000000E+00  0.14999999963E+04  0.15000000000E+04  0.10566000000E+00 0.  1.
        994   -1    0    0    0    0 -0.00000000000E+00 -0.00000000000E+00  0.11368683772E-12  0.17120000000E+03  0.17120000000E+03 0.  0.
         13    1    1    2    0    0  0.71481412026E+02 -0.93156311781E+02  0.70539710190E+03  0.71510333045E+03  0.10566000000E+00 0.  1.
        994    1    1    2    0    0 -0.76434868511E+02  0.11654101908E+03  0.70803002683E+02  0.23183313707E+03  0.17120000000E+03 0.  0.
        998    1    1    2    0    0  0.49534564854E+01 -0.23384707300E+02  0.72379989170E+03  0.72426353248E+03  0.10000000000E+02 0.  1.
</event>
<event>
 5    1  0.5781797E-010  0.3826468E+03  0.7957747E-01  0.3439714E+00
         13   -1    0    0    0    0  0.00000000000E+00  0.00000000000E+00  0.14999999963E+04  0.15000000000E+04  0.10566000000E+00 0. -1.
        994   -1    0    0    0    0 -0.00000000000E+00 -0.00000000000E+00  0.11368683772E-12  0.17120000000E+03  0.17120000000E+03 0.  0.
         13    1    1    2    0    0  0.18425867738E+02  0.37102970698E+02  0.10940072933E+03  0.11698151041E+03  0.10566000000E+00 0. -1.
        994    1    1    2    0    0 -0.21803689443E+02 -0.21320203240E+03  0.17386152288E+03  0.32475802782E+03  0.17120000000E+03 0.  0.
        998    1    1    2    0    0  0.33778217058E+01  0.17609906171E+03  0.12167377441E+04  0.12294604618E+04  0.10000000000E+02 0. -1.
</event>
<event>
 5    1  0.5781797E-010  0.3841261E+03  0.7957747E-01  0.3433387E+00
         13   -1    0    0    0    0  0.00000000000E+00  0.00000000000E+00  0.14999999963E+04  0.15000000000E+04  0.10566000000E+00 0.  1.
        994   -1    0    0    0    0 -0.00000000000E+00 -0.00000000000E+00  0.11368683772E-12  0.17120000000E+03  0.17120000000E+03 0.  0.
         13    1    1    2    0    0  0.15686285373E+03 -0.16342870057E+03  0.12570967824E+04  0.12773438169E+04  0.10566000000E+00 0.  1.
        994    1    1    2    0    0 -0.16170667520E+03  0.15823482710E+03  0.19465802016E+03  0.34407629114E+03  0.17120000000E+03 0.  0.
        998    1    1    2    0    0  0.48438214629E+01  0.51938734701E+01  0.48245193691E+02  0.49779891947E+02  0.10000000000E+02 0. -1.
</event>
<event>
 5    1  0.5781797E-010  0.3842302E+03  0.7957747E-01  0.3432944E+00
         13   -1    0    0    0    0  0.00000000000E+00  0.00000000000E+00  0.14999999963E+04  0.15000000000E+04  0.10566000000E+00 0. -1.
        994   -1    0    0    0    0 -0.00000000000E+00 -0.00000000000E+00  0.11368683772E-12  0.17120000000E+03  0.17120000000E+03 0.  0.
         13    1    1    2    0    0  0.26841779978E+02  0.34259800957E+02  0.23010829985E+03  0.23418807813E+03  0.10566000000E+00 0. -1.
        994    1    1    2    0    0 -0.14034800013E+03 -0.38612021395E+02  0.75311154964E+02  0.23700139113E+03  0.17120000000E+03 0.  0.
        998    1    1    2    0    0  0.11350622015E+03  0.43522204375E+01  0.11945805415E+04  0.12000105307E+04  0.10000000000E+02 0. -1.
</event>
<event>
 5    1  0.5781797E-010  0.3580232E+03  0.7957747E-01  0.3552812E+00
         13   -1    0    0    0    0  0.00000000000E+00  0.00000000000E+00  0.14999999963E+04  0.15000000000E+04  0.10566000000E+00 0. -1.
        994   -1    0    0    0    0 -0.00000000000E+00 -0.00000000000E+00  0.11368683772E-12  0.17120000000E+03  0.17120000000E+03 0.  0.
         13    1    1    2    0    0  0.25163605265E+03  0.22262276978E+01  0.99724256614E+03  0.10285029927E+04  0.10566000000E+00 0. -1.
        994    1    1    2    0    0 -0.30072938989E+03  0.16034320091E+02  0.44734618404E+03  0.56579440943E+03  0.17120000000E+03 0.  0.
        998    1    1    2    0    0  0.49093337242E+02 -0.18260547789E+02  0.55411246094E+02  0.76902597881E+02  0.10000000000E+02 0.  1.
</event>
<event>
 5    1  0.5781797E-010  0.3880820E+03  0.7957747E-01  0.3416705E+00
         13   -1    0    0    0    0  0.00000000000E+00  0.00000000000E+00  0.14999999963E+04  0.15000000000E+04  0.10566000000E+00 0.  1.
        994   -1    0    0    0    0 -0.00000000000E+00 -0.00000000000E+00  0.11368683772E-12  0.17120000000E+03  0.17120000000E+03 0.  0.
         13    1    1    2    0    0 -0.10035060445E+03  0.11152783553E+03  0.77668144532E+03  0.79103905124E+03  0.10566000000E+00 0.  1.
        994    1    1    2    0    0  0.16630102707E+03 -0.17682557318E+03  0.22358318032E+03  0.37178245448E+03  0.17120000000E+03 0.  0.
        998    1    1    2    0    0 -0.65950422623E+02  0.65297737656E+02  0.49973537063E+03  0.50837849428E+03  0.10000000000E+02 0.  0.
</event>
<event>
 5    1  0.8585678E-010  0.3863598E+03  0.7957747E-01  0.3423926E+00
         13   -1    0    0    0    0  0.00000000000E+00  0.00000000000E+00  0.14999999963E+04  0.15000000000E+04  0.10566000000E+00 0. -1.
        994   -1    0    0    0    0 -0.00000000000E+00 -0.00000000000E+00  0.11368683772E-12  0.17120000000E+03  0.17120000000E+03 0.  0.
         13    1    1    2    0    0  0.18889678513E+03 -0.96256546032E+00  0.11049715789E+04  0.11210018391E+04  0.10566000000E+00 0. -1.
        994    1    1    2    0    0 -0.21143934152E+03  0.15179498906E+02  0.16527562966E+03  0.31868869777E+03  0.17120000000E+03 0.  0.
        998    1    1    2    0    0  0.22542556394E+02 -0.14216933446E+02  0.22975278768E+03  0.23150946308E+03  0.10000000000E+02 0. -1.
</event>
<event>
 5    1  0.5781797E-010  0.3694900E+03  0.7957747E-01  0.3498238E+00
         13   -1    0    0    0    0  0.00000000000E+00  0.00000000000E+00  0.14999999963E+04  0.15000000000E+04  0.10566000000E+00 0.  1.
        994   -1    0    0    0    0 -0.00000000000E+00 -0.00000000000E+00  0.11368683772E-12  0.17120000000E+03  0.17120000000E+03 0.  0.
         13    1    1    2    0    0  0.41775922509E+02 -0.72794777787E+02  0.39943849861E+03  0.40816103772E+03  0.10566000000E+00 0.  1.
        994    1    1    2    0    0 -0.24543652020E+03  0.14645366742E+02  0.26173737369E+03  0.39783095028E+03  0.17120000000E+03 0.  0.
        998    1    1    2    0    0  0.20366059770E+03  0.58149411045E+02  0.83882412398E+03  0.86520801200E+03  0.10000000000E+02 0.  1.
</event>
<event>
 5    1  0.5781797E-010  0.3865975E+03  0.7957747E-01  0.3422925E+00
         13   -1    0    0    0    0  0.00000000000E+00  0.00000000000E+00  0.14999999963E+04  0.15000000000E+04  0.10566000000E+00 0. -1.
        994   -1    0    0    0    0 -0.00000000000E+00 -0.00000000000E+00  0.11368683772E-12  0.17120000000E+03  0.17120000000E+03 0.  0.
         13    1    1    2    0    0  0.18374046175E+03  0.34863945544E+02  0.92583915546E+03  0.94453914949E+03  0.10566000000E+00 0. -1.
        994    1    1    2    0    0 -0.23160882016E+03 -0.32956197473E+02  0.20690117881E+03  0.35615487406E+03  0.17120000000E+03 0.  0.
        998    1    1    2    0    0  0.47868358410E+02 -0.19077480714E+01  0.36725966202E+03  0.37050597645E+03  0.10000000000E+02 0. -1.
</event>
<event>
 5    1  0.5781797E-010  0.3871417E+03  0.7957747E-01  0.3420639E+00
         13   -1    0    0    0    0  0.00000000000E+00  0.00000000000E+00  0.14999999963E+04  0.15000000000E+04  0.10566000000E+00 0. -1.
        994   -1    0    0    0    0 -0.00000000000E+00 -0.00000000000E+00  0.11368683772E-12  0.17120000000E+03  0.17120000000E+03 0.  0.
         13    1    1    2    0    0 -0.40277966703E+01  0.33050108251E+02  0.16382407374E+03  0.16717317698E+03  0.10566000000E+00 0. -1.
        994    1    1    2    0    0  0.49588887532E+02 -0.17075735872E+03  0.11166817993E+03  0.27091761798E+03  0.17120000000E+03 0.  0.
        998    1    1    2    0    0 -0.45561090862E+02  0.13770725047E+03  0.12245077426E+04  0.12331092050E+04  0.10000000000E+02 0. -1.
</event>
<event>
 5    1  0.5781797E-010  0.3874756E+03  0.7957747E-01  0.3419240E+00
         13   -1    0    0    0    0  0.00000000000E+00  0.00000000000E+00  0.14999999963E+04  0.15000000000E+04  0.10566000000E+00 0.  1.
        994   -1    0    0    0    0 -0.00000000000E+00 -0.00000000000E+00  0.11368683772E-12  0.17120000000E+03  0.17120000000E+03 0.  0.
         13    1    1    2    0    0 -0.63421178626E+01 -0.15359560988E+03  0.62572198317E+03  0.64432898835E+03  0.10566000000E+00 0.  1.
        994    1    1    2    0    0  0.17820996620E+02  0.26705392734E+03  0.28575548714E+03  0.42731841343E+03  0.17120000000E+03 0.  0.
        998    1    1    2    0    0 -0.11478878758E+02 -0.11345831746E+03  0.58852252597E+03  0.59955259822E+03  0.10000000000E+02 0.  1.
</event>
<event>
 5    1  0.5781797E-010  0.3867852E+03  0.7957747E-01  0.3422136E+00
         13   -1    0    0    0    0  0.00000000000E+00  0.00000000000E+00  0.14999999963E+04  0.15000000000E+04  0.10566000000E+00 0. -1.
        994   -1    0    0    0    0 -0.00000000000E+00 -0.00000000000E+00  0.11368683772E-12  0.17120000000E+03  0.17120000000E+03 0.  0.
         13    1    1    2    0    0 -0.11172256478E+03  0.59858025721E+02  0.58494572226E+03  0.59852019504E+03  0.10566000000E+00 0. -1.
        994    1    1    2    0    0  0.22637076307E+03 -0.84272633492E+02  0.22288604123E+03  0.37058497879E+03  0.17120000000E+03 0.  0.
        998    1    1    2    0    0 -0.11464819830E+03  0.24414607770E+02  0.69216823279E+03  0.70209482616E+03  0.10000000000E+02 0. -1.
</event>
<event>
 5    1  0.5781797E-010  0.3786859E+03  0.7957747E-01  0.3456900E+00
         13   -1    0    0    0    0  0.00000000000E+00  0.00000000000E+00  0.14999999963E+04  0.15000000000E+04  0.10566000000E+00 0. -1.
        994   -1    0    0    0    0 -0.00000000000E+00 -0.00000000000E+00  0.11368683772E-12  0.17120000000E+03  0.17120000000E+03 0.  0.
         13    1    1    2    0    0 -0.87278921202E+01 -0.19655185686E+02  0.12440296323E+03  0.12624821127E+03  0.10566000000E+00 0. -1.
        994    1    1    2    0    0  0.45937470768E+00 -0.14531092950E+03  0.79315220080E+02  0.23815083748E+03  0.17120000000E+03 0.  0.
        998    1    1    2    0    0  0.82685174125E+01  0.16496611519E+03  0.12962818130E+04  0.13068009512E+04  0.10000000000E+02 0. -1.
</event>
<event>
 5    1  0.5781797E-010  0.3735547E+03  0.7957747E-01  0.3479712E+00
         13   -1    0    0    0    0  0.00000000000E+00  0.00000000000E+00  0.14999999963E+04  0.15000000000E+04  0.10566000000E+00 0.  1.
        994   -1    0    0    0    0 -0.00000000000E+00 -0.00000000000E+00  0.11368683772E-12  0.17120000000E+03  0.17120000000E+03 0.  0.
         13    1    1    2    0    0  0.25079644534E+03 -0.57336683937E+02  0.63224076112E+03  0.68257947779E+03  0.10566000000E+00 0.  1.
        994    1    1    2    0    0 -0.31433119858E+03  0.79461720532E+01  0.51865786679E+03  0.63022429883E+03  0.17120000000E+03 0.  0.
        998    1    1    2    0    0  0.63534753244E+02  0.49390511884E+02  0.34910136837E+03  0.35839622338E+03  0.10000000000E+02 0.  1.
</event>
<event>
 5    1  0.5781797E-010  0.3879766E+03  0.7957747E-01  0.3417145E+00
         13   -1    0    0    0    0  0.00000000000E+00  0.00000000000E+00  0.14999999963E+04  0.15000000000E+04  0.10566000000E+00 0. -1.
        994   -1    0    0    0    0 -0.00000000000E+00 -0.00000000000E+00  0.11368683772E-12  0.17120000000E+03  0.17120000000E+03 0.  0.
         13    1    1    2    0    0 -0.90216480524E+01 -0.51523423249E+02  0.28644487957E+03  0.29118161596E+03  0.10566000000E+00 0. -1.
        994    1    1    2    0    0  0.30050339861E+02  0.20698769506E+03  0.15853735915E+03  0.31335357518E+03  0.17120000000E+03 0.  0.
        998    1    1    2    0    0 -0.21028691809E+02 -0.15546427181E+03  0.10550177576E+04  0.10666648089E+04  0.10000000000E+02 0. -1.
</event>
<event>
 5    1  0.5781797E-010  0.3857734E+03  0.7957747E-01  0.3426399E+00
         13   -1    0    0    0    0  0.00000000000E+00  0.00000000000E+00  0.14999999963E+04  0.15000000000E+04  0.10566000000E+00 0.  1.
        994   -1    0    0    0    0 -0.00000000000E+00 -0.00000000000E+00  0.11368683772E-12  0.17120000000E+03  0.17120000000E+03 0.  0.
         13    1    1    2    0    0  0.40096297647E+02 -0.13186124052E+03  0.45417938462E+03  0.47463040823E+03  0.10566000000E+00 0.  1.
        994    1    1    2    0    0 -0.77292375760E+02  0.26860912170E+03  0.32392527427E+03  0.46082751103E+03  0.17120000000E+03 0.  0.
        998    1    1    2    0    0  0.37196078113E+02 -0.13674788118E+03  0.72189533738E+03  0.73574208074E+03  0.10000000000E+02 0.  1.
</event>
<event>
 5    1  0.5781797E-010  0.3873710E+03  0.7957747E-01  0.3419678E+00
         13   -1    0    0    0    0  0.00000000000E+00  0.00000000000E+00  0.14999999963E+04  0.15000000000E+04  0.10566000000E+00 0.  1.
        994   -1    0    0    0    0 -0.00000000000E+00 -0.00000000000E+00  0.11368683772E-12  0.17120000000E+03  0.17120000000E+03 0.  0.
         13    1    1    2    0    0  0.20587622742E+03 -0.21413950485E+01  0.12000357448E+04  0.12175694668E+04  0.10566000000E+00 0.  1.
        994    1    1    2    0    0 -0.22672915034E+03 -0.96126234716E+00  0.19134629872E+03  0.34253449122E+03  0.17120000000E+03 0.  0.
        998    1    1    2    0    0  0.20852922917E+02  0.31026573957E+01  0.10861795274E+03  0.11109604194E+03  0.10000000000E+02 0.  0.
</event>
<event>
 5    1  0.5781797E-010  0.3714647E+03  0.7957747E-01  0.3489186E+00
         13   -1    0    0    0    0  0.00000000000E+00  0.00000000000E+00  0.14999999963E+04  0.15000000000E+04  0.10566000000E+00 0. -1.
        994   -1    0    0    0    0 -0.00000000000E+00 -0.00000000000E+00  0.11368683772E-12  0.17120000000E+03  0.17120000000E+03 0.  0.
         13    1    1    2    0    0  0.27526316824E+02  0.86696957154E+02  0.41307693296E+03  0.42297355024E+03  0.10566000000E+00 0. -1.
        994    1    1    2    0    0 -0.14154872887E+03 -0.55819800126E+02  0.92913934730E+02  0.24717267648E+03  0.17120000000E+03 0.  0.
        998    1    1    2    0    0  0.11402241205E+03 -0.30877157029E+02  0.99400912859E+03  0.10010537733E+04  0.10000000000E+02 0.  1.
</event>
<event>
 5    1  0.5781797E-010  0.3819393E+03  0.7957747E-01  0.3442757E+00
         13   -1    0    0    0    0  0.00000000000E+00  0.00000000000E+00  0.14999999963E+04  0.15000000000E+04  0.10566000000E+00 0.  1.
        994   -1    0    0    0    0 -0.00000000000E+00 -0.00000000000E+00  0.11368683772E-12  0.17120000000E+03  0.17120000000E+03 0.  0.
         13    1    1    2    0    0 -0.17185198004E+02 -0.90477733846E+01  0.69928840829E+02  0.72575802974E+02  0.10566000000E+00 0.  1.
        994    1    1    2    0    0 -0.26213234569E+02  0.14546386812E+01  0.54501648419E+01  0.17328702761E+03  0.17120000000E+03 0.  0.
        998    1    1    2    0    0  0.43398432573E+02  0.75931347034E+01  0.14246209906E+04  0.14253371694E+04  0.10000000000E+02 0.  1.
</event>
<event>
 5    1  0.5781797E-010  0.3876325E+03  0.7957747E-01  0.3418584E+00
         13   -1    0    0    0    0  0.00000000000E+00  0.00000000000E+00  0.14999999963E+04  0.15000000000E+04  0.10566000000E+00 0.  1.
        994   -1    0    0    0    0 -0.00000000000E+00 -0.00000000000E+00  0.11368683772E-12  0.17120000000E+03  0.17120000000E+03 0.  0.
         13    1    1    2    0    0 -0.21500671173E+03 -0.88298752420E+02  0.10128159128E+04  0.10391441864E+04  0.10566000000E+00 0.  1.
        994    1    1    2    0    0  0.24942861258E+03  0.11056467068E+03  0.29998150882E+03  0.44015625045E+03  0.17120000000E+03 0.  0.
        998    1    1    2    0    0 -0.34421900849E+02 -0.22265918260E+02  0.18720257469E+03  0.19189956317E+03  0.10000000000E+02 0.  0.
</event>
<event>
 5    1  0.5781797E-010  0.3859977E+03  0.7957747E-01  0.3425452E+00
         13   -1    0    0    0    0  0.00000000000E+00  0.00000000000E+00  0.14999999963E+04  0.15000000000E+04  0.10566000000E+00 0. -1.
        994   -1    0    0    0    0 -0.00000000000E+00 -0.00000000000E+00  0.11368683772E-12  0.17120000000E+03  0.17120000000E+03 0.  0.
         13    1    1    2    0    0 -0.22482176829E+03  0.14182857816E+03  0.10715713153E+04  0.11040494862E+04  0.10566000000E+00 0. -1.
        994    1    1    2    0    0  0.23572560902E+03 -0.14678496178E+03  0.31781877797E+03  0.45544549991E+03  0.17120000000E+03 0.  0.
        998    1    1    2    0    0 -0.10903840737E+02  0.49563836196E+01  0.11060990302E+03  0.11170501389E+03  0.10000000000E+02 0. -1.
</event>
<event>
 5    1  0.5781797E-010  0.3862973E+03  0.7957747E-01  0.3424189E+00
         13   -1    0    0    0    0  0.00000000000E+00  0.00000000000E+00  0.14999999963E+04  0.15000000000E+04  0.10566000000E+00 0.  1.
        994   -1    0    0    0    0 -0.00000000000E+00 -0.00000000000E+00  0.11368683772E-12  0.17120000000E+03  0.17120000000E+03 0.  0.
         13    1    1    2    0    0 -0.11989476334E+02 -0.19565033259E+02  0.11121709903E+03  0.11355964226E+03  0.10566000000E+00 0.  1.
        994    1    1    2    0    0 -0.55912059679E+01  0.15547201090E+03  0.84711148033E+02  0.24634980487E+03  0.17120000000E+03 0.  0.
        998    1    1    2    0    0  0.17580682302E+02 -0.13590697764E+03  0.13040717492E+04  0.13112905529E+04  0.10000000000E+02 0.  1.
</event>
<event>
 5    1  0.5781797E-010  0.2645972E+03  0.7957747E-01  0.4186430E+00
         13   -1    0    0    0    0  0.00000000000E+00  0.00000000000E+00  0.14999999963E+04  0.15000000000E+04  0.10566000000E+00 0.  1.
        994   -1    0    0    0    0 -0.00000000000E+00 -0.00000000000E+00  0.11368683772E-12  0.17120000000E+03  0.17120000000E+03 0.  0.
         13    1    1    2    0    0  0.12773019327E+03 -0.14809392746E+03  0.75887699511E+03  0.78367156290E+03  0.10566000000E+00 0.  1.
        994    1    1    2    0    0  0.35997923962E+02  0.34186214905E+02  0.77255827646E+02  0.19427416381E+03  0.17120000000E+03 0.  0.
        998    1    1    2    0    0 -0.16372811724E+03  0.11390771256E+03  0.66386717352E+03  0.69325427329E+03  0.10000000000E+02 0.  1.
</event>
<event>
 5    1  0.5781797E-010  0.3364997E+03  0.7957747E-01  0.3665605E+00
         13   -1    0    0    0    0  0.00000000000E+00  0.00000000000E+00  0.14999999963E+04  0.15000000000E+04  0.10566000000E+00 0. -1.
        994   -1    0    0    0    0 -0.00000000000E+00 -0.00000000000E+00  0.11368683772E-12  0.17120000000E+03  0.17120000000E+03 0.  0.
         13    1    1    2    0    0  0.21002032557E+03 -0.20313253778E+03  0.68975518186E+03  0.74908850420E+03  0.10566000000E+00 0. -1.
        994    1    1    2    0    0 -0.23490849605E+03  0.16749707793E+03  0.81084507234E+03  0.87750580851E+03  0.17120000000E+03 0.  0.
        998    1    1    2    0    0  0.24888170480E+02  0.35635459855E+02 -0.60025791945E+00  0.44605687289E+02  0.10000000000E+02 0. -1.
</event>
<event>
 5    1  0.5781797E-010  0.3864259E+03  0.7957747E-01  0.3423647E+00
         13   -1    0    0    0    0  0.00000000000E+00  0.00000000000E+00  0.14999999963E+04  0.15000000000E+04  0.10566000000E+00 0. -1.
        994   -1    0    0    0    0 -0.00000000000E+00 -0.00000000000E+00  0.11368683772E-12  0.17120000000E+03  0.17120000000E+03 0.  0.
         13    1    1    2    0    0  0.12481189341E+03  0.12766864449E+03  0.75402965990E+03  0.77487936525E+03  0.10566000000E+00 0. -1.
        994    1    1    2    0    0 -0.16818697148E+03 -0.19356949781E+03  0.25834528483E+03  0.40225332075E+03  0.17120000000E+03 0.  0.
        998    1    1    2    0    0  0.43375078065E+02  0.65900853321E+02  0.48762505155E+03  0.49406731400E+03  0.10000000000E+02 0. -1.
</event>
<event>
 5    1  0.5781797E-010  0.3881456E+03  0.7957747E-01  0.3416440E+00
         13   -1    0    0    0    0  0.00000000000E+00  0.00000000000E+00  0.14999999963E+04  0.15000000000E+04  0.10566000000E+00 0.  1.
        994   -1    0    0    0    0 -0.00000000000E+00 -0.00000000000E+00  0.11368683772E-12  0.17120000000E+03  0.17120000000E+03 0.  0.
         13    1    1    2    0    0 -0.11797779955E+03 -0.36526804903E+02  0.69312840615E+03  0.70404542981E+03  0.10566000000E+00 0.  1.
        994    1    1    2    0    0  0.22387404576E+03  0.68719890675E+02  0.20525684415E+03  0.35536153958E+03  0.17120000000E+03 0.  0.
        998    1    1    2    0    0 -0.10589624621E+03 -0.32193085772E+02  0.60161474598E+03  0.61179303061E+03  0.10000000000E+02 0.  0.
</event>
<event>
 5    1  0.5781797E-010  0.3855476E+03  0.7957747E-01  0.3427353E+00
         13   -1    0    0    0    0  0.00000000000E+00  0.00000000000E+00  0.14999999963E+04  0.15000000000E+04  0.10566000000E+00 0.  1.
        994   -1    0    0    0    0 -0.00000000000E+00 -0.00000000000E+00  0.11368683772E-12  0.17120000000E+03  0.17120000000E+03 0.  0.
         13    1    1    2    0    0 -0.27733187344E+03  0.63572739810E+02  0.10832351268E+04  0.11199789339E+04  0.10566000000E+00 0.  1.
        994    1    1    2    0    0  0.28444148857E+03 -0.59581690654E+02  0.36128357177E+03  0.49425924120E+03  0.17120000000E+03 0.  0.
        998    1    1    2    0    0 -0.71096151280E+01 -0.39910491555E+01  0.55481297720E+02  0.56961824912E+02  0.10000000000E+02 0.  1.
</event>
<event>
 5    1  0.5781797E-010  0.3874493E+03  0.7957747E-01  0.3419351E+00
         13   -1    0    0    0    0  0.00000000000E+00  0.00000000000E+00  0.14999999963E+04  0.15000000000E+04  0.10566000000E+00 0.  1.
        994   -1    0    0    0    0 -0.00000000000E+00 -0.00000000000E+00  0.11368683772E-12  0.17120000000E+03  0.17120000000E+03 0.  0.
         13    1    1    2    0    0  0.83905235199E+01 -0.19527160874E+03  0.11237790052E+04  0.11406492300E+04  0.10566000000E+00 0.  1.
        994    1    1    2    0    0 -0.19166415761E+02  0.22607798899E+03  0.19155271850E+03  0.34275427431E+03  0.17120000000E+03 0.  0.
        998    1    1    2    0    0  0.10775892241E+02 -0.30806380247E+02  0.18466827255E+03  0.18779649572E+03  0.10000000000E+02 0.  0.
</event>
<event>
 5    1  0.5781797E-010  0.3772488E+03  0.7957747E-01  0.3463226E+00
         13   -1    0    0    0    0  0.00000000000E+00  0.00000000000E+00  0.14999999963E+04  0.15000000000E+04  0.10566000000E+00 0.  1.
        994   -1    0    0    0    0 -0.00000000000E+00 -0.00000000000E+00  0.11368683772E-12  0.17120000000E+03  0.17120000000E+03 0.  0.
         13    1    1    2    0    0  0.10355984738E+02  0.19660002958E+02  0.69472731113E+02  0.72939931920E+02  0.10566000000E+00 0.  1.
        994    1    1    2    0    0  0.16178476000E+03  0.23122833729E+02  0.10169608152E+03  0.25760533186E+03  0.17120000000E+03 0.  0.
        998    1    1    2    0    0 -0.17214074473E+03 -0.42782836687E+02  0.13288311836E+04  0.13406547362E+04  0.10000000000E+02 0.  1.
</event>
<event>
 5    1  0.5781797E-010  0.3706693E+03  0.7957747E-01  0.3492821E+00
         13   -1    0    0    0    0  0.00000000000E+00  0.00000000000E+00  0.14999999963E+04  0.15000000000E+04  0.10566000000E+00 0.  1.
        994   -1    0    0    0    0 -0.00000000000E+00 -0.00000000000E+00  0.11368683772E-12  0.17120000000E+03  0.17120000000E+03 0.  0.
         13    1    1    2    0    0  0.20670064687E+02 -0.17897761315E+02  0.80706242977E+02  0.85212031156E+02  0.10566000000E+00 0.  1.
        994    1    1    2    0    0  0.14576694332E+03 -0.10863904114E+03  0.13329867780E+03  0.28306963901E+03  0.17120000000E+03 0.  0.
        998    1    1    2    0    0 -0.16643700801E+03  0.12653680245E+03  0.12859950755E+04  0.13029183298E+04  0.10000000000E+02 0.  1.
</event>
<event>
 5    1  0.5781797E-010  0.3874415E+03  0.7957747E-01  0.3419383E+00
         13   -1    0    0    0    0  0.00000000000E+00  0.00000000000E+00  0.14999999963E+04  0.15000000000E+04  0.10566000000E+00 0. -1.
        994   -1    0    0    0    0 -0.00000000000E+00 -0.00000000000E+00  0.11368683772E-12  0.17120000000E+03  0.17120000000E+03 0.  0.
         13    1    1    2    0    0 -0.19480352151E+03 -0.14533303560E+02  0.11652734074E+04  0.11815336449E+04  0.10566000000E+00 0. -1.
        994    1    1    2    0    0  0.21965573062E+03  0.90672246513E+01  0.17815532203E+03  0.33072588850E+03  0.17120000000E+03 0.  0.
        998    1    1    2    0    0 -0.24852209110E+02  0.54660789089E+01  0.15657126687E+03  0.15894046660E+03  0.10000000000E+02 0.  1.
</event>
<event>
 5    1  0.5781797E-010  0.3863086E+03  0.7957747E-01  0.3424141E+00
         13   -1    0    0    0    0  0.00000000000E+00  0.00000000000E+00  0.14999999963E+04  0.15000000000E+04  0.10566000000E+00 0.  1.
        994   -1    0    0    0    0 -0.00000000000E+00 -0.00000000000E+00  0.11368683772E-12  0.17120000000E+03  0.17120000000E+03 0.  0.
         13    1    1    2    0    0  0.35147889298E+02  0.97141491359E+01  0.17033534421E+03  0.17419494673E+03  0.10566000000E+00 0.  1.
        994    1    1    2    0    0 -0.18970490961E+03  0.29536703331E+02  0.13274234931E+03  0.28946561260E+03  0.17120000000E+03 0.  0.
        998    1    1    2    0    0  0.15455702031E+03 -0.39250852467E+02  0.11969223028E+04  0.12075394407E+04  0.10000000000E+02 0.  1.
</event>
<event>
 5    1  0.5781797E-010  0.3875355E+03  0.7957747E-01  0.3418989E+00
         13   -1    0    0    0    0  0.00000000000E+00  0.00000000000E+00  0.14999999963E+04  0.15000000000E+04  0.10566000000E+00 0. -1.
        994   -1    0    0    0    0 -0.00000000000E+00 -0.00000000000E+00  0.11368683772E-12  0.17120000000E+03  0.17120000000E+03 0.  0.
         13    1    1    2    0    0 -0.14788277832E+03  0.55060521848E+02  0.42632599755E+03  0.45459305378E+03  0.10566000000E+00 0. -1.
        994    1    1    2    0    0  0.30027097289E+03 -0.13550769904E+03  0.53688099715E+03  0.65274469646E+03  0.17120000000E+03 0.  0.
        998    1    1    2    0    0 -0.15238819457E+03  0.80447177192E+02  0.53679300158E+03  0.56386224976E+03  0.10000000000E+02 0.  1.
</event>
<event>
 5    1  0.5781797E-010  0.3867930E+03  0.7957747E-01  0.3422103E+00
         13   -1    0    0    0    0  0.00000000000E+00  0.00000000000E+00  0.14999999963E+04  0.15000000000E+04  0.10566000000E+00 0.  1.
        994   -1    0    0    0    0 -0.00000000000E+00 -0.00000000000E+00  0.11368683772E-12  0.17120000000E+03  0.17120000000E+03 0.  0.
         13    1    1    2    0    0 -0.16097874839E+03 -0.59353294899E+02  0.94383874937E+03  0.95930629469E+03  0.10566000000E+00 0.  1.
        994    1    1    2    0    0  0.19917261458E+03  0.80024343246E+02  0.16948556247E+03  0.32265836700E+03  0.17120000000E+03 0.  0.
        998    1    1    2    0    0 -0.38193866187E+02 -0.20671048347E+02  0.38667568444E+03  0.38923533831E+03  0.10000000000E+02 0. -1.
</event>
<event>
 5    1  0.5781797E-010  0.3841889E+03  0.7957747E-01  0.3433120E+00
         13   -1    0    0    0    0  0.00000000000E+00  0.00000000000E+00  0.14999999963E+04  0.15000000000E+04  0.10566000000E+00 0.  1.
        994   -1    0    0    0    0 -0.00000000000E+00 -0.00000000000E+00  0.11368683772E-12  0.17120000000E+03  0.17120000000E+03 0.  0.
         13    1    1    2    0    0 -0.16491754505E+03  0.49365799965E+02  0.89498158924E+03  0.91138731344E+03  0.10566000000E+00 0.  1.
        994    1    1    2    0    0  0.26135851920E+03 -0.39986583295E+02  0.28321339377E+03  0.42358761645E+03  0.17120000000E+03 0.  0.
        998    1    1    2    0    0 -0.96440974144E+02 -0.93792166699E+01  0.32180501327E+03  0.33622507011E+03  0.10000000000E+02 0. -1.
</event>
<event>
 5    1  0.5781797E-010  0.3857202E+03  0.7957747E-01  0.3426624E+00
         13   -1    0    0    0    0  0.00000000000E+00  0.00000000000E+00  0.14999999963E+04  0.15000000000E+04  0.10566000000E+00 0. -1.
        994   -1    0    0    0    0 -0.00000000000E+00 -0.00000000000E+00  0.11368683772E-12  0.17120000000E+03  0.17120000000E+03 0.  0.
         13    1    1    2    0    0  0.19113693023E+03  0.45241397379E+02  0.11610845058E+04  0.11775811441E+04  0.10566000000E+00 0. -1.
        994    1    1    2    0    0 -0.20288127718E+03 -0.65196390195E+02  0.16799510455E+03  0.32084759167E+03  0.17120000000E+03 0.  0.
        998    1    1    2    0    0  0.11744346959E+02  0.19954992816E+02  0.17092038590E+03  0.17277126421E+03  0.10000000000E+02 0. -1.
</event>
<event>
 5    1  0.5781797E-010  0.3856423E+03  0.7957747E-01  0.3426953E+00
         13   -1    0    0    0    0  0.00000000000E+00  0.00000000000E+00  0.14999999963E+04  0.15000000000E+04  0.10566000000E+00 0.  1.
        994   -1    0    0    0    0 -0.00000000000E+00 -0.00000000000E+00  0.11368683772E-12  0.17120000000E+03  0.17120000000E+03 0.  0.
         13    1    1    2    0    0  0.23238042852E+03 -0.35836898595E+02  0.11900371629E+04  0.12130430359E+04  0.10566000000E+00 0.  1.
        994    1    1    2    0    0 -0.24004611179E+03  0.47844224017E+02  0.23182776462E+03  0.37810680767E+03  0.17120000000E+03 0.  0.
        998    1    1    2    0    0  0.76656832664E+01 -0.12007325422E+02  0.78135068802E+02  0.80050156405E+02  0.10000000000E+02 0.  1.
</event>
<event>
 5    1  0.5781797E-010  0.3764244E+03  0.7957747E-01  0.3466877E+00
         13   -1    0    0    0    0  0.00000000000E+00  0.00000000000E+00  0.14999999963E+04  0.15000000000E+04  0.10566000000E+00 0.  1.
        994   -1    0    0    0    0 -0.00000000000E+00 -0.00000000000E+00  0.11368683772E-12  0.17120000000E+03  0.17120000000E+03 0.  0.
         13    1    1    2    0    0  0.75061441653E+02  0.19029652376E+03  0.10820688670E+04  0.11012356837E+04  0.10566000000E+00 0.  1.
        994    1    1    2    0    0 -0.32884469629E+02 -0.21602661552E+03  0.18967065917E+03  0.33620423244E+03  0.17120000000E+03 0.  0.
        998    1    1    2    0    0 -0.42176972023E+02  0.25730091760E+02  0.22826047009E+03  0.23376008384E+03  0.10000000000E+02 0. -1.
</event>
<event>
 5    1  0.6471109E-010  0.3867430E+03  0.7957747E-01  0.3422313E+00
         13   -1    0    0    0    0  0.00000000000E+00  0.00000000000E+00  0.14999999963E+04  0.15000000000E+04  0.10566000000E+00 0. -1.
        994   -1    0    0    0    0 -0.00000000000E+00 -0.00000000000E+00  0.11368683772E-12  0.17120000000E+03  0.17120000000E+03 0.  0.
         13    1    1    2    0    0  0.14513255382E+03  0.25425508468E+03  0.99935259038E+03  0.10413523502E+04  0.10566000000E+00 0. -1.
        994    1    1    2    0    0 -0.15235631485E+03 -0.26668770420E+03  0.42211681029E+03  0.54938767712E+03  0.17120000000E+03 0.  0.
        998    1    1    2    0    0  0.72237610328E+01  0.12432619519E+02  0.78530595610E+02  0.80459972648E+02  0.10000000000E+02 0.  0.
</event>
<event>
 5    1  0.5781797E-010  0.3798762E+03  0.7957747E-01  0.3451698E+00
         13   -1    0    0    0    0  0.00000000000E+00  0.00000000000E+00  0.14999999963E+04  0.15000000000E+04  0.10566000000E+00 0. -1.
        994   -1    0    0    0    0 -0.00000000000E+00 -0.00000000000E+00  0.11368683772E-12  0.17120000000E+03  0.17120000000E+03 0.  0.
         13    1    1    2    0    0  0.15032530549E+02 -0.20867909089E+02  0.48649991471E+02  0.55029805003E+02  0.10566000000E+00 0. -1.
        994    1    1    2    0    0  0.21141136390E+02  0.18394672988E+03  0.12896624161E+03  0.28324031944E+03  0.17120000000E+03 0.  0.
        998    1    1    2    0    0 -0.36173666940E+02 -0.16307882080E+03  0.13223837632E+04  0.13329298756E+04  0.10000000000E+02 0. -1.
</event>
<event>
 5    1  0.5781797E-010  0.3867051E+03  0.7957747E-01  0.3422473E+00
         13   -1    0    0    0    0  0.00000000000E+00  0.00000000000E+00  0.14999999963E+04  0.15000000000E+04  0.10566000000E+00 0. -1.
        994   -1    0    0    0    0 -0.00000000000E+00 -0.00000000000E+00  0.11368683772E-12  0.17120000000E+03  0.17120000000E+03 0.  0.
         13    1    1    2    0    0 -0.15917898034E+02 -0.25499992662E+01  0.77702027964E+02  0.79356778461E+02  0.10566000000E+00 0. -1.
        994    1    1    2    0    0  0.97327697703E+02  0.52079621233E+02  0.41702320959E+02  0.20792664875E+03  0.17120000000E+03 0.  0.
        998    1    1    2    0    0 -0.81409799669E+02 -0.49529621967E+02  0.13805956474E+04  0.13839165728E+04  0.10000000000E+02 0. -1.
</event>
<event>
 5    1  0.5781797E-010  0.3863979E+03  0.7957747E-01  0.3423765E+00
         13   -1    0    0    0    0  0.00000000000E+00  0.00000000000E+00  0.14999999963E+04  0.15000000000E+04  0.10566000000E+00 0.  1.
        994   -1    0    0    0    0 -0.00000000000E+00 -0.00000000000E+00  0.11368683772E-12  0.17120000000E+03  0.17120000000E+03 0.  0.
         13    1    1    2    0    0  0.18970018747E+03 -0.11854460006E+03  0.12221909385E+04  0.12424933339E+04  0.10566000000E+00 0.  1.
        994    1    1    2    0    0 -0.19818256830E+03  0.13098069025E+03  0.21479139204E+03  0.36314880379E+03  0.17120000000E+03 0.  0.
        998    1    1    2    0    0  0.84823808277E+01 -0.12436090193E+02  0.63017665703E+02  0.65557862339E+02  0.10000000000E+02 0. -1.
</event>
<event>
 5    1  0.5781797E-010  0.3867841E+03  0.7957747E-01  0.3422141E+00
         13   -1    0    0    0    0  0.00000000000E+00  0.00000000000E+00  0.14999999963E+04  0.15000000000E+04  0.10566000000E+00 0.  1.
        994   -1    0    0    0    0 -0.00000000000E+00 -0.00000000000E+00  0.11368683772E-12  0.17120000000E+03  0.17120000000E+03 0.  0.
         13    1    1    2    0    0 -0.51047684315E+02 -0.20288078027E+03  0.60668033481E+03  0.64173788799E+03  0.10566000000E+00 0.  1.
        994    1    1    2    0    0  0.69301360855E+02  0.30971794469E+03  0.47015226704E+03  0.59252044528E+03  0.17120000000E+03 0.  0.
        998    1    1    2    0    0 -0.18253676540E+02 -0.10683716442E+03  0.42316739443E+03  0.43694166673E+03  0.10000000000E+02 0.  1.
</event>
<event>
 5    1  0.5781797E-010  0.3848531E+03  0.7957747E-01  0.3430295E+00
         13   -1    0    0    0    0  0.00000000000E+00  0.00000000000E+00  0.14999999963E+04  0.15000000000E+04  0.10566000000E+00 0. -1.
        994   -1    0    0    0    0 -0.00000000000E+00 -0.00000000000E+00  0.11368683772E-12  0.17120000000E+03  0.17120000000E+03 0.  0.
         13    1    1    2    0    0 -0.24816361649E+02  0.13671620526E+02  0.15028700615E+03  0.15293449707E+03  0.10566000000E+00 0. -1.
        994    1    1    2    0    0  0.95354021554E+02  0.16232586643E+02  0.33116939210E+02  0.19940425762E+03  0.17120000000E+03 0.  0.
        998    1    1    2    0    0 -0.70537659905E+02 -0.29904207169E+02  0.13165960509E+04  0.13188612453E+04  0.10000000000E+02 0. -1.
</event>
<event>
 5    1  0.5781797E-010  0.3838667E+03  0.7957747E-01  0.3434493E+00
         13   -1    0    0    0    0  0.00000000000E+00  0.00000000000E+00  0.14999999963E+04  0.15000000000E+04  0.10566000000E+00 0.  1.
        994   -1    0    0    0    0 -0.00000000000E+00 -0.00000000000E+00  0.11368683772E-12  0.17120000000E+03  0.17120000000E+03 0.  0.
         13    1    1    2    0    0  0.13562887134E+03 -0.68476141874E+01  0.70931746181E+03  0.72220035541E+03  0.10566000000E+00 0.  1.
        994    1    1    2    0    0 -0.18643679067E+03  0.30285449790E+02  0.13051640616E+03  0.28639109215E+03  0.17120000000E+03 0.  0.
        998    1    1    2    0    0  0.50807919331E+02 -0.23437835602E+02  0.66016612830E+03  0.66260855243E+03  0.10000000000E+02 0.  1.
</event>
<event>
 5    1  0.5781797E-010  0.3818281E+03  0.7957747E-01  0.3443237E+00
         13   -1    0    0    0    0  0.00000000000E+00  0.00000000000E+00  0.14999999963E+04  0.15000000000E+04  0.10566000000E+00 0. -1.
        994   -1    0    0    0    0 -0.00000000000E+00 -0.00000000000E+00  0.11368683772E-12  0.17120000000E+03  0.17120000000E+03 0.  0.
         13    1    1    2    0    0 -0.41308874419E+02  0.68252143699E+02  0.24553002458E+03  0.25816619136E+03  0.10566000000E+00 0. -1.
        994    1    1    2    0    0  0.73795258014E+02 -0.21523012750E+03  0.20033027000E+03  0.34815428328E+03  0.17120000000E+03 0.  0.
        998    1    1    2    0    0 -0.32486383595E+02  0.14697798380E+03  0.10541397017E+04  0.10648795254E+04  0.10000000000E+02 0. -1.
</event>
<event>
 5    1  0.5781797E-010  0.3847471E+03  0.7957747E-01  0.3430745E+00
         13   -1    0    0    0    0  0.00000000000E+00  0.00000000000E+00  0.14999999963E+04  0.15000000000E+04  0.10566000000E+00 0. -1.
        994   -1    0    0    0    0 -0.00000000000E+00 -0.00000000000E+00  0.11368683772E-12  0.17120000000E+03  0.17120000000E+03 0.  0.
         13    1    1    2    0    0 -0.34827206694E+02  0.22129367491E+01  0.15623333380E+03  0.16008340691E+03  0.10566000000E+00 0. -1.
        994    1    1    2    0    0  0.11574828080E+03 -0.10304913421E+02  0.47542638161E+02  0.21230543609E+03  0.17120000000E+03 0.  0.
        998    1    1    2    0    0 -0.80921074108E+02  0.80919766722E+01  0.12962240243E+04  0.12988111570E+04  0.10000000000E+02 0. -1.
</event>
<event>
 5    1  0.5781797E-010  0.3843451E+03  0.7957747E-01  0.3432454E+00
         13   -1    0    0    0    0  0.00000000000E+00  0.00000000000E+00  0.14999999963E+04  0.15000000000E+04  0.10566000000E+00 0.  1.
        994   -1    0    0    0    0 -0.00000000000E+00 -0.00000000000E+00  0.11368683772E-12  0.17120000000E+03  0.17120000000E+03 0.  0.
         13    1    1    2    0    0  0.12000927624E+03 -0.16577891096E+00  0.62328958894E+03  0.63473788032E+03  0.10566000000E+00 0.  1.
        994    1    1    2    0    0 -0.18905243240E+03 -0.36753281677E+02  0.13564557666E+03  0.29120574921E+03  0.17120000000E+03 0.  0.
        998    1    1    2    0    0  0.69043156159E+02  0.36919060588E+02  0.74106483068E+03  0.74525637046E+03  0.10000000000E+02 0.  1.
</event>
<event>
 5    1  0.5781797E-010  0.3856483E+03  0.7957747E-01  0.3426927E+00
         13   -1    0    0    0    0  0.00000000000E+00  0.00000000000E+00  0.14999999963E+04  0.15000000000E+04  0.10566000000E+00 0.  1.
        994   -1    0    0    0    0 -0.00000000000E+00 -0.00000000000E+00  0.11368683772E-12  0.17120000000E+03  0.17120000000E+03 0.  0.
         13    1    1    2    0    0  0.53234688507E+02  0.22268824686E+03  0.12418337282E+04  0.12627648264E+04  0.10566000000E+00 0.  1.
        994    1    1    2    0    0 -0.58406120479E+02 -0.22480840686E+03  0.20476643702E+03  0.35382033356E+03  0.17120000000E+03 0.  0.
        998    1    1    2    0    0  0.51714319714E+01  0.21201600056E+01  0.53399831103E+02  0.54614840006E+02  0.10000000000E+02 0.  1.
</event>
<event>
 5    1  0.5781797E-010  0.3828064E+03  0.7957747E-01  0.3439029E+00
         13   -1    0    0    0    0  0.00000000000E+00  0.00000000000E+00  0.14999999963E+04  0.15000000000E+04  0.10566000000E+00 0.  1.
        994   -1    0    0    0    0 -0.00000000000E+00 -0.00000000000E+00  0.11368683772E-12  0.17120000000E+03  0.17120000000E+03 0.  0.
         13    1    1    2    0    0 -0.13178533695E+02 -0.17043907571E+02  0.10756873204E+03  0.10970511298E+03  0.10566000000E+00 0.  1.
        994    1    1    2    0    0 -0.10883477272E+03  0.92380442631E+02  0.73442469434E+02  0.23469637886E+03  0.17120000000E+03 0.  0.
        998    1    1    2    0    0  0.12201330641E+03 -0.75336535059E+02  0.13189887948E+04  0.13267985082E+04  0.10000000000E+02 0.  1.
</event>
<event>
 5    1  0.5781797E-010  0.3851788E+03  0.7957747E-01  0.3428914E+00
         13   -1    0    0    0    0  0.00000000000E+00  0.00000000000E+00  0.14999999963E+04  0.15000000000E+04  0.10566000000E+00 0. -1.
        994   -1    0    0    0    0 -0.00000000000E+00 -0.00000000000E+00  0.11368683772E-12  0.17120000000E+03  0.17120000000E+03 0.  0.
         13    1    1    2    0    0 -0.37303822770E+02 -0.61298495412E+02  0.34513030149E+03  0.35251101672E+03  0.10566000000E+00 0. -1.
        994    1    1    2    0    0  0.95691662614E+02  0.14333042529E+03  0.10615053167E+03  0.26509975572E+03  0.17120000000E+03 0.  0.
        998    1    1    2    0    0 -0.58387839844E+02 -0.82031929874E+02  0.10487191631E+04  0.10535892276E+04  0.10000000000E+02 0. -1.
</event>
<event>
 5    1  0.5781797E-010  0.3864420E+03  0.7957747E-01  0.3423579E+00
         13   -1    0    0    0    0  0.00000000000E+00  0.00000000000E+00  0.14999999963E+04  0.15000000000E+04  0.10566000000E+00 0. -1.
        994   -1    0    0    0    0 -0.00000000000E+00 -0.00000000000E+00  0.11368683772E-12  0.17120000000E+03  0.17120000000E+03 0.  0.
         13    1    1    2    0    0  0.10472679005E+03 -0.11753040594E+03  0.41855602239E+03  0.44718033490E+03  0.10566000000E+00 0. -1.
        994    1    1    2    0    0 -0.24647189905E+03  0.21429130224E+03  0.52455564129E+03  0.64119982849E+03  0.17120000000E+03 0.  0.
        998    1    1    2    0    0  0.14174510900E+03 -0.96760896301E+02  0.55688833259E+03  0.58281983662E+03  0.10000000000E+02 0. -1.
</event>
<event>
 5    1  0.5781797E-010  0.3818650E+03  0.7957747E-01  0.3443078E+00
         13   -1    0    0    0    0  0.00000000000E+00  0.00000000000E+00  0.14999999963E+04  0.15000000000E+04  0.10566000000E+00 0.  1.
        994   -1    0    0    0    0 -0.00000000000E+00 -0.00000000000E+00  0.11368683772E-12  0.17120000000E+03  0.17120000000E+03 0.  0.
         13    1    1    2    0    0 -0.10895251491E+02 -0.68155042038E+01  0.30062431576E+02  0.32694319979E+02  0.10566000000E+00 0.  1.
        994    1    1    2    0    0 -0.49421310291E+02 -0.15321762032E+02  0.12141129812E+02  0.17925978170E+03  0.17120000000E+03 0.  0.
        998    1    1    2    0    0  0.60316561781E+02  0.22137266236E+02  0.14577964349E+04  0.14592458983E+04  0.10000000000E+02 0.  1.
</event>
<event>
 5    1  0.5781797E-010  0.3843531E+03  0.7957747E-01  0.3432420E+00
         13   -1    0    0    0    0  0.00000000000E+00  0.00000000000E+00  0.14999999963E+04  0.15000000000E+04  0.10566000000E+00 0. -1.
        994   -1    0    0    0    0 -0.00000000000E+00 -0.00000000000E+00  0.11368683772E-12  0.17120000000E+03  0.17120000000E+03 0.  0.
         13    1    1    2    0    0 -0.17716157831E+03  0.18816413633E+03  0.10203406823E+04  0.10525621531E+04  0.10566000000E+00 0. -1.
        994    1    1    2    0    0  0.20381675994E+03 -0.18910561113E+03  0.32254718443E+03  0.45896441036E+03  0.17120000000E+03 0.  0.
        998    1    1    2    0    0 -0.26655181628E+02  0.94147479947E+00  0.15711212953E+03  0.15967343652E+03  0.10000000000E+02 0. -1.
</event>
<event>
 5    1  0.5781797E-010  0.3856724E+03  0.7957747E-01  0.3426826E+00
         13   -1    0    0    0    0  0.00000000000E+00  0.00000000000E+00  0.14999999963E+04  0.15000000000E+04  0.10566000000E+00 0.  1.
        994   -1    0    0    0    0 -0.00000000000E+00 -0.00000000000E+00  0.11368683772E-12  0.17120000000E+03  0.17120000000E+03 0.  0.
         13    1    1    2    0    0  0.10343349633E+03 -0.24135213110E+03  0.10883976156E+04  0.11196243657E+04  0.10566000000E+00 0.  1.
        994    1    1    2    0    0 -0.11123213163E+03  0.24883192989E+03  0.30323042559E+03  0.44220814946E+03  0.17120000000E+03 0.  0.
        998    1    1    2    0    0  0.77986353032E+01 -0.74797987942E+01  0.10837195505E+03  0.10936748486E+03  0.10000000000E+02 0. -1.
</event>
<event>
 5    1  0.5781797E-010  0.3812201E+03  0.7957747E-01  0.3445863E+00
         13   -1    0    0    0    0  0.00000000000E+00  0.00000000000E+00  0.14999999963E+04  0.15000000000E+04  0.10566000000E+00 0. -1.
        994   -1    0    0    0    0 -0.00000000000E+00 -0.00000000000E+00  0.11368683772E-12  0.17120000000E+03  0.17120000000E+03 0.  0.
         13    1    1    2    0    0  0.13707515690E+03 -0.19321594405E+03  0.98733124164E+03  0.10153546137E+04  0.10566000000E+00 0. -1.
        994    1    1    2    0    0 -0.17281247493E+03  0.19111934543E+03  0.27079614167E+03  0.41113348931E+03  0.17120000000E+03 0.  0.
        998    1    1    2    0    0  0.35737318037E+02  0.20965986171E+01  0.24187261296E+03  0.24471189699E+03  0.10000000000E+02 0.  1.
</event>
<event>
 5    1  0.5781797E-010  0.3880745E+03  0.7957747E-01  0.3416737E+00
         13   -1    0    0    0    0  0.00000000000E+00  0.00000000000E+00  0.14999999963E+04  0.15000000000E+04  0.10566000000E+00 0. -1.
        994   -1    0    0    0    0 -0.00000000000E+00 -0.00000000000E+00  0.11368683772E-12  0.17120000000E+03  0.17120000000E+03 0.  0.
         13    1    1    2    0    0 -0.12634081030E+03 -0.87868908531E+02  0.79220803160E+03  0.80701705183E+03  0.10566000000E+00 0. -1.
        994    1    1    2    0    0  0.20590967459E+03  0.13545984849E+03  0.23194250943E+03  0.37928212760E+03  0.17120000000E+03 0.  0.
        998    1    1    2    0    0 -0.79568864285E+02 -0.47590939955E+02  0.47584945525E+03  0.48490082057E+03  0.10000000000E+02 0. -1.
</event>
<event>
 5    1  0.5781797E-010  0.3772936E+03  0.7957747E-01  0.3463028E+00
         13   -1    0    0    0    0  0.00000000000E+00  0.00000000000E+00  0.14999999963E+04  0.15000000000E+04  0.10566000000E+00 0.  1.
        994   -1    0    0    0    0 -0.00000000000E+00 -0.00000000000E+00  0.11368683772E-12  0.17120000000E+03  0.17120000000E+03 0.  0.
         13    1    1    2    0    0  0.74068637245E+02  0.16520553564E+03  0.98619514337E+03  0.10026763705E+04  0.10566000000E+00 0.  1.
        994    1    1    2    0    0 -0.27873559696E+02 -0.22738151853E+03  0.20991429244E+03  0.35475729798E+03  0.17120000000E+03 0.  0.
        998    1    1    2    0    0 -0.46195077549E+02  0.62175982899E+02  0.30389056047E+03  0.31376633150E+03  0.10000000000E+02 0.  1.
</event>
<event>
 5    1  0.5781797E-010  0.3855442E+03  0.7957747E-01  0.3427367E+00
         13   -1    0    0    0    0  0.00000000000E+00  0.00000000000E+00  0.14999999963E+04  0.15000000000E+04  0.10566000000E+00 0. -1.
        994   -1    0    0    0    0 -0.00000000000E+00 -0.00000000000E+00  0.11368683772E-12  0.17120000000E+03  0.17120000000E+03 0.  0.
         13    1    1    2    0    0  0.42367372350E+01  0.20391075800E+02  0.85495383908E+02  0.87995555275E+02  0.10566000000E+00 0. -1.
        994    1    1    2    0    0  0.22525553684E+02 -0.11093405662E+03  0.44620080838E+02  0.21003370468E+03  0.17120000000E+03 0.  0.
        998    1    1    2    0    0 -0.26762290919E+02  0.90542980816E+02  0.13698845315E+04  0.13731707400E+04  0.10000000000E+02 0. -1.
</event>
<event>
 5    1  0.5781797E-010  0.3875168E+03  0.7957747E-01  0.3419068E+00
         13   -1    0    0    0    0  0.00000000000E+00  0.00000000000E+00  0.14999999963E+04  0.15000000000E+04  0.10566000000E+00 0.  1.
        994   -1    0    0    0    0 -0.00000000000E+00 -0.00000000000E+00  0.11368683772E-12  0.17120000000E+03  0.17120000000E+03 0.  0.
         13    1    1    2    0    0  0.11111361759E+03  0.81002500023E+02  0.68672787364E+03  0.70035906835E+03  0.10566000000E+00 0.  1.
        994    1    1    2    0    0 -0.18267296585E+03 -0.14271773704E+03  0.20127187987E+03  0.35150757395E+03  0.17120000000E+03 0.  0.
        998    1    1    2    0    0  0.71559348266E+02  0.61715237020E+02  0.61200024278E+03  0.61933335770E+03  0.10000000000E+02 0.  1.
</event>
<event>
 5    1  0.5781797E-010  0.3832501E+03  0.7957747E-01  0.3437128E+00
         13   -1    0    0    0    0  0.00000000000E+00  0.00000000000E+00  0.14999999963E+04  0.15000000000E+04  0.10566000000E+00 0.  1.
        994   -1    0    0    0    0 -0.00000000000E+00 -0.00000000000E+00  0.11368683772E-12  0.17120000000E+03  0.17120000000E+03 0.  0.
         13    1    1    2    0    0 -0.19488220200E+02  0.38899868385E+02  0.11564801568E+03  0.12356158457E+03  0.10566000000E+00 0.  1.
        994    1    1    2    0    0  0.49574944600E+02 -0.21571654704E+03  0.18623883646E+03  0.33613337830E+03  0.17120000000E+03 0.  0.
        998    1    1    2    0    0 -0.30086724400E+02  0.17681667866E+03  0.11981131441E+04  0.12115050371E+04  0.10000000000E+02 0.  1.
</event>
<event>
 5    1  0.5781797E-010  0.3758032E+03  0.7957747E-01  0.3469638E+00
         13   -1    0    0    0    0  0.00000000000E+00  0.00000000000E+00  0.14999999963E+04  0.15000000000E+04  0.10566000000E+00 0.  1.
        994   -1    0    0    0    0 -0.00000000000E+00 -0.00000000000E+00  0.11368683772E-12  0.17120000000E+03  0.17120000000E+03 0.  0.
         13    1    1    2    0    0 -0.60156833169E+02 -0.10401832054E+03  0.17166776324E+03  0.20954352217E+03  0.10566000000E+00 0.  1.
        994    1    1    2    0    0  0.25365573899E+03  0.15518404114E+03  0.48032607101E+03  0.59029305860E+03  0.17120000000E+03 0.  0.
        998    1    1    2    0    0 -0.19349890582E+03 -0.51165720598E+02  0.84800616204E+03  0.87136341923E+03  0.10000000000E+02 0.  1.
</event>
<event>
 5    1  0.5781797E-010  0.3877999E+03  0.7957747E-01  0.3417884E+00
         13   -1    0    0    0    0  0.00000000000E+00  0.00000000000E+00  0.14999999963E+04  0.15000000000E+04  0.10566000000E+00 0. -1.
        994   -1    0    0    0    0 -0.00000000000E+00 -0.00000000000E+00  0.11368683772E-12  0.17120000000E+03  0.17120000000E+03 0.  0.
         13    1    1    2    0    0  0.81252439448E+02 -0.15008976831E+03  0.89075083364E+03  0.90695421950E+03  0.10566000000E+00 0. -1.
        994    1    1    2    0    0 -0.10348832698E+03  0.21730717561E+03  0.21951329764E+03  0.36800512256E+03  0.17120000000E+03 0.  0.
        998    1    1    2    0    0  0.22235887537E+02 -0.67217407297E+02  0.38973586500E+03  0.39624065794E+03  0.10000000000E+02 0. -1.
</event>
<event>
 5    1  0.5781797E-010  0.3781627E+03  0.7957747E-01  0.3459198E+00
         13   -1    0    0    0    0  0.00000000000E+00  0.00000000000E+00  0.14999999963E+04  0.15000000000E+04  0.10566000000E+00 0.  1.
        994   -1    0    0    0    0 -0.00000000000E+00 -0.00000000000E+00  0.11368683772E-12  0.17120000000E+03  0.17120000000E+03 0.  0.
         13    1    1    2    0    0  0.17743342026E+03 -0.67440244279E+02  0.10971258475E+04  0.11134253192E+04  0.10566000000E+00 0.  1.
        994    1    1    2    0    0 -0.22400589337E+03  0.30296482321E+02  0.20236363197E+03  0.34836331128E+03  0.17120000000E+03 0.  0.
        998    1    1    2    0    0  0.46572473104E+02  0.37143761958E+02  0.20051051686E+03  0.20941136950E+03  0.10000000000E+02 0.  1.
</event>
<event>
 5    1  0.5781797E-010  0.3851506E+03  0.7957747E-01  0.3429034E+00
         13   -1    0    0    0    0  0.00000000000E+00  0.00000000000E+00  0.14999999963E+04  0.15000000000E+04  0.10566000000E+00 0.  1.
        994   -1    0    0    0    0 -0.00000000000E+00 -0.00000000000E+00  0.11368683772E-12  0.17120000000E+03  0.17120000000E+03 0.  0.
         13    1    1    2    0    0 -0.11764411975E+02  0.10131875526E+03  0.43151058423E+03  0.44340194748E+03  0.10566000000E+00 0.  1.
        994    1    1    2    0    0 -0.16364060400E+02 -0.22545329051E+03  0.19290899243E+03  0.34295814327E+03  0.17120000000E+03 0.  0.
        998    1    1    2    0    0  0.28128472375E+02  0.12413453525E+03  0.87558041961E+03  0.88483990925E+03  0.10000000000E+02 0.  1.
</event>
<event>
 5    1  0.5781797E-010  0.3853611E+03  0.7957747E-01  0.3428142E+00
         13   -1    0    0    0    0  0.00000000000E+00  0.00000000000E+00  0.14999999963E+04  0.15000000000E+04  0.10566000000E+00 0. -1.
        994   -1    0    0    0    0 -0.00000000000E+00 -0.00000000000E+00  0.11368683772E-12  0.17120000000E+03  0.17120000000E+03 0.  0.
         13    1    1    2    0    0  0.33857684563E+02  0.16654984704E+03  0.78531822311E+03  0.80349854826E+03  0.10566000000E+00 0. -1.
        994    1    1    2    0    0 -0.19631589451E+02 -0.23582102490E+03  0.21432421269E+03  0.36227236057E+03  0.17120000000E+03 0.  0.
        998    1    1    2    0    0 -0.14226095112E+02  0.69271177858E+02  0.50035756049E+03  0.50542909117E+03  0.10000000000E+02 0. -1.
</event>
<event>
 5    1  0.5781797E-010  0.3878003E+03  0.7957747E-01  0.3417882E+00
         13   -1    0    0    0    0  0.00000000000E+00  0.00000000000E+00  0.14999999963E+04  0.15000000000E+04  0.10566000000E+00 0.  1.
        994   -1    0    0    0    0 -0.00000000000E+00 -0.00000000000E+00  0.11368683772E-12  0.17120000000E+03  0.17120000000E+03 0.  0.
         13    1    1    2    0    0 -0.40526664042E+01 -0.12905321493E+03  0.75128373876E+03  0.76229811995E+03  0.10566000000E+00 0.  1.
        994    1    1    2    0    0  0.12280987885E+02  0.23885227430E+03  0.21622313537E+03  0.36505220978E+03  0.17120000000E+03 0.  0.
        998    1    1    2    0    0 -0.82283214809E+01 -0.10979905937E+03  0.53249312215E+03  0.54384967027E+03  0.10000000000E+02 0.  1.
</event>
<event>
 5    1  0.5781797E-010  0.3844623E+03  0.7957747E-01  0.3431956E+00
         13   -1    0    0    0    0  0.00000000000E+00  0.00000000000E+00  0.14999999963E+04  0.15000000000E+04  0.10566000000E+00 0. -1.
        994   -1    0    0    0    0 -0.00000000000E+00 -0.00000000000E+00  0.11368683772E-12  0.17120000000E+03  0.17120000000E+03 0.  0.
         13    1    1    2    0    0 -0.34941139867E+02 -0.11439719536E+03  0.66132512192E+03  0.67205545129E+03  0.10566000000E+00 0. -1.
        994    1    1    2    0    0  0.11876219565E+02  0.25766697889E+03  0.26562203612E+03  0.40791889227E+03  0.17120000000E+03 0.  0.
        998    1    1    2    0    0  0.23064920302E+02 -0.14326978353E+03  0.57305283823E+03  0.59122565644E+03  0.10000000000E+02 0. -1.
</event>
<event>
 5    1  0.5781797E-010  0.3743666E+03  0.7957747E-01  0.3476061E+00
         13   -1    0    0    0    0  0.00000000000E+00  0.00000000000E+00  0.14999999963E+04  0.15000000000E+04  0.10566000000E+00 0. -1.
        994   -1    0    0    0    0 -0.00000000000E+00 -0.00000000000E+00  0.11368683772E-12  0.17120000000E+03  0.17120000000E+03 0.  0.
         13    1    1    2    0    0 -0.13952427320E+02  0.14641876257E+03  0.87668386928E+03  0.88893629810E+03  0.10566000000E+00 0. -1.
        994    1    1    2    0    0 -0.15072006515E+02 -0.27328241381E+03  0.33219392816E+03  0.46321991428E+03  0.17120000000E+03 0.  0.
        998    1    1    2    0    0  0.29024433835E+02  0.12686365123E+03  0.29112219884E+03  0.31904378762E+03  0.10000000000E+02 0.  1.
</event>
<event>
 5    1  0.5781797E-010  0.3870244E+03  0.7957747E-01  0.3421132E+00
         13   -1    0    0    0    0  0.00000000000E+00  0.00000000000E+00  0.14999999963E+04  0.15000000000E+04  0.10566000000E+00 0.  1.
        994   -1    0    0    0    0 -0.00000000000E+00 -0.00000000000E+00  0.11368683772E-12  0.17120000000E+03  0.17120000000E+03 0.  0.
         13    1    1    2    0    0  0.22589061278E+03 -0.11305727787E+03  0.72357442360E+03  0.76639968337E+03  0.10566000000E+00 0.  1.
        994    1    1    2    0    0 -0.30367277272E+03  0.14415453289E+03  0.59171810990E+03  0.70173887154E+03  0.17120000000E+03 0.  0.
        998    1    1    2    0    0  0.77782159940E+02 -0.31097255024E+02  0.18470746278E+03  0.20306144509E+03  0.10000000000E+02 0.  0.
</event>
<event>
 5    1  0.5781797E-010  0.3876064E+03  0.7957747E-01  0.3418693E+00
         13   -1    0    0    0    0  0.00000000000E+00  0.00000000000E+00  0.14999999963E+04  0.15000000000E+04  0.10566000000E+00 0. -1.
        994   -1    0    0    0    0 -0.00000000000E+00 -0.00000000000E+00  0.11368683772E-12  0.17120000000E+03  0.17120000000E+03 0.  0.
         13    1    1    2    0    0 -0.23494696719E+03 -0.15921107061E+03  0.72470428230E+03  0.77829592723E+03  0.10566000000E+00 0. -1.
        994    1    1    2    0    0  0.28562067528E+03  0.18355590509E+03  0.61847851486E+03  0.72601449970E+03  0.17120000000E+03 0.  0.
        998    1    1    2    0    0 -0.50673708094E+02 -0.24344834481E+02  0.15681719912E+03  0.16688957307E+03  0.10000000000E+02 0.  0.
</event>
<event>
 5    1  0.5781797E-010  0.3802179E+03  0.7957747E-01  0.3450210E+00
         13   -1    0    0    0    0  0.00000000000E+00  0.00000000000E+00  0.14999999963E+04  0.15000000000E+04  0.10566000000E+00 0. -1.
        994   -1    0    0    0    0 -0.00000000000E+00 -0.00000000000E+00  0.11368683772E-12  0.17120000000E+03  0.17120000000E+03 0.  0.
         13    1    1    2    0    0  0.13201272159E+03 -0.12393318421E+03  0.85757399030E+03  0.87648157585E+03  0.10566000000E+00 0. -1.
        994    1    1    2    0    0 -0.17672330288E+03  0.11656278857E+03  0.17207243947E+03  0.32208131564E+03  0.17120000000E+03 0.  0.
        998    1    1    2    0    0  0.44710581290E+02  0.73703956382E+01  0.47035356651E+03  0.47263710851E+03  0.10000000000E+02 0.  1.
</event>
<event>
 5    1  0.5781797E-010  0.3869482E+03  0.7957747E-01  0.3421452E+00
         13   -1    0    0    0    0  0.00000000000E+00  0.00000000000E+00  0.14999999963E+04  0.15000000000E+04  0.10566000000E+00 0. -1.
        994   -1    0    0    0    0 -0.00000000000E+00 -0.00000000000E+00  0.11368683772E-12  0.17120000000E+03  0.17120000000E+03 0.  0.
         13    1    1    2    0    0 -0.75665782777E+02 -0.16435274028E+03  0.80979854437E+03  0.82976552564E+03  0.10566000000E+00 0. -1.
        994    1    1    2    0    0  0.98005553130E+02  0.23061494600E+03  0.24324127707E+03  0.38892685769E+03  0.17120000000E+03 0.  0.
        998    1    1    2    0    0 -0.22339770353E+02 -0.66262205720E+02  0.44696017484E+03  0.45250761667E+03  0.10000000000E+02 0. -1.
</event>
<event>
 5    1  0.5781797E-010  0.3831230E+03  0.7957747E-01  0.3437672E+00
         13   -1    0    0    0    0  0.00000000000E+00  0.00000000000E+00  0.14999999963E+04  0.15000000000E+04  0.10566000000E+00 0. -1.
        994   -1    0    0    0    0 -0.00000000000E+00 -0.00000000000E+00  0.11368683772E-12  0.17120000000E+03  0.17120000000E+03 0.  0.
         13    1    1    2    0    0  0.10894697940E+02 -0.43264324388E+01  0.39148817717E+02  0.40866288717E+02  0.10566000000E+00 0. -1.
        994    1    1    2    0    0  0.78668419635E+02 -0.38917427915E+02  0.28485312586E+02  0.19448429108E+03  0.17120000000E+03 0.  0.
        998    1    1    2    0    0 -0.89563117575E+02  0.43243860354E+02  0.14323658660E+04  0.14358494202E+04  0.10000000000E+02 0. -1.
</event>
<event>
 5    1  0.5781797E-010  0.3861291E+03  0.7957747E-01  0.3424897E+00
         13   -1    0    0    0    0  0.00000000000E+00  0.00000000000E+00  0.14999999963E+04  0.15000000000E+04  0.10566000000E+00 0. -1.
        994   -1    0    0    0    0 -0.00000000000E+00 -0.00000000000E+00  0.11368683772E-12  0.17120000000E+03  0.17120000000E+03 0.  0.
         13    1    1    2    0    0 -0.13949448081E+03 -0.17714600807E+03  0.79873272759E+03  0.82994782947E+03  0.10566000000E+00 0. -1.
        994    1    1    2    0    0  0.20087238847E+03  0.21545676962E+03  0.37395156435E+03  0.50588590463E+03  0.17120000000E+03 0.  0.
        998    1    1    2    0    0 -0.61377907656E+02 -0.38310761549E+02  0.32731570434E+03  0.33536626590E+03  0.10000000000E+02 0.  0.
</event>
<event>
 5    1  0.5781797E-010  0.3842345E+03  0.7957747E-01  0.3432925E+00
         13   -1    0    0    0    0  0.00000000000E+00  0.00000000000E+00  0.14999999963E+04  0.15000000000E+04  0.10566000000E+00 0. -1.
        994   -1    0    0    0    0 -0.00000000000E+00 -0.00000000000E+00  0.11368683772E-12  0.17120000000E+03  0.17120000000E+03 0.  0.
         13    1    1    2    0    0  0.27868771506E+02 -0.20587923121E+03  0.84464269533E+03  0.86981849843E+03  0.10566000000E+00 0. -1.
        994    1    1    2    0    0 -0.45304554410E+02  0.25054121739E+03  0.25757860552E+03  0.40059902931E+03  0.17120000000E+03 0.  0.
        998    1    1    2    0    0  0.17435782903E+02 -0.44661986181E+02  0.39777869543E+03  0.40078247227E+03  0.10000000000E+02 0. -1.
</event>
<event>
 5    1  0.5781797E-010  0.3861975E+03  0.7957747E-01  0.3424609E+00
         13   -1    0    0    0    0  0.00000000000E+00  0.00000000000E+00  0.14999999963E+04  0.15000000000E+04  0.10566000000E+00 0.  1.
        994   -1    0    0    0    0 -0.00000000000E+00 -0.00000000000E+00  0.11368683772E-12  0.17120000000E+03  0.17120000000E+03 0.  0.
         13    1    1    2    0    0  0.14982249559E+02  0.17935891157E+02  0.12434236749E+03  0.12651956177E+03  0.10566000000E+00 0.  1.
        994    1    1    2    0    0 -0.40016918180E+02 -0.92733548298E+02  0.35197238354E+02  0.20186418778E+03  0.17120000000E+03 0.  0.
        998    1    1    2    0    0  0.25034668621E+02  0.74797657141E+02  0.13404603904E+04  0.13428162505E+04  0.10000000000E+02 0.  1.
</event>
<event>
 5    1  0.5781797E-010  0.3818937E+03  0.7957747E-01  0.3442954E+00
         13   -1    0    0    0    0  0.00000000000E+00  0.00000000000E+00  0.14999999963E+04  0.15000000000E+04  0.10566000000E+00 0. -1.
        994   -1    0    0    0    0 -0.00000000000E+00 -0.00000000000E+00  0.11368683772E-12  0.17120000000E+03  0.17120000000E+03 0.  0.
         13    1    1    2    0    0  0.12322148902E+03  0.24169829068E+03  0.76031434450E+03  0.80726669242E+03  0.10566000000E+00 0. -1.
        994    1    1    2    0    0 -0.12309694930E+03 -0.31132319809E+03  0.62600199018E+03  0.73024853598E+03  0.17120000000E+03 0.  0.
        998    1    1    2    0    0 -0.12453971527E+00  0.69624907412E+02  0.11368366160E+03  0.13368477160E+03  0.10000000000E+02 0. -1.
</event>
<event>
 5    1  0.5781797E-010  0.3871775E+03  0.7957747E-01  0.3420489E+00
         13   -1    0    0    0    0  0.00000000000E+00  0.00000000000E+00  0.14999999963E+04  0.15000000000E+04  0.10566000000E+00 0.  1.
        994   -1    0    0    0    0 -0.00000000000E+00 -0.00000000000E+00  0.11368683772E-12  0.17120000000E+03  0.17120000000E+03 0.  0.
         13    1    1    2    0    0 -0.80421657057E+02 -0.10706603673E+03  0.45693310167E+03  0.47614981856E+03  0.10566000000E+00 0.  1.
        994    1    1    2    0    0  0.15275448243E+03  0.25190362670E+03  0.37116783774E+03  0.50384955376E+03  0.17120000000E+03 0.  0.
        998    1    1    2    0    0 -0.72332825375E+02 -0.14483758997E+03  0.67189905686E+03  0.69120062768E+03  0.10000000000E+02 0. -1.
</event>
<event>
 5    1  0.5781797E-010  0.3849534E+03  0.7957747E-01  0.3429870E+00
         13   -1    0    0    0    0  0.00000000000E+00  0.00000000000E+00  0.14999999963E+04  0.15000000000E+04  0.10566000000E+00 0. -1.
        994   -1    0    0    0    0 -0.00000000000E+00 -0.00000000000E+00  0.11368683772E-12  0.17120000000E+03  0.17120000000E+03 0.  0.
         13    1    1    2    0    0 -0.43317720212E+01 -0.10700403420E+02  0.36334037226E+02  0.38123959754E+02  0.10566000000E+00 0. -1.
        994    1    1    2    0    0  0.66390668080E+02  0.67073163812E+01  0.16438567301E+02  0.18447865838E+03  0.17120000000E+03 0.  0.
        998    1    1    2    0    0 -0.62058896058E+02  0.39930870392E+01  0.14472273918E+04  0.14485973819E+04  0.10000000000E+02 0. -1.
</event>
<event>
 5    1  0.5781797E-010  0.3874870E+03  0.7957747E-01  0.3419193E+00
         13   -1    0    0    0    0  0.00000000000E+00  0.00000000000E+00  0.14999999963E+04  0.15000000000E+04  0.10566000000E+00 0.  1.
        994   -1    0    0    0    0 -0.00000000000E+00 -0.00000000000E+00  0.11368683772E-12  0.17120000000E+03  0.17120000000E+03 0.  0.
         13    1    1    2    0    0  0.35323805348E+02 -0.18099415507E+02  0.21820449639E+03  0.22178497125E+03  0.10566000000E+00 0.  1.
        994    1    1    2    0    0 -0.14637269663E+03  0.12515006444E+03  0.13245266371E+03  0.28972513366E+03  0.17120000000E+03 0.  0.
        998    1    1    2    0    0  0.11104889128E+03 -0.10705064893E+03  0.11493428362E+04  0.11596898951E+04  0.10000000000E+02 0.  1.
</event>
<event>
 5    1  0.5781797E-010  0.3874286E+03  0.7957747E-01  0.3419437E+00
         13   -1    0    0    0    0  0.00000000000E+00  0.00000000000E+00  0.14999999963E+04  0.15000000000E+04  0.10566000000E+00 0.  1.
        994   -1    0    0    0    0 -0.00000000000E+00 -0.00000000000E+00  0.11368683772E-12  0.17120000000E+03  0.17120000000E+03 0.  0.
         13    1    1    2    0    0 -0.35811264062E+02  0.21047144438E+03  0.10563181155E+04  0.10776774322E+04  0.10566000000E+00 0.  1.
        994    1    1    2    0    0  0.51216825577E+02 -0.25236402183E+03  0.25931080195E+03  0.40356200855E+03  0.17120000000E+03 0.  0.
        998    1    1    2    0    0 -0.15405561515E+02  0.41892577448E+02  0.18437107879E+03  0.18996055923E+03  0.10000000000E+02 0.  1.
</event>
<event>
 5    1  0.5781797E-010  0.3878308E+03  0.7957747E-01  0.3417755E+00
         13   -1    0    0    0    0  0.00000000000E+00  0.00000000000E+00  0.14999999963E+04  0.15000000000E+04  0.10566000000E+00 0.  1.
        994   -1    0    0    0    0 -0.00000000000E+00 -0.00000000000E+00  0.11368683772E-12  0.17120000000E+03  0.17120000000E+03 0.  0.
         13    1    1    2    0    0  0.17449762135E+03  0.59034954373E+02  0.92898079176E+03  0.94706909374E+03  0.10566000000E+00 0.  1.
        994    1    1    2    0    0 -0.22922223203E+03 -0.86073729259E+02  0.22865314106E+03  0.37622229791E+03  0.17120000000E+03 0.  0.
        998    1    1    2    0    0  0.54724610671E+02  0.27038774886E+02  0.34236606346E+03  0.34790860836E+03  0.10000000000E+02 0. -1.
</event>
<event>
 5    1  0.5781797E-010  0.3872920E+03  0.7957747E-01  0.3420009E+00
         13   -1    0    0    0    0  0.00000000000E+00  0.00000000000E+00  0.14999999963E+04  0.15000000000E+04  0.10566000000E+00 0. -1.
        994   -1    0    0    0    0 -0.00000000000E+00 -0.00000000000E+00  0.11368683772E-12  0.17120000000E+03  0.17120000000E+03 0.  0.
         13    1    1    2    0    0  0.91214214961E+02 -0.21474141633E+03  0.11581544969E+04  0.11814210759E+04  0.10566000000E+00 0. -1.
        994    1    1    2    0    0 -0.96680384269E+02  0.23452564768E+03  0.25009261275E+03  0.39522794824E+03  0.17120000000E+03 0.  0.
        998    1    1    2    0    0  0.54661693078E+01 -0.19784231349E+02  0.91752886661E+02  0.94550975815E+02  0.10000000000E+02 0.  0.
</event>
<event>
 5    1  0.5781797E-010  0.3857806E+03  0.7957747E-01  0.3426368E+00
         13   -1    0    0    0    0  0.00000000000E+00  0.00000000000E+00  0.14999999963E+04  0.15000000000E+04  0.10566000000E+00 0. -1.
        994   -1    0    0    0    0 -0.00000000000E+00 -0.00000000000E+00  0.11368683772E-12  0.17120000000E+03  0.17120000000E+03 0.  0.
         13    1    1    2    0    0  0.12477194064E+02 -0.10907236813E+02  0.88375721717E+02  0.89916225119E+02  0.10566000000E+00 0. -1.
        994    1    1    2    0    0 -0.12389715692E+03 -0.44066957945E+02  0.60183311135E+02  0.22410683438E+03  0.17120000000E+03 0.  0.
        998    1    1    2    0    0  0.11141996285E+03  0.54974194758E+02  0.13514409634E+04  0.13571769405E+04  0.10000000000E+02 0. -1.
</event>
<event>
 5    1  0.5781797E-010  0.3853192E+03  0.7957747E-01  0.3428320E+00
         13   -1    0    0    0    0  0.00000000000E+00  0.00000000000E+00  0.14999999963E+04  0.15000000000E+04  0.10566000000E+00 0.  1.
        994   -1    0    0    0    0 -0.00000000000E+00 -0.00000000000E+00  0.11368683772E-12  0.17120000000E+03  0.17120000000E+03 0.  0.
         13    1    1    2    0    0 -0.40625125957E+02 -0.13122224212E+02  0.21427881927E+03  0.21849031369E+03  0.10566000000E+00 0.  1.
        994    1    1    2    0    0  0.14027712631E+03  0.99617442703E+00  0.69036101114E+02  0.23184927816E+03  0.17120000000E+03 0.  0.
        998    1    1    2    0    0 -0.99652000349E+02  0.12126049785E+02  0.12166850759E+04  0.12208604081E+04  0.10000000000E+02 0.  1.
</event>
<event>
 5    1  0.5781797E-010  0.3819948E+03  0.7957747E-01  0.3442518E+00
         13   -1    0    0    0    0  0.00000000000E+00  0.00000000000E+00  0.14999999963E+04  0.15000000000E+04  0.10566000000E+00 0.  1.
        994   -1    0    0    0    0 -0.00000000000E+00 -0.00000000000E+00  0.11368683772E-12  0.17120000000E+03  0.17120000000E+03 0.  0.
         13    1    1    2    0    0  0.12055725031E+03  0.12996276800E+02  0.42934064768E+03  0.44613490867E+03  0.10566000000E+00 0.  1.
        994    1    1    2    0    0 -0.26242541502E+03  0.69522162948E+02  0.30781712528E+03  0.44470355542E+03  0.17120000000E+03 0.  0.
        998    1    1    2    0    0  0.14186816471E+03 -0.82518439748E+02  0.76284222332E+03  0.78036153591E+03  0.10000000000E+02 0.  1.
</event>
<event>
 5    1  0.5781797E-010  0.3872800E+03  0.7957747E-01  0.3420060E+00
         13   -1    0    0    0    0  0.00000000000E+00  0.00000000000E+00  0.14999999963E+04  0.15000000000E+04  0.10566000000E+00 0. -1.
        994   -1    0    0    0    0 -0.00000000000E+00 -0.00000000000E+00  0.11368683772E-12  0.17120000000E+03  0.17120000000E+03 0.  0.
         13    1    1    2    0    0  0.13935191930E+03 -0.13351517887E+03  0.40601222546E+03  0.44954554696E+03  0.10566000000E+00 0. -1.
        994    1    1    2    0    0 -0.24800660323E+03  0.23955729137E+03  0.69268195248E+03  0.79247252216E+03  0.17120000000E+03 0.  0.
        998    1    1    2    0    0  0.10865468393E+03 -0.10604211250E+03  0.40130581834E+03  0.42918193088E+03  0.10000000000E+02 0. -1.
</event>
<event>
 5    1  0.5781797E-010  0.3829372E+03  0.7957747E-01  0.3438468E+00
         13   -1    0    0    0    0  0.00000000000E+00  0.00000000000E+00  0.14999999963E+04  0.15000000000E+04  0.10566000000E+00 0. -1.
        994   -1    0    0    0    0 -0.00000000000E+00 -0.00000000000E+00  0.11368683772E-12  0.17120000000E+03  0.17120000000E+03 0.  0.
         13    1    1    2    0    0  0.58944308805E+02  0.21171688754E+02  0.30746862667E+03  0.31378279031E+03  0.10566000000E+00 0. -1.
        994    1    1    2    0    0 -0.12744987763E+03 -0.15618227022E+02  0.59308996080E+02  0.22206845192E+03  0.17120000000E+03 0.  0.
        998    1    1    2    0    0  0.68505568823E+02 -0.55534617323E+01  0.11332223735E+04  0.11353487578E+04  0.10000000000E+02 0. -1.
</event>
<event>
 5    1  0.5781797E-010  0.3796387E+03  0.7957747E-01  0.3452733E+00
         13   -1    0    0    0    0  0.00000000000E+00  0.00000000000E+00  0.14999999963E+04  0.15000000000E+04  0.10566000000E+00 0.  1.
        994   -1    0    0    0    0 -0.00000000000E+00 -0.00000000000E+00  0.11368683772E-12  0.17120000000E+03  0.17120000000E+03 0.  0.
         13    1    1    2    0    0  0.10395450372E+03 -0.14957589381E+03  0.59464935839E+03  0.62192230821E+03  0.10566000000E+00 0.  1.
        994    1    1    2    0    0 -0.16481695121E+03  0.20032186244E+03  0.27841348383E+03  0.41727327252E+03  0.17120000000E+03 0.  0.
        998    1    1    2    0    0  0.60862447493E+02 -0.50745968629E+02  0.62693715406E+03  0.63200441928E+03  0.10000000000E+02 0.  1.
</event>
<event>
 5    1  0.5781797E-010  0.3819406E+03  0.7957747E-01  0.3442752E+00
         13   -1    0    0    0    0  0.00000000000E+00  0.00000000000E+00  0.14999999963E+04  0.15000000000E+04  0.10566000000E+00 0. -1.
        994   -1    0    0    0    0 -0.00000000000E+00 -0.00000000000E+00  0.11368683772E-12  0.17120000000E+03  0.17120000000E+03 0.  0.
         13    1    1    2    0    0 -0.17748283864E+03  0.42289300970E+02  0.96758226542E+03  0.98463393934E+03  0.10566000000E+00 0. -1.
        994    1    1    2    0    0  0.20871336936E+03 -0.12194550313E+02  0.16532200247E+03  0.31678191569E+03  0.17120000000E+03 0.  0.
        998    1    1    2    0    0 -0.31230530725E+02 -0.30094750657E+02  0.36709572840E+03  0.36978414497E+03  0.10000000000E+02 0.  1.
</event>
<event>
 5    1  0.5781797E-010  0.3854029E+03  0.7957747E-01  0.3427965E+00
         13   -1    0    0    0    0  0.00000000000E+00  0.00000000000E+00  0.14999999963E+04  0.15000000000E+04  0.10566000000E+00 0.  1.
        994   -1    0    0    0    0 -0.00000000000E+00 -0.00000000000E+00  0.11368683772E-12  0.17120000000E+03  0.17120000000E+03 0.  0.
         13    1    1    2    0    0 -0.20645879403E+02 -0.21999022048E+02  0.13895224550E+03  0.14218982735E+03  0.10566000000E+00 0.  1.
        994    1    1    2    0    0  0.14521013204E+03  0.38903800159E+02  0.79551208214E+02  0.24132410332E+03  0.17120000000E+03 0.  0.
        998    1    1    2    0    0 -0.12456425264E+03 -0.16904778111E+02  0.12814965426E+04  0.12876860693E+04  0.10000000000E+02 0.  1.
</event>
<event>
 5    1  0.7261725E-010  0.3852879E+03  0.7957747E-01  0.3428452E+00
         13   -1    0    0    0    0  0.00000000000E+00  0.00000000000E+00  0.14999999963E+04  0.15000000000E+04  0.10566000000E+00 0.  1.
        994   -1    0    0    0    0 -0.00000000000E+00 -0.00000000000E+00  0.11368683772E-12  0.17120000000E+03  0.17120000000E+03 0.  0.
         13    1    1    2    0    0  0.27068555796E+01 -0.11589606132E+02  0.50812960839E+02  0.52188257210E+02  0.10566000000E+00 0.  1.
        994    1    1    2    0    0 -0.68393935072E+02 -0.13213288695E+02  0.17595661083E+02  0.18566466719E+03  0.17120000000E+03 0.  0.
        998    1    1    2    0    0  0.65687079493E+02  0.24802894827E+02  0.14315913744E+04  0.14333470756E+04  0.10000000000E+02 0.  1.
</event>
<event>
 5    1  0.5781797E-010  0.3791492E+03  0.7957747E-01  0.3454872E+00
         13   -1    0    0    0    0  0.00000000000E+00  0.00000000000E+00  0.14999999963E+04  0.15000000000E+04  0.10566000000E+00 0. -1.
        994   -1    0    0    0    0 -0.00000000000E+00 -0.00000000000E+00  0.11368683772E-12  0.17120000000E+03  0.17120000000E+03 0.  0.
         13    1    1    2    0    0 -0.51796621995E+01  0.10588964016E+02  0.15755622089E+02  0.19677546871E+02  0.10566000000E+00 0. -1.
        994    1    1    2    0    0  0.54549868895E+02  0.10530550252E+03  0.53257650162E+02  0.21496686805E+03  0.17120000000E+03 0.  0.
        998    1    1    2    0    0 -0.49370206695E+02 -0.11589446654E+03  0.14309867240E+04  0.14365555851E+04  0.10000000000E+02 0. -1.
</event>
<event>
 5    1  0.5781797E-010  0.3873310E+03  0.7957747E-01  0.3419846E+00
         13   -1    0    0    0    0  0.00000000000E+00  0.00000000000E+00  0.14999999963E+04  0.15000000000E+04  0.10566000000E+00 0. -1.
        994   -1    0    0    0    0 -0.00000000000E+00 -0.00000000000E+00  0.11368683772E-12  0.17120000000E+03  0.17120000000E+03 0.  0.
         13    1    1    2    0    0 -0.18003670120E+03 -0.13546836770E+02  0.72015188811E+03  0.74243887538E+03  0.10566000000E+00 0. -1.
        994    1    1    2    0    0  0.28472457722E+03 -0.42439095870E+01  0.33699635352E+03  0.47324631845E+03  0.17120000000E+03 0.  0.
        998    1    1    2    0    0 -0.10468787602E+03  0.17790746357E+02  0.44285175465E+03  0.45551480617E+03  0.10000000000E+02 0.  1.
</event>
<event>
 5    1  0.5781797E-010  0.3850479E+03  0.7957747E-01  0.3429469E+00
         13   -1    0    0    0    0  0.00000000000E+00  0.00000000000E+00  0.14999999963E+04  0.15000000000E+04  0.10566000000E+00 0. -1.
        994   -1    0    0    0    0 -0.00000000000E+00 -0.00000000000E+00  0.11368683772E-12  0.17120000000E+03  0.17120000000E+03 0.  0.
         13    1    1    2    0    0 -0.64748386645E+02  0.13646460553E+03  0.78993179790E+03  0.80424324593E+03  0.10566000000E+00 0. -1.
        994    1    1    2    0    0  0.56250455713E+02 -0.24017767299E+03  0.23714802861E+03  0.38261998882E+03  0.17120000000E+03 0.  0.
        998    1    1    2    0    0  0.84979309315E+01  0.10371306746E+03  0.47292016977E+03  0.48433676524E+03  0.10000000000E+02 0. -1.
</event>
<event>
 5    1  0.5781797E-010  0.3865147E+03  0.7957747E-01  0.3423273E+00
         13   -1    0    0    0    0  0.00000000000E+00  0.00000000000E+00  0.14999999963E+04  0.15000000000E+04  0.10566000000E+00 0.  1.
        994   -1    0    0    0    0 -0.00000000000E+00 -0.00000000000E+00  0.11368683772E-12  0.17120000000E+03  0.17120000000E+03 0.  0.
         13    1    1    2    0    0  0.22146323598E+03  0.92671826486E+02  0.65640682889E+03  0.69893058918E+03  0.10566000000E+00 0.  1.
        994    1    1    2    0    0 -0.30865903339E+03 -0.10868556012E+03  0.52823595631E+03  0.64453519331E+03  0.17120000000E+03 0.  0.
        998    1    1    2    0    0  0.87195797402E+02  0.16013733636E+02  0.31535721108E+03  0.32773421752E+03  0.10000000000E+02 0.  1.
</event>
<event>
 5    1  0.5781797E-010  0.3859753E+03  0.7957747E-01  0.3425546E+00
         13   -1    0    0    0    0  0.00000000000E+00  0.00000000000E+00  0.14999999963E+04  0.15000000000E+04  0.10566000000E+00 0.  1.
        994   -1    0    0    0    0 -0.00000000000E+00 -0.00000000000E+00  0.11368683772E-12  0.17120000000E+03  0.17120000000E+03 0.  0.
         13    1    1    2    0    0 -0.84044708232E+02 -0.54656345358E+02  0.49371735481E+03  0.50379327772E+03  0.10566000000E+00 0.  1.
        994    1    1    2    0    0  0.18796697986E+03  0.84982002291E+02  0.15591340786E+03  0.31011603793E+03  0.17120000000E+03 0.  0.
        998    1    1    2    0    0 -0.10392227163E+03 -0.30325656933E+02  0.85036923360E+03  0.85729068434E+03  0.10000000000E+02 0.  1.
</event>
<event>
 5    1  0.5781797E-010  0.3246470E+03  0.7957747E-01  0.3734393E+00
         13   -1    0    0    0    0  0.00000000000E+00  0.00000000000E+00  0.14999999963E+04  0.15000000000E+04  0.10566000000E+00 0. -1.
        994   -1    0    0    0    0 -0.00000000000E+00 -0.00000000000E+00  0.11368683772E-12  0.17120000000E+03  0.17120000000E+03 0.  0.
         13    1    1    2    0    0 -0.34284109702E+02 -0.19630263687E+03  0.11182707592E+04  0.11358871543E+04  0.10566000000E+00 0. -1.
        994    1    1    2    0    0  0.31850137462E+02  0.75542713088E+02  0.72518554495E+02  0.20319821235E+03  0.17120000000E+03 0.  0.
        998    1    1    2    0    0  0.24339722408E+01  0.12075992379E+03  0.30921068263E+03  0.33211463332E+03  0.10000000000E+02 0.  1.
</event>
<event>
 5    1  0.6814121E-010  0.3859639E+03  0.7957747E-01  0.3425594E+00
         13   -1    0    0    0    0  0.00000000000E+00  0.00000000000E+00  0.14999999963E+04  0.15000000000E+04  0.10566000000E+00 0.  1.
        994   -1    0    0    0    0 -0.00000000000E+00 -0.00000000000E+00  0.11368683772E-12  0.17120000000E+03  0.17120000000E+03 0.  0.
         13    1    1    2    0    0  0.17171378561E+03 -0.48317881334E+02  0.10729132963E+04  0.10876411147E+04  0.10566000000E+00 0.  1.
        994    1    1    2    0    0 -0.19878494416E+03  0.39140086868E+02  0.14980474472E+03  0.30462813718E+03  0.17120000000E+03 0.  0.
        998    1    1    2    0    0  0.27071158551E+02  0.91777944662E+01  0.27728195526E+03  0.27893074812E+03  0.10000000000E+02 0.  1.
</event>
<event>
 5    1  0.5781797E-010  0.3871877E+03  0.7957747E-01  0.3420447E+00
         13   -1    0    0    0    0  0.00000000000E+00  0.00000000000E+00  0.14999999963E+04  0.15000000000E+04  0.10566000000E+00 0.  1.
        994   -1    0    0    0    0 -0.00000000000E+00 -0.00000000000E+00  0.11368683772E-12  0.17120000000E+03  0.17120000000E+03 0.  0.
         13    1    1    2    0    0  0.81747807266E+01  0.10595435065E+02  0.77409924675E+02  0.78558245184E+02  0.10566000000E+00 0.  1.
        994    1    1    2    0    0 -0.99839631844E+02 -0.42512684298E+02  0.39987660575E+02  0.20660041968E+03  0.17120000000E+03 0.  0.
        998    1    1    2    0    0  0.91664851117E+02  0.31917249233E+02  0.13826024110E+04  0.13860413351E+04  0.10000000000E+02 0.  1.
</event>
<event>
 5    1  0.5781797E-010  0.3875179E+03  0.7957747E-01  0.3419063E+00
         13   -1    0    0    0    0  0.00000000000E+00  0.00000000000E+00  0.14999999963E+04  0.15000000000E+04  0.10566000000E+00 0. -1.
        994   -1    0    0    0    0 -0.00000000000E+00 -0.00000000000E+00  0.11368683772E-12  0.17120000000E+03  0.17120000000E+03 0.  0.
         13    1    1    2    0    0  0.81113175576E+01  0.20038016992E+03  0.57630353791E+03  0.61019979100E+03  0.10566000000E+00 0. -1.
        994    1    1    2    0    0  0.10118318761E+02 -0.33237082491E+03  0.55884147575E+03  0.67244775309E+03  0.17120000000E+03 0.  0.
        998    1    1    2    0    0 -0.18229636319E+02  0.13199065499E+03  0.36485498262E+03  0.38855245590E+03  0.10000000000E+02 0. -1.
</event>
<event>
 5    1  0.5781797E-010  0.3769533E+03  0.7957747E-01  0.3464533E+00
         13   -1    0    0    0    0  0.00000000000E+00  0.00000000000E+00  0.14999999963E+04  0.15000000000E+04  0.10566000000E+00 0.  1.
        994   -1    0    0    0    0 -0.00000000000E+00 -0.00000000000E+00  0.11368683772E-12  0.17120000000E+03  0.17120000000E+03 0.  0.
         13    1    1    2    0    0  0.33654539981E+02 -0.10944439904E+02  0.17837117986E+03  0.18184800740E+03  0.10566000000E+00 0.  1.
        994    1    1    2    0    0  0.50075567492E+02  0.21072836593E+03  0.18527196266E+03  0.33248931835E+03  0.17120000000E+03 0.  0.
        998    1    1    2    0    0 -0.83730107474E+02 -0.19978392603E+03  0.11363568538E+04  0.11568626743E+04  0.10000000000E+02 0.  1.
</event>
<event>
 5    1  0.5781797E-010  0.3804880E+03  0.7957747E-01  0.3449036E+00
         13   -1    0    0    0    0  0.00000000000E+00  0.00000000000E+00  0.14999999963E+04  0.15000000000E+04  0.10566000000E+00 0.  1.
        994   -1    0    0    0    0 -0.00000000000E+00 -0.00000000000E+00  0.11368683772E-12  0.17120000000E+03  0.17120000000E+03 0.  0.
         13    1    1    2    0    0 -0.14390907843E+02 -0.13206351047E+02  0.68191773297E+02  0.70934018960E+02  0.10566000000E+00 0.  1.
        994    1    1    2    0    0 -0.73454521231E+02 -0.14298180636E+02  0.22809093973E+02  0.18822778601E+03  0.17120000000E+03 0.  0.
        998    1    1    2    0    0  0.87845429074E+02  0.27504531683E+02  0.14089991290E+04  0.14120381950E+04  0.10000000000E+02 0.  1.
</event>
<event>
 5    1  0.5781797E-010  0.3880206E+03  0.7957747E-01  0.3416962E+00
         13   -1    0    0    0    0  0.00000000000E+00  0.00000000000E+00  0.14999999963E+04  0.15000000000E+04  0.10566000000E+00 0. -1.
        994   -1    0    0    0    0 -0.00000000000E+00 -0.00000000000E+00  0.11368683772E-12  0.17120000000E+03  0.17120000000E+03 0.  0.
         13    1    1    2    0    0  0.14561747057E+01  0.21444582807E+03  0.67473274636E+03  0.70799253089E+03  0.10566000000E+00 0. -1.
        994    1    1    2    0    0 -0.45506923651E+01 -0.32422758319E+03  0.50207102101E+03  0.62171455238E+03  0.17120000000E+03 0.  0.
        998    1    1    2    0    0  0.30945176594E+01  0.10978175512E+03  0.32319622891E+03  0.34149291673E+03  0.10000000000E+02 0.  0.
</event>
<event>
 5    1  0.6127736E-010  0.3864333E+03  0.7957747E-01  0.3423616E+00
         13   -1    0    0    0    0  0.00000000000E+00  0.00000000000E+00  0.14999999963E+04  0.15000000000E+04  0.10566000000E+00 0. -1.
        994   -1    0    0    0    0 -0.00000000000E+00 -0.00000000000E+00  0.11368683772E-12  0.17120000000E+03  0.17120000000E+03 0.  0.
         13    1    1    2    0    0 -0.12568848666E+03 -0.17506141158E+03  0.12606465442E+04  0.12789346403E+04  0.10566000000E+00 0. -1.
        994    1    1    2    0    0  0.12746356718E+03  0.18326861321E+03  0.18580022724E+03  0.33714315949E+03  0.17120000000E+03 0.  0.
        998    1    1    2    0    0 -0.17750805250E+01 -0.82072016332E+01  0.53553224814E+02  0.55122200224E+02  0.10000000000E+02 0. -1.
</event>
<event>
 5    1  0.5781797E-010  0.3838079E+03  0.7957747E-01  0.3434744E+00
         13   -1    0    0    0    0  0.00000000000E+00  0.00000000000E+00  0.14999999963E+04  0.15000000000E+04  0.10566000000E+00 0.  1.
        994   -1    0    0    0    0 -0.00000000000E+00 -0.00000000000E+00  0.11368683772E-12  0.17120000000E+03  0.17120000000E+03 0.  0.
         13    1    1    2    0    0 -0.10470599079E+01 -0.13684499330E+02  0.59580279306E+02  0.61140679605E+02  0.10566000000E+00 0.  1.
        994    1    1    2    0    0  0.62457442246E+02 -0.54482956253E+02  0.25241413064E+02  0.19187468188E+03  0.17120000000E+03 0.  0.
        998    1    1    2    0    0 -0.61410382338E+02  0.68167455583E+02  0.14151783039E+04  0.14181846385E+04  0.10000000000E+02 0.  1.
</event>
<event>
 5    1  0.5781797E-010  0.3857914E+03  0.7957747E-01  0.3426323E+00
         13   -1    0    0    0    0  0.00000000000E+00  0.00000000000E+00  0.14999999963E+04  0.15000000000E+04  0.10566000000E+00 0. -1.
        994   -1    0    0    0    0 -0.00000000000E+00 -0.00000000000E+00  0.11368683772E-12  0.17120000000E+03  0.17120000000E+03 0.  0.
         13    1    1    2    0    0  0.29373380180E+02 -0.76454922095E+02  0.46690638404E+03  0.47403558220E+03  0.10566000000E+00 0. -1.
        994    1    1    2    0    0 -0.79309470242E+02  0.14524190929E+03  0.96903055971E+02  0.25706973089E+03  0.17120000000E+03 0.  0.
        998    1    1    2    0    0  0.49936090062E+02 -0.68786987194E+02  0.93619055627E+03  0.94009468691E+03  0.10000000000E+02 0. -1.
</event>
<event>
 5    1  0.5781797E-010  0.3861695E+03  0.7957747E-01  0.3424727E+00
         13   -1    0    0    0    0  0.00000000000E+00  0.00000000000E+00  0.14999999963E+04  0.15000000000E+04  0.10566000000E+00 0. -1.
        994   -1    0    0    0    0 -0.00000000000E+00 -0.00000000000E+00  0.11368683772E-12  0.17120000000E+03  0.17120000000E+03 0.  0.
         13    1    1    2    0    0  0.75549456883E+02  0.17220674160E+03  0.10749844115E+04  0.10913085624E+04  0.10566000000E+00 0. -1.
        994    1    1    2    0    0 -0.11256663063E+03 -0.19827241145E+03  0.19541991009E+03  0.34566107205E+03  0.17120000000E+03 0.  0.
        998    1    1    2    0    0  0.37017173750E+02  0.26065669853E+02  0.22959567467E+03  0.23423036551E+03  0.10000000000E+02 0.  0.
</event>
<event>
 5    1  0.5781797E-010  0.3832414E+03  0.7957747E-01  0.3437165E+00
         13   -1    0    0    0    0  0.00000000000E+00  0.00000000000E+00  0.14999999963E+04  0.15000000000E+04  0.10566000000E+00 0. -1.
        994   -1    0    0    0    0 -0.00000000000E+00 -0.00000000000E+00  0.11368683772E-12  0.17120000000E+03  0.17120000000E+03 0.  0.
         13    1    1    2    0    0  0.13613546721E+02 -0.17838861143E+02  0.76510917116E+02  0.79733839888E+02  0.10566000000E+00 0. -1.
        994    1    1    2    0    0  0.38241950780E+02  0.11966132065E+03  0.56582071297E+02  0.21975497549E+03  0.17120000000E+03 0.  0.
        998    1    1    2    0    0 -0.51855497501E+02 -0.10182245950E+03  0.13669070079E+04  0.13717111846E+04  0.10000000000E+02 0. -1.
</event>
<event>
 5    1  0.5781797E-010  0.3834214E+03  0.7957747E-01  0.3436395E+00
         13   -1    0    0    0    0  0.00000000000E+00  0.00000000000E+00  0.14999999963E+04  0.15000000000E+04  0.10566000000E+00 0.  1.
        994   -1    0    0    0    0 -0.00000000000E+00 -0.00000000000E+00  0.11368683772E-12  0.17120000000E+03  0.17120000000E+03 0.  0.
         13    1    1    2    0    0  0.15955032205E+02 -0.16874791837E+02  0.78206282284E+02  0.81581587414E+02  0.10566000000E+00 0.  1.
        994    1    1    2    0    0 -0.19796908794E+02  0.90941900992E+02  0.31596765360E+02  0.19740856753E+03  0.17120000000E+03 0.  0.
        998    1    1    2    0    0  0.38418765894E+01 -0.74067109155E+02  0.13901969486E+04  0.13922098451E+04  0.10000000000E+02 0.  1.
</event>
<event>
 5    1  0.5781797E-010  0.3863216E+03  0.7957747E-01  0.3424086E+00
         13   -1    0    0    0    0  0.00000000000E+00  0.00000000000E+00  0.14999999963E+04  0.15000000000E+04  0.10566000000E+00 0.  1.
        994   -1    0    0    0    0 -0.00000000000E+00 -0.00000000000E+00  0.11368683772E-12  0.17120000000E+03  0.17120000000E+03 0.  0.
         13    1    1    2    0    0  0.12064216083E+02  0.19587415365E+03  0.85768671047E+03  0.87985154080E+03  0.10566000000E+00 0.  1.
        994    1    1    2    0    0 -0.92068876986E+01 -0.25188153211E+03  0.24778477410E+03  0.39272866877E+03  0.17120000000E+03 0.  0.
        998    1    1    2    0    0 -0.28573283843E+01  0.56007378456E+02  0.39452851171E+03  0.39861979043E+03  0.10000000000E+02 0. -1.
</event>
<event>
 5    1  0.5781797E-010  0.3720784E+03  0.7957747E-01  0.3486393E+00
         13   -1    0    0    0    0  0.00000000000E+00  0.00000000000E+00  0.14999999963E+04  0.15000000000E+04  0.10566000000E+00 0. -1.
        994   -1    0    0    0    0 -0.00000000000E+00 -0.00000000000E+00  0.11368683772E-12  0.17120000000E+03  0.17120000000E+03 0.  0.
         13    1    1    2    0    0  0.54952928924E+02  0.17784058152E+03  0.99699983122E+03  0.10142266864E+04  0.10566000000E+00 0. -1.
        994    1    1    2    0    0 -0.11205502094E+01 -0.18675940524E+03  0.13941848791E+03  0.28918382709E+03  0.17120000000E+03 0.  0.
        998    1    1    2    0    0 -0.53832378715E+02  0.89188237167E+01  0.36358167715E+03  0.36778948649E+03  0.10000000000E+02 0. -1.
</event>
<event>
 5    1  0.5781797E-010  0.3863765E+03  0.7957747E-01  0.3423855E+00
         13   -1    0    0    0    0  0.00000000000E+00  0.00000000000E+00  0.14999999963E+04  0.15000000000E+04  0.10566000000E+00 0.  1.
        994   -1    0    0    0    0 -0.00000000000E+00 -0.00000000000E+00  0.11368683772E-12  0.17120000000E+03  0.17120000000E+03 0.  0.
         13    1    1    2    0    0 -0.24955020311E+03 -0.12893369590E+02  0.10612070482E+04  0.10902302295E+04  0.10566000000E+00 0.  1.
        994    1    1    2    0    0  0.27606140426E+03 -0.26405937498E+00  0.31206731033E+03  0.45045023569E+03  0.17120000000E+03 0.  0.
        998    1    1    2    0    0 -0.26511201159E+02  0.13157428965E+02  0.12672563770E+03  0.13051953484E+03  0.10000000000E+02 0. -1.
</event>
<event>
 5    1  0.5781797E-010  0.3828560E+03  0.7957747E-01  0.3438816E+00
         13   -1    0    0    0    0  0.00000000000E+00  0.00000000000E+00  0.14999999963E+04  0.15000000000E+04  0.10566000000E+00 0. -1.
        994   -1    0    0    0    0 -0.00000000000E+00 -0.00000000000E+00  0.11368683772E-12  0.17120000000E+03  0.17120000000E+03 0.  0.
         13    1    1    2    0    0  0.19632389063E+03  0.10998217980E+03  0.10869349508E+04  0.11099850217E+04  0.10566000000E+00 0. -1.
        994    1    1    2    0    0 -0.22986807558E+03 -0.93567136183E+02  0.24423020841E+03  0.38801027801E+03  0.17120000000E+03 0.  0.
        998    1    1    2    0    0  0.33544184956E+02 -0.16415043621E+02  0.16883483702E+03  0.17320470026E+03  0.10000000000E+02 0.  1.
</event>
<event>
 5    1  0.5781797E-010  0.3764624E+03  0.7957747E-01  0.3466708E+00
         13   -1    0    0    0    0  0.00000000000E+00  0.00000000000E+00  0.14999999963E+04  0.15000000000E+04  0.10566000000E+00 0. -1.
        994   -1    0    0    0    0 -0.00000000000E+00 -0.00000000000E+00  0.11368683772E-12  0.17120000000E+03  0.17120000000E+03 0.  0.
         13    1    1    2    0    0  0.45402517241E+02  0.96226167640E+02  0.60570541083E+03  0.61497960925E+03  0.10566000000E+00 0. -1.
        994    1    1    2    0    0 -0.14401218665E+03 -0.76886355581E+02  0.10216272505E+03  0.25767748052E+03  0.17120000000E+03 0.  0.
        998    1    1    2    0    0  0.98609669410E+02 -0.19339812058E+02  0.79213186039E+03  0.79854291023E+03  0.10000000000E+02 0. -1.
</event>
<event>
 5    1  0.5781797E-010  0.3818625E+03  0.7957747E-01  0.3443089E+00
         13   -1    0    0    0    0  0.00000000000E+00  0.00000000000E+00  0.14999999963E+04  0.15000000000E+04  0.10566000000E+00 0.  1.
        994   -1    0    0    0    0 -0.00000000000E+00 -0.00000000000E+00  0.11368683772E-12  0.17120000000E+03  0.17120000000E+03 0.  0.
         13    1    1    2    0    0  0.25353108668E+01 -0.25134360770E+03  0.10899463620E+04  0.11185540309E+04  0.10566000000E+00 0.  1.
        994    1    1    2    0    0 -0.28439535236E+02  0.26227673810E+03  0.28612947326E+03  0.42517926805E+03  0.17120000000E+03 0.  0.
        998    1    1    2    0    0  0.25904224369E+02 -0.10933130401E+02  0.12392416105E+03  0.12746670103E+03  0.10000000000E+02 0. -1.
</event>
<event>
 5    1  0.5781797E-010  0.3858416E+03  0.7957747E-01  0.3426111E+00
         13   -1    0    0    0    0  0.00000000000E+00  0.00000000000E+00  0.14999999963E+04  0.15000000000E+04  0.10566000000E+00 0.  1.
        994   -1    0    0    0    0 -0.00000000000E+00 -0.00000000000E+00  0.11368683772E-12  0.17120000000E+03  0.17120000000E+03 0.  0.
         13    1    1    2    0    0  0.46613475260E+02  0.27857264676E+02  0.31080073463E+03  0.31550903486E+03  0.10566000000E+00 0.  1.
        994    1    1    2    0    0 -0.99528970374E+02 -0.12756656144E+03  0.92370664546E+02  0.25302376017E+03  0.17120000000E+03 0.  0.
        998    1    1    2    0    0  0.52915495114E+02  0.99709296765E+02  0.10968285971E+04  0.11026672050E+04  0.10000000000E+02 0.  1.
</event>
<event>
 5    1  0.5781797E-010  0.3872363E+03  0.7957747E-01  0.3420243E+00
         13   -1    0    0    0    0  0.00000000000E+00  0.00000000000E+00  0.14999999963E+04  0.15000000000E+04  0.10566000000E+00 0. -1.
        994   -1    0    0    0    0 -0.00000000000E+00 -0.00000000000E+00  0.11368683772E-12  0.17120000000E+03  0.17120000000E+03 0.  0.
         13    1    1    2    0    0  0.61806709634E+01  0.25864843272E+03  0.94914141461E+03  0.98377164450E+03  0.10566000000E+00 0. -1.
        994    1    1    2    0    0 -0.10855749412E+02 -0.29445390623E+03  0.37120134605E+03  0.50390557598E+03  0.17120000000E+03 0.  0.
        998    1    1    2    0    0  0.46750784487E+01  0.35805473513E+02  0.17965723562E+03  0.18352277952E+03  0.10000000000E+02 0. -1.
</event>
<event>
 5    1  0.5781797E-010  0.3881240E+03  0.7957747E-01  0.3416530E+00
         13   -1    0    0    0    0  0.00000000000E+00  0.00000000000E+00  0.14999999963E+04  0.15000000000E+04  0.10566000000E+00 0. -1.
        994   -1    0    0    0    0 -0.00000000000E+00 -0.00000000000E+00  0.11368683772E-12  0.17120000000E+03  0.17120000000E+03 0.  0.
         13    1    1    2    0    0  0.58644401124E+02 -0.11397604090E+03  0.63964589350E+03  0.65236231031E+03  0.10566000000E+00 0. -1.
        994    1    1    2    0    0 -0.10815588465E+03  0.22454920495E+03  0.23822317510E+03  0.38494124485E+03  0.17120000000E+03 0.  0.
        998    1    1    2    0    0  0.49511483523E+02 -0.11057316405E+03  0.62213092768E+03  0.63389644484E+03  0.10000000000E+02 0. -1.
</event>
<event>
 5    1  0.5781797E-010  0.3865110E+03  0.7957747E-01  0.3423289E+00
         13   -1    0    0    0    0  0.00000000000E+00  0.00000000000E+00  0.14999999963E+04  0.15000000000E+04  0.10566000000E+00 0. -1.
        994   -1    0    0    0    0 -0.00000000000E+00 -0.00000000000E+00  0.11368683772E-12  0.17120000000E+03  0.17120000000E+03 0.  0.
         13    1    1    2    0    0  0.87838188635E+01  0.25886244843E+02  0.13876441204E+03  0.14143134857E+03  0.10566000000E+00 0. -1.
        994    1    1    2    0    0 -0.69901590461E+02 -0.11450371278E+03  0.62169977996E+02  0.22621202168E+03  0.17120000000E+03 0.  0.
        998    1    1    2    0    0  0.61117771597E+02  0.88617467940E+02  0.12990656062E+04  0.13035566297E+04  0.10000000000E+02 0. -1.
</event>
<event>
 5    1  0.5781797E-010  0.3847000E+03  0.7957747E-01  0.3430946E+00
         13   -1    0    0    0    0  0.00000000000E+00  0.00000000000E+00  0.14999999963E+04  0.15000000000E+04  0.10566000000E+00 0.  1.
        994   -1    0    0    0    0 -0.00000000000E+00 -0.00000000000E+00  0.11368683772E-12  0.17120000000E+03  0.17120000000E+03 0.  0.
         13    1    1    2    0    0  0.53528184516E+01 -0.10367342661E+02  0.41065349747E+02  0.42690848821E+02  0.10566000000E+00 0.  1.
        994    1    1    2    0    0  0.42171588609E+02  0.14606040134E+02  0.83635142761E+01  0.17711907764E+03  0.17120000000E+03 0.  0.
        998    1    1    2    0    0 -0.47524407061E+02 -0.42386974729E+01  0.14505711323E+04  0.14513900735E+04  0.10000000000E+02 0.  1.
</event>
<event>
 5    1  0.5781797E-010  0.3878400E+03  0.7957747E-01  0.3417716E+00
         13   -1    0    0    0    0  0.00000000000E+00  0.00000000000E+00  0.14999999963E+04  0.15000000000E+04  0.10566000000E+00 0. -1.
        994   -1    0    0    0    0 -0.00000000000E+00 -0.00000000000E+00  0.11368683772E-12  0.17120000000E+03  0.17120000000E+03 0.  0.
         13    1    1    2    0    0 -0.12535630528E+03  0.15739936621E+03  0.88763939892E+03  0.91016068770E+03  0.10566000000E+00 0. -1.
        994    1    1    2    0    0  0.17823154424E+03 -0.20788493549E+03  0.30241952048E+03  0.44243602490E+03  0.17120000000E+03 0.  0.
        998    1    1    2    0    0 -0.52875238968E+02  0.50485569281E+02  0.30994107688E+03  0.31860328740E+03  0.10000000000E+02 0.  0.
</event>
<event>
 5    1  0.5781797E-010  0.3853860E+03  0.7957747E-01  0.3428037E+00
         13   -1    0    0    0    0  0.00000000000E+00  0.00000000000E+00  0.14999999963E+04  0.15000000000E+04  0.10566000000E+00 0.  1.
        994   -1    0    0    0    0 -0.00000000000E+00 -0.00000000000E+00  0.11368683772E-12  0.17120000000E+03  0.17120000000E+03 0.  0.
         13    1    1    2    0    0 -0.15674906304E+03 -0.35280065397E+02  0.89655879491E+03  0.91084171823E+03  0.10566000000E+00 0.  1.
        994    1    1    2    0    0  0.19508356221E+03  0.35674949999E+02  0.14350660295E+03  0.29872041007E+03  0.17120000000E+03 0.  0.
        998    1    1    2    0    0 -0.38334499173E+02 -0.39488460217E+00  0.45993459842E+03  0.46163787170E+03  0.10000000000E+02 0.  1.
</event>
<event>
 5    1  0.5781797E-010  0.3836148E+03  0.7957747E-01  0.3435568E+00
         13   -1    0    0    0    0  0.00000000000E+00  0.00000000000E+00  0.14999999963E+04  0.15000000000E+04  0.10566000000E+00 0.  1.
        994   -1    0    0    0    0 -0.00000000000E+00 -0.00000000000E+00  0.11368683772E-12  0.17120000000E+03  0.17120000000E+03 0.  0.
         13    1    1    2    0    0  0.91500709592E+02  0.35870726863E+02  0.35310174241E+03  0.36652413366E+03  0.10566000000E+00 0.  1.
        994    1    1    2    0    0 -0.19754188125E+03 -0.12653516723E+03  0.21248530237E+03  0.35985189608E+03  0.17120000000E+03 0.  0.
        998    1    1    2    0    0  0.10604117165E+03  0.90664440365E+02  0.93441295150E+03  0.94482397026E+03  0.10000000000E+02 0.  1.
</event>
<event>
 5    1  0.5781797E-010  0.3821347E+03  0.7957747E-01  0.3441916E+00
         13   -1    0    0    0    0  0.00000000000E+00  0.00000000000E+00  0.14999999963E+04  0.15000000000E+04  0.10566000000E+00 0.  1.
        994   -1    0    0    0    0 -0.00000000000E+00 -0.00000000000E+00  0.11368683772E-12  0.17120000000E+03  0.17120000000E+03 0.  0.
         13    1    1    2    0    0  0.28814531982E+03  0.12551851539E+02  0.66414384704E+03  0.72406652666E+03  0.10566000000E+00 0.  1.
        994    1    1    2    0    0 -0.34144306355E+03  0.10037418273E+02  0.76483471310E+03  0.85496531729E+03  0.17120000000E+03 0.  0.
        998    1    1    2    0    0  0.53297743732E+02 -0.22589269812E+02  0.71021436143E+02  0.92168156048E+02  0.10000000000E+02 0.  1.
</event>
<event>
 5    1  0.5781797E-010  0.3848375E+03  0.7957747E-01  0.3430362E+00
         13   -1    0    0    0    0  0.00000000000E+00  0.00000000000E+00  0.14999999963E+04  0.15000000000E+04  0.10566000000E+00 0.  1.
        994   -1    0    0    0    0 -0.00000000000E+00 -0.00000000000E+00  0.11368683772E-12  0.17120000000E+03  0.17120000000E+03 0.  0.
         13    1    1    2    0    0  0.44799356943E+02  0.19879350567E+02  0.23480430706E+03  0.23986505526E+03  0.10566000000E+00 0.  1.
        994    1    1    2    0    0 -0.15814056106E+03 -0.53610165380E+01  0.88961401853E+02  0.24952103834E+03  0.17120000000E+03 0.  0.
        998    1    1    2    0    0  0.11334120412E+03 -0.14518334029E+02  0.11762342874E+04  0.11818139064E+04  0.10000000000E+02 0.  1.
</event>
<event>
 5    1  0.5781797E-010  0.3878224E+03  0.7957747E-01  0.3417790E+00
         13   -1    0    0    0    0  0.00000000000E+00  0.00000000000E+00  0.14999999963E+04  0.15000000000E+04  0.10566000000E+00 0. -1.
        994   -1    0    0    0    0 -0.00000000000E+00 -0.00000000000E+00  0.11368683772E-12  0.17120000000E+03  0.17120000000E+03 0.  0.
         13    1    1    2    0    0 -0.10673556327E+03  0.14643444801E+03  0.94651539225E+03  0.96370479243E+03  0.10566000000E+00 0. -1.
        994    1    1    2    0    0  0.13694202170E+03 -0.19251400126E+03  0.21000436871E+03  0.35948022597E+03  0.17120000000E+03 0.  0.
        998    1    1    2    0    0 -0.30206458424E+02  0.46079553252E+02  0.34348023532E+03  0.34801498159E+03  0.10000000000E+02 0. -1.
</event>
<event>
 5    1  0.5781797E-010  0.3703215E+03  0.7957747E-01  0.3494415E+00
         13   -1    0    0    0    0  0.00000000000E+00  0.00000000000E+00  0.14999999963E+04  0.15000000000E+04  0.10566000000E+00 0. -1.
        994   -1    0    0    0    0 -0.00000000000E+00 -0.00000000000E+00  0.11368683772E-12  0.17120000000E+03  0.17120000000E+03 0.  0.
         13    1    1    2    0    0 -0.23458967578E+02 -0.57208885419E+02  0.21679852102E+03  0.22544353974E+03  0.10566000000E+00 0. -1.
        994    1    1    2    0    0  0.83345383874E+01 -0.15670862399E+02  0.12212245621E+02  0.17255033875E+03  0.17120000000E+03 0.  0.
        998    1    1    2    0    0  0.15124429191E+02  0.72879747819E+02  0.12709892296E+04  0.12732061215E+04  0.10000000000E+02 0. -1.
</event>
<event>
 5    1  0.5781797E-010  0.3849896E+03  0.7957747E-01  0.3429716E+00
         13   -1    0    0    0    0  0.00000000000E+00  0.00000000000E+00  0.14999999963E+04  0.15000000000E+04  0.10566000000E+00 0. -1.
        994   -1    0    0    0    0 -0.00000000000E+00 -0.00000000000E+00  0.11368683772E-12  0.17120000000E+03  0.17120000000E+03 0.  0.
         13    1    1    2    0    0  0.14127294966E+03 -0.80534238390E+02  0.96898760483E+03  0.98253793786E+03  0.10566000000E+00 0. -1.
        994    1    1    2    0    0 -0.15606218089E+03  0.11053287065E+03  0.13293550322E+03  0.28905744725E+03  0.17120000000E+03 0.  0.
        998    1    1    2    0    0  0.14789231229E+02 -0.29998632256E+02  0.39807688822E+03  0.39960461488E+03  0.10000000000E+02 0.  1.
</event>
<event>
 5    1  0.5781797E-010  0.3856736E+03  0.7957747E-01  0.3426821E+00
         13   -1    0    0    0    0  0.00000000000E+00  0.00000000000E+00  0.14999999963E+04  0.15000000000E+04  0.10566000000E+00 0.  1.
        994   -1    0    0    0    0 -0.00000000000E+00 -0.00000000000E+00  0.11368683772E-12  0.17120000000E+03  0.17120000000E+03 0.  0.
         13    1    1    2    0    0  0.14698091872E+01 -0.22897911886E+02  0.12460432973E+03  0.12669934830E+03  0.10566000000E+00 0.  1.
        994    1    1    2    0    0 -0.17875837662E+02  0.68700928675E+02  0.18010867398E+02  0.18620739652E+03  0.17120000000E+03 0.  0.
        998    1    1    2    0    0  0.16406028475E+02 -0.45803016789E+02  0.13573847992E+04  0.13582932552E+04  0.10000000000E+02 0.  1.
</event>
<event>
 5    1  0.5781797E-010  0.3855909E+03  0.7957747E-01  0.3427170E+00
         13   -1    0    0    0    0  0.00000000000E+00  0.00000000000E+00  0.14999999963E+04  0.15000000000E+04  0.10566000000E+00 0. -1.
        994   -1    0    0    0    0 -0.00000000000E+00 -0.00000000000E+00  0.11368683772E-12  0.17120000000E+03  0.17120000000E+03 0.  0.
         13    1    1    2    0    0 -0.17909212792E+03  0.10163432879E+03  0.99287585763E+03  0.10140049344E+04  0.10566000000E+00 0. -1.
        994    1    1    2    0    0  0.20264328160E+03 -0.11845844107E+03  0.20995210092E+03  0.35844947555E+03  0.17120000000E+03 0.  0.
        998    1    1    2    0    0 -0.23551153684E+02  0.16824112278E+02  0.29717203773E+03  0.29874559010E+03  0.10000000000E+02 0. -1.
</event>
<event>
 5    1  0.5781797E-010  0.3804991E+03  0.7957747E-01  0.3448988E+00
         13   -1    0    0    0    0  0.00000000000E+00  0.00000000000E+00  0.14999999963E+04  0.15000000000E+04  0.10566000000E+00 0. -1.
        994   -1    0    0    0    0 -0.00000000000E+00 -0.00000000000E+00  0.11368683772E-12  0.17120000000E+03  0.17120000000E+03 0.  0.
         13    1    1    2    0    0  0.68388988781E+02 -0.13133834403E+02  0.40054831674E+03  0.40655690450E+03  0.10566000000E+00 0. -1.
        994    1    1    2    0    0 -0.86181856317E+02  0.11356713119E+03  0.74992665223E+02  0.23507051173E+03  0.17120000000E+03 0.  0.
        998    1    1    2    0    0  0.17792867536E+02 -0.10043329679E+03  0.10244590143E+04  0.10295725838E+04  0.10000000000E+02 0. -1.
</event>
<event>
 5    1  0.5781797E-010  0.3828057E+03  0.7957747E-01  0.3439032E+00
         13   -1    0    0    0    0  0.00000000000E+00  0.00000000000E+00  0.14999999963E+04  0.15000000000E+04  0.10566000000E+00 0. -1.
        994   -1    0    0    0    0 -0.00000000000E+00 -0.00000000000E+00  0.11368683772E-12  0.17120000000E+03  0.17120000000E+03 0.  0.
         13    1    1    2    0    0 -0.14283328809E+02  0.24369164535E+02  0.83322626155E+02  0.87980343574E+02  0.10566000000E+00 0. -1.
        994    1    1    2    0    0  0.43786440697E+02 -0.11551063724E+03  0.55028718619E+02  0.21816864939E+03  0.17120000000E+03 0.  0.
        998    1    1    2    0    0 -0.29503111888E+02  0.91141472707E+02  0.13616486515E+04  0.13650510070E+04  0.10000000000E+02 0. -1.
</event>
<event>
 5    1  0.5781797E-010  0.3741306E+03  0.7957747E-01  0.3477120E+00
         13   -1    0    0    0    0  0.00000000000E+00  0.00000000000E+00  0.14999999963E+04  0.15000000000E+04  0.10566000000E+00 0. -1.
        994   -1    0    0    0    0 -0.00000000000E+00 -0.00000000000E+00  0.11368683772E-12  0.17120000000E+03  0.17120000000E+03 0.  0.
         13    1    1    2    0    0  0.13671071856E+03 -0.33154396160E+02  0.84357518368E+03  0.85522402693E+03  0.10566000000E+00 0. -1.
        994    1    1    2    0    0 -0.19637402837E+03 -0.55345415625E+02  0.16569152266E+03  0.31367020058E+03  0.17120000000E+03 0.  0.
        998    1    1    2    0    0  0.59663309809E+02  0.88499811785E+02  0.49073328994E+03  0.50230577249E+03  0.10000000000E+02 0. -1.
</event>
<event>
 5    1  0.5781797E-010  0.3879688E+03  0.7957747E-01  0.3417178E+00
         13   -1    0    0    0    0  0.00000000000E+00  0.00000000000E+00  0.14999999963E+04  0.15000000000E+04  0.10566000000E+00 0.  1.
        994   -1    0    0    0    0 -0.00000000000E+00 -0.00000000000E+00  0.11368683772E-12  0.17120000000E+03  0.17120000000E+03 0.  0.
         13    1    1    2    0    0  0.14253173610E+03 -0.12856766611E+03  0.10042799975E+04  0.10224594198E+04  0.10566000000E+00 0.  1.
        994    1    1    2    0    0 -0.17984724279E+03  0.16166797298E+03  0.22174802928E+03  0.37008538571E+03  0.17120000000E+03 0.  0.
        998    1    1    2    0    0  0.37315506692E+02 -0.33100306866E+02  0.27397196946E+03  0.27865519447E+03  0.10000000000E+02 0.  0.
</event>
<event>
 5    1  0.5781797E-010  0.3876731E+03  0.7957747E-01  0.3418414E+00
         13   -1    0    0    0    0  0.00000000000E+00  0.00000000000E+00  0.14999999963E+04  0.15000000000E+04  0.10566000000E+00 0. -1.
        994   -1    0    0    0    0 -0.00000000000E+00 -0.00000000000E+00  0.11368683772E-12  0.17120000000E+03  0.17120000000E+03 0.  0.
         13    1    1    2    0    0  0.12719922463E+03  0.14661379363E+03  0.10878477312E+04  0.11050284814E+04  0.10566000000E+00 0. -1.
        994    1    1    2    0    0 -0.14466046984E+03 -0.17731043902E+03  0.19508956601E+03  0.34602748747E+03  0.17120000000E+03 0.  0.
        998    1    1    2    0    0  0.17461245216E+02  0.30696645382E+02  0.21706269909E+03  0.22014403117E+03  0.10000000000E+02 0. -1.
</event>
<event>
 5    1  0.5781797E-010  0.3850098E+03  0.7957747E-01  0.3429631E+00
         13   -1    0    0    0    0  0.00000000000E+00  0.00000000000E+00  0.14999999963E+04  0.15000000000E+04  0.10566000000E+00 0.  1.
        994   -1    0    0    0    0 -0.00000000000E+00 -0.00000000000E+00  0.11368683772E-12  0.17120000000E+03  0.17120000000E+03 0.  0.
         13    1    1    2    0    0  0.33886713546E+02  0.12122210831E+03  0.57992742348E+03  0.59342980761E+03  0.10566000000E+00 0.  1.
        994    1    1    2    0    0 -0.68164532478E+02 -0.20043733418E+03  0.16637249260E+03  0.31907800726E+03  0.17120000000E+03 0.  0.
        998    1    1    2    0    0  0.34277818932E+02  0.79215225874E+02  0.75370008020E+03  0.75869218513E+03  0.10000000000E+02 0.  1.
</event>
<event>
 5    1  0.5781797E-010  0.3875949E+03  0.7957747E-01  0.3418741E+00
         13   -1    0    0    0    0  0.00000000000E+00  0.00000000000E+00  0.14999999963E+04  0.15000000000E+04  0.10566000000E+00 0.  1.
        994   -1    0    0    0    0 -0.00000000000E+00 -0.00000000000E+00  0.11368683772E-12  0.17120000000E+03  0.17120000000E+03 0.  0.
         13    1    1    2    0    0 -0.41618587226E+02 -0.17021022599E+03  0.10353770596E+04  0.10500996594E+04  0.10566000000E+00 0.  1.
        994    1    1    2    0    0  0.61663775862E+02  0.20832083314E+03  0.17322525046E+03  0.32636853122E+03  0.17120000000E+03 0.  0.
        998    1    1    2    0    0 -0.20045188635E+02 -0.38110607149E+02  0.29139768617E+03  0.29473180939E+03  0.10000000000E+02 0.  1.
</event>
<event>
 5    1  0.5781797E-010  0.3865633E+03  0.7957747E-01  0.3423069E+00
         13   -1    0    0    0    0  0.00000000000E+00  0.00000000000E+00  0.14999999963E+04  0.15000000000E+04  0.10566000000E+00 0. -1.
        994   -1    0    0    0    0 -0.00000000000E+00 -0.00000000000E+00  0.11368683772E-12  0.17120000000E+03  0.17120000000E+03 0.  0.
         13    1    1    2    0    0  0.14110648329E+02  0.16298404308E+02  0.10935632802E+03  0.11146105159E+03  0.10566000000E+00 0. -1.
        994    1    1    2    0    0 -0.87520582746E+02 -0.73215701652E+02  0.44681346232E+02  0.21053801100E+03  0.17120000000E+03 0.  0.
        998    1    1    2    0    0  0.73409934417E+02  0.56917297345E+02  0.13459623220E+04  0.13492009374E+04  0.10000000000E+02 0. -1.
</event>
<event>
 5    1  0.5781797E-010  0.2674682E+03  0.7957747E-01  0.4159658E+00
         13   -1    0    0    0    0  0.00000000000E+00  0.00000000000E+00  0.14999999963E+04  0.15000000000E+04  0.10566000000E+00 0. -1.
        994   -1    0    0    0    0 -0.00000000000E+00 -0.00000000000E+00  0.11368683772E-12  0.17120000000E+03  0.17120000000E+03 0.  0.
         13    1    1    2    0    0 -0.24185047217E+03  0.19175693859E+01  0.10905653661E+04  0.11170622887E+04  0.10566000000E+00 0. -1.
        994    1    1    2    0    0  0.63219382204E+02  0.29189780967E+02  0.25981483179E+03  0.31884466503E+03  0.17120000000E+03 0.  0.
        998    1    1    2    0    0  0.17863108997E+03 -0.31107350353E+02  0.14961979839E+03  0.23529304626E+03  0.10000000000E+02 0. -1.
</event>
<event>
 5    1  0.5781797E-010  0.3083276E+03  0.7957747E-01  0.3838305E+00
         13   -1    0    0    0    0  0.00000000000E+00  0.00000000000E+00  0.14999999963E+04  0.15000000000E+04  0.10566000000E+00 0.  1.
        994   -1    0    0    0    0 -0.00000000000E+00 -0.00000000000E+00  0.11368683772E-12  0.17120000000E+03  0.17120000000E+03 0.  0.
         13    1    1    2    0    0 -0.10687748574E+03 -0.11800149536E+03  0.86940188173E+03  0.88385903456E+03  0.10566000000E+00 0.  1.
        994    1    1    2    0    0  0.17437309245E+03  0.66683551310E+01  0.14441707983E+03  0.28392987739E+03  0.17120000000E+03 0.  0.
        998    1    1    2    0    0 -0.67495606715E+02  0.11133314023E+03  0.48618103473E+03  0.50341108804E+03  0.10000000000E+02 0.  1.
</event>
<event>
 5    1  0.5781797E-010  0.3861382E+03  0.7957747E-01  0.3424859E+00
         13   -1    0    0    0    0  0.00000000000E+00  0.00000000000E+00  0.14999999963E+04  0.15000000000E+04  0.10566000000E+00 0. -1.
        994   -1    0    0    0    0 -0.00000000000E+00 -0.00000000000E+00  0.11368683772E-12  0.17120000000E+03  0.17120000000E+03 0.  0.
         13    1    1    2    0    0 -0.24431752321E+03 -0.11027180271E+03  0.11003801839E+04  0.11325579380E+04  0.10566000000E+00 0. -1.
        994    1    1    2    0    0  0.25331620093E+03  0.12443975294E+03  0.33167683240E+03  0.46794584187E+03  0.17120000000E+03 0.  0.
        998    1    1    2    0    0 -0.89986777258E+01 -0.14167950233E+02  0.67942979979E+02  0.70696220146E+02  0.10000000000E+02 0.  1.
</event>
<event>
 5    1  0.5781797E-010  0.3871561E+03  0.7957747E-01  0.3420579E+00
         13   -1    0    0    0    0  0.00000000000E+00  0.00000000000E+00  0.14999999963E+04  0.15000000000E+04  0.10566000000E+00 0. -1.
        994   -1    0    0    0    0 -0.00000000000E+00 -0.00000000000E+00  0.11368683772E-12  0.17120000000E+03  0.17120000000E+03 0.  0.
         13    1    1    2    0    0 -0.53083891450E+02 -0.14586051141E+01  0.27599909783E+03  0.28106145276E+03  0.10566000000E+00 0. -1.
        994    1    1    2    0    0  0.19250611860E+03  0.45674381371E+02  0.14090872289E+03  0.29716908150E+03  0.17120000000E+03 0.  0.
        998    1    1    2    0    0 -0.13942222715E+03 -0.44215776257E+02  0.10830921756E+04  0.10929694657E+04  0.10000000000E+02 0. -1.
</event>
<event>
 5    1  0.5781797E-010  0.3876082E+03  0.7957747E-01  0.3418685E+00
         13   -1    0    0    0    0  0.00000000000E+00  0.00000000000E+00  0.14999999963E+04  0.15000000000E+04  0.10566000000E+00 0. -1.
        994   -1    0    0    0    0 -0.00000000000E+00 -0.00000000000E+00  0.11368683772E-12  0.17120000000E+03  0.17120000000E+03 0.  0.
         13    1    1    2    0    0  0.11356040118E+03  0.17792005075E+03  0.81763207952E+03  0.84443693536E+03  0.10566000000E+00 0. -1.
        994    1    1    2    0    0 -0.15955895287E+03 -0.23594274128E+03  0.33657690518E+03  0.47299206093E+03  0.17120000000E+03 0.  0.
        998    1    1    2    0    0  0.45998551698E+02  0.58022690533E+02  0.34579101158E+03  0.35377100371E+03  0.10000000000E+02 0. -1.
</event>
<event>
 5    1  0.5781797E-010  0.3813997E+03  0.7957747E-01  0.3445086E+00
         13   -1    0    0    0    0  0.00000000000E+00  0.00000000000E+00  0.14999999963E+04  0.15000000000E+04  0.10566000000E+00 0.  1.
        994   -1    0    0    0    0 -0.00000000000E+00 -0.00000000000E+00  0.11368683772E-12  0.17120000000E+03  0.17120000000E+03 0.  0.
         13    1    1    2    0    0 -0.35905303609E+01 -0.45391007180E+02  0.24254601591E+03  0.24678293385E+03  0.10566000000E+00 0.  1.
        994    1    1    2    0    0 -0.75365586388E+02  0.69861904348E+02  0.39405676483E+02  0.20352617677E+03  0.17120000000E+03 0.  0.
        998    1    1    2    0    0  0.78956116749E+02 -0.24470897168E+02  0.12180483039E+04  0.12208908894E+04  0.10000000000E+02 0.  1.
</event>
<event>
 5    1  0.5781797E-010  0.3875213E+03  0.7957747E-01  0.3419049E+00
         13   -1    0    0    0    0  0.00000000000E+00  0.00000000000E+00  0.14999999963E+04  0.15000000000E+04  0.10566000000E+00 0. -1.
        994   -1    0    0    0    0 -0.00000000000E+00 -0.00000000000E+00  0.11368683772E-12  0.17120000000E+03  0.17120000000E+03 0.  0.
         13    1    1    2    0    0  0.57555094523E+02 -0.15236495459E+03  0.83186580047E+03  0.84766053904E+03  0.10566000000E+00 0. -1.
        994    1    1    2    0    0 -0.79149974250E+02  0.21811306147E+03  0.20170476564E+03  0.35189810811E+03  0.17120000000E+03 0.  0.
        998    1    1    2    0    0  0.21594879727E+02 -0.65748106885E+02  0.46642943018E+03  0.47164135285E+03  0.10000000000E+02 0. -1.
</event>
<event>
 5    1  0.5781797E-010  0.3849099E+03  0.7957747E-01  0.3430054E+00
         13   -1    0    0    0    0  0.00000000000E+00  0.00000000000E+00  0.14999999963E+04  0.15000000000E+04  0.10566000000E+00 0. -1.
        994   -1    0    0    0    0 -0.00000000000E+00 -0.00000000000E+00  0.11368683772E-12  0.17120000000E+03  0.17120000000E+03 0.  0.
         13    1    1    2    0    0 -0.73503581629E+02  0.11908680867E+02  0.30979607078E+03  0.31861922389E+03  0.10566000000E+00 0. -1.
        994    1    1    2    0    0  0.19868276161E+03 -0.10997437885E+03  0.19528710217E+03  0.34498651573E+03  0.17120000000E+03 0.  0.
        998    1    1    2    0    0 -0.12517917998E+03  0.98065697981E+02  0.99491682332E+03  0.10075942604E+04  0.10000000000E+02 0. -1.
</event>
<event>
 5    1  0.5781797E-010  0.3730121E+03  0.7957747E-01  0.3482161E+00
         13   -1    0    0    0    0  0.00000000000E+00  0.00000000000E+00  0.14999999963E+04  0.15000000000E+04  0.10566000000E+00 0. -1.
        994   -1    0    0    0    0 -0.00000000000E+00 -0.00000000000E+00  0.11368683772E-12  0.17120000000E+03  0.17120000000E+03 0.  0.
         13    1    1    2    0    0 -0.27759223457E+02  0.39923551863E+02  0.25628857195E+03  0.26086070565E+03  0.10566000000E+00 0. -1.
        994    1    1    2    0    0 -0.13321435277E+03  0.63565537072E+02  0.94071935504E+02  0.24483792667E+03  0.17120000000E+03 0.  0.
        998    1    1    2    0    0  0.16097357623E+03 -0.10348908893E+03  0.11496394888E+04  0.11655013677E+04  0.10000000000E+02 0. -1.
</event>
<event>
 5    1  0.5781797E-010  0.3852427E+03  0.7957747E-01  0.3428643E+00
         13   -1    0    0    0    0  0.00000000000E+00  0.00000000000E+00  0.14999999963E+04  0.15000000000E+04  0.10566000000E+00 0.  1.
        994   -1    0    0    0    0 -0.00000000000E+00 -0.00000000000E+00  0.11368683772E-12  0.17120000000E+03  0.17120000000E+03 0.  0.
         13    1    1    2    0    0  0.39699330883E+02 -0.54390941172E+02  0.40518650686E+03  0.41074387136E+03  0.10566000000E+00 0.  1.
        994    1    1    2    0    0 -0.62840759942E+02  0.12060866572E+03  0.64849222857E+02  0.22805760909E+03  0.17120000000E+03 0.  0.
        998    1    1    2    0    0  0.23141429059E+02 -0.66217724549E+02  0.10299642666E+04  0.10323985195E+04  0.10000000000E+02 0.  1.
</event>
<event>
 5    1  0.5781797E-010  0.3881029E+03  0.7957747E-01  0.3416618E+00
         13   -1    0    0    0    0  0.00000000000E+00  0.00000000000E+00  0.14999999963E+04  0.15000000000E+04  0.10566000000E+00 0. -1.
        994   -1    0    0    0    0 -0.00000000000E+00 -0.00000000000E+00  0.11368683772E-12  0.17120000000E+03  0.17120000000E+03 0.  0.
         13    1    1    2    0    0  0.60656099440E+02  0.91178144107E+02  0.42262061850E+03  0.43657853212E+03  0.10566000000E+00 0. -1.
        994    1    1    2    0    0 -0.17157040689E+03 -0.23393212212E+03  0.35290017338E+03  0.48786126578E+03  0.17120000000E+03 0.  0.
        998    1    1    2    0    0  0.11091430745E+03  0.14275397801E+03  0.72447920439E+03  0.74676020210E+03  0.10000000000E+02 0. -1.
</event>
<event>
 5    1  0.5781797E-010  0.3863480E+03  0.7957747E-01  0.3423975E+00
         13   -1    0    0    0    0  0.00000000000E+00  0.00000000000E+00  0.14999999963E+04  0.15000000000E+04  0.10566000000E+00 0.  1.
        994   -1    0    0    0    0 -0.00000000000E+00 -0.00000000000E+00  0.11368683772E-12  0.17120000000E+03  0.17120000000E+03 0.  0.
         13    1    1    2    0    0 -0.28434897537E+01  0.14708138069E+02  0.82851914561E+02  0.84195401715E+02  0.10566000000E+00 0.  1.
        994    1    1    2    0    0  0.27725429431E+02 -0.47568812963E+02  0.10952009819E+02  0.18016902598E+03  0.17120000000E+03 0.  0.
        998    1    1    2    0    0 -0.24881939678E+02  0.32860674894E+02  0.14061960719E+04  0.14068355723E+04  0.10000000000E+02 0.  1.
</event>
<event>
 5    1  0.5781797E-010  0.3842681E+03  0.7957747E-01  0.3432782E+00
         13   -1    0    0    0    0  0.00000000000E+00  0.00000000000E+00  0.14999999963E+04  0.15000000000E+04  0.10566000000E+00 0.  1.
        994   -1    0    0    0    0 -0.00000000000E+00 -0.00000000000E+00  0.11368683772E-12  0.17120000000E+03  0.17120000000E+03 0.  0.
         13    1    1    2    0    0 -0.13306832875E+02 -0.14942168062E+02  0.10758080591E+03  0.10942568780E+03  0.10566000000E+00 0.  1.
        994    1    1    2    0    0  0.39842675917E+02 -0.26749146420E+02  0.96228013166E+01  0.17805896204E+03  0.17120000000E+03 0.  0.
        998    1    1    2    0    0 -0.26535843043E+02  0.41691314482E+02  0.13827963891E+04  0.13837153502E+04  0.10000000000E+02 0.  1.
</event>
<event>
 5    1  0.5781797E-010  0.3870093E+03  0.7957747E-01  0.3421195E+00
         13   -1    0    0    0    0  0.00000000000E+00  0.00000000000E+00  0.14999999963E+04  0.15000000000E+04  0.10566000000E+00 0.  1.
        994   -1    0    0    0    0 -0.00000000000E+00 -0.00000000000E+00  0.11368683772E-12  0.17120000000E+03  0.17120000000E+03 0.  0.
         13    1    1    2    0    0  0.33298381880E+01 -0.40932777672E+02  0.24511037822E+03  0.24852703834E+03  0.10566000000E+00 0.  1.
        994    1    1    2    0    0 -0.79119790334E+01  0.14550182253E+03  0.73374012877E+02  0.23648798180E+03  0.17120000000E+03 0.  0.
        998    1    1    2    0    0  0.45821408454E+01 -0.10456904485E+03  0.11815156052E+04  0.11861849799E+04  0.10000000000E+02 0.  1.
</event>
<event>
 5    1  0.5781797E-010  0.3866949E+03  0.7957747E-01  0.3422516E+00
         13   -1    0    0    0    0  0.00000000000E+00  0.00000000000E+00  0.14999999963E+04  0.15000000000E+04  0.10566000000E+00 0. -1.
        994   -1    0    0    0    0 -0.00000000000E+00 -0.00000000000E+00  0.11368683772E-12  0.17120000000E+03  0.17120000000E+03 0.  0.
         13    1    1    2    0    0 -0.96945467822E+02 -0.16154972031E+02  0.54424732919E+03  0.55305024486E+03  0.10566000000E+00 0. -1.
        994    1    1    2    0    0  0.18592406306E+03  0.37313440348E+02  0.12882810331E+03  0.28612264898E+03  0.17120000000E+03 0.  0.
        998    1    1    2    0    0 -0.88978595242E+02 -0.21158468316E+02  0.82692456379E+03  0.83202710616E+03  0.10000000000E+02 0.  1.
</event>
<event>
 5    1  0.5781797E-010  0.3875971E+03  0.7957747E-01  0.3418732E+00
         13   -1    0    0    0    0  0.00000000000E+00  0.00000000000E+00  0.14999999963E+04  0.15000000000E+04  0.10566000000E+00 0. -1.
        994   -1    0    0    0    0 -0.00000000000E+00 -0.00000000000E+00  0.11368683772E-12  0.17120000000E+03  0.17120000000E+03 0.  0.
         13    1    1    2    0    0 -0.14899017658E+03  0.15258467750E+02  0.88151151544E+03  0.89414397978E+03  0.10566000000E+00 0. -1.
        994    1    1    2    0    0  0.20750352649E+03 -0.18565521996E+02  0.15756028887E+03  0.31230926458E+03  0.17120000000E+03 0.  0.
        998    1    1    2    0    0 -0.58513349914E+02  0.33070542460E+01  0.46092819197E+03  0.46474675564E+03  0.10000000000E+02 0. -1.
</event>
<event>
 5    1  0.5781797E-010  0.3876120E+03  0.7957747E-01  0.3418669E+00
         13   -1    0    0    0    0  0.00000000000E+00  0.00000000000E+00  0.14999999963E+04  0.15000000000E+04  0.10566000000E+00 0. -1.
        994   -1    0    0    0    0 -0.00000000000E+00 -0.00000000000E+00  0.11368683772E-12  0.17120000000E+03  0.17120000000E+03 0.  0.
         13    1    1    2    0    0  0.48653326405E+02  0.23998083740E+03  0.97297342279E+03  0.10033121354E+04  0.10566000000E+00 0. -1.
        994    1    1    2    0    0 -0.54959161958E+02 -0.27887819755E+03  0.33467068274E+03  0.47128278606E+03  0.17120000000E+03 0.  0.
        998    1    1    2    0    0  0.63058355526E+01  0.38897360147E+02  0.19235589075E+03  0.19660507851E+03  0.10000000000E+02 0.  1.
</event>
<event>
 5    1  0.5781797E-010  0.3837304E+03  0.7957747E-01  0.3435075E+00
         13   -1    0    0    0    0  0.00000000000E+00  0.00000000000E+00  0.14999999963E+04  0.15000000000E+04  0.10566000000E+00 0. -1.
        994   -1    0    0    0    0 -0.00000000000E+00 -0.00000000000E+00  0.11368683772E-12  0.17120000000E+03  0.17120000000E+03 0.  0.
         13    1    1    2    0    0 -0.53525599130E+02 -0.51854823010E+02  0.39585657184E+03  0.40281056226E+03  0.10566000000E+00 0. -1.
        994    1    1    2    0    0  0.14483360997E+03  0.62373046354E+02  0.89233979280E+02  0.24927758533E+03  0.17120000000E+03 0.  0.
        998    1    1    2    0    0 -0.91308010840E+02 -0.10518223345E+02  0.10149094452E+04  0.10191118524E+04  0.10000000000E+02 0. -1.
</event>
<event>
 5    1  0.5781797E-010  0.3870009E+03  0.7957747E-01  0.3421230E+00
         13   -1    0    0    0    0  0.00000000000E+00  0.00000000000E+00  0.14999999963E+04  0.15000000000E+04  0.10566000000E+00 0.  1.
        994   -1    0    0    0    0 -0.00000000000E+00 -0.00000000000E+00  0.11368683772E-12  0.17120000000E+03  0.17120000000E+03 0.  0.
         13    1    1    2    0    0  0.24911783839E+03  0.38459044899E+02  0.11408704197E+04  0.11683852623E+04  0.10566000000E+00 0.  1.
        994    1    1    2    0    0 -0.26255776726E+03 -0.44358432560E+02  0.28293407325E+03  0.42457670861E+03  0.17120000000E+03 0.  0.
        998    1    1    2    0    0  0.13439928868E+02  0.58993876609E+01  0.76195503353E+02  0.78238029078E+02  0.10000000000E+02 0.  0.
</event>
<event>
 5    1  0.5781797E-010  0.3507199E+03  0.7957747E-01  0.3589479E+00
         13   -1    0    0    0    0  0.00000000000E+00  0.00000000000E+00  0.14999999963E+04  0.15000000000E+04  0.10566000000E+00 0.  1.
        994   -1    0    0    0    0 -0.00000000000E+00 -0.00000000000E+00  0.11368683772E-12  0.17120000000E+03  0.17120000000E+03 0.  0.
         13    1    1    2    0    0  0.12213087586E+01  0.20251491302E+03  0.11138559907E+04  0.11321170261E+04  0.10566000000E+00 0.  1.
        994    1    1    2    0    0  0.70220399543E+02 -0.22420446225E+03  0.24967507603E+03  0.38320442194E+03  0.17120000000E+03 0.  0.
        998    1    1    2    0    0 -0.71441708301E+02  0.21689549231E+02  0.13646892957E+03  0.15587855198E+03  0.10000000000E+02 0. -1.
</event>
<event>
 5    1  0.5781797E-010  0.3708540E+03  0.7957747E-01  0.3491975E+00
         13   -1    0    0    0    0  0.00000000000E+00  0.00000000000E+00  0.14999999963E+04  0.15000000000E+04  0.10566000000E+00 0.  1.
        994   -1    0    0    0    0 -0.00000000000E+00 -0.00000000000E+00  0.11368683772E-12  0.17120000000E+03  0.17120000000E+03 0.  0.
         13    1    1    2    0    0  0.34774555851E+01  0.25348810443E+02  0.27634909201E+02  0.37661044314E+02  0.10566000000E+00 0.  1.
        994    1    1    2    0    0  0.13358193199E+03 -0.92110532475E+02  0.10589952241E+03  0.25855875849E+03  0.17120000000E+03 0.  0.
        998    1    1    2    0    0 -0.13705938757E+03  0.66761722031E+02  0.13664655647E+04  0.13749801972E+04  0.10000000000E+02 0.  1.
</event>
<event>
 5    1  0.5781797E-010  0.3879630E+03  0.7957747E-01  0.3417202E+00
         13   -1    0    0    0    0  0.00000000000E+00  0.00000000000E+00  0.14999999963E+04  0.15000000000E+04  0.10566000000E+00 0.  1.
        994   -1    0    0    0    0 -0.00000000000E+00 -0.00000000000E+00  0.11368683772E-12  0.17120000000E+03  0.17120000000E+03 0.  0.
         13    1    1    2    0    0  0.12240064371E+03  0.72240858525E+02  0.58029681236E+03  0.59744879347E+03  0.10566000000E+00 0.  1.
        994    1    1    2    0    0 -0.23514596915E+03 -0.15872702834E+03  0.33212580801E+03  0.46915337437E+03  0.17120000000E+03 0.  0.
        998    1    1    2    0    0  0.11274532544E+03  0.86486169811E+02  0.58757737591E+03  0.60459783216E+03  0.10000000000E+02 0.  0.
</event>
<event>
 5    1  0.5781797E-010  0.3953521E+03  0.7957747E-01  0.3386920E+00
         13   -1    0    0    0    0  0.00000000000E+00  0.00000000000E+00  0.14999999963E+04  0.15000000000E+04  0.10566000000E+00 0. -1.
        994   -1    0    0    0    0 -0.00000000000E+00 -0.00000000000E+00  0.11368683772E-12  0.17120000000E+03  0.17120000000E+03 0.  0.
         13    1    1    2    0    0  0.74563708472E+02 -0.72113345659E+02  0.61048509260E+03  0.61923512553E+03  0.10566000000E+00 0. -1.
        994    1    1    2    0    0 -0.36314394502E+01 -0.82839133623E+02  0.51962994777E+02  0.19719305829E+03  0.17120000000E+03 0.  0.
        998    1    1    2    0    0 -0.70932269022E+02  0.15495247928E+03  0.83755190890E+03  0.85477181618E+03  0.10000000000E+02 0. -1.
</event>
<event>
 5    1  0.5781797E-010  0.3796775E+03  0.7957747E-01  0.3452564E+00
         13   -1    0    0    0    0  0.00000000000E+00  0.00000000000E+00  0.14999999963E+04  0.15000000000E+04  0.10566000000E+00 0.  1.
        994   -1    0    0    0    0 -0.00000000000E+00 -0.00000000000E+00  0.11368683772E-12  0.17120000000E+03  0.17120000000E+03 0.  0.
         13    1    1    2    0    0 -0.13852869167E+03  0.23812261236E+03  0.72430202539E+03  0.77492322980E+03  0.10566000000E+00 0.  1.
        994    1    1    2    0    0  0.12556936226E+03 -0.29504315301E+03  0.52419066642E+03  0.63788981936E+03  0.17120000000E+03 0.  0.
        998    1    1    2    0    0  0.12959329404E+02  0.56920540655E+02  0.25150730447E+03  0.25838695085E+03  0.10000000000E+02 0.  1.
</event>
<event>
 5    1  0.5781797E-010  0.3864195E+03  0.7957747E-01  0.3423674E+00
         13   -1    0    0    0    0  0.00000000000E+00  0.00000000000E+00  0.14999999963E+04  0.15000000000E+04  0.10566000000E+00 0. -1.
        994   -1    0    0    0    0 -0.00000000000E+00 -0.00000000000E+00  0.11368683772E-12  0.17120000000E+03  0.17120000000E+03 0.  0.
         13    1    1    2    0    0  0.31996429849E+02  0.18578854648E+03  0.10851279253E+04  0.11013826678E+04  0.10566000000E+00 0. -1.
        994    1    1    2    0    0 -0.46127060692E+02 -0.23667791291E+03  0.22251211137E+03  0.37008812450E+03  0.17120000000E+03 0.  0.
        998    1    1    2    0    0  0.14130630842E+02  0.50889366437E+02  0.19235995960E+03  0.19972920768E+03  0.10000000000E+02 0.  0.
</event>
<event>
 5    1  0.5781797E-010  0.3227819E+03  0.7957747E-01  0.3745703E+00
         13   -1    0    0    0    0  0.00000000000E+00  0.00000000000E+00  0.14999999963E+04  0.15000000000E+04  0.10566000000E+00 0.  1.
        994   -1    0    0    0    0 -0.00000000000E+00 -0.00000000000E+00  0.11368683772E-12  0.17120000000E+03  0.17120000000E+03 0.  0.
         13    1    1    2    0    0  0.81107596428E+01 -0.23847444437E+03  0.10049537481E+04  0.10328929722E+04  0.10566000000E+00 0.  1.
        994    1    1    2    0    0  0.93299409612E+02  0.22220664051E+03  0.40458352735E+03  0.50107668228E+03  0.17120000000E+03 0.  0.
        998    1    1    2    0    0 -0.10141016925E+03  0.16267803863E+02  0.90462720817E+02  0.13723034551E+03  0.10000000000E+02 0.  1.
</event>
<event>
 5    1  0.5781797E-010  0.3839041E+03  0.7957747E-01  0.3434333E+00
         13   -1    0    0    0    0  0.00000000000E+00  0.00000000000E+00  0.14999999963E+04  0.15000000000E+04  0.10566000000E+00 0.  1.
        994   -1    0    0    0    0 -0.00000000000E+00 -0.00000000000E+00  0.11368683772E-12  0.17120000000E+03  0.17120000000E+03 0.  0.
         13    1    1    2    0    0  0.65087881820E+02 -0.10495927899E+02  0.23358081304E+03  0.24270682777E+03  0.10566000000E+00 0.  1.
        994    1    1    2    0    0 -0.19772830806E+03  0.50915735104E+02  0.15468492178E+03  0.30810024491E+03  0.17120000000E+03 0.  0.
        998    1    1    2    0    0  0.13264042624E+03 -0.40419807205E+02  0.11117342615E+04  0.11203929273E+04  0.10000000000E+02 0.  1.
</event>
<event>
 5    1  0.5781797E-010  0.2750470E+03  0.7957747E-01  0.4092017E+00
         13   -1    0    0    0    0  0.00000000000E+00  0.00000000000E+00  0.14999999963E+04  0.15000000000E+04  0.10566000000E+00 0. -1.
        994   -1    0    0    0    0 -0.00000000000E+00 -0.00000000000E+00  0.11368683772E-12  0.17120000000E+03  0.17120000000E+03 0.  0.
         13    1    1    2    0    0  0.22337769075E+02 -0.13737344651E+03  0.63651349446E+03  0.65155190087E+03  0.10566000000E+00 0. -1.
        994    1    1    2    0    0 -0.20161525214E+03  0.95325903031E+02  0.24063050748E+03  0.37006515482E+03  0.17120000000E+03 0.  0.
        998    1    1    2    0    0  0.17927748307E+03  0.42047543475E+02  0.62285599434E+03  0.64958294430E+03  0.10000000000E+02 0. -1.
</event>
<event>
 5    1  0.5781797E-010  0.3843623E+03  0.7957747E-01  0.3432381E+00
         13   -1    0    0    0    0  0.00000000000E+00  0.00000000000E+00  0.14999999963E+04  0.15000000000E+04  0.10566000000E+00 0. -1.
        994   -1    0    0    0    0 -0.00000000000E+00 -0.00000000000E+00  0.11368683772E-12  0.17120000000E+03  0.17120000000E+03 0.  0.
         13    1    1    2    0    0  0.60387541526E+02 -0.66470734248E+02  0.54309150099E+03  0.55046653240E+03  0.10566000000E+00 0. -1.
        994    1    1    2    0    0 -0.95408881575E+02  0.22845427428E+03  0.24034588413E+03  0.38518799844E+03  0.17120000000E+03 0.  0.
        998    1    1    2    0    0  0.35021340050E+02 -0.16198354003E+03  0.71656261115E+03  0.73554546916E+03  0.10000000000E+02 0.  1.
</event>
<event>
 5    1  0.5781797E-010  0.3876515E+03  0.7957747E-01  0.3418504E+00
         13   -1    0    0    0    0  0.00000000000E+00  0.00000000000E+00  0.14999999963E+04  0.15000000000E+04  0.10566000000E+00 0. -1.
        994   -1    0    0    0    0 -0.00000000000E+00 -0.00000000000E+00  0.11368683772E-12  0.17120000000E+03  0.17120000000E+03 0.  0.
         13    1    1    2    0    0  0.90088714900E+02 -0.98892003523E+02  0.79801809520E+03  0.80915294991E+03  0.10566000000E+00 0. -1.
        994    1    1    2    0    0 -0.16633636154E+03  0.16557729216E+03  0.20700554523E+03  0.35671327507E+03  0.17120000000E+03 0.  0.
        998    1    1    2    0    0  0.76247646639E+02 -0.66685288639E+02  0.49497635584E+03  0.50533377502E+03  0.10000000000E+02 0.  0.
</event>
<event>
 5    1  0.5781797E-010  0.3820043E+03  0.7957747E-01  0.3442478E+00
         13   -1    0    0    0    0  0.00000000000E+00  0.00000000000E+00  0.14999999963E+04  0.15000000000E+04  0.10566000000E+00 0. -1.
        994   -1    0    0    0    0 -0.00000000000E+00 -0.00000000000E+00  0.11368683772E-12  0.17120000000E+03  0.17120000000E+03 0.  0.
         13    1    1    2    0    0  0.27264373876E+01 -0.25353933952E+02  0.41150831799E+02  0.48411336993E+02  0.10566000000E+00 0. -1.
        994    1    1    2    0    0  0.11149036304E+03  0.23973051289E+03  0.28743812091E+03  0.42641638478E+03  0.17120000000E+03 0.  0.
        998    1    1    2    0    0 -0.11421680043E+03 -0.21437657894E+03  0.11714110436E+04  0.11963722782E+04  0.10000000000E+02 0. -1.
</event>
<event>
 5    1  0.5781797E-010  0.3865085E+03  0.7957747E-01  0.3423300E+00
         13   -1    0    0    0    0  0.00000000000E+00  0.00000000000E+00  0.14999999963E+04  0.15000000000E+04  0.10566000000E+00 0. -1.
        994   -1    0    0    0    0 -0.00000000000E+00 -0.00000000000E+00  0.11368683772E-12  0.17120000000E+03  0.17120000000E+03 0.  0.
         13    1    1    2    0    0  0.92610518427E+02 -0.10456578345E+03  0.68534196780E+03  0.69943143709E+03  0.10566000000E+00 0. -1.
        994    1    1    2    0    0 -0.13440552332E+03  0.17949136511E+03  0.18762310027E+03  0.33881242982E+03  0.17120000000E+03 0.  0.
        998    1    1    2    0    0  0.41795004895E+02 -0.74925581656E+02  0.62703492821E+03  0.63295613309E+03  0.10000000000E+02 0. -1.
</event>
<event>
 5    1  0.5781797E-010  0.3853652E+03  0.7957747E-01  0.3428125E+00
         13   -1    0    0    0    0  0.00000000000E+00  0.00000000000E+00  0.14999999963E+04  0.15000000000E+04  0.10566000000E+00 0. -1.
        994   -1    0    0    0    0 -0.00000000000E+00 -0.00000000000E+00  0.11368683772E-12  0.17120000000E+03  0.17120000000E+03 0.  0.
         13    1    1    2    0    0  0.76750890926E+02 -0.69930930135E+02  0.49430341972E+03  0.50509099790E+03  0.10566000000E+00 0. -1.
        994    1    1    2    0    0 -0.12028082196E+03  0.19980235255E+03  0.20710781076E+03  0.35579705099E+03  0.17120000000E+03 0.  0.
        998    1    1    2    0    0  0.43529931033E+02 -0.12987142241E+03  0.79858876580E+03  0.81031195111E+03  0.10000000000E+02 0. -1.
</event>
<event>
 5    1  0.5781797E-010  0.3799688E+03  0.7957747E-01  0.3451294E+00
         13   -1    0    0    0    0  0.00000000000E+00  0.00000000000E+00  0.14999999963E+04  0.15000000000E+04  0.10566000000E+00 0. -1.
        994   -1    0    0    0    0 -0.00000000000E+00 -0.00000000000E+00  0.11368683772E-12  0.17120000000E+03  0.17120000000E+03 0.  0.
         13    1    1    2    0    0  0.46295995334E+02  0.12517292273E+02  0.27113777604E+03  0.27534652086E+03  0.10566000000E+00 0. -1.
        994    1    1    2    0    0 -0.22605912540E+02 -0.11692733695E+03  0.53124051401E+02  0.21520835078E+03  0.17120000000E+03 0.  0.
        998    1    1    2    0    0 -0.23690082793E+02  0.10441004468E+03  0.11757381688E+04  0.11806451284E+04  0.10000000000E+02 0. -1.
</event>
<event>
 5    1  0.5781797E-010  0.3878310E+03  0.7957747E-01  0.3417753E+00
         13   -1    0    0    0    0  0.00000000000E+00  0.00000000000E+00  0.14999999963E+04  0.15000000000E+04  0.10566000000E+00 0.  1.
        994   -1    0    0    0    0 -0.00000000000E+00 -0.00000000000E+00  0.11368683772E-12  0.17120000000E+03  0.17120000000E+03 0.  0.
         13    1    1    2    0    0 -0.10053919750E+03  0.15869932607E+03  0.11105135119E+04  0.11262920925E+04  0.10566000000E+00 0.  1.
        994    1    1    2    0    0  0.12132362140E+03 -0.18923158273E+03  0.18698478760E+03  0.33882261407E+03  0.17120000000E+03 0.  0.
        998    1    1    2    0    0 -0.20784423899E+02  0.30532256664E+02  0.20250169677E+03  0.20608529343E+03  0.10000000000E+02 0.  0.
</event>
<event>
 5    1  0.5781797E-010  0.3858586E+03  0.7957747E-01  0.3426039E+00
         13   -1    0    0    0    0  0.00000000000E+00  0.00000000000E+00  0.14999999963E+04  0.15000000000E+04  0.10566000000E+00 0. -1.
        994   -1    0    0    0    0 -0.00000000000E+00 -0.00000000000E+00  0.11368683772E-12  0.17120000000E+03  0.17120000000E+03 0.  0.
         13    1    1    2    0    0 -0.19532694055E+03  0.18452718180E+03  0.11057827663E+04  0.11379624036E+04  0.10566000000E+00 0. -1.
        994    1    1    2    0    0  0.19798443994E+03 -0.19301215888E+03  0.31450324825E+03  0.45240829468E+03  0.17120000000E+03 0.  0.
        998    1    1    2    0    0 -0.26574993900E+01  0.84849770721E+01  0.79713981722E+02  0.80829301747E+02  0.10000000000E+02 0. -1.
</event>
<event>
 5    1  0.5781797E-010  0.3812552E+03  0.7957747E-01  0.3445711E+00
         13   -1    0    0    0    0  0.00000000000E+00  0.00000000000E+00  0.14999999963E+04  0.15000000000E+04  0.10566000000E+00 0.  1.
        994   -1    0    0    0    0 -0.00000000000E+00 -0.00000000000E+00  0.11368683772E-12  0.17120000000E+03  0.17120000000E+03 0.  0.
         13    1    1    2    0    0  0.67712864234E+01  0.65364793432E+02  0.13458225922E+03  0.14976916306E+03  0.10566000000E+00 0.  1.
        994    1    1    2    0    0  0.19516730597E+01 -0.27795662406E+03  0.32948079477E+03  0.46382187099E+03  0.17120000000E+03 0.  0.
        998    1    1    2    0    0 -0.87229594831E+01  0.21259183063E+03  0.10359369423E+04  0.10576089660E+04  0.10000000000E+02 0.  1.
</event>
<event>
 5    1  0.5781797E-010  0.3811839E+03  0.7957747E-01  0.3446020E+00
         13   -1    0    0    0    0  0.00000000000E+00  0.00000000000E+00  0.14999999963E+04  0.15000000000E+04  0.10566000000E+00 0. -1.
        994   -1    0    0    0    0 -0.00000000000E+00 -0.00000000000E+00  0.11368683772E-12  0.17120000000E+03  0.17120000000E+03 0.  0.
         13    1    1    2    0    0  0.15670933408E+02  0.58141963121E+01  0.69617720512E+02  0.71596237373E+02  0.10566000000E+00 0. -1.
        994    1    1    2    0    0  0.86657749415E+02  0.68823163275E+02  0.45451543358E+02  0.20885754985E+03  0.17120000000E+03 0.  0.
        998    1    1    2    0    0 -0.10232868282E+03 -0.74637359587E+02  0.13849307324E+04  0.13907462128E+04  0.10000000000E+02 0. -1.
</event>
<event>
 5    1  0.5781797E-010  0.3853853E+03  0.7957747E-01  0.3428040E+00
         13   -1    0    0    0    0  0.00000000000E+00  0.00000000000E+00  0.14999999963E+04  0.15000000000E+04  0.10566000000E+00 0.  1.
        994   -1    0    0    0    0 -0.00000000000E+00 -0.00000000000E+00  0.11368683772E-12  0.17120000000E+03  0.17120000000E+03 0.  0.
         13    1    1    2    0    0 -0.21384765279E+03  0.42216229916E+01  0.11431350202E+04  0.11629730548E+04  0.10566000000E+00 0.  1.
        994    1    1    2    0    0  0.25094975803E+03 -0.11692903386E+02  0.24734178200E+03  0.39191823404E+03  0.17120000000E+03 0.  0.
        998    1    1    2    0    0 -0.37102105245E+02  0.74712803949E+01  0.10952319411E+03  0.11630871116E+03  0.10000000000E+02 0.  1.
</event>
<event>
 5    1  0.5781797E-010  0.3554017E+03  0.7957747E-01  0.3565795E+00
         13   -1    0    0    0    0  0.00000000000E+00  0.00000000000E+00  0.14999999963E+04  0.15000000000E+04  0.10566000000E+00 0. -1.
        994   -1    0    0    0    0 -0.00000000000E+00 -0.00000000000E+00  0.11368683772E-12  0.17120000000E+03  0.17120000000E+03 0.  0.
         13    1    1    2    0    0  0.15309775935E+03  0.20083475061E+03  0.97037115112E+03  0.10026932248E+04  0.10566000000E+00 0. -1.
        994    1    1    2    0    0 -0.13887667526E+03 -0.26282707616E+03  0.43348110594E+03  0.55279301018E+03  0.17120000000E+03 0.  0.
        998    1    1    2    0    0 -0.14221084089E+02  0.61992325542E+02  0.96147739216E+02  0.11571376502E+03  0.10000000000E+02 0. -1.
</event>
<event>
 5    1  0.5781797E-010  0.3860917E+03  0.7957747E-01  0.3425055E+00
         13   -1    0    0    0    0  0.00000000000E+00  0.00000000000E+00  0.14999999963E+04  0.15000000000E+04  0.10566000000E+00 0. -1.
        994   -1    0    0    0    0 -0.00000000000E+00 -0.00000000000E+00  0.11368683772E-12  0.17120000000E+03  0.17120000000E+03 0.  0.
         13    1    1    2    0    0  0.89989097491E+02 -0.15415064061E+02  0.39127438257E+03  0.40178516085E+03  0.10566000000E+00 0. -1.
        994    1    1    2    0    0 -0.24885236403E+03 -0.23465325909E+02  0.24316239024E+03  0.38847845324E+03  0.17120000000E+03 0.  0.
        998    1    1    2    0    0  0.15886326654E+03  0.38880389970E+02  0.86556322347E+03  0.88093638590E+03  0.10000000000E+02 0. -1.
</event>
<event>
 5    1  0.5781797E-010  0.3863597E+03  0.7957747E-01  0.3423926E+00
         13   -1    0    0    0    0  0.00000000000E+00  0.00000000000E+00  0.14999999963E+04  0.15000000000E+04  0.10566000000E+00 0.  1.
        994   -1    0    0    0    0 -0.00000000000E+00 -0.00000000000E+00  0.11368683772E-12  0.17120000000E+03  0.17120000000E+03 0.  0.
         13    1    1    2    0    0  0.11620626167E+03  0.17051375999E+03  0.91048521732E+03  0.93357494595E+03  0.10566000000E+00 0.  1.
        994    1    1    2    0    0 -0.15967207339E+03 -0.20190595731E+03  0.26092601071E+03  0.40454049202E+03  0.17120000000E+03 0.  0.
        998    1    1    2    0    0  0.43465811720E+02  0.31392197318E+02  0.32858876825E+03  0.33308456203E+03  0.10000000000E+02 0. -1.
</event>
<event>
 5    1  0.5781797E-010  0.3870756E+03  0.7957747E-01  0.3420917E+00
         13   -1    0    0    0    0  0.00000000000E+00  0.00000000000E+00  0.14999999963E+04  0.15000000000E+04  0.10566000000E+00 0.  1.
        994   -1    0    0    0    0 -0.00000000000E+00 -0.00000000000E+00  0.11368683772E-12  0.17120000000E+03  0.17120000000E+03 0.  0.
         13    1    1    2    0    0 -0.13882064636E+03  0.80003586027E+02  0.75936897006E+03  0.77608826140E+03  0.10566000000E+00 0.  1.
        994    1    1    2    0    0  0.21811574181E+03 -0.10526141977E+03  0.22386052777E+03  0.37158770056E+03  0.17120000000E+03 0.  0.
        998    1    1    2    0    0 -0.79295095449E+02  0.25257833746E+02  0.51677049845E+03  0.52352403803E+03  0.10000000000E+02 0.  1.
</event>
<event>
 5    1  0.5781797E-010  0.3788179E+03  0.7957747E-01  0.3456322E+00
         13   -1    0    0    0    0  0.00000000000E+00  0.00000000000E+00  0.14999999963E+04  0.15000000000E+04  0.10566000000E+00 0. -1.
        994   -1    0    0    0    0 -0.00000000000E+00 -0.00000000000E+00  0.11368683772E-12  0.17120000000E+03  0.17120000000E+03 0.  0.
         13    1    1    2    0    0  0.83142220167E+02  0.71962757707E+02  0.31002126667E+03  0.32894446981E+03  0.10566000000E+00 0. -1.
        994    1    1    2    0    0 -0.20525154640E+03 -0.12861188055E+03  0.23673490773E+03  0.37950239743E+03  0.17120000000E+03 0.  0.
        998    1    1    2    0    0  0.12210932623E+03  0.56649122842E+02  0.95324382189E+03  0.96275313276E+03  0.10000000000E+02 0. -1.
</event>
<event>
 5    1  0.5781797E-010  0.3851678E+03  0.7957747E-01  0.3428961E+00
         13   -1    0    0    0    0  0.00000000000E+00  0.00000000000E+00  0.14999999963E+04  0.15000000000E+04  0.10566000000E+00 0. -1.
        994   -1    0    0    0    0 -0.00000000000E+00 -0.00000000000E+00  0.11368683772E-12  0.17120000000E+03  0.17120000000E+03 0.  0.
         13    1    1    2    0    0  0.20122298556E+03  0.76482975235E+02  0.62953245057E+03  0.66532056402E+03  0.10566000000E+00 0. -1.
        994    1    1    2    0    0 -0.31458911753E+03 -0.70631156674E+02  0.50549518708E+03  0.62353018959E+03  0.17120000000E+03 0.  0.
        998    1    1    2    0    0  0.11336613197E+03 -0.58518185606E+01  0.36497235863E+03  0.38234924640E+03  0.10000000000E+02 0. -1.
</event>
<event>
 5    1  0.5781797E-010  0.3859774E+03  0.7957747E-01  0.3425537E+00
         13   -1    0    0    0    0  0.00000000000E+00  0.00000000000E+00  0.14999999963E+04  0.15000000000E+04  0.10566000000E+00 0.  1.
        994   -1    0    0    0    0 -0.00000000000E+00 -0.00000000000E+00  0.11368683772E-12  0.17120000000E+03  0.17120000000E+03 0.  0.
         13    1    1    2    0    0  0.93461822961E+00 -0.14712135814E+03  0.82474913507E+03  0.83776889086E+03  0.10566000000E+00 0.  1.
        994    1    1    2    0    0 -0.38431406620E+02  0.24368487916E+03  0.23572495043E+03  0.38175251879E+03  0.17120000000E+03 0.  0.
        998    1    1    2    0    0  0.37496788391E+02 -0.96563521020E+02  0.43952591078E+03  0.45167859034E+03  0.10000000000E+02 0.  1.
</event>
<event>
 5    1  0.5781797E-010  0.3879319E+03  0.7957747E-01  0.3417332E+00
         13   -1    0    0    0    0  0.00000000000E+00  0.00000000000E+00  0.14999999963E+04  0.15000000000E+04  0.10566000000E+00 0.  1.
        994   -1    0    0    0    0 -0.00000000000E+00 -0.00000000000E+00  0.11368683772E-12  0.17120000000E+03  0.17120000000E+03 0.  0.
         13    1    1    2    0    0  0.86233550979E+02 -0.16269770068E+03  0.10532156988E+04  0.10691913236E+04  0.10566000000E+00 0.  1.
        994    1    1    2    0    0 -0.10920136684E+03  0.20050236679E+03  0.19371357233E+03  0.34490654635E+03  0.17120000000E+03 0.  0.
        998    1    1    2    0    0  0.22967815862E+02 -0.37804666114E+02  0.25307072519E+03  0.25710213009E+03  0.10000000000E+02 0.  0.
</event>
<event>
 5    1  0.5781797E-010  0.3853102E+03  0.7957747E-01  0.3428358E+00
         13   -1    0    0    0    0  0.00000000000E+00  0.00000000000E+00  0.14999999963E+04  0.15000000000E+04  0.10566000000E+00 0. -1.
        994   -1    0    0    0    0 -0.00000000000E+00 -0.00000000000E+00  0.11368683772E-12  0.17120000000E+03  0.17120000000E+03 0.  0.
         13    1    1    2    0    0  0.69081260786E+01  0.34149017882E+02  0.20004060514E+03  0.20305204381E+03  0.10566000000E+00 0. -1.
        994    1    1    2    0    0  0.26034736232E+02 -0.10281636858E+03  0.39348980105E+02  0.20519940393E+03  0.17120000000E+03 0.  0.
        998    1    1    2    0    0 -0.32942862310E+02  0.68667350702E+02  0.12606104110E+04  0.12629485523E+04  0.10000000000E+02 0. -1.
</event>
<event>
 5    1  0.5781797E-010  0.3797687E+03  0.7957747E-01  0.3452166E+00
         13   -1    0    0    0    0  0.00000000000E+00  0.00000000000E+00  0.14999999963E+04  0.15000000000E+04  0.10566000000E+00 0. -1.
        994   -1    0    0    0    0 -0.00000000000E+00 -0.00000000000E+00  0.11368683772E-12  0.17120000000E+03  0.17120000000E+03 0.  0.
         13    1    1    2    0    0  0.14888031754E+03  0.10859048870E+03  0.73977609108E+03  0.76238174118E+03  0.10566000000E+00 0. -1.
        994    1    1    2    0    0 -0.17430146974E+03 -0.14577461612E+03  0.20254789275E+03  0.34923678202E+03  0.17120000000E+03 0.  0.
        998    1    1    2    0    0  0.25421152201E+02  0.37184127419E+02  0.55767601245E+03  0.55958147680E+03  0.10000000000E+02 0. -1.
</event>
<event>
 5    1  0.5781797E-010  0.3865609E+03  0.7957747E-01  0.3423079E+00
         13   -1    0    0    0    0  0.00000000000E+00  0.00000000000E+00  0.14999999963E+04  0.15000000000E+04  0.10566000000E+00 0.  1.
        994   -1    0    0    0    0 -0.00000000000E+00 -0.00000000000E+00  0.11368683772E-12  0.17120000000E+03  0.17120000000E+03 0.  0.
         13    1    1    2    0    0 -0.17115019048E+02  0.48060626305E+02  0.29749882285E+03  0.30184152868E+03  0.10566000000E+00 0.  1.
        994    1    1    2    0    0  0.16785970438E+02 -0.15686104775E+03  0.87011750120E+02  0.24853096742E+03  0.17120000000E+03 0.  0.
        998    1    1    2    0    0  0.32904860967E+00  0.10880042145E+03  0.11154894233E+04  0.11208275039E+04  0.10000000000E+02 0.  1.
</event>
<event>
 5    1  0.5781797E-010  0.3878495E+03  0.7957747E-01  0.3417676E+00
         13   -1    0    0    0    0  0.00000000000E+00  0.00000000000E+00  0.14999999963E+04  0.15000000000E+04  0.10566000000E+00 0.  1.
        994   -1    0    0    0    0 -0.00000000000E+00 -0.00000000000E+00  0.11368683772E-12  0.17120000000E+03  0.17120000000E+03 0.  0.
         13    1    1    2    0    0 -0.32315291182E+01 -0.19411670404E+02  0.10867504126E+03  0.11044243517E+03  0.10566000000E+00 0.  1.
        994    1    1    2    0    0  0.85783880543E+02  0.17673472712E+03  0.13801055384E+03  0.29487351678E+03  0.17120000000E+03 0.  0.
        998    1    1    2    0    0 -0.82552351425E+02 -0.15732305671E+03  0.12533144012E+04  0.12658840480E+04  0.10000000000E+02 0.  1.
</event>
<event>
 5    1  0.5781797E-010  0.2250310E+03  0.7957747E-01  0.4637997E+00
         13   -1    0    0    0    0  0.00000000000E+00  0.00000000000E+00  0.14999999963E+04  0.15000000000E+04  0.10566000000E+00 0.  1.
        994   -1    0    0    0    0 -0.00000000000E+00 -0.00000000000E+00  0.11368683772E-12  0.17120000000E+03  0.17120000000E+03 0.  0.
         13    1    1    2    0    0 -0.85962481797E+01 -0.15690234685E+03  0.43558424326E+03  0.46306142796E+03  0.10566000000E+00 0.  1.
        994    1    1    2    0    0  0.71070551624E+01 -0.35525223832E+02  0.59371609937E+02  0.18478901436E+03  0.17120000000E+03 0.  0.
        998    1    1    2    0    0  0.14891930173E+01  0.19242757068E+03  0.10050441431E+04  0.10233495577E+04  0.10000000000E+02 0.  1.
</event>
<event>
 5    1  0.5781797E-010  0.3829287E+03  0.7957747E-01  0.3438505E+00
         13   -1    0    0    0    0  0.00000000000E+00  0.00000000000E+00  0.14999999963E+04  0.15000000000E+04  0.10566000000E+00 0.  1.
        994   -1    0    0    0    0 -0.00000000000E+00 -0.00000000000E+00  0.11368683772E-12  0.17120000000E+03  0.17120000000E+03 0.  0.
         13    1    1    2    0    0 -0.11533030843E+03  0.18213328960E+02  0.66298377891E+03  0.67318668113E+03  0.10566000000E+00 0.  1.
        994    1    1    2    0    0  0.19845388371E+03 -0.11709843679E+03  0.20473497646E+03  0.35259302098E+03  0.17120000000E+03 0.  0.
        998    1    1    2    0    0 -0.83123575276E+02  0.98885107833E+02  0.63228124091E+03  0.64542029789E+03  0.10000000000E+02 0.  1.
</event>
<event>
 5    1  0.5781797E-010  0.3880789E+03  0.7957747E-01  0.3416718E+00
         13   -1    0    0    0    0  0.00000000000E+00  0.00000000000E+00  0.14999999963E+04  0.15000000000E+04  0.10566000000E+00 0. -1.
        994   -1    0    0    0    0 -0.00000000000E+00 -0.00000000000E+00  0.11368683772E-12  0.17120000000E+03  0.17120000000E+03 0.  0.
         13    1    1    2    0    0  0.29990241538E+02 -0.66073331730E+02  0.39857423018E+03  0.40512532367E+03  0.10566000000E+00 0. -1.
        994    1    1    2    0    0 -0.10310385761E+03  0.19788081687E+03  0.18351916793E+03  0.33582130387E+03  0.17120000000E+03 0.  0.
        998    1    1    2    0    0  0.73113616071E+02 -0.13180748514E+03  0.91790659817E+03  0.93025337246E+03  0.10000000000E+02 0. -1.
</event>
<event>
 5    1  0.5781797E-010  0.3773678E+03  0.7957747E-01  0.3462700E+00
         13   -1    0    0    0    0  0.00000000000E+00  0.00000000000E+00  0.14999999963E+04  0.15000000000E+04  0.10566000000E+00 0.  1.
        994   -1    0    0    0    0 -0.00000000000E+00 -0.00000000000E+00  0.11368683772E-12  0.17120000000E+03  0.17120000000E+03 0.  0.
         13    1    1    2    0    0 -0.41079003297E+01 -0.10949017343E+03  0.64282631338E+03  0.65209711950E+03  0.10566000000E+00 0.  1.
        994    1    1    2    0    0  0.94280142297E+02  0.13122992698E+03  0.99284787532E+02  0.25549353808E+03  0.17120000000E+03 0.  0.
        998    1    1    2    0    0 -0.90172241968E+02 -0.21739753554E+02  0.75788889536E+03  0.76360934241E+03  0.10000000000E+02 0.  1.
</event>
<event>
 5    1  0.5781797E-010  0.3876697E+03  0.7957747E-01  0.3418428E+00
         13   -1    0    0    0    0  0.00000000000E+00  0.00000000000E+00  0.14999999963E+04  0.15000000000E+04  0.10566000000E+00 0.  1.
        994   -1    0    0    0    0 -0.00000000000E+00 -0.00000000000E+00  0.11368683772E-12  0.17120000000E+03  0.17120000000E+03 0.  0.
         13    1    1    2    0    0 -0.13303272890E+03 -0.20329776248E+02  0.54395568573E+03  0.56035596361E+03  0.10566000000E+00 0.  1.
        994    1    1    2    0    0  0.29859985904E+03  0.41157447878E+02  0.39555390187E+03  0.52595450432E+03  0.17120000000E+03 0.  0.
        998    1    1    2    0    0 -0.16556713014E+03 -0.20827671630E+02  0.56049040868E+03  0.58488953206E+03  0.10000000000E+02 0.  1.
</event>
<event>
 5    1  0.5781797E-010  0.3879460E+03  0.7957747E-01  0.3417273E+00
         13   -1    0    0    0    0  0.00000000000E+00  0.00000000000E+00  0.14999999963E+04  0.15000000000E+04  0.10566000000E+00 0. -1.
        994   -1    0    0    0    0 -0.00000000000E+00 -0.00000000000E+00  0.11368683772E-12  0.17120000000E+03  0.17120000000E+03 0.  0.
         13    1    1    2    0    0  0.10423176310E+03 -0.11108249362E+03  0.56157545574E+03  0.58186818479E+03  0.10566000000E+00 0. -1.
        994    1    1    2    0    0 -0.20075061401E+03  0.21094023075E+03  0.35706160262E+03  0.49152723022E+03  0.17120000000E+03 0.  0.
        998    1    1    2    0    0  0.96518850916E+02 -0.99857737136E+02  0.58136293792E+03  0.59780458499E+03  0.10000000000E+02 0.  0.
</event>
<event>
 5    1  0.5781797E-010  0.3691458E+03  0.7957747E-01  0.3499826E+00
         13   -1    0    0    0    0  0.00000000000E+00  0.00000000000E+00  0.14999999963E+04  0.15000000000E+04  0.10566000000E+00 0. -1.
        994   -1    0    0    0    0 -0.00000000000E+00 -0.00000000000E+00  0.11368683772E-12  0.17120000000E+03  0.17120000000E+03 0.  0.
         13    1    1    2    0    0  0.56462606447E+02 -0.43866035784E+02  0.42001197371E+03  0.42605436771E+03  0.10566000000E+00 0. -1.
        994    1    1    2    0    0 -0.28246612139E+02 -0.63213551570E+02  0.27389034532E+02  0.18669071592E+03  0.17120000000E+03 0.  0.
        998    1    1    2    0    0 -0.28215994309E+02  0.10707958735E+03  0.10525989880E+04  0.10584549164E+04  0.10000000000E+02 0. -1.
</event>
<event>
 5    1  0.5781797E-010  0.3849863E+03  0.7957747E-01  0.3429730E+00
         13   -1    0    0    0    0  0.00000000000E+00  0.00000000000E+00  0.14999999963E+04  0.15000000000E+04  0.10566000000E+00 0.  1.
        994   -1    0    0    0    0 -0.00000000000E+00 -0.00000000000E+00  0.11368683772E-12  0.17120000000E+03  0.17120000000E+03 0.  0.
         13    1    1    2    0    0  0.25909989234E+02 -0.64605284994E+02  0.39786208831E+03  0.40390521520E+03  0.10566000000E+00 0.  1.
        994    1    1    2    0    0  0.85482706453E+01  0.17915690854E+03  0.11576485011E+03  0.27364431536E+03  0.17120000000E+03 0.  0.
        998    1    1    2    0    0 -0.34458259880E+02 -0.11455162355E+03  0.98637305786E+03  0.99365046943E+03  0.10000000000E+02 0.  1.
</event>
<event>
 5    1  0.5781797E-010  0.3738381E+03  0.7957747E-01  0.3478436E+00
         13   -1    0    0    0    0  0.00000000000E+00  0.00000000000E+00  0.14999999963E+04  0.15000000000E+04  0.10566000000E+00 0. -1.
        994   -1    0    0    0    0 -0.00000000000E+00 -0.00000000000E+00  0.11368683772E-12  0.17120000000E+03  0.17120000000E+03 0.  0.
         13    1    1    2    0    0  0.16301202385E+03 -0.93685358976E+02  0.24539796843E+03  0.30914404487E+03  0.10566000000E+00 0. -1.
        994    1    1    2    0    0 -0.26260930491E+03  0.59745129382E+02  0.12026725717E+04  0.12442925228E+04  0.17120000000E+03 0.  0.
        998    1    1    2    0    0  0.99597281062E+02  0.33940229594E+02  0.51929456108E+02  0.11776343232E+03  0.10000000000E+02 0. -1.
</event>
<event>
 5    1  0.5781797E-010  0.3871880E+03  0.7957747E-01  0.3420445E+00
         13   -1    0    0    0    0  0.00000000000E+00  0.00000000000E+00  0.14999999963E+04  0.15000000000E+04  0.10566000000E+00 0.  1.
        994   -1    0    0    0    0 -0.00000000000E+00 -0.00000000000E+00  0.11368683772E-12  0.17120000000E+03  0.17120000000E+03 0.  0.
         13    1    1    2    0    0 -0.22450601306E+03  0.77510742140E+02  0.11290474734E+04  0.11537586720E+04  0.10566000000E+00 0.  1.
        994    1    1    2    0    0  0.24270859029E+03 -0.79600140626E+02  0.25455882321E+03  0.39919077728E+03  0.17120000000E+03 0.  0.
        998    1    1    2    0    0 -0.18202577238E+02  0.20893984865E+01  0.11639369971E+03  0.11825055068E+03  0.10000000000E+02 0.  1.
</event>
<event>
 5    1  0.5781797E-010  0.3869198E+03  0.7957747E-01  0.3421571E+00
         13   -1    0    0    0    0  0.00000000000E+00  0.00000000000E+00  0.14999999963E+04  0.15000000000E+04  0.10566000000E+00 0.  1.
        994   -1    0    0    0    0 -0.00000000000E+00 -0.00000000000E+00  0.11368683772E-12  0.17120000000E+03  0.17120000000E+03 0.  0.
         13    1    1    2    0    0  0.57074108068E+02 -0.13753422332E+03  0.62318629179E+03  0.64072949194E+03  0.10566000000E+00 0.  1.
        994    1    1    2    0    0 -0.71318799431E+02  0.27524716751E+03  0.33661311441E+03  0.47272106275E+03  0.17120000000E+03 0.  0.
        998    1    1    2    0    0  0.14244691363E+02 -0.13771294419E+03  0.54020059008E+03  0.55774944532E+03  0.10000000000E+02 0.  1.
</event>
<event>
 5    1  0.5781797E-010  0.3810646E+03  0.7957747E-01  0.3446536E+00
         13   -1    0    0    0    0  0.00000000000E+00  0.00000000000E+00  0.14999999963E+04  0.15000000000E+04  0.10566000000E+00 0. -1.
        994   -1    0    0    0    0 -0.00000000000E+00 -0.00000000000E+00  0.11368683772E-12  0.17120000000E+03  0.17120000000E+03 0.  0.
         13    1    1    2    0    0  0.10398387528E+03 -0.22397361805E+03  0.12134470362E+04  0.12383176283E+04  0.10566000000E+00 0. -1.
        994    1    1    2    0    0 -0.98977465706E+02  0.23422529523E+03  0.25848310596E+03  0.40097504126E+03  0.17120000000E+03 0.  0.
        998    1    1    2    0    0 -0.50064095697E+01 -0.10251677182E+02  0.28069854157E+02  0.31907330415E+02  0.10000000000E+02 0. -1.
</event>
<event>
 5    1  0.5781797E-010  0.3858011E+03  0.7957747E-01  0.3426282E+00
         13   -1    0    0    0    0  0.00000000000E+00  0.00000000000E+00  0.14999999963E+04  0.15000000000E+04  0.10566000000E+00 0. -1.
        994   -1    0    0    0    0 -0.00000000000E+00 -0.00000000000E+00  0.11368683772E-12  0.17120000000E+03  0.17120000000E+03 0.  0.
         13    1    1    2    0    0  0.10729540921E+03  0.19293259897E+03  0.97067155503E+03  0.99545897529E+03  0.10566000000E+00 0. -1.
        994    1    1    2    0    0 -0.11922687264E+03 -0.22361132963E+03  0.25195472601E+03  0.39624196882E+03  0.17120000000E+03 0.  0.
        998    1    1    2    0    0  0.11931463428E+02  0.30678730655E+02  0.27737371524E+03  0.27949905589E+03  0.10000000000E+02 0. -1.
</event>
<event>
 5    1  0.5781797E-010  0.3881761E+03  0.7957747E-01  0.3416313E+00
         13   -1    0    0    0    0  0.00000000000E+00  0.00000000000E+00  0.14999999963E+04  0.15000000000E+04  0.10566000000E+00 0. -1.
        994   -1    0    0    0    0 -0.00000000000E+00 -0.00000000000E+00  0.11368683772E-12  0.17120000000E+03  0.17120000000E+03 0.  0.
         13    1    1    2    0    0 -0.67928823080E+02 -0.11139157681E+03  0.50998480460E+03  0.52640946085E+03  0.10566000000E+00 0. -1.
        994    1    1    2    0    0  0.15320518030E+03  0.24955455390E+03  0.36215665949E+03  0.49620176205E+03  0.17120000000E+03 0.  0.
        998    1    1    2    0    0 -0.85276357218E+02 -0.13816297709E+03  0.62785853219E+03  0.64858877710E+03  0.10000000000E+02 0.  0.
</event>
<event>
 5    1  0.5781797E-010  0.3842676E+03  0.7957747E-01  0.3432784E+00
         13   -1    0    0    0    0  0.00000000000E+00  0.00000000000E+00  0.14999999963E+04  0.15000000000E+04  0.10566000000E+00 0.  1.
        994   -1    0    0    0    0 -0.00000000000E+00 -0.00000000000E+00  0.11368683772E-12  0.17120000000E+03  0.17120000000E+03 0.  0.
         13    1    1    2    0    0  0.16109774102E+03 -0.25277324748E+03  0.82333278189E+03  0.87619842370E+03  0.10566000000E+00 0.  1.
        994    1    1    2    0    0 -0.15862510170E+03  0.28660638609E+03  0.54388896924E+03  0.65759394333E+03  0.17120000000E+03 0.  0.
        998    1    1    2    0    0 -0.24726393132E+01 -0.33833138614E+02  0.13277824515E+03  0.13740763297E+03  0.10000000000E+02 0.  1.
</event>
<event>
 5    1  0.5781797E-010  0.3860059E+03  0.7957747E-01  0.3425417E+00
         13   -1    0    0    0    0  0.00000000000E+00  0.00000000000E+00  0.14999999963E+04  0.15000000000E+04  0.10566000000E+00 0.  1.
        994   -1    0    0    0    0 -0.00000000000E+00 -0.00000000000E+00  0.11368683772E-12  0.17120000000E+03  0.17120000000E+03 0.  0.
         13    1    1    2    0    0  0.88824961642E+02 -0.29329636958E+03  0.81484092549E+03  0.87056210533E+03  0.10566000000E+00 0.  1.
        994    1    1    2    0    0 -0.88313871916E+02  0.32670034067E+03  0.62291307778E+03  0.72928910251E+03  0.17120000000E+03 0.  0.
        998    1    1    2    0    0 -0.51108972633E+00 -0.33403971092E+02  0.62245993006E+02  0.71348792161E+02  0.10000000000E+02 0. -1.
</event>
<event>
 5    1  0.5781797E-010  0.3870464E+03  0.7957747E-01  0.3421039E+00
         13   -1    0    0    0    0  0.00000000000E+00  0.00000000000E+00  0.14999999963E+04  0.15000000000E+04  0.10566000000E+00 0.  1.
        994   -1    0    0    0    0 -0.00000000000E+00 -0.00000000000E+00  0.11368683772E-12  0.17120000000E+03  0.17120000000E+03 0.  0.
         13    1    1    2    0    0  0.34576054091E+01  0.23077335321E+02  0.10602192527E+03  0.10855956081E+03  0.10566000000E+00 0.  1.
        994    1    1    2    0    0 -0.19981317280E+02 -0.16071753870E+03  0.91561422662E+02  0.25282862655E+03  0.17120000000E+03 0.  0.
        998    1    1    2    0    0  0.16523711871E+02  0.13764020338E+03  0.13024166483E+04  0.13098118126E+04  0.10000000000E+02 0.  1.
</event>
<event>
 5    1  0.5781797E-010  0.3874998E+03  0.7957747E-01  0.3419139E+00
         13   -1    0    0    0    0  0.00000000000E+00  0.00000000000E+00  0.14999999963E+04  0.15000000000E+04  0.10566000000E+00 0. -1.
        994   -1    0    0    0    0 -0.00000000000E+00 -0.00000000000E+00  0.11368683772E-12  0.17120000000E+03  0.17120000000E+03 0.  0.
         13    1    1    2    0    0 -0.49520186137E+02 -0.16837656377E+03  0.73484141917E+03  0.75550965484E+03  0.10566000000E+00 0. -1.
        994    1    1    2    0    0  0.99359326998E+02  0.27086243537E+03  0.34900851453E+03  0.48410238377E+03  0.17120000000E+03 0.  0.
        998    1    1    2    0    0 -0.49839140861E+02 -0.10248587160E+03  0.41615006257E+03  0.43158796139E+03  0.10000000000E+02 0. -1.
</event>
<event>
 5    1  0.5781797E-010  0.3815247E+03  0.7957747E-01  0.3444546E+00
         13   -1    0    0    0    0  0.00000000000E+00  0.00000000000E+00  0.14999999963E+04  0.15000000000E+04  0.10566000000E+00 0. -1.
        994   -1    0    0    0    0 -0.00000000000E+00 -0.00000000000E+00  0.11368683772E-12  0.17120000000E+03  0.17120000000E+03 0.  0.
         13    1    1    2    0    0 -0.72376889965E+02  0.15326206786E+02  0.30561805908E+03  0.31444509221E+03  0.10566000000E+00 0. -1.
        994    1    1    2    0    0  0.14752584606E+03 -0.33761218386E+02  0.83720114747E+02  0.24335610273E+03  0.17120000000E+03 0.  0.
        998    1    1    2    0    0 -0.75148956097E+02  0.18435011600E+02  0.11106618224E+04  0.11133988051E+04  0.10000000000E+02 0. -1.
</event>
<event>
 5    1  0.5781797E-010  0.3868825E+03  0.7957747E-01  0.3421727E+00
         13   -1    0    0    0    0  0.00000000000E+00  0.00000000000E+00  0.14999999963E+04  0.15000000000E+04  0.10566000000E+00 0.  1.
        994   -1    0    0    0    0 -0.00000000000E+00 -0.00000000000E+00  0.11368683772E-12  0.17120000000E+03  0.17120000000E+03 0.  0.
         13    1    1    2    0    0  0.20622880366E+01 -0.13566130123E+02  0.66617565796E+02  0.68016205092E+02  0.10566000000E+00 0.  1.
        994    1    1    2    0    0 -0.50456758718E+02  0.92231144129E+02  0.37695525380E+02  0.20440856411E+03  0.17120000000E+03 0.  0.
        998    1    1    2    0    0  0.48394470682E+02 -0.78665014006E+02  0.13956869051E+04  0.13987752308E+04  0.10000000000E+02 0.  1.
</event>
<event>
 5    1  0.5781797E-010  0.3859370E+03  0.7957747E-01  0.3425708E+00
         13   -1    0    0    0    0  0.00000000000E+00  0.00000000000E+00  0.14999999963E+04  0.15000000000E+04  0.10566000000E+00 0. -1.
        994   -1    0    0    0    0 -0.00000000000E+00 -0.00000000000E+00  0.11368683772E-12  0.17120000000E+03  0.17120000000E+03 0.  0.
         13    1    1    2    0    0 -0.25824094980E+02 -0.12590145221E+03  0.71564810062E+03  0.72709715626E+03  0.10566000000E+00 0. -1.
        994    1    1    2    0    0  0.61745176339E+02  0.18615116308E+03  0.13947074345E+03  0.29534090573E+03  0.17120000000E+03 0.  0.
        998    1    1    2    0    0 -0.35921081359E+02 -0.60249710868E+02  0.64488115221E+03  0.64876193802E+03  0.10000000000E+02 0. -1.
</event>
<event>
 5    1  0.5781797E-010  0.3878207E+03  0.7957747E-01  0.3417797E+00
         13   -1    0    0    0    0  0.00000000000E+00  0.00000000000E+00  0.14999999963E+04  0.15000000000E+04  0.10566000000E+00 0.  1.
        994   -1    0    0    0    0 -0.00000000000E+00 -0.00000000000E+00  0.11368683772E-12  0.17120000000E+03  0.17120000000E+03 0.  0.
         13    1    1    2    0    0 -0.11611581211E+02  0.52795690974E+02  0.16350687462E+03  0.17221127436E+03  0.10566000000E+00 0.  1.
        994    1    1    2    0    0  0.54556918793E+02 -0.29845558909E+03  0.40297786570E+03  0.53268451853E+03  0.17120000000E+03 0.  0.
        998    1    1    2    0    0 -0.42945337582E+02  0.24565989811E+03  0.93351525596E+03  0.96630420710E+03  0.10000000000E+02 0.  1.
</event>
<event>
 5    1  0.5781797E-010  0.3815697E+03  0.7957747E-01  0.3444352E+00
         13   -1    0    0    0    0  0.00000000000E+00  0.00000000000E+00  0.14999999963E+04  0.15000000000E+04  0.10566000000E+00 0. -1.
        994   -1    0    0    0    0 -0.00000000000E+00 -0.00000000000E+00  0.11368683772E-12  0.17120000000E+03  0.17120000000E+03 0.  0.
         13    1    1    2    0    0 -0.11696659243E+02  0.31928770353E+01  0.27586412424E+02  0.30133496573E+02  0.10566000000E+00 0. -1.
        994    1    1    2    0    0 -0.11276262189E+03 -0.11621944973E+03  0.96111686620E+02  0.25449806620E+03  0.17120000000E+03 0.  0.
        998    1    1    2    0    0  0.12445928114E+03  0.11302657270E+03  0.13763018972E+04  0.13865684372E+04  0.10000000000E+02 0. -1.
</event>
<event>
 5    1  0.5781797E-010  0.3876805E+03  0.7957747E-01  0.3418383E+00
         13   -1    0    0    0    0  0.00000000000E+00  0.00000000000E+00  0.14999999963E+04  0.15000000000E+04  0.10566000000E+00 0. -1.
        994   -1    0    0    0    0 -0.00000000000E+00 -0.00000000000E+00  0.11368683772E-12  0.17120000000E+03  0.17120000000E+03 0.  0.
         13    1    1    2    0    0 -0.14687986660E+03  0.36732582379E+02  0.90916810932E+03  0.92168847231E+03  0.10566000000E+00 0. -1.
        994    1    1    2    0    0  0.21062412853E+03 -0.37773294736E+02  0.16726099627E+03  0.32105299591E+03  0.17120000000E+03 0.  0.
        998    1    1    2    0    0 -0.63744261924E+02  0.10407123567E+01  0.42357089069E+03  0.42845853178E+03  0.10000000000E+02 0. -1.
</event>
<event>
 5    1  0.5781797E-010  0.3845085E+03  0.7957747E-01  0.3431759E+00
         13   -1    0    0    0    0  0.00000000000E+00  0.00000000000E+00  0.14999999963E+04  0.15000000000E+04  0.10566000000E+00 0. -1.
        994   -1    0    0    0    0 -0.00000000000E+00 -0.00000000000E+00  0.11368683772E-12  0.17120000000E+03  0.17120000000E+03 0.  0.
         13    1    1    2    0    0  0.65935546965E+02  0.40117166085E+02  0.39285195171E+03  0.40036177452E+03  0.10566000000E+00 0. -1.
        994    1    1    2    0    0 -0.16106805670E+03 -0.49290974247E+02  0.10171201605E+03  0.26082042336E+03  0.17120000000E+03 0.  0.
        998    1    1    2    0    0  0.95132509734E+02  0.91738081617E+01  0.10054360285E+04  0.10100178021E+04  0.10000000000E+02 0. -1.
</event>
<event>
 5    1  0.5781797E-010  0.3801125E+03  0.7957747E-01  0.3450669E+00
         13   -1    0    0    0    0  0.00000000000E+00  0.00000000000E+00  0.14999999963E+04  0.15000000000E+04  0.10566000000E+00 0.  1.
        994   -1    0    0    0    0 -0.00000000000E+00 -0.00000000000E+00  0.11368683772E-12  0.17120000000E+03  0.17120000000E+03 0.  0.
         13    1    1    2    0    0 -0.17138284508E+02 -0.19684318067E+02  0.71485875123E+02  0.76101476199E+02  0.10566000000E+00 0.  1.
        994    1    1    2    0    0 -0.20974790616E+02  0.84820582340E+02  0.30025049847E+02  0.19453898491E+03  0.17120000000E+03 0.  0.
        998    1    1    2    0    0  0.38113075123E+02 -0.65136264273E+02  0.13984890713E+04  0.14005595389E+04  0.10000000000E+02 0.  1.
</event>
<event>
 5    1  0.5781797E-010  0.3764106E+03  0.7957747E-01  0.3466938E+00
         13   -1    0    0    0    0  0.00000000000E+00  0.00000000000E+00  0.14999999963E+04  0.15000000000E+04  0.10566000000E+00 0. -1.
        994   -1    0    0    0    0 -0.00000000000E+00 -0.00000000000E+00  0.11368683772E-12  0.17120000000E+03  0.17120000000E+03 0.  0.
         13    1    1    2    0    0  0.32289037996E+02 -0.49501336608E+02  0.17111388291E+03  0.18103297045E+03  0.10566000000E+00 0. -1.
        994    1    1    2    0    0 -0.15260355737E+03  0.62393353597E+02  0.10426338799E+03  0.25954011322E+03  0.17120000000E+03 0.  0.
        998    1    1    2    0    0  0.12031451938E+03 -0.12892016989E+02  0.12246227254E+04  0.12306269163E+04  0.10000000000E+02 0. -1.
</event>
<event>
 5    1  0.5781797E-010  0.3879964E+03  0.7957747E-01  0.3417063E+00
         13   -1    0    0    0    0  0.00000000000E+00  0.00000000000E+00  0.14999999963E+04  0.15000000000E+04  0.10566000000E+00 0. -1.
        994   -1    0    0    0    0 -0.00000000000E+00 -0.00000000000E+00  0.11368683772E-12  0.17120000000E+03  0.17120000000E+03 0.  0.
         13    1    1    2    0    0  0.18814291290E+02 -0.18071726089E+03  0.98675929390E+03  0.10033477070E+04  0.10566000000E+00 0. -1.
        994    1    1    2    0    0 -0.26869755445E+02  0.23645253972E+03  0.21339377237E+03  0.36259913043E+03  0.17120000000E+03 0.  0.
        998    1    1    2    0    0  0.80554641548E+01 -0.55735278829E+02  0.29984693001E+03  0.30525316255E+03  0.10000000000E+02 0.  0.
</event>
<event>
 5    1  0.5781797E-010  0.3863817E+03  0.7957747E-01  0.3423833E+00
         13   -1    0    0    0    0  0.00000000000E+00  0.00000000000E+00  0.14999999963E+04  0.15000000000E+04  0.10566000000E+00 0.  1.
        994   -1    0    0    0    0 -0.00000000000E+00 -0.00000000000E+00  0.11368683772E-12  0.17120000000E+03  0.17120000000E+03 0.  0.
         13    1    1    2    0    0  0.94913884075E+02 -0.38986323390E+02  0.45833096490E+03  0.46967633893E+03  0.10566000000E+00 0.  1.
        994    1    1    2    0    0 -0.22343736854E+03  0.56418088625E+02  0.20004742211E+03  0.34990808718E+03  0.17120000000E+03 0.  0.
        998    1    1    2    0    0  0.12852348446E+03 -0.17431765235E+02  0.84162160927E+03  0.85161557389E+03  0.10000000000E+02 0.  1.
</event>
<event>
 5    1  0.5781797E-010  0.2926851E+03  0.7957747E-01  0.3949666E+00
         13   -1    0    0    0    0  0.00000000000E+00  0.00000000000E+00  0.14999999963E+04  0.15000000000E+04  0.10566000000E+00 0. -1.
        994   -1    0    0    0    0 -0.00000000000E+00 -0.00000000000E+00  0.11368683772E-12  0.17120000000E+03  0.17120000000E+03 0.  0.
         13    1    1    2    0    0 -0.12415658396E+03 -0.15054168177E+03  0.47494954288E+03  0.51347320742E+03  0.10566000000E+00 0. -1.
        994    1    1    2    0    0  0.50689323820E+02  0.29946989844E+03  0.52072623664E+03  0.62667127040E+03  0.17120000000E+03 0.  0.
        998    1    1    2    0    0  0.73467260135E+02 -0.14892821667E+03  0.50432421676E+03  0.53105552219E+03  0.10000000000E+02 0.  1.
</event>
<event>
 5    1  0.5781797E-010  0.3880329E+03  0.7957747E-01  0.3416910E+00
         13   -1    0    0    0    0  0.00000000000E+00  0.00000000000E+00  0.14999999963E+04  0.15000000000E+04  0.10566000000E+00 0.  1.
        994   -1    0    0    0    0 -0.00000000000E+00 -0.00000000000E+00  0.11368683772E-12  0.17120000000E+03  0.17120000000E+03 0.  0.
         13    1    1    2    0    0 -0.52450108973E+02 -0.65521443216E+02  0.50646621189E+03  0.51337326421E+03  0.10566000000E+00 0.  1.
        994    1    1    2    0    0  0.13345399473E+03  0.18769316461E+03  0.19753001609E+03  0.34837657787E+03  0.17120000000E+03 0.  0.
        998    1    1    2    0    0 -0.81003885761E+02 -0.12217172139E+03  0.79600376830E+03  0.80945015792E+03  0.10000000000E+02 0.  1.
</event>
<event>
 5    1  0.5781797E-010  0.3803287E+03  0.7957747E-01  0.3449729E+00
         13   -1    0    0    0    0  0.00000000000E+00  0.00000000000E+00  0.14999999963E+04  0.15000000000E+04  0.10566000000E+00 0.  1.
        994   -1    0    0    0    0 -0.00000000000E+00 -0.00000000000E+00  0.11368683772E-12  0.17120000000E+03  0.17120000000E+03 0.  0.
         13    1    1    2    0    0  0.31386362088E+02 -0.48484591112E+00  0.13440862097E+03  0.13802545908E+03  0.10566000000E+00 0.  1.
        994    1    1    2    0    0 -0.63241932639E+01 -0.37932926803E+02  0.89216251354E+01  0.17569273676E+03  0.17120000000E+03 0.  0.
        998    1    1    2    0    0 -0.25062168824E+02  0.38417772715E+02  0.13566697502E+04  0.13574818042E+04  0.10000000000E+02 0.  1.
</event>
<event>
 5    1  0.5781797E-010  0.3844046E+03  0.7957747E-01  0.3432201E+00
         13   -1    0    0    0    0  0.00000000000E+00  0.00000000000E+00  0.14999999963E+04  0.15000000000E+04  0.10566000000E+00 0.  1.
        994   -1    0    0    0    0 -0.00000000000E+00 -0.00000000000E+00  0.11368683772E-12  0.17120000000E+03  0.17120000000E+03 0.  0.
         13    1    1    2    0    0  0.14150311652E+03 -0.75970952971E+02  0.78923607364E+03  0.80541188765E+03  0.10566000000E+00 0.  1.
        994    1    1    2    0    0 -0.20175394822E+03  0.77496813231E+02  0.17502868700E+03  0.32658060713E+03  0.17120000000E+03 0.  0.
        998    1    1    2    0    0  0.60250831703E+02 -0.15258602599E+01  0.53573523564E+03  0.53920750521E+03  0.10000000000E+02 0.  1.
</event>
<event>
 5    1  0.5781797E-010  0.3866934E+03  0.7957747E-01  0.3422522E+00
         13   -1    0    0    0    0  0.00000000000E+00  0.00000000000E+00  0.14999999963E+04  0.15000000000E+04  0.10566000000E+00 0. -1.
        994   -1    0    0    0    0 -0.00000000000E+00 -0.00000000000E+00  0.11368683772E-12  0.17120000000E+03  0.17120000000E+03 0.  0.
         13    1    1    2    0    0 -0.16539113987E+03  0.18455520943E+02  0.85258907928E+03  0.86867887316E+03  0.10566000000E+00 0. -1.
        994    1    1    2    0    0  0.22923717206E+03 -0.52933814894E+02  0.20953454262E+03  0.35856078197E+03  0.17120000000E+03 0.  0.
        998    1    1    2    0    0 -0.63846032193E+02  0.34478293951E+02  0.43787637437E+03  0.44396034487E+03  0.10000000000E+02 0. -1.
</event>
<event>
 5    1  0.5781797E-010  0.3808434E+03  0.7957747E-01  0.3447494E+00
         13   -1    0    0    0    0  0.00000000000E+00  0.00000000000E+00  0.14999999963E+04  0.15000000000E+04  0.10566000000E+00 0. -1.
        994   -1    0    0    0    0 -0.00000000000E+00 -0.00000000000E+00  0.11368683772E-12  0.17120000000E+03  0.17120000000E+03 0.  0.
         13    1    1    2    0    0  0.23623119470E+03  0.51110064855E+02  0.98618434206E+03  0.10153703678E+04  0.10566000000E+00 0. -1.
        994    1    1    2    0    0 -0.27047862215E+03 -0.17653244768E+02  0.30903543306E+03  0.44528941261E+03  0.17120000000E+03 0.  0.
        998    1    1    2    0    0  0.34247427453E+02 -0.33456820087E+02  0.20478022115E+03  0.21054021961E+03  0.10000000000E+02 0. -1.
</event>
<event>
 5    1  0.5781797E-010  0.3790634E+03  0.7957747E-01  0.3455247E+00
         13   -1    0    0    0    0  0.00000000000E+00  0.00000000000E+00  0.14999999963E+04  0.15000000000E+04  0.10566000000E+00 0. -1.
        994   -1    0    0    0    0 -0.00000000000E+00 -0.00000000000E+00  0.11368683772E-12  0.17120000000E+03  0.17120000000E+03 0.  0.
         13    1    1    2    0    0  0.84395465242E+02  0.24746591885E+03  0.11736086516E+04  0.12023806609E+04  0.10566000000E+00 0. -1.
        994    1    1    2    0    0 -0.99024609219E+02 -0.24028468808E+03  0.27995657125E+03  0.41860210982E+03  0.17120000000E+03 0.  0.
        998    1    1    2    0    0  0.14629143977E+02 -0.71812307659E+01  0.46434773445E+02  0.50217229251E+02  0.10000000000E+02 0. -1.
</event>
<event>
 5    1  0.5781797E-010  0.3871558E+03  0.7957747E-01  0.3420580E+00
         13   -1    0    0    0    0  0.00000000000E+00  0.00000000000E+00  0.14999999963E+04  0.15000000000E+04  0.10566000000E+00 0.  1.
        994   -1    0    0    0    0 -0.00000000000E+00 -0.00000000000E+00  0.11368683772E-12  0.17120000000E+03  0.17120000000E+03 0.  0.
         13    1    1    2    0    0  0.13925982230E+03 -0.11340964360E+03  0.59708669283E+03  0.62351228960E+03  0.10566000000E+00 0.  1.
        994    1    1    2    0    0 -0.22445644939E+03  0.19844938065E+03  0.38999392004E+03  0.52073750779E+03  0.17120000000E+03 0.  0.
        998    1    1    2    0    0  0.85196627086E+02 -0.85039737056E+02  0.51291938341E+03  0.52695020261E+03  0.10000000000E+02 0. -1.
</event>
<event>
 5    1  0.5781797E-010  0.3862274E+03  0.7957747E-01  0.3424483E+00
         13   -1    0    0    0    0  0.00000000000E+00  0.00000000000E+00  0.14999999963E+04  0.15000000000E+04  0.10566000000E+00 0.  1.
        994   -1    0    0    0    0 -0.00000000000E+00 -0.00000000000E+00  0.11368683772E-12  0.17120000000E+03  0.17120000000E+03 0.  0.
         13    1    1    2    0    0 -0.47875090442E+02 -0.98227242520E+01  0.26694526347E+03  0.27138219369E+03  0.10566000000E+00 0.  1.
        994    1    1    2    0    0  0.14332043775E+03  0.33356507524E+02  0.75480484323E+02  0.23803392192E+03  0.17120000000E+03 0.  0.
        998    1    1    2    0    0 -0.95445347310E+02 -0.23533783272E+02  0.11575742485E+04  0.11617838844E+04  0.10000000000E+02 0.  1.
</event>
<event>
 5    1  0.5781797E-010  0.3849855E+03  0.7957747E-01  0.3429734E+00
         13   -1    0    0    0    0  0.00000000000E+00  0.00000000000E+00  0.14999999963E+04  0.15000000000E+04  0.10566000000E+00 0.  1.
        994   -1    0    0    0    0 -0.00000000000E+00 -0.00000000000E+00  0.11368683772E-12  0.17120000000E+03  0.17120000000E+03 0.  0.
         13    1    1    2    0    0  0.22339644643E+03 -0.10236590419E+03  0.11000575529E+04  0.11271696330E+04  0.10566000000E+00 0.  1.
        994    1    1    2    0    0 -0.24563583471E+03  0.93128367319E+02  0.27710946521E+03  0.41846021532E+03  0.17120000000E+03 0.  0.
        998    1    1    2    0    0  0.22239388273E+02  0.92375368730E+01  0.12283297817E+03  0.12557015172E+03  0.10000000000E+02 0.  1.
</event>
<event>
 5    1  0.5781797E-010  0.3877488E+03  0.7957747E-01  0.3418097E+00
         13   -1    0    0    0    0  0.00000000000E+00  0.00000000000E+00  0.14999999963E+04  0.15000000000E+04  0.10566000000E+00 0. -1.
        994   -1    0    0    0    0 -0.00000000000E+00 -0.00000000000E+00  0.11368683772E-12  0.17120000000E+03  0.17120000000E+03 0.  0.
         13    1    1    2    0    0  0.51425425229E+02 -0.13653559434E+02  0.31035721086E+03  0.31488506402E+03  0.10566000000E+00 0. -1.
        994    1    1    2    0    0 -0.18429656148E+03  0.37919348516E+02  0.12563069780E+03  0.28371748588E+03  0.17120000000E+03 0.  0.
        998    1    1    2    0    0  0.13287113625E+03 -0.24265789081E+02  0.10640120876E+04  0.10725974501E+04  0.10000000000E+02 0. -1.
</event>
<event>
 5    1  0.5781797E-010  0.3865113E+03  0.7957747E-01  0.3423288E+00
         13   -1    0    0    0    0  0.00000000000E+00  0.00000000000E+00  0.14999999963E+04  0.15000000000E+04  0.10566000000E+00 0. -1.
        994   -1    0    0    0    0 -0.00000000000E+00 -0.00000000000E+00  0.11368683772E-12  0.17120000000E+03  0.17120000000E+03 0.  0.
         13    1    1    2    0    0  0.15315830443E+03 -0.35890707274E+02  0.90956637720E+03  0.92306912784E+03  0.10566000000E+00 0. -1.
        994    1    1    2    0    0 -0.22948651743E+03  0.21613535721E+02  0.19997704055E+03  0.34990207681E+03  0.17120000000E+03 0.  0.
        998    1    1    2    0    0  0.76328213002E+02  0.14277171553E+02  0.39045657853E+03  0.39822879535E+03  0.10000000000E+02 0.  1.
</event>
<event>
 5    1  0.5781797E-010  0.3834690E+03  0.7957747E-01  0.3436191E+00
         13   -1    0    0    0    0  0.00000000000E+00  0.00000000000E+00  0.14999999963E+04  0.15000000000E+04  0.10566000000E+00 0.  1.
        994   -1    0    0    0    0 -0.00000000000E+00 -0.00000000000E+00  0.11368683772E-12  0.17120000000E+03  0.17120000000E+03 0.  0.
         13    1    1    2    0    0 -0.40519452517E+02 -0.67929040775E+02  0.24378979579E+03  0.25629993428E+03  0.10566000000E+00 0.  1.
        994    1    1    2    0    0  0.20232982197E+03  0.16912680080E+03  0.28271112644E+03  0.42281940900E+03  0.17120000000E+03 0.  0.
        998    1    1    2    0    0 -0.16181036946E+03 -0.10119776002E+03  0.97349907404E+03  0.99208065673E+03  0.10000000000E+02 0.  1.
</event>
<event>
 5    1  0.5781797E-010  0.3865796E+03  0.7957747E-01  0.3423001E+00
         13   -1    0    0    0    0  0.00000000000E+00  0.00000000000E+00  0.14999999963E+04  0.15000000000E+04  0.10566000000E+00 0. -1.
        994   -1    0    0    0    0 -0.00000000000E+00 -0.00000000000E+00  0.11368683772E-12  0.17120000000E+03  0.17120000000E+03 0.  0.
         13    1    1    2    0    0 -0.51624666955E+02  0.24548024010E+03  0.10466605018E+04  0.10763010135E+04  0.10566000000E+00 0. -1.
        994    1    1    2    0    0  0.44143891048E+02 -0.27369645556E+03  0.31515267021E+03  0.45330903195E+03  0.17120000000E+03 0.  0.
        998    1    1    2    0    0  0.74807759066E+01  0.28216215457E+02  0.13818682428E+03  0.14158995454E+03  0.10000000000E+02 0. -1.
</event>
<event>
 5    1  0.5781797E-010  0.3877459E+03  0.7957747E-01  0.3418109E+00
         13   -1    0    0    0    0  0.00000000000E+00  0.00000000000E+00  0.14999999963E+04  0.15000000000E+04  0.10566000000E+00 0. -1.
        994   -1    0    0    0    0 -0.00000000000E+00 -0.00000000000E+00  0.11368683772E-12  0.17120000000E+03  0.17120000000E+03 0.  0.
         13    1    1    2    0    0  0.12369614633E+03  0.41770114863E+02  0.56940155902E+03  0.58417773467E+03  0.10566000000E+00 0. -1.
        994    1    1    2    0    0 -0.25802738149E+03 -0.63443447186E+02  0.27999630385E+03  0.42226836344E+03  0.17120000000E+03 0.  0.
        998    1    1    2    0    0  0.13433123516E+03  0.21673332322E+02  0.65060213341E+03  0.66475390189E+03  0.10000000000E+02 0. -1.
</event>
<event>
 5    1  0.5781797E-010  0.3871466E+03  0.7957747E-01  0.3420619E+00
         13   -1    0    0    0    0  0.00000000000E+00  0.00000000000E+00  0.14999999963E+04  0.15000000000E+04  0.10566000000E+00 0.  1.
        994   -1    0    0    0    0 -0.00000000000E+00 -0.00000000000E+00  0.11368683772E-12  0.17120000000E+03  0.17120000000E+03 0.  0.
         13    1    1    2    0    0  0.32033690903E+02  0.15591638188E+03  0.93433670145E+03  0.94779805778E+03  0.10566000000E+00 0.  1.
        994    1    1    2    0    0 -0.21577343248E+02 -0.22034361476E+03  0.18141944563E+03  0.33352562954E+03  0.17120000000E+03 0.  0.
        998    1    1    2    0    0 -0.10456347655E+02  0.64427232883E+02  0.38424384920E+03  0.38987631268E+03  0.10000000000E+02 0.  1.
</event>
<event>
 5    1  0.5781797E-010  0.3718976E+03  0.7957747E-01  0.3487215E+00
         13   -1    0    0    0    0  0.00000000000E+00  0.00000000000E+00  0.14999999963E+04  0.15000000000E+04  0.10566000000E+00 0. -1.
        994   -1    0    0    0    0 -0.00000000000E+00 -0.00000000000E+00  0.11368683772E-12  0.17120000000E+03  0.17120000000E+03 0.  0.
         13    1    1    2    0    0  0.47726544365E+02  0.40884348385E+02  0.34527271006E+03  0.35094530693E+03  0.10566000000E+00 0. -1.
        994    1    1    2    0    0 -0.20128297084E+03  0.10274860274E+03  0.21120923195E+03  0.35354050599E+03  0.17120000000E+03 0.  0.
        998    1    1    2    0    0  0.15355642648E+03 -0.14363295113E+03  0.94351805428E+03  0.96671418708E+03  0.10000000000E+02 0. -1.
</event>
<event>
 5    1  0.5781797E-010  0.3851257E+03  0.7957747E-01  0.3429139E+00
         13   -1    0    0    0    0  0.00000000000E+00  0.00000000000E+00  0.14999999963E+04  0.15000000000E+04  0.10566000000E+00 0. -1.
        994   -1    0    0    0    0 -0.00000000000E+00 -0.00000000000E+00  0.11368683772E-12  0.17120000000E+03  0.17120000000E+03 0.  0.
         13    1    1    2    0    0  0.12958361967E+02 -0.80362606115E+02  0.43102383271E+03  0.43864293353E+03  0.10566000000E+00 0. -1.
        994    1    1    2    0    0 -0.24195663322E+02  0.16144342638E+03  0.94716782781E+02  0.25481389088E+03  0.17120000000E+03 0.  0.
        998    1    1    2    0    0  0.11237301355E+02 -0.81080820269E+02  0.97425938079E+03  0.97774317559E+03  0.10000000000E+02 0. -1.
</event>
<event>
 5    1  0.5781797E-010  0.3860404E+03  0.7957747E-01  0.3425272E+00
         13   -1    0    0    0    0  0.00000000000E+00  0.00000000000E+00  0.14999999963E+04  0.15000000000E+04  0.10566000000E+00 0.  1.
        994   -1    0    0    0    0 -0.00000000000E+00 -0.00000000000E+00  0.11368683772E-12  0.17120000000E+03  0.17120000000E+03 0.  0.
         13    1    1    2    0    0  0.99875257013E+02 -0.96598251013E+02  0.69136361562E+03  0.70518788222E+03  0.10566000000E+00 0.  1.
        994    1    1    2    0    0 -0.13613911090E+03  0.17975385679E+03  0.19065375364E+03  0.34132623738E+03  0.17120000000E+03 0.  0.
        998    1    1    2    0    0  0.36263853884E+02 -0.83155605782E+02  0.61798262702E+03  0.62468588040E+03  0.10000000000E+02 0.  1.
</event>
<event>
 5    1  0.5781797E-010  0.3797696E+03  0.7957747E-01  0.3452162E+00
         13   -1    0    0    0    0  0.00000000000E+00  0.00000000000E+00  0.14999999963E+04  0.15000000000E+04  0.10566000000E+00 0. -1.
        994   -1    0    0    0    0 -0.00000000000E+00 -0.00000000000E+00  0.11368683772E-12  0.17120000000E+03  0.17120000000E+03 0.  0.
         13    1    1    2    0    0 -0.18880855403E+03  0.13216090387E+03  0.77603928979E+03  0.80953824187E+03  0.10566000000E+00 0. -1.
        994    1    1    2    0    0  0.25791580906E+03 -0.12078320823E+03  0.35609479233E+03  0.48705450319E+03  0.17120000000E+03 0.  0.
        998    1    1    2    0    0 -0.69107255030E+02 -0.11377695635E+02  0.36786591416E+03  0.37460725494E+03  0.10000000000E+02 0.  1.
</event>
<event>
 5    1  0.5781797E-010  0.3851930E+03  0.7957747E-01  0.3428854E+00
         13   -1    0    0    0    0  0.00000000000E+00  0.00000000000E+00  0.14999999963E+04  0.15000000000E+04  0.10566000000E+00 0.  1.
        994   -1    0    0    0    0 -0.00000000000E+00 -0.00000000000E+00  0.11368683772E-12  0.17120000000E+03  0.17120000000E+03 0.  0.
         13    1    1    2    0    0 -0.93507467451E+01 -0.11856059428E+02  0.83570660846E+02  0.84923901984E+02  0.10566000000E+00 0.  1.
        994    1    1    2    0    0 -0.37501338263E+02  0.26982641751E+02  0.85809806719E+01  0.17753164945E+03  0.17120000000E+03 0.  0.
        998    1    1    2    0    0  0.46852085008E+02 -0.15126582323E+02  0.14078483548E+04  0.14087444486E+04  0.10000000000E+02 0.  1.
</event>
<event>
 5    1  0.5781797E-010  0.3798542E+03  0.7957747E-01  0.3451794E+00
         13   -1    0    0    0    0  0.00000000000E+00  0.00000000000E+00  0.14999999963E+04  0.15000000000E+04  0.10566000000E+00 0.  1.
        994   -1    0    0    0    0 -0.00000000000E+00 -0.00000000000E+00  0.11368683772E-12  0.17120000000E+03  0.17120000000E+03 0.  0.
         13    1    1    2    0    0 -0.16917382476E+02 -0.13940795359E+02  0.94071567479E+02  0.96592000585E+02  0.10566000000E+00 0.  1.
        994    1    1    2    0    0 -0.35451983369E+02 -0.85244310070E+02  0.33261746336E+02  0.19733022904E+03  0.17120000000E+03 0.  0.
        998    1    1    2    0    0  0.52369365846E+02  0.99185105429E+02  0.13726666825E+04  0.13772777704E+04  0.10000000000E+02 0.  1.
</event>
<event>
 5    1  0.6868361E-010  0.3869557E+03  0.7957747E-01  0.3421420E+00
         13   -1    0    0    0    0  0.00000000000E+00  0.00000000000E+00  0.14999999963E+04  0.15000000000E+04  0.10566000000E+00 0.  1.
        994   -1    0    0    0    0 -0.00000000000E+00 -0.00000000000E+00  0.11368683772E-12  0.17120000000E+03  0.17120000000E+03 0.  0.
         13    1    1    2    0    0  0.12028462042E+02 -0.18930944907E+01  0.65098659292E+02  0.66227745783E+02  0.10566000000E+00 0.  1.
        994    1    1    2    0    0 -0.71009083355E+02  0.24968112476E+02  0.19400525787E+02  0.18801999085E+03  0.17120000000E+03 0.  0.
        998    1    1    2    0    0  0.58980621313E+02 -0.23075017985E+02  0.14155008112E+04  0.14169522634E+04  0.10000000000E+02 0.  1.
</event>
<event>
 5    1  0.5781797E-010  0.3263054E+03  0.7957747E-01  0.3724452E+00
         13   -1    0    0    0    0  0.00000000000E+00  0.00000000000E+00  0.14999999963E+04  0.15000000000E+04  0.10566000000E+00 0.  1.
        994   -1    0    0    0    0 -0.00000000000E+00 -0.00000000000E+00  0.11368683772E-12  0.17120000000E+03  0.17120000000E+03 0.  0.
         13    1    1    2    0    0 -0.17803670010E+03  0.80330180957E+02  0.87393441874E+03  0.89549504966E+03  0.10566000000E+00 0.  1.
        994    1    1    2    0    0  0.26961393663E+03 -0.36642528626E+01  0.34497470308E+03  0.47012986221E+03  0.17120000000E+03 0.  0.
        998    1    1    2    0    0 -0.91577236530E+02 -0.76665928094E+02  0.28109087446E+03  0.30557508813E+03  0.10000000000E+02 0. -1.
</event>
<event>
 5    1  0.5781797E-010  0.3780196E+03  0.7957747E-01  0.3459827E+00
         13   -1    0    0    0    0  0.00000000000E+00  0.00000000000E+00  0.14999999963E+04  0.15000000000E+04  0.10566000000E+00 0. -1.
        994   -1    0    0    0    0 -0.00000000000E+00 -0.00000000000E+00  0.11368683772E-12  0.17120000000E+03  0.17120000000E+03 0.  0.
         13    1    1    2    0    0 -0.32203730309E+02 -0.23315284981E+01  0.11352066948E+03  0.11802317498E+03  0.10566000000E+00 0. -1.
        994    1    1    2    0    0  0.13906088295E+02 -0.11778569337E+03  0.54032876551E+02  0.21516468252E+03  0.17120000000E+03 0.  0.
        998    1    1    2    0    0  0.18297642014E+02  0.12011722186E+03  0.13324464503E+04  0.13380121425E+04  0.10000000000E+02 0. -1.
</event>
<event>
 5    1  0.5781797E-010  0.3864688E+03  0.7957747E-01  0.3423467E+00
         13   -1    0    0    0    0  0.00000000000E+00  0.00000000000E+00  0.14999999963E+04  0.15000000000E+04  0.10566000000E+00 0. -1.
        994   -1    0    0    0    0 -0.00000000000E+00 -0.00000000000E+00  0.11368683772E-12  0.17120000000E+03  0.17120000000E+03 0.  0.
         13    1    1    2    0    0 -0.13580974427E+03 -0.12861709654E+03  0.68007863992E+03  0.70533227049E+03  0.10566000000E+00 0. -1.
        994    1    1    2    0    0  0.20087186350E+03  0.19521963357E+03  0.32421738843E+03  0.46139632187E+03  0.17120000000E+03 0.  0.
        998    1    1    2    0    0 -0.65062119231E+02 -0.66602537032E+02  0.49570396793E+03  0.50447140764E+03  0.10000000000E+02 0.  1.
</event>
<event>
 5    1  0.5781797E-010  0.3811527E+03  0.7957747E-01  0.3446155E+00
         13   -1    0    0    0    0  0.00000000000E+00  0.00000000000E+00  0.14999999963E+04  0.15000000000E+04  0.10566000000E+00 0.  1.
        994   -1    0    0    0    0 -0.00000000000E+00 -0.00000000000E+00  0.11368683772E-12  0.17120000000E+03  0.17120000000E+03 0.  0.
         13    1    1    2    0    0  0.29001007661E+02 -0.26775869105E+02  0.21472755565E+03  0.21832530758E+03  0.10566000000E+00 0.  1.
        994    1    1    2    0    0  0.50185026125E+02  0.15633690474E+03  0.99262855594E+02  0.25714260466E+03  0.17120000000E+03 0.  0.
        998    1    1    2    0    0 -0.79186033786E+02 -0.12956103563E+03  0.11860095850E+04  0.11957320878E+04  0.10000000000E+02 0.  1.
</event>
<event>
 5    1  0.5781797E-010  0.3872387E+03  0.7957747E-01  0.3420233E+00
         13   -1    0    0    0    0  0.00000000000E+00  0.00000000000E+00  0.14999999963E+04  0.15000000000E+04  0.10566000000E+00 0.  1.
        994   -1    0    0    0    0 -0.00000000000E+00 -0.00000000000E+00  0.11368683772E-12  0.17120000000E+03  0.17120000000E+03 0.  0.
         13    1    1    2    0    0 -0.10198353513E+03 -0.11254499262E+03  0.86080683935E+03  0.87410264994E+03  0.10566000000E+00 0.  1.
        994    1    1    2    0    0  0.13209214166E+03  0.16762603417E+03  0.16677462508E+03  0.32042165468E+03  0.17120000000E+03 0.  0.
        998    1    1    2    0    0 -0.30108606533E+02 -0.55081041550E+02  0.47241853185E+03  0.47667569537E+03  0.10000000000E+02 0.  1.
</event>
<event>
 5    1  0.5781797E-010  0.3856366E+03  0.7957747E-01  0.3426977E+00
         13   -1    0    0    0    0  0.00000000000E+00  0.00000000000E+00  0.14999999963E+04  0.15000000000E+04  0.10566000000E+00 0. -1.
        994   -1    0    0    0    0 -0.00000000000E+00 -0.00000000000E+00  0.11368683772E-12  0.17120000000E+03  0.17120000000E+03 0.  0.
         13    1    1    2    0    0 -0.36631663516E+02 -0.11576493620E+03  0.58428847559E+03  0.59677167585E+03  0.10566000000E+00 0. -1.
        994    1    1    2    0    0  0.68512247491E+02  0.19674341108E+03  0.15977220691E+03  0.31343020908E+03  0.17120000000E+03 0.  0.
        998    1    1    2    0    0 -0.31880583976E+02 -0.80978474881E+02  0.75593931378E+03  0.76099811508E+03  0.10000000000E+02 0. -1.
</event>
<event>
 5    1  0.5781797E-010  0.3830019E+03  0.7957747E-01  0.3438191E+00
         13   -1    0    0    0    0  0.00000000000E+00  0.00000000000E+00  0.14999999963E+04  0.15000000000E+04  0.10566000000E+00 0.  1.
        994   -1    0    0    0    0 -0.00000000000E+00 -0.00000000000E+00  0.11368683772E-12  0.17120000000E+03  0.17120000000E+03 0.  0.
         13    1    1    2    0    0 -0.83704226159E+01 -0.10540024377E+02  0.26447801616E+02  0.29675806021E+02  0.10566000000E+00 0.  1.
        994    1    1    2    0    0  0.34995427960E+02  0.72046775874E+02  0.24159196480E+02  0.19054795897E+03  0.17120000000E+03 0.  0.
        998    1    1    2    0    0 -0.26625005345E+02 -0.61506751497E+02  0.14493929982E+04  0.14509762350E+04  0.10000000000E+02 0.  1.
</event>
<event>
 5    1  0.5781797E-010  0.3861500E+03  0.7957747E-01  0.3424809E+00
         13   -1    0    0    0    0  0.00000000000E+00  0.00000000000E+00  0.14999999963E+04  0.15000000000E+04  0.10566000000E+00 0. -1.
        994   -1    0    0    0    0 -0.00000000000E+00 -0.00000000000E+00  0.11368683772E-12  0.17120000000E+03  0.17120000000E+03 0.  0.
         13    1    1    2    0    0  0.30742314261E+03 -0.20601548514E+02  0.59845629720E+03  0.67311467317E+03  0.10566000000E+00 0. -1.
        994    1    1    2    0    0 -0.34488688929E+03  0.29204960945E+02  0.78251567193E+03  0.87260535923E+03  0.17120000000E+03 0.  0.
        998    1    1    2    0    0  0.37463746683E+02 -0.86034124304E+01  0.11902802715E+03  0.12547996760E+03  0.10000000000E+02 0.  1.
</event>
<event>
 5    1  0.5781797E-010  0.3113564E+03  0.7957747E-01  0.3818139E+00
         13   -1    0    0    0    0  0.00000000000E+00  0.00000000000E+00  0.14999999963E+04  0.15000000000E+04  0.10566000000E+00 0. -1.
        994   -1    0    0    0    0 -0.00000000000E+00 -0.00000000000E+00  0.11368683772E-12  0.17120000000E+03  0.17120000000E+03 0.  0.
         13    1    1    2    0    0  0.22226373966E+03 -0.15115634397E+03  0.10456391703E+04  0.10796345197E+04  0.10566000000E+00 0. -1.
        994    1    1    2    0    0 -0.80742738051E+02  0.12376328221E+03  0.21542605832E+03  0.31233726382E+03  0.17120000000E+03 0.  0.
        998    1    1    2    0    0 -0.14152100161E+03  0.27393061765E+02  0.23893476761E+03  0.27922821653E+03  0.10000000000E+02 0. -1.
</event>
<event>
 5    1  0.5781797E-010  0.3864106E+03  0.7957747E-01  0.3423711E+00
         13   -1    0    0    0    0  0.00000000000E+00  0.00000000000E+00  0.14999999963E+04  0.15000000000E+04  0.10566000000E+00 0. -1.
        994   -1    0    0    0    0 -0.00000000000E+00 -0.00000000000E+00  0.11368683772E-12  0.17120000000E+03  0.17120000000E+03 0.  0.
         13    1    1    2    0    0 -0.20293921883E+03 -0.60469610917E+02  0.10475939670E+04  0.10687815638E+04  0.10566000000E+00 0. -1.
        994    1    1    2    0    0  0.23204157864E+03  0.90035697252E+02  0.24015278368E+03  0.38591776391E+03  0.17120000000E+03 0.  0.
        998    1    1    2    0    0 -0.29102359802E+02 -0.29566086335E+02  0.21225324563E+03  0.21650067226E+03  0.10000000000E+02 0.  1.
</event>
<event>
 5    1  0.5781797E-010  0.3867213E+03  0.7957747E-01  0.3422405E+00
         13   -1    0    0    0    0  0.00000000000E+00  0.00000000000E+00  0.14999999963E+04  0.15000000000E+04  0.10566000000E+00 0. -1.
        994   -1    0    0    0    0 -0.00000000000E+00 -0.00000000000E+00  0.11368683772E-12  0.17120000000E+03  0.17120000000E+03 0.  0.
         13    1    1    2    0    0  0.16038549263E+03 -0.13379051284E+03  0.10611976769E+04  0.10815562530E+04  0.10566000000E+00 0. -1.
        994    1    1    2    0    0 -0.18111441020E+03  0.17365908798E+03  0.24442150587E+03  0.38988616409E+03  0.17120000000E+03 0.  0.
        998    1    1    2    0    0  0.20728917565E+02 -0.39868575140E+02  0.19438081346E+03  0.19975758296E+03  0.10000000000E+02 0.  0.
</event>
<event>
 5    1  0.5781797E-010  0.3881704E+03  0.7957747E-01  0.3416336E+00
         13   -1    0    0    0    0  0.00000000000E+00  0.00000000000E+00  0.14999999963E+04  0.15000000000E+04  0.10566000000E+00 0. -1.
        994   -1    0    0    0    0 -0.00000000000E+00 -0.00000000000E+00  0.11368683772E-12  0.17120000000E+03  0.17120000000E+03 0.  0.
         13    1    1    2    0    0 -0.52107626219E+02 -0.73781138559E+02  0.53856938180E+03  0.54609143126E+03  0.10566000000E+00 0. -1.
        994    1    1    2    0    0  0.12385703198E+03  0.18503748699E+03  0.18252416626E+03  0.33496857648E+03  0.17120000000E+03 0.  0.
        998    1    1    2    0    0 -0.71749405757E+02 -0.11125634843E+03  0.77890644822E+03  0.79013999226E+03  0.10000000000E+02 0.  0.
</event>
<event>
 5    1  0.5781797E-010  0.3827271E+03  0.7957747E-01  0.3439369E+00
         13   -1    0    0    0    0  0.00000000000E+00  0.00000000000E+00  0.14999999963E+04  0.15000000000E+04  0.10566000000E+00 0.  1.
        994   -1    0    0    0    0 -0.00000000000E+00 -0.00000000000E+00  0.11368683772E-12  0.17120000000E+03  0.17120000000E+03 0.  0.
         13    1    1    2    0    0  0.92682893007E+02  0.16100734742E+03  0.83340353063E+03  0.85385885286E+03  0.10566000000E+00 0.  1.
        994    1    1    2    0    0 -0.13624803392E+03 -0.18415172591E+03  0.20224191813E+03  0.35026649619E+03  0.17120000000E+03 0.  0.
        998    1    1    2    0    0  0.43565140916E+02  0.23144378490E+02  0.46435454752E+03  0.46707465095E+03  0.10000000000E+02 0.  1.
</event>
<event>
 5    1  0.5781797E-010  0.3855446E+03  0.7957747E-01  0.3427366E+00
         13   -1    0    0    0    0  0.00000000000E+00  0.00000000000E+00  0.14999999963E+04  0.15000000000E+04  0.10566000000E+00 0.  1.
        994   -1    0    0    0    0 -0.00000000000E+00 -0.00000000000E+00  0.11368683772E-12  0.17120000000E+03  0.17120000000E+03 0.  0.
         13    1    1    2    0    0  0.16376878222E+02 -0.22502392068E+03  0.84893992923E+03  0.87840934741E+03  0.10566000000E+00 0.  1.
        994    1    1    2    0    0 -0.11570554113E+02  0.27651613440E+03  0.31597534737E+03  0.45359112696E+03  0.17120000000E+03 0.  0.
        998    1    1    2    0    0 -0.48063241088E+01 -0.51492213720E+02  0.33508471968E+03  0.33919952563E+03  0.10000000000E+02 0. -1.
</event>
<event>
 5    1  0.5781797E-010  0.3862758E+03  0.7957747E-01  0.3424279E+00
         13   -1    0    0    0    0  0.00000000000E+00  0.00000000000E+00  0.14999999963E+04  0.15000000000E+04  0.10566000000E+00 0. -1.
        994   -1    0    0    0    0 -0.00000000000E+00 -0.00000000000E+00  0.11368683772E-12  0.17120000000E+03  0.17120000000E+03 0.  0.
         13    1    1    2    0    0 -0.53460960799E+01 -0.22959674371E+03  0.97020037164E+03  0.99701154345E+03  0.10566000000E+00 0. -1.
        994    1    1    2    0    0  0.18476380375E+02  0.26535435216E+03  0.28355471548E+03  0.42481410701E+03  0.17120000000E+03 0.  0.
        998    1    1    2    0    0 -0.13130284296E+02 -0.35757608446E+02  0.24624490915E+03  0.24937434955E+03  0.10000000000E+02 0.  1.
</event>
<event>
 5    1  0.5781797E-010  0.3831052E+03  0.7957747E-01  0.3437748E+00
         13   -1    0    0    0    0  0.00000000000E+00  0.00000000000E+00  0.14999999963E+04  0.15000000000E+04  0.10566000000E+00 0.  1.
        994   -1    0    0    0    0 -0.00000000000E+00 -0.00000000000E+00  0.11368683772E-12  0.17120000000E+03  0.17120000000E+03 0.  0.
         13    1    1    2    0    0 -0.23775865730E+02 -0.23475980120E+02  0.12448290691E+03  0.12888917220E+03  0.10566000000E+00 0.  1.
        994    1    1    2    0    0  0.14464264901E+03  0.15173024347E+02  0.76034770076E+02  0.23715489209E+03  0.17120000000E+03 0.  0.
        998    1    1    2    0    0 -0.12086678328E+03  0.83029557726E+01  0.12994823193E+04  0.13051559357E+04  0.10000000000E+02 0.  1.
</event>
<event>
 5    1  0.5781797E-010  0.3877904E+03  0.7957747E-01  0.3417923E+00
         13   -1    0    0    0    0  0.00000000000E+00  0.00000000000E+00  0.14999999963E+04  0.15000000000E+04  0.10566000000E+00 0. -1.
        994   -1    0    0    0    0 -0.00000000000E+00 -0.00000000000E+00  0.11368683772E-12  0.17120000000E+03  0.17120000000E+03 0.  0.
         13    1    1    2    0    0  0.89359220005E+01  0.69751680585E+01  0.67159147594E+02  0.68109220676E+02  0.10566000000E+00 0. -1.
        994    1    1    2    0    0 -0.81453861970E+02 -0.19288620650E+03  0.15912614049E+03  0.31379991854E+03  0.17120000000E+03 0.  0.
        998    1    1    2    0    0  0.72517939969E+02  0.18591103844E+03  0.12737147082E+04  0.12892908608E+04  0.10000000000E+02 0. -1.
</event>
<event>
 5    1  0.5781797E-010  0.3729648E+03  0.7957747E-01  0.3482375E+00
         13   -1    0    0    0    0  0.00000000000E+00  0.00000000000E+00  0.14999999963E+04  0.15000000000E+04  0.10566000000E+00 0. -1.
        994   -1    0    0    0    0 -0.00000000000E+00 -0.00000000000E+00  0.11368683772E-12  0.17120000000E+03  0.17120000000E+03 0.  0.
         13    1    1    2    0    0  0.29160456511E+01  0.34129811318E+02  0.31242507368E+02  0.46362191206E+02  0.10566000000E+00 0. -1.
        994    1    1    2    0    0  0.20110308716E+03 -0.22493071403E+03  0.44863637668E+03  0.56711578735E+03  0.17120000000E+03 0.  0.
        998    1    1    2    0    0 -0.20401913281E+03  0.19080090271E+03  0.10201211122E+04  0.10577220214E+04  0.10000000000E+02 0. -1.
</event>
<event>
 5    1  0.5781797E-010  0.3689102E+03  0.7957747E-01  0.3500914E+00
         13   -1    0    0    0    0  0.00000000000E+00  0.00000000000E+00  0.14999999963E+04  0.15000000000E+04  0.10566000000E+00 0.  1.
        994   -1    0    0    0    0 -0.00000000000E+00 -0.00000000000E+00  0.11368683772E-12  0.17120000000E+03  0.17120000000E+03 0.  0.
         13    1    1    2    0    0 -0.10605904249E+03 -0.45554998617E+02  0.60173202419E+03  0.61270320588E+03  0.10566000000E+00 0.  1.
        994    1    1    2    0    0  0.16746329481E+03 -0.71822015991E+02  0.13576195885E+03  0.28450502027E+03  0.17120000000E+03 0.  0.
        998    1    1    2    0    0 -0.61404252316E+02  0.11737701461E+03  0.76250601323E+03  0.77399177384E+03  0.10000000000E+02 0.  1.
</event>
<event>
 5    1  0.5781797E-010  0.3814026E+03  0.7957747E-01  0.3445074E+00
         13   -1    0    0    0    0  0.00000000000E+00  0.00000000000E+00  0.14999999963E+04  0.15000000000E+04  0.10566000000E+00 0. -1.
        994   -1    0    0    0    0 -0.00000000000E+00 -0.00000000000E+00  0.11368683772E-12  0.17120000000E+03  0.17120000000E+03 0.  0.
         13    1    1    2    0    0 -0.85285737478E+01  0.29234657505E+03  0.59454812122E+03  0.66259092669E+03  0.10566000000E+00 0. -1.
        994    1    1    2    0    0 -0.15440107773E+02 -0.33885052168E+03  0.70120550601E+03  0.79753161356E+03  0.17120000000E+03 0.  0.
        998    1    1    2    0    0  0.23968681521E+02  0.46503946637E+02  0.20424636905E+03  0.21107745975E+03  0.10000000000E+02 0.  1.
</event>
<event>
 5    1  0.5781797E-010  0.3784172E+03  0.7957747E-01  0.3458079E+00
         13   -1    0    0    0    0  0.00000000000E+00  0.00000000000E+00  0.14999999963E+04  0.15000000000E+04  0.10566000000E+00 0. -1.
        994   -1    0    0    0    0 -0.00000000000E+00 -0.00000000000E+00  0.11368683772E-12  0.17120000000E+03  0.17120000000E+03 0.  0.
         13    1    1    2    0    0 -0.73998267088E+01  0.26236492913E+02  0.83236297042E+02  0.87586547512E+02  0.10566000000E+00 0. -1.
        994    1    1    2    0    0  0.12716608354E+03  0.36606595890E+02  0.66233773919E+02  0.22629098186E+03  0.17120000000E+03 0.  0.
        998    1    1    2    0    0 -0.11976625683E+03 -0.62843088803E+02  0.13505299253E+04  0.13573224706E+04  0.10000000000E+02 0. -1.
</event>
<event>
 5    1  0.1073247E-009  0.3866057E+03  0.7957747E-01  0.3422891E+00
         13   -1    0    0    0    0  0.00000000000E+00  0.00000000000E+00  0.14999999963E+04  0.15000000000E+04  0.10566000000E+00 0.  1.
        994   -1    0    0    0    0 -0.00000000000E+00 -0.00000000000E+00  0.11368683772E-12  0.17120000000E+03  0.17120000000E+03 0.  0.
         13    1    1    2    0    0 -0.14046938007E+02 -0.19815754510E+01  0.77736124282E+02  0.79019992984E+02  0.10566000000E+00 0.  1.
        994    1    1    2    0    0  0.58873264935E+02  0.36802224878E+02  0.16767259314E+02  0.18550214572E+03  0.17120000000E+03 0.  0.
        998    1    1    2    0    0 -0.44826326928E+02 -0.34820649427E+02  0.14054966127E+04  0.14066778613E+04  0.10000000000E+02 0.  1.
</event>
<event>
 5    1  0.5781797E-010  0.3857515E+03  0.7957747E-01  0.3426491E+00
         13   -1    0    0    0    0  0.00000000000E+00  0.00000000000E+00  0.14999999963E+04  0.15000000000E+04  0.10566000000E+00 0. -1.
        994   -1    0    0    0    0 -0.00000000000E+00 -0.00000000000E+00  0.11368683772E-12  0.17120000000E+03  0.17120000000E+03 0.  0.
         13    1    1    2    0    0  0.30821369804E+02  0.31030403869E+02  0.25814728091E+03  0.26182603500E+03  0.10566000000E+00 0. -1.
        994    1    1    2    0    0 -0.10897045543E+03 -0.60385049478E+02  0.53946636812E+02  0.21849621045E+03  0.17120000000E+03 0.  0.
        998    1    1    2    0    0  0.78149085626E+02  0.29354645609E+02  0.11879060786E+04  0.11908777546E+04  0.10000000000E+02 0. -1.
</event>
<event>
 5    1  0.5781797E-010  0.3843996E+03  0.7957747E-01  0.3432223E+00
         13   -1    0    0    0    0  0.00000000000E+00  0.00000000000E+00  0.14999999963E+04  0.15000000000E+04  0.10566000000E+00 0.  1.
        994   -1    0    0    0    0 -0.00000000000E+00 -0.00000000000E+00  0.11368683772E-12  0.17120000000E+03  0.17120000000E+03 0.  0.
         13    1    1    2    0    0  0.17299160700E+02 -0.60828271080E+01  0.76503486007E+02  0.78670555367E+02  0.10566000000E+00 0.  1.
        994    1    1    2    0    0 -0.12089121118E+02  0.82022887076E+02  0.24916808543E+02  0.19184417688E+03  0.17120000000E+03 0.  0.
        998    1    1    2    0    0 -0.52100395823E+01 -0.75940059968E+02  0.13985797017E+04  0.14006852678E+04  0.10000000000E+02 0.  1.
</event>
<event>
 5    1  0.5781797E-010  0.3854407E+03  0.7957747E-01  0.3427805E+00
         13   -1    0    0    0    0  0.00000000000E+00  0.00000000000E+00  0.14999999963E+04  0.15000000000E+04  0.10566000000E+00 0.  1.
        994   -1    0    0    0    0 -0.00000000000E+00 -0.00000000000E+00  0.11368683772E-12  0.17120000000E+03  0.17120000000E+03 0.  0.
         13    1    1    2    0    0  0.10973399844E+03 -0.22497226560E+02  0.65350125098E+03  0.66303210466E+03  0.10566000000E+00 0.  1.
        994    1    1    2    0    0 -0.17215439531E+03  0.19490682865E+02  0.10711892733E+03  0.26608443610E+03  0.17120000000E+03 0.  0.
        998    1    1    2    0    0  0.62420396865E+02  0.30065436953E+01  0.73937981797E+03  0.74208345924E+03  0.10000000000E+02 0.  1.
</event>
<event>
 5    1  0.5781797E-010  0.3868259E+03  0.7957747E-01  0.3421965E+00
         13   -1    0    0    0    0  0.00000000000E+00  0.00000000000E+00  0.14999999963E+04  0.15000000000E+04  0.10566000000E+00 0.  1.
        994   -1    0    0    0    0 -0.00000000000E+00 -0.00000000000E+00  0.11368683772E-12  0.17120000000E+03  0.17120000000E+03 0.  0.
         13    1    1    2    0    0  0.19432766417E+03 -0.19027130609E+03  0.10827481848E+04  0.11163825751E+04  0.10566000000E+00 0.  1.
        994    1    1    2    0    0 -0.20570570250E+03  0.19741586534E+03  0.33935760892E+03  0.47514301706E+03  0.17120000000E+03 0.  0.
        998    1    1    2    0    0  0.11378038333E+02 -0.71445592485E+01  0.77894202543E+02  0.79674407892E+02  0.10000000000E+02 0.  1.
</event>
<event>
 5    1  0.6757052E-010  0.3862997E+03  0.7957747E-01  0.3424179E+00
         13   -1    0    0    0    0  0.00000000000E+00  0.00000000000E+00  0.14999999963E+04  0.15000000000E+04  0.10566000000E+00 0.  1.
        994   -1    0    0    0    0 -0.00000000000E+00 -0.00000000000E+00  0.11368683772E-12  0.17120000000E+03  0.17120000000E+03 0.  0.
         13    1    1    2    0    0 -0.17272426869E+02 -0.47078375849E+01  0.10572692418E+03  0.10723196410E+03  0.10566000000E+00 0.  1.
        994    1    1    2    0    0  0.70952681422E+02 -0.23892039831E+02  0.19561813341E+02  0.18787553622E+03  0.17120000000E+03 0.  0.
        998    1    1    2    0    0 -0.53680254553E+02  0.28599877416E+02  0.13747112588E+04  0.13760924997E+04  0.10000000000E+02 0.  1.
</event>
<event>
 5    1  0.5781797E-010  0.2601951E+03  0.7957747E-01  0.4228791E+00
         13   -1    0    0    0    0  0.00000000000E+00  0.00000000000E+00  0.14999999963E+04  0.15000000000E+04  0.10566000000E+00 0.  1.
        994   -1    0    0    0    0 -0.00000000000E+00 -0.00000000000E+00  0.11368683772E-12  0.17120000000E+03  0.17120000000E+03 0.  0.
         13    1    1    2    0    0 -0.70049798581E+02 -0.13268377155E+03  0.85465197465E+03  0.86772228648E+03  0.10566000000E+00 0.  1.
        994    1    1    2    0    0  0.31819140430E+01 -0.81335516682E+02  0.10126322140E+03  0.21491689291E+03  0.17120000000E+03 0.  0.
        998    1    1    2    0    0  0.66867884538E+02  0.21401928823E+03  0.54408480022E+03  0.58856082061E+03  0.10000000000E+02 0. -1.
</event>
<event>
 5    1  0.5781797E-010  0.3863279E+03  0.7957747E-01  0.3424060E+00
         13   -1    0    0    0    0  0.00000000000E+00  0.00000000000E+00  0.14999999963E+04  0.15000000000E+04  0.10566000000E+00 0.  1.
        994   -1    0    0    0    0 -0.00000000000E+00 -0.00000000000E+00  0.11368683772E-12  0.17120000000E+03  0.17120000000E+03 0.  0.
         13    1    1    2    0    0 -0.31478889262E+03 -0.51459054989E+02  0.53806733233E+03  0.62550503319E+03  0.10566000000E+00 0.  1.
        994    1    1    2    0    0  0.33762553969E+03  0.60746735100E+02  0.89426413759E+03  0.97298456239E+03  0.17120000000E+03 0.  0.
        998    1    1    2    0    0 -0.22836647070E+02 -0.92876801106E+01  0.67668526362E+02  0.72710404422E+02  0.10000000000E+02 0. -1.
</event>
<event>
 5    1  0.5781797E-010  0.3723320E+03  0.7957747E-01  0.3485242E+00
         13   -1    0    0    0    0  0.00000000000E+00  0.00000000000E+00  0.14999999963E+04  0.15000000000E+04  0.10566000000E+00 0. -1.
        994   -1    0    0    0    0 -0.00000000000E+00 -0.00000000000E+00  0.11368683772E-12  0.17120000000E+03  0.17120000000E+03 0.  0.
         13    1    1    2    0    0  0.19555552132E+03  0.69696493365E+02  0.12209641603E+04  0.12384882135E+04  0.10566000000E+00 0. -1.
        994    1    1    2    0    0 -0.22675478843E+03 -0.69279225419E+02  0.22289001096E+03  0.36770469420E+03  0.17120000000E+03 0.  0.
        998    1    1    2    0    0  0.31199267107E+02 -0.41726794657E+00  0.56145825010E+02  0.65007092280E+02  0.10000000000E+02 0. -1.
</event>
<event>
 5    1  0.5781797E-010  0.3880352E+03  0.7957747E-01  0.3416901E+00
         13   -1    0    0    0    0  0.00000000000E+00  0.00000000000E+00  0.14999999963E+04  0.15000000000E+04  0.10566000000E+00 0. -1.
        994   -1    0    0    0    0 -0.00000000000E+00 -0.00000000000E+00  0.11368683772E-12  0.17120000000E+03  0.17120000000E+03 0.  0.
         13    1    1    2    0    0 -0.64014221530E+02  0.69314721066E+02  0.41200729504E+03  0.42267289178E+03  0.10566000000E+00 0. -1.
        994    1    1    2    0    0  0.18984920479E+03 -0.18391892632E+03  0.27576657732E+03  0.41859949496E+03  0.17120000000E+03 0.  0.
        998    1    1    2    0    0 -0.12583498326E+03  0.11460420525E+03  0.81222612392E+03  0.82992761326E+03  0.10000000000E+02 0.  0.
</event>
<event>
 5    1  0.5781797E-010  0.3848210E+03  0.7957747E-01  0.3430432E+00
         13   -1    0    0    0    0  0.00000000000E+00  0.00000000000E+00  0.14999999963E+04  0.15000000000E+04  0.10566000000E+00 0.  1.
        994   -1    0    0    0    0 -0.00000000000E+00 -0.00000000000E+00  0.11368683772E-12  0.17120000000E+03  0.17120000000E+03 0.  0.
         13    1    1    2    0    0  0.40645065242E+02 -0.33075663334E+02  0.29974201226E+03  0.30428819548E+03  0.10566000000E+00 0.  1.
        994    1    1    2    0    0 -0.10257305092E+03  0.57309757648E+02  0.48549885965E+02  0.21324204680E+03  0.17120000000E+03 0.  0.
        998    1    1    2    0    0  0.61927985682E+02 -0.24234094314E+02  0.11517080981E+04  0.11536697577E+04  0.10000000000E+02 0.  1.
</event>
<event>
 5    1  0.5781797E-010  0.3880258E+03  0.7957747E-01  0.3416940E+00
         13   -1    0    0    0    0  0.00000000000E+00  0.00000000000E+00  0.14999999963E+04  0.15000000000E+04  0.10566000000E+00 0.  1.
        994   -1    0    0    0    0 -0.00000000000E+00 -0.00000000000E+00  0.11368683772E-12  0.17120000000E+03  0.17120000000E+03 0.  0.
         13    1    1    2    0    0  0.92164366073E+02  0.24782182188E+02  0.52746665644E+03  0.53603126004E+03  0.10566000000E+00 0.  1.
        994    1    1    2    0    0 -0.21689870873E+03 -0.76507516130E+02  0.19693087590E+03  0.34783567924E+03  0.17120000000E+03 0.  0.
        998    1    1    2    0    0  0.12473434266E+03  0.51725333942E+02  0.77560246395E+03  0.78733306071E+03  0.10000000000E+02 0.  0.
</event>
<event>
 5    1  0.5781797E-010  0.3872048E+03  0.7957747E-01  0.3420375E+00
         13   -1    0    0    0    0  0.00000000000E+00  0.00000000000E+00  0.14999999963E+04  0.15000000000E+04  0.10566000000E+00 0. -1.
        994   -1    0    0    0    0 -0.00000000000E+00 -0.00000000000E+00  0.11368683772E-12  0.17120000000E+03  0.17120000000E+03 0.  0.
         13    1    1    2    0    0 -0.21983935682E+02  0.22895955092E+02  0.17960658129E+03  0.18238983907E+03  0.10566000000E+00 0. -1.
        994    1    1    2    0    0  0.14000715384E+03 -0.24251905383E+03  0.32232407927E+03  0.46002146328E+03  0.17120000000E+03 0.  0.
        998    1    1    2    0    0 -0.11802321816E+03  0.21962309874E+03  0.99806933571E+03  0.10287886976E+04  0.10000000000E+02 0. -1.
</event>
<event>
 5    1  0.5781797E-010  0.3860330E+03  0.7957747E-01  0.3425303E+00
         13   -1    0    0    0    0  0.00000000000E+00  0.00000000000E+00  0.14999999963E+04  0.15000000000E+04  0.10566000000E+00 0. -1.
        994   -1    0    0    0    0 -0.00000000000E+00 -0.00000000000E+00  0.11368683772E-12  0.17120000000E+03  0.17120000000E+03 0.  0.
         13    1    1    2    0    0 -0.80744139230E+02 -0.18464744052E+02  0.44760465261E+03  0.45520379941E+03  0.10566000000E+00 0. -1.
        994    1    1    2    0    0  0.18517654283E+03  0.45407569790E+01  0.12305118140E+03  0.28064569074E+03  0.17120000000E+03 0.  0.
        998    1    1    2    0    0 -0.10443240360E+03  0.13923987073E+02  0.92934416226E+03  0.93535050985E+03  0.10000000000E+02 0. -1.
</event>
<event>
 5    1  0.5781797E-010  0.3824603E+03  0.7957747E-01  0.3440515E+00
         13   -1    0    0    0    0  0.00000000000E+00  0.00000000000E+00  0.14999999963E+04  0.15000000000E+04  0.10566000000E+00 0.  1.
        994   -1    0    0    0    0 -0.00000000000E+00 -0.00000000000E+00  0.11368683772E-12  0.17120000000E+03  0.17120000000E+03 0.  0.
         13    1    1    2    0    0 -0.18347201497E+03  0.12887997430E+03  0.10903401836E+04  0.11131548658E+04  0.10566000000E+00 0.  1.
        994    1    1    2    0    0  0.22917125911E+03 -0.12391647414E+03  0.27606134729E+03  0.41640613112E+03  0.17120000000E+03 0.  0.
        998    1    1    2    0    0 -0.45699244133E+02 -0.49635001633E+01  0.13359846541E+03  0.14163900313E+03  0.10000000000E+02 0.  1.
</event>
<event>
 5    1  0.5781797E-010  0.3848980E+03  0.7957747E-01  0.3430105E+00
         13   -1    0    0    0    0  0.00000000000E+00  0.00000000000E+00  0.14999999963E+04  0.15000000000E+04  0.10566000000E+00 0.  1.
        994   -1    0    0    0    0 -0.00000000000E+00 -0.00000000000E+00  0.11368683772E-12  0.17120000000E+03  0.17120000000E+03 0.  0.
         13    1    1    2    0    0  0.13638462789E+03 -0.30343233586E+03  0.83114730373E+03  0.89525292562E+03  0.10566000000E+00 0.  1.
        994    1    1    2    0    0 -0.14079544136E+03  0.30687517608E+03  0.62574712514E+03  0.73134440220E+03  0.17120000000E+03 0.  0.
        998    1    1    2    0    0  0.44108134722E+01 -0.34428402242E+01  0.43105567406E+02  0.44602672181E+02  0.10000000000E+02 0.  1.
</event>
<event>
 5    1  0.5781797E-010  0.3876365E+03  0.7957747E-01  0.3418567E+00
         13   -1    0    0    0    0  0.00000000000E+00  0.00000000000E+00  0.14999999963E+04  0.15000000000E+04  0.10566000000E+00 0. -1.
        994   -1    0    0    0    0 -0.00000000000E+00 -0.00000000000E+00  0.11368683772E-12  0.17120000000E+03  0.17120000000E+03 0.  0.
         13    1    1    2    0    0 -0.19145088180E+03  0.61108304650E+02  0.11318183736E+04  0.11495218602E+04  0.10566000000E+00 0. -1.
        994    1    1    2    0    0  0.21527508677E+03 -0.71181006755E+02  0.19101448860E+03  0.34235372579E+03  0.17120000000E+03 0.  0.
        998    1    1    2    0    0 -0.23824204976E+02  0.10072702105E+02  0.17716713410E+03  0.17932441406E+03  0.10000000000E+02 0. -1.
</event>
<event>
 5    1  0.5781797E-010  0.3878697E+03  0.7957747E-01  0.3417592E+00
         13   -1    0    0    0    0  0.00000000000E+00  0.00000000000E+00  0.14999999963E+04  0.15000000000E+04  0.10566000000E+00 0. -1.
        994   -1    0    0    0    0 -0.00000000000E+00 -0.00000000000E+00  0.11368683772E-12  0.17120000000E+03  0.17120000000E+03 0.  0.
         13    1    1    2    0    0 -0.17332889786E+02 -0.16532682762E+03  0.94783782483E+03  0.96230449564E+03  0.10566000000E+00 0. -1.
        994    1    1    2    0    0  0.25902709887E+02  0.21974435711E+03  0.18027385620E+03  0.33281621969E+03  0.17120000000E+03 0.  0.
        998    1    1    2    0    0 -0.85698201013E+01 -0.54417529493E+02  0.37188831526E+03  0.37607928467E+03  0.10000000000E+02 0. -1.
</event>
<event>
 5    1  0.5781797E-010  0.3854081E+03  0.7957747E-01  0.3427943E+00
         13   -1    0    0    0    0  0.00000000000E+00  0.00000000000E+00  0.14999999963E+04  0.15000000000E+04  0.10566000000E+00 0. -1.
        994   -1    0    0    0    0 -0.00000000000E+00 -0.00000000000E+00  0.11368683772E-12  0.17120000000E+03  0.17120000000E+03 0.  0.
         13    1    1    2    0    0 -0.22557768295E+03  0.65912705711E+02  0.10530970372E+04  0.10790009994E+04  0.10566000000E+00 0. -1.
        994    1    1    2    0    0  0.25110456873E+03 -0.56502137146E+02  0.26252034429E+03  0.40555192899E+03  0.17120000000E+03 0.  0.
        998    1    1    2    0    0 -0.25526885787E+02 -0.94105685650E+01  0.18438261477E+03  0.18664707158E+03  0.10000000000E+02 0. -1.
</event>
<event>
 5    1  0.5781797E-010  0.3849295E+03  0.7957747E-01  0.3429971E+00
         13   -1    0    0    0    0  0.00000000000E+00  0.00000000000E+00  0.14999999963E+04  0.15000000000E+04  0.10566000000E+00 0. -1.
        994   -1    0    0    0    0 -0.00000000000E+00 -0.00000000000E+00  0.11368683772E-12  0.17120000000E+03  0.17120000000E+03 0.  0.
         13    1    1    2    0    0 -0.56531410140E+02 -0.26579348073E+02  0.25271738550E+03  0.26032354902E+03  0.10566000000E+00 0. -1.
        994    1    1    2    0    0  0.18203904604E+03  0.61371988751E+02  0.13430923105E+03  0.29026392272E+03  0.17120000000E+03 0.  0.
        998    1    1    2    0    0 -0.12550763590E+03 -0.34792640678E+02  0.11129733797E+04  0.11206125283E+04  0.10000000000E+02 0. -1.
</event>
<event>
 5    1  0.5781797E-010  0.3880962E+03  0.7957747E-01  0.3416646E+00
         13   -1    0    0    0    0  0.00000000000E+00  0.00000000000E+00  0.14999999963E+04  0.15000000000E+04  0.10566000000E+00 0. -1.
        994   -1    0    0    0    0 -0.00000000000E+00 -0.00000000000E+00  0.11368683772E-12  0.17120000000E+03  0.17120000000E+03 0.  0.
         13    1    1    2    0    0 -0.57688432910E+01 -0.26494174302E+02  0.10899370133E+03  0.11231588898E+03  0.10566000000E+00 0. -1.
        994    1    1    2    0    0  0.75291480227E+02  0.25355667157E+03  0.27610862210E+03  0.41893341224E+03  0.17120000000E+03 0.  0.
        998    1    1    2    0    0 -0.69522636936E+02 -0.22706249727E+03  0.11148976729E+04  0.11399506988E+04  0.10000000000E+02 0. -1.
</event>
<event>
 5    1  0.5781797E-010  0.3866685E+03  0.7957747E-01  0.3422627E+00
         13   -1    0    0    0    0  0.00000000000E+00  0.00000000000E+00  0.14999999963E+04  0.15000000000E+04  0.10566000000E+00 0. -1.
        994   -1    0    0    0    0 -0.00000000000E+00 -0.00000000000E+00  0.11368683772E-12  0.17120000000E+03  0.17120000000E+03 0.  0.
         13    1    1    2    0    0 -0.58361296447E+02  0.30262108092E+03  0.95343709935E+03  0.10020119127E+04  0.10566000000E+00 0. -1.
        994    1    1    2    0    0  0.64498429838E+02 -0.31641044470E+03  0.50092092885E+03  0.62008615041E+03  0.17120000000E+03 0.  0.
        998    1    1    2    0    0 -0.61371333911E+01  0.13789363784E+02  0.45641968079E+02  0.49101936926E+02  0.10000000000E+02 0.  0.
</event>
<event>
 5    1  0.5781797E-010  0.3833371E+03  0.7957747E-01  0.3436756E+00
         13   -1    0    0    0    0  0.00000000000E+00  0.00000000000E+00  0.14999999963E+04  0.15000000000E+04  0.10566000000E+00 0. -1.
        994   -1    0    0    0    0 -0.00000000000E+00 -0.00000000000E+00  0.11368683772E-12  0.17120000000E+03  0.17120000000E+03 0.  0.
         13    1    1    2    0    0 -0.77538314456E+02 -0.10082221772E+03  0.68675839556E+03  0.69843712304E+03  0.10566000000E+00 0. -1.
        994    1    1    2    0    0  0.83003085408E+02  0.15883680074E+03  0.11710445639E+03  0.27411956363E+03  0.17120000000E+03 0.  0.
        998    1    1    2    0    0 -0.54647709526E+01 -0.58014583019E+02  0.69613714432E+03  0.69864331334E+03  0.10000000000E+02 0.  1.
</event>
<event>
 5    1  0.5781797E-010  0.3875791E+03  0.7957747E-01  0.3418807E+00
         13   -1    0    0    0    0  0.00000000000E+00  0.00000000000E+00  0.14999999963E+04  0.15000000000E+04  0.10566000000E+00 0.  1.
        994   -1    0    0    0    0 -0.00000000000E+00 -0.00000000000E+00  0.11368683772E-12  0.17120000000E+03  0.17120000000E+03 0.  0.
         13    1    1    2    0    0  0.98769561811E+02  0.11953155421E+03  0.59995395077E+03  0.61966763107E+03  0.10566000000E+00 0.  1.
        994    1    1    2    0    0 -0.18795336590E+03 -0.24158403975E+03  0.41482362388E+03  0.54321026771E+03  0.17120000000E+03 0.  0.
        998    1    1    2    0    0  0.89183804084E+02  0.12205248554E+03  0.48522242163E+03  0.50832210122E+03  0.10000000000E+02 0.  1.
</event>
<event>
 5    1  0.5781797E-010  0.3842933E+03  0.7957747E-01  0.3432675E+00
         13   -1    0    0    0    0  0.00000000000E+00  0.00000000000E+00  0.14999999963E+04  0.15000000000E+04  0.10566000000E+00 0. -1.
        994   -1    0    0    0    0 -0.00000000000E+00 -0.00000000000E+00  0.11368683772E-12  0.17120000000E+03  0.17120000000E+03 0.  0.
         13    1    1    2    0    0  0.52123665723E+01  0.91306550585E+02  0.29297820886E+03  0.30692066886E+03  0.10566000000E+00 0. -1.
        994    1    1    2    0    0 -0.85094239546E+02 -0.25486448728E+03  0.29495040453E+03  0.43416830563E+03  0.17120000000E+03 0.  0.
        998    1    1    2    0    0  0.79881872974E+02  0.16355793670E+03  0.91207138289E+03  0.93011102550E+03  0.10000000000E+02 0. -1.
</event>
<event>
 5    1  0.5781797E-010  0.3878360E+03  0.7957747E-01  0.3417733E+00
         13   -1    0    0    0    0  0.00000000000E+00  0.00000000000E+00  0.14999999963E+04  0.15000000000E+04  0.10566000000E+00 0. -1.
        994   -1    0    0    0    0 -0.00000000000E+00 -0.00000000000E+00  0.11368683772E-12  0.17120000000E+03  0.17120000000E+03 0.  0.
         13    1    1    2    0    0  0.20805289961E+03  0.16183899436E+03  0.77444311662E+03  0.81807091452E+03  0.10566000000E+00 0. -1.
        994    1    1    2    0    0 -0.26351071267E+03 -0.19966124140E+03  0.54311249803E+03  0.65847029738E+03  0.17120000000E+03 0.  0.
        998    1    1    2    0    0  0.55457813063E+02  0.37822247035E+02  0.18244438162E+03  0.19465878810E+03  0.10000000000E+02 0.  0.
</event>
<event>
 5    1  0.5781797E-010  0.3844245E+03  0.7957747E-01  0.3432117E+00
         13   -1    0    0    0    0  0.00000000000E+00  0.00000000000E+00  0.14999999963E+04  0.15000000000E+04  0.10566000000E+00 0.  1.
        994   -1    0    0    0    0 -0.00000000000E+00 -0.00000000000E+00  0.11368683772E-12  0.17120000000E+03  0.17120000000E+03 0.  0.
         13    1    1    2    0    0  0.23041988641E+03  0.12959555140E+02  0.96916564603E+03  0.99626469110E+03  0.10566000000E+00 0.  1.
        994    1    1    2    0    0 -0.25764544386E+03 -0.31425017532E+02  0.26986348864E+03  0.41170918009E+03  0.17120000000E+03 0.  0.
        998    1    1    2    0    0  0.27225557453E+02  0.18465462392E+02  0.26097086161E+03  0.26322612881E+03  0.10000000000E+02 0.  1.
</event>
<event>
 5    1  0.5781797E-010  0.3866465E+03  0.7957747E-01  0.3422719E+00
         13   -1    0    0    0    0  0.00000000000E+00  0.00000000000E+00  0.14999999963E+04  0.15000000000E+04  0.10566000000E+00 0. -1.
        994   -1    0    0    0    0 -0.00000000000E+00 -0.00000000000E+00  0.11368683772E-12  0.17120000000E+03  0.17120000000E+03 0.  0.
         13    1    1    2    0    0  0.32031366099E+02 -0.26850810897E+01  0.18003717672E+03  0.18288415524E+03  0.10566000000E+00 0. -1.
        994    1    1    2    0    0 -0.12930890869E+03  0.44782413965E+02  0.64664657357E+02  0.22851086709E+03  0.17120000000E+03 0.  0.
        998    1    1    2    0    0  0.97277542587E+02 -0.42097332876E+02  0.12552981622E+04  0.12598049777E+04  0.10000000000E+02 0. -1.
</event>
<event>
 5    1  0.5781797E-010  0.3847724E+03  0.7957747E-01  0.3430638E+00
         13   -1    0    0    0    0  0.00000000000E+00  0.00000000000E+00  0.14999999963E+04  0.15000000000E+04  0.10566000000E+00 0.  1.
        994   -1    0    0    0    0 -0.00000000000E+00 -0.00000000000E+00  0.11368683772E-12  0.17120000000E+03  0.17120000000E+03 0.  0.
         13    1    1    2    0    0 -0.70310114259E+01  0.89573014188E+01  0.34341640083E+02  0.36180488913E+02  0.10566000000E+00 0.  1.
        994    1    1    2    0    0 -0.58057955840E+02 -0.82629855067E+02  0.36060184088E+02  0.20201038602E+03  0.17120000000E+03 0.  0.
        998    1    1    2    0    0  0.65088967266E+02  0.73672553648E+02  0.14295981721E+04  0.14330091251E+04  0.10000000000E+02 0.  1.
</event>
<event>
 5    1  0.5781797E-010  0.3840225E+03  0.7957747E-01  0.3433829E+00
         13   -1    0    0    0    0  0.00000000000E+00  0.00000000000E+00  0.14999999963E+04  0.15000000000E+04  0.10566000000E+00 0. -1.
        994   -1    0    0    0    0 -0.00000000000E+00 -0.00000000000E+00  0.11368683772E-12  0.17120000000E+03  0.17120000000E+03 0.  0.
         13    1    1    2    0    0  0.21307911003E+03 -0.94746495962E+02  0.10145046015E+04  0.10409607117E+04  0.10566000000E+00 0. -1.
        994    1    1    2    0    0 -0.23102569778E+03  0.13660394470E+03  0.29463472761E+03  0.43376557431E+03  0.17120000000E+03 0.  0.
        998    1    1    2    0    0  0.17946587753E+02 -0.41857448733E+02  0.19086066717E+03  0.19647371402E+03  0.10000000000E+02 0.  1.
</event>
<event>
 5    1  0.5781797E-010  0.3850085E+03  0.7957747E-01  0.3429636E+00
         13   -1    0    0    0    0  0.00000000000E+00  0.00000000000E+00  0.14999999963E+04  0.15000000000E+04  0.10566000000E+00 0.  1.
        994   -1    0    0    0    0 -0.00000000000E+00 -0.00000000000E+00  0.11368683772E-12  0.17120000000E+03  0.17120000000E+03 0.  0.
         13    1    1    2    0    0  0.65957153391E+01  0.93098388885E+02  0.38956111547E+03  0.40058543074E+03  0.10566000000E+00 0.  1.
        994    1    1    2    0    0  0.36976558534E+02 -0.22357934360E+03  0.19422066700E+03  0.34407280662E+03  0.17120000000E+03 0.  0.
        998    1    1    2    0    0 -0.43572273874E+02  0.13048095471E+03  0.91621821382E+03  0.92654176264E+03  0.10000000000E+02 0. -1.
</event>
<event>
 5    1  0.5781797E-010  0.3865779E+03  0.7957747E-01  0.3423008E+00
         13   -1    0    0    0    0  0.00000000000E+00  0.00000000000E+00  0.14999999963E+04  0.15000000000E+04  0.10566000000E+00 0.  1.
        994   -1    0    0    0    0 -0.00000000000E+00 -0.00000000000E+00  0.11368683772E-12  0.17120000000E+03  0.17120000000E+03 0.  0.
         13    1    1    2    0    0  0.12272006903E+03 -0.29366950854E+03  0.83254756482E+03  0.89131220929E+03  0.10566000000E+00 0.  1.
        994    1    1    2    0    0 -0.13230326914E+03  0.30878048512E+03  0.59341359022E+03  0.70306377525E+03  0.17120000000E+03 0.  0.
        998    1    1    2    0    0  0.95832001158E+01 -0.15110976581E+02  0.74038841243E+02  0.76824015453E+02  0.10000000000E+02 0. -1.
</event>
<event>
 5    1  0.5781797E-010  0.3812020E+03  0.7957747E-01  0.3445941E+00
         13   -1    0    0    0    0  0.00000000000E+00  0.00000000000E+00  0.14999999963E+04  0.15000000000E+04  0.10566000000E+00 0. -1.
        994   -1    0    0    0    0 -0.00000000000E+00 -0.00000000000E+00  0.11368683772E-12  0.17120000000E+03  0.17120000000E+03 0.  0.
         13    1    1    2    0    0 -0.30957856671E+03  0.22565580594E+02  0.84325213332E+03  0.89856678434E+03  0.10566000000E+00 0. -1.
        994    1    1    2    0    0  0.32117883314E+03 -0.45173784273E+02  0.54022997890E+03  0.65295817917E+03  0.17120000000E+03 0.  0.
        998    1    1    2    0    0 -0.11600266427E+02  0.22608203679E+02  0.11651788406E+03  0.11967503649E+03  0.10000000000E+02 0.  1.
</event>
<event>
 5    1  0.5781797E-010  0.3761818E+03  0.7957747E-01  0.3467954E+00
         13   -1    0    0    0    0  0.00000000000E+00  0.00000000000E+00  0.14999999963E+04  0.15000000000E+04  0.10566000000E+00 0. -1.
        994   -1    0    0    0    0 -0.00000000000E+00 -0.00000000000E+00  0.11368683772E-12  0.17120000000E+03  0.17120000000E+03 0.  0.
         13    1    1    2    0    0  0.75941703382E+02  0.10806019749E+02  0.36964121516E+03  0.37751629301E+03  0.10566000000E+00 0. -1.
        994    1    1    2    0    0  0.55738092063E+01  0.12265489152E+03  0.70287445843E+02  0.22209244653E+03  0.17120000000E+03 0.  0.
        998    1    1    2    0    0 -0.81515512588E+02 -0.13346091127E+03  0.10600713353E+04  0.10715912605E+04  0.10000000000E+02 0. -1.
</event>
<event>
 5    1  0.5781797E-010  0.3800164E+03  0.7957747E-01  0.3451087E+00
         13   -1    0    0    0    0  0.00000000000E+00  0.00000000000E+00  0.14999999963E+04  0.15000000000E+04  0.10566000000E+00 0. -1.
        994   -1    0    0    0    0 -0.00000000000E+00 -0.00000000000E+00  0.11368683772E-12  0.17120000000E+03  0.17120000000E+03 0.  0.
         13    1    1    2    0    0  0.56697921900E+02 -0.29623908258E+02  0.27262515512E+03  0.28002984958E+03  0.10566000000E+00 0. -1.
        994    1    1    2    0    0 -0.13974861383E+03 -0.10069870920E+02  0.72810175343E+02  0.23289877415E+03  0.17120000000E+03 0.  0.
        998    1    1    2    0    0  0.83050691927E+02  0.39693779178E+02  0.11545646658E+04  0.11582713763E+04  0.10000000000E+02 0. -1.
</event>
<event>
 5    1  0.5781797E-010  0.3869755E+03  0.7957747E-01  0.3421337E+00
         13   -1    0    0    0    0  0.00000000000E+00  0.00000000000E+00  0.14999999963E+04  0.15000000000E+04  0.10566000000E+00 0.  1.
        994   -1    0    0    0    0 -0.00000000000E+00 -0.00000000000E+00  0.11368683772E-12  0.17120000000E+03  0.17120000000E+03 0.  0.
         13    1    1    2    0    0 -0.20493208260E+01  0.21015795217E+02  0.10766369292E+03  0.10971483628E+03  0.10566000000E+00 0.  1.
        994    1    1    2    0    0  0.85099131936E+02 -0.13657378828E+03  0.90382812210E+02  0.25173945786E+03  0.17120000000E+03 0.  0.
        998    1    1    2    0    0 -0.83049811110E+02  0.11555799306E+03  0.13019534912E+04  0.13097457059E+04  0.10000000000E+02 0.  1.
</event>
<event>
 5    1  0.5781797E-010  0.3840825E+03  0.7957747E-01  0.3433573E+00
         13   -1    0    0    0    0  0.00000000000E+00  0.00000000000E+00  0.14999999963E+04  0.15000000000E+04  0.10566000000E+00 0. -1.
        994   -1    0    0    0    0 -0.00000000000E+00 -0.00000000000E+00  0.11368683772E-12  0.17120000000E+03  0.17120000000E+03 0.  0.
         13    1    1    2    0    0  0.17192433442E+02 -0.24654825008E+03  0.10334951303E+04  0.10626353160E+04  0.10566000000E+00 0. -1.
        994    1    1    2    0    0 -0.45976703985E+02  0.27265928594E+03  0.31844561689E+03  0.45516370070E+03  0.17120000000E+03 0.  0.
        998    1    1    2    0    0  0.28784270543E+02 -0.26111035859E+02  0.14805924912E+03  0.15340098329E+03  0.10000000000E+02 0.  1.
</event>
<event>
 5    1  0.5781797E-010  0.3879414E+03  0.7957747E-01  0.3417292E+00
         13   -1    0    0    0    0  0.00000000000E+00  0.00000000000E+00  0.14999999963E+04  0.15000000000E+04  0.10566000000E+00 0.  1.
        994   -1    0    0    0    0 -0.00000000000E+00 -0.00000000000E+00  0.11368683772E-12  0.17120000000E+03  0.17120000000E+03 0.  0.
         13    1    1    2    0    0  0.39944644128E+02  0.13983425157E+03  0.71014946363E+03  0.72488720803E+03  0.10566000000E+00 0.  1.
        994    1    1    2    0    0 -0.82420190570E+02 -0.23768959006E+03  0.24399609502E+03  0.39004225851E+03  0.17120000000E+03 0.  0.
        998    1    1    2    0    0  0.42475546442E+02  0.97855338496E+02  0.54585443763E+03  0.55627053347E+03  0.10000000000E+02 0.  0.
</event>
<event>
 5    1  0.5781797E-010  0.2759587E+03  0.7957747E-01  0.4084161E+00
         13   -1    0    0    0    0  0.00000000000E+00  0.00000000000E+00  0.14999999963E+04  0.15000000000E+04  0.10566000000E+00 0.  1.
        994   -1    0    0    0    0 -0.00000000000E+00 -0.00000000000E+00  0.11368683772E-12  0.17120000000E+03  0.17120000000E+03 0.  0.
         13    1    1    2    0    0 -0.12090705862E+03 -0.29689404787E+02  0.72128742820E+03  0.73195323814E+03  0.10566000000E+00 0.  1.
        994    1    1    2    0    0 -0.82366500178E+01  0.13719882666E+03  0.10231473537E+03  0.24221706280E+03  0.17120000000E+03 0.  0.
        998    1    1    2    0    0  0.12914370864E+03 -0.10750942187E+03  0.67639783271E+03  0.69702969906E+03  0.10000000000E+02 0.  1.
</event>
<event>
 5    1  0.5781797E-010  0.3876579E+03  0.7957747E-01  0.3418477E+00
         13   -1    0    0    0    0  0.00000000000E+00  0.00000000000E+00  0.14999999963E+04  0.15000000000E+04  0.10566000000E+00 0. -1.
        994   -1    0    0    0    0 -0.00000000000E+00 -0.00000000000E+00  0.11368683772E-12  0.17120000000E+03  0.17120000000E+03 0.  0.
         13    1    1    2    0    0 -0.13514328435E+03  0.44163025544E+02  0.84236284574E+03  0.85427703655E+03  0.10566000000E+00 0. -1.
        994    1    1    2    0    0  0.22111989411E+03 -0.80742642999E+02  0.20845539054E+03  0.35801741831E+03  0.17120000000E+03 0.  0.
        998    1    1    2    0    0 -0.85976609764E+02  0.36579617456E+02  0.44918176000E+03  0.45890554514E+03  0.10000000000E+02 0.  0.
</event>
<event>
 5    1  0.5781797E-010  0.3874451E+03  0.7957747E-01  0.3419368E+00
         13   -1    0    0    0    0  0.00000000000E+00  0.00000000000E+00  0.14999999963E+04  0.15000000000E+04  0.10566000000E+00 0.  1.
        994   -1    0    0    0    0 -0.00000000000E+00 -0.00000000000E+00  0.11368683772E-12  0.17120000000E+03  0.17120000000E+03 0.  0.
         13    1    1    2    0    0  0.15991564275E+03  0.96553910929E+02  0.10473027581E+04  0.10638321056E+04  0.10566000000E+00 0.  1.
        994    1    1    2    0    0 -0.20241702520E+03 -0.12908807187E+03  0.21869703187E+03  0.36711607720E+03  0.17120000000E+03 0.  0.
        998    1    1    2    0    0  0.42501382457E+02  0.32534160936E+02  0.23400020631E+03  0.24025181725E+03  0.10000000000E+02 0.  0.
</event>
<event>
 5    1  0.5781797E-010  0.3786367E+03  0.7957747E-01  0.3457116E+00
         13   -1    0    0    0    0  0.00000000000E+00  0.00000000000E+00  0.14999999963E+04  0.15000000000E+04  0.10566000000E+00 0.  1.
        994   -1    0    0    0    0 -0.00000000000E+00 -0.00000000000E+00  0.11368683772E-12  0.17120000000E+03  0.17120000000E+03 0.  0.
         13    1    1    2    0    0  0.18733946719E+02  0.36994659055E+01  0.23337308616E+02  0.30154401754E+02  0.10566000000E+00 0.  1.
        994    1    1    2    0    0 -0.15428862351E+03 -0.15188430720E+02  0.90303159095E+02  0.24799146823E+03  0.17120000000E+03 0.  0.
        998    1    1    2    0    0  0.13555467679E+03  0.11488964815E+02  0.13863595286E+04  0.13930541300E+04  0.10000000000E+02 0.  1.
</event>
<event>
 5    1  0.5781797E-010  0.3854028E+03  0.7957747E-01  0.3427966E+00
         13   -1    0    0    0    0  0.00000000000E+00  0.00000000000E+00  0.14999999963E+04  0.15000000000E+04  0.10566000000E+00 0. -1.
        994   -1    0    0    0    0 -0.00000000000E+00 -0.00000000000E+00  0.11368683772E-12  0.17120000000E+03  0.17120000000E+03 0.  0.
         13    1    1    2    0    0  0.64875129399E+02 -0.10100200579E+02  0.24796937163E+03  0.25651436002E+03  0.10566000000E+00 0. -1.
        994    1    1    2    0    0 -0.23493539527E+03 -0.34669041010E+02  0.21606924429E+03  0.36385703330E+03  0.17120000000E+03 0.  0.
        998    1    1    2    0    0  0.17006026587E+03  0.44769241589E+02  0.10359613804E+04  0.10508286067E+04  0.10000000000E+02 0. -1.
</event>
<event>
 5    1  0.5781797E-010  0.3710140E+03  0.7957747E-01  0.3491244E+00
         13   -1    0    0    0    0  0.00000000000E+00  0.00000000000E+00  0.14999999963E+04  0.15000000000E+04  0.10566000000E+00 0.  1.
        994   -1    0    0    0    0 -0.00000000000E+00 -0.00000000000E+00  0.11368683772E-12  0.17120000000E+03  0.17120000000E+03 0.  0.
         13    1    1    2    0    0  0.30787538844E+02 -0.11126622697E+03  0.40537123580E+03  0.42149008979E+03  0.10566000000E+00 0.  1.
        994    1    1    2    0    0  0.84715200001E+02  0.20524193016E+03  0.20418282799E+03  0.34684431991E+03  0.17120000000E+03 0.  0.
        998    1    1    2    0    0 -0.11550273884E+03 -0.93975703190E+02  0.89044593249E+03  0.90286559031E+03  0.10000000000E+02 0.  1.
</event>
<event>
 5    1  0.5781797E-010  0.3870368E+03  0.7957747E-01  0.3421079E+00
         13   -1    0    0    0    0  0.00000000000E+00  0.00000000000E+00  0.14999999963E+04  0.15000000000E+04  0.10566000000E+00 0. -1.
        994   -1    0    0    0    0 -0.00000000000E+00 -0.00000000000E+00  0.11368683772E-12  0.17120000000E+03  0.17120000000E+03 0.  0.
         13    1    1    2    0    0 -0.87669504789E+02 -0.17080888287E+03  0.11458674201E+04  0.11618406828E+04  0.10566000000E+00 0. -1.
        994    1    1    2    0    0  0.88234682483E+02  0.19694245761E+03  0.17127108996E+03  0.32436848962E+03  0.17120000000E+03 0.  0.
        998    1    1    2    0    0 -0.56517769412E+00 -0.26133574743E+02  0.18286148618E+03  0.18499082757E+03  0.10000000000E+02 0. -1.
</event>
<event>
 5    1  0.5781797E-010  0.3916347E+03  0.7957747E-01  0.3402012E+00
         13   -1    0    0    0    0  0.00000000000E+00  0.00000000000E+00  0.14999999963E+04  0.15000000000E+04  0.10566000000E+00 0.  1.
        994   -1    0    0    0    0 -0.00000000000E+00 -0.00000000000E+00  0.11368683772E-12  0.17120000000E+03  0.17120000000E+03 0.  0.
         13    1    1    2    0    0 -0.96885666424E+02 -0.10301957032E+03  0.32280943710E+03  0.35242844390E+03  0.10566000000E+00 0.  1.
        994    1    1    2    0    0  0.19052720188E+03  0.20570135184E+02  0.17996255954E+03  0.31371915459E+03  0.17120000000E+03 0.  0.
        998    1    1    2    0    0 -0.93641535457E+02  0.82449435136E+02  0.99722799964E+03  0.10050524015E+04  0.10000000000E+02 0.  1.
</event>
<event>
 5    1  0.5781797E-010  0.3873841E+03  0.7957747E-01  0.3419624E+00
         13   -1    0    0    0    0  0.00000000000E+00  0.00000000000E+00  0.14999999963E+04  0.15000000000E+04  0.10566000000E+00 0. -1.
        994   -1    0    0    0    0 -0.00000000000E+00 -0.00000000000E+00  0.11368683772E-12  0.17120000000E+03  0.17120000000E+03 0.  0.
         13    1    1    2    0    0 -0.19212655280E+03 -0.60961309181E+02  0.98810353205E+03  0.10084530206E+04  0.10566000000E+00 0. -1.
        994    1    1    2    0    0  0.23533469619E+03  0.67241308315E+02  0.22911475784E+03  0.37643966985E+03  0.17120000000E+03 0.  0.
        998    1    1    2    0    0 -0.43208143389E+02 -0.62799991343E+01  0.28278170638E+03  0.28630730956E+03  0.10000000000E+02 0.  0.
</event>
<event>
 5    1  0.5781797E-010  0.3836691E+03  0.7957747E-01  0.3435336E+00
         13   -1    0    0    0    0  0.00000000000E+00  0.00000000000E+00  0.14999999963E+04  0.15000000000E+04  0.10566000000E+00 0. -1.
        994   -1    0    0    0    0 -0.00000000000E+00 -0.00000000000E+00  0.11368683772E-12  0.17120000000E+03  0.17120000000E+03 0.  0.
         13    1    1    2    0    0 -0.39318315510E+02  0.88896258221E+01  0.16366787531E+03  0.16855901030E+03  0.10566000000E+00 0. -1.
        994    1    1    2    0    0  0.15728720909E+03  0.64515785703E+02  0.10445103575E+03  0.26290875151E+03  0.17120000000E+03 0.  0.
        998    1    1    2    0    0 -0.11796889358E+03 -0.73405411525E+02  0.12318810852E+04  0.12397322382E+04  0.10000000000E+02 0. -1.
</event>
<event>
 5    1  0.5781797E-010  0.3784822E+03  0.7957747E-01  0.3457794E+00
         13   -1    0    0    0    0  0.00000000000E+00  0.00000000000E+00  0.14999999963E+04  0.15000000000E+04  0.10566000000E+00 0.  1.
        994   -1    0    0    0    0 -0.00000000000E+00 -0.00000000000E+00  0.11368683772E-12  0.17120000000E+03  0.17120000000E+03 0.  0.
         13    1    1    2    0    0  0.62054373344E+02 -0.47646712877E+02  0.31895815205E+03  0.32841325860E+03  0.10566000000E+00 0.  1.
        994    1    1    2    0    0 -0.51434069158E+02  0.17115584096E+03  0.12101368494E+03  0.27548781698E+03  0.17120000000E+03 0.  0.
        998    1    1    2    0    0 -0.10620304186E+02 -0.12350912808E+03  0.10600281593E+04  0.10672989244E+04  0.10000000000E+02 0. -1.
</event>
<event>
 5    1  0.5781797E-010  0.3830853E+03  0.7957747E-01  0.3437833E+00
         13   -1    0    0    0    0  0.00000000000E+00  0.00000000000E+00  0.14999999963E+04  0.15000000000E+04  0.10566000000E+00 0. -1.
        994   -1    0    0    0    0 -0.00000000000E+00 -0.00000000000E+00  0.11368683772E-12  0.17120000000E+03  0.17120000000E+03 0.  0.
         13    1    1    2    0    0  0.11278118510E+02 -0.55445321642E+01  0.38087133735E+02  0.40107090573E+02  0.10566000000E+00 0. -1.
        994    1    1    2    0    0  0.19542660900E+02 -0.73052853232E+02  0.21743747962E+02  0.18841673369E+03  0.17120000000E+03 0.  0.
        998    1    1    2    0    0 -0.30820779410E+02  0.78597385396E+02  0.14401691146E+04  0.14426761757E+04  0.10000000000E+02 0. -1.
</event>
<event>
 5    1  0.5781797E-010  0.3860234E+03  0.7957747E-01  0.3425343E+00
         13   -1    0    0    0    0  0.00000000000E+00  0.00000000000E+00  0.14999999963E+04  0.15000000000E+04  0.10566000000E+00 0.  1.
        994   -1    0    0    0    0 -0.00000000000E+00 -0.00000000000E+00  0.11368683772E-12  0.17120000000E+03  0.17120000000E+03 0.  0.
         13    1    1    2    0    0 -0.15926723767E+03  0.26491689311E+03  0.74217426986E+03  0.80397118808E+03  0.10566000000E+00 0.  1.
        994    1    1    2    0    0  0.16771106346E+03 -0.29544531023E+03  0.63730099184E+03  0.74221083685E+03  0.17120000000E+03 0.  0.
        998    1    1    2    0    0 -0.84438257899E+01  0.30528417123E+02  0.12052473458E+03  0.12501797507E+03  0.10000000000E+02 0.  1.
</event>
<event>
 5    1  0.5781797E-010  0.3748590E+03  0.7957747E-01  0.3473854E+00
         13   -1    0    0    0    0  0.00000000000E+00  0.00000000000E+00  0.14999999963E+04  0.15000000000E+04  0.10566000000E+00 0. -1.
        994   -1    0    0    0    0 -0.00000000000E+00 -0.00000000000E+00  0.11368683772E-12  0.17120000000E+03  0.17120000000E+03 0.  0.
         13    1    1    2    0    0  0.92314612490E+01 -0.16393738057E+03  0.22548417909E+03  0.27893334474E+03  0.10566000000E+00 0. -1.
        994    1    1    2    0    0 -0.38748920161E+02  0.33016250180E+03  0.70307040222E+03  0.79632040467E+03  0.17120000000E+03 0.  0.
        998    1    1    2    0    0  0.29517458912E+02 -0.16622512123E+03  0.57144541496E+03  0.59594625059E+03  0.10000000000E+02 0. -1.
</event>
<event>
 5    1  0.5781797E-010  0.3869397E+03  0.7957747E-01  0.3421487E+00
         13   -1    0    0    0    0  0.00000000000E+00  0.00000000000E+00  0.14999999963E+04  0.15000000000E+04  0.10566000000E+00 0. -1.
        994   -1    0    0    0    0 -0.00000000000E+00 -0.00000000000E+00  0.11368683772E-12  0.17120000000E+03  0.17120000000E+03 0.  0.
         13    1    1    2    0    0 -0.13302997506E+03 -0.23946814828E+02  0.44978080418E+03  0.46965221939E+03  0.10566000000E+00 0. -1.
        994    1    1    2    0    0  0.28656859255E+03  0.43207227289E+02  0.35484442980E+03  0.48909347991E+03  0.17120000000E+03 0.  0.
        998    1    1    2    0    0 -0.15353861749E+03 -0.19260412461E+02  0.69537476230E+03  0.71245430070E+03  0.10000000000E+02 0.  0.
</event>
<event>
 5    1  0.5781797E-010  0.3878715E+03  0.7957747E-01  0.3417584E+00
         13   -1    0    0    0    0  0.00000000000E+00  0.00000000000E+00  0.14999999963E+04  0.15000000000E+04  0.10566000000E+00 0. -1.
        994   -1    0    0    0    0 -0.00000000000E+00 -0.00000000000E+00  0.11368683772E-12  0.17120000000E+03  0.17120000000E+03 0.  0.
         13    1    1    2    0    0 -0.17103943139E+03 -0.58140117006E+02  0.79564954389E+03  0.81590009692E+03  0.10566000000E+00 0. -1.
        994    1    1    2    0    0  0.26378101548E+03  0.93937767626E+02  0.32076720546E+03  0.45891804106E+03  0.17120000000E+03 0.  0.
        998    1    1    2    0    0 -0.92741584091E+02 -0.35797650620E+02  0.38358324693E+03  0.39638186202E+03  0.10000000000E+02 0.  1.
</event>
<event>
 5    1  0.5781797E-010  0.3869947E+03  0.7957747E-01  0.3421256E+00
         13   -1    0    0    0    0  0.00000000000E+00  0.00000000000E+00  0.14999999963E+04  0.15000000000E+04  0.10566000000E+00 0.  1.
        994   -1    0    0    0    0 -0.00000000000E+00 -0.00000000000E+00  0.11368683772E-12  0.17120000000E+03  0.17120000000E+03 0.  0.
         13    1    1    2    0    0  0.21536779549E+02  0.52035486429E+01  0.92151825904E+02  0.94778056391E+02  0.10566000000E+00 0.  1.
        994    1    1    2    0    0 -0.21241119099E+03  0.48591099595E+02  0.17512103174E+03  0.32780546789E+03  0.17120000000E+03 0.  0.
        998    1    1    2    0    0  0.19087441144E+03 -0.53794648238E+02  0.12327271386E+04  0.12486164757E+04  0.10000000000E+02 0.  1.
</event>
<event>
 5    1  0.5781797E-010  0.3866696E+03  0.7957747E-01  0.3422622E+00
         13   -1    0    0    0    0  0.00000000000E+00  0.00000000000E+00  0.14999999963E+04  0.15000000000E+04  0.10566000000E+00 0. -1.
        994   -1    0    0    0    0 -0.00000000000E+00 -0.00000000000E+00  0.11368683772E-12  0.17120000000E+03  0.17120000000E+03 0.  0.
         13    1    1    2    0    0 -0.13971306912E+03 -0.98720991876E+02  0.71784357020E+03  0.73794646036E+03  0.10566000000E+00 0. -1.
        994    1    1    2    0    0  0.21146662242E+03  0.14420743401E+03  0.25674971422E+03  0.40092863726E+03  0.17120000000E+03 0.  0.
        998    1    1    2    0    0 -0.71753553301E+02 -0.45486442130E+02  0.52540671186E+03  0.53232490238E+03  0.10000000000E+02 0. -1.
</event>
<event>
 5    1  0.5781797E-010  0.3864886E+03  0.7957747E-01  0.3423383E+00
         13   -1    0    0    0    0  0.00000000000E+00  0.00000000000E+00  0.14999999963E+04  0.15000000000E+04  0.10566000000E+00 0.  1.
        994   -1    0    0    0    0 -0.00000000000E+00 -0.00000000000E+00  0.11368683772E-12  0.17120000000E+03  0.17120000000E+03 0.  0.
         13    1    1    2    0    0  0.67772270516E+02  0.15064828310E+03  0.87626092007E+03  0.89169568635E+03  0.10566000000E+00 0.  1.
        994    1    1    2    0    0 -0.81438726046E+02 -0.20003370769E+03  0.17223637444E+03  0.32499316761E+03  0.17120000000E+03 0.  0.
        998    1    1    2    0    0  0.13666455531E+02  0.49385424591E+02  0.45150270177E+03  0.45451114604E+03  0.10000000000E+02 0. -1.
</event>
<event>
 5    1  0.5781797E-010  0.3201931E+03  0.7957747E-01  0.3761633E+00
         13   -1    0    0    0    0  0.00000000000E+00  0.00000000000E+00  0.14999999963E+04  0.15000000000E+04  0.10566000000E+00 0. -1.
        994   -1    0    0    0    0 -0.00000000000E+00 -0.00000000000E+00  0.11368683772E-12  0.17120000000E+03  0.17120000000E+03 0.  0.
         13    1    1    2    0    0  0.15841446941E+03  0.34305610623E+02  0.93734687194E+03  0.95125768777E+03  0.10566000000E+00 0. -1.
        994    1    1    2    0    0 -0.14207857272E+03 -0.15876184553E+03  0.20759214889E+03  0.34321361381E+03  0.17120000000E+03 0.  0.
        998    1    1    2    0    0 -0.16335896697E+02  0.12445623491E+03  0.35506097545E+03  0.37672869842E+03  0.10000000000E+02 0. -1.
</event>
<event>
 5    1  0.5781797E-010  0.3873297E+03  0.7957747E-01  0.3419851E+00
         13   -1    0    0    0    0  0.00000000000E+00  0.00000000000E+00  0.14999999963E+04  0.15000000000E+04  0.10566000000E+00 0.  1.
        994   -1    0    0    0    0 -0.00000000000E+00 -0.00000000000E+00  0.11368683772E-12  0.17120000000E+03  0.17120000000E+03 0.  0.
         13    1    1    2    0    0  0.16155204268E+03  0.16216592063E+03  0.10808035384E+04  0.11047774202E+04  0.10566000000E+00 0.  1.
        994    1    1    2    0    0 -0.18580148280E+03 -0.19053773192E+03  0.28191469378E+03  0.42380673999E+03  0.17120000000E+03 0.  0.
        998    1    1    2    0    0  0.24249440119E+02  0.28371811289E+02  0.13728176409E+03  0.14261583984E+03  0.10000000000E+02 0.  0.
</event>
<event>
 5    1  0.5781797E-010  0.3811116E+03  0.7957747E-01  0.3446333E+00
         13   -1    0    0    0    0  0.00000000000E+00  0.00000000000E+00  0.14999999963E+04  0.15000000000E+04  0.10566000000E+00 0. -1.
        994   -1    0    0    0    0 -0.00000000000E+00 -0.00000000000E+00  0.11368683772E-12  0.17120000000E+03  0.17120000000E+03 0.  0.
         13    1    1    2    0    0  0.26890960399E+03  0.13256663434E+03  0.10456130961E+04  0.10877467745E+04  0.10566000000E+00 0. -1.
        994    1    1    2    0    0 -0.26950050609E+03 -0.14379467251E+03  0.42713819918E+03  0.55232591087E+03  0.17120000000E+03 0.  0.
        998    1    1    2    0    0  0.59090209781E+00  0.11228038167E+02  0.27248701048E+02  0.31127314616E+02  0.10000000000E+02 0.  1.
</event>
<event>
 5    1  0.5781797E-010  0.3821141E+03  0.7957747E-01  0.3442005E+00
         13   -1    0    0    0    0  0.00000000000E+00  0.00000000000E+00  0.14999999963E+04  0.15000000000E+04  0.10566000000E+00 0.  1.
        994   -1    0    0    0    0 -0.00000000000E+00 -0.00000000000E+00  0.11368683772E-12  0.17120000000E+03  0.17120000000E+03 0.  0.
         13    1    1    2    0    0 -0.29160890206E+03 -0.83580638813E+02  0.10756390079E+04  0.11175959742E+04  0.10566000000E+00 0.  1.
        994    1    1    2    0    0  0.28675216006E+03  0.77993143402E+02  0.40669438814E+03  0.53199576790E+03  0.17120000000E+03 0.  0.
        998    1    1    2    0    0  0.48567420065E+01  0.55874954116E+01  0.17666600226E+02  0.21608257945E+02  0.10000000000E+02 0.  1.
</event>
<event>
 5    1  0.5781797E-010  0.3863166E+03  0.7957747E-01  0.3424107E+00
         13   -1    0    0    0    0  0.00000000000E+00  0.00000000000E+00  0.14999999963E+04  0.15000000000E+04  0.10566000000E+00 0.  1.
        994   -1    0    0    0    0 -0.00000000000E+00 -0.00000000000E+00  0.11368683772E-12  0.17120000000E+03  0.17120000000E+03 0.  0.
         13    1    1    2    0    0 -0.11487151259E+03  0.87258956127E+02  0.85781230817E+03  0.86985720498E+03  0.10566000000E+00 0.  1.
        994    1    1    2    0    0  0.15493299572E+03 -0.11101009577E+03  0.13064087863E+03  0.28758295098E+03  0.17120000000E+03 0.  0.
        998    1    1    2    0    0 -0.40061483129E+02  0.23751139646E+02  0.51154680948E+03  0.51375984404E+03  0.10000000000E+02 0.  1.
</event>
<event>
 5    1  0.5781797E-010  0.3852888E+03  0.7957747E-01  0.3428448E+00
         13   -1    0    0    0    0  0.00000000000E+00  0.00000000000E+00  0.14999999963E+04  0.15000000000E+04  0.10566000000E+00 0.  1.
        994   -1    0    0    0    0 -0.00000000000E+00 -0.00000000000E+00  0.11368683772E-12  0.17120000000E+03  0.17120000000E+03 0.  0.
         13    1    1    2    0    0  0.53037556759E+01 -0.12662477852E+03  0.70458068658E+03  0.71588820316E+03  0.10566000000E+00 0.  1.
        994    1    1    2    0    0  0.60223474726E+01  0.18537933998E+03  0.12412105785E+03  0.28127787926E+03  0.17120000000E+03 0.  0.
        998    1    1    2    0    0 -0.11326103149E+02 -0.58754561458E+02  0.67129825185E+03  0.67403391757E+03  0.10000000000E+02 0.  0.
</event>
<event>
 5    1  0.5781797E-010  0.3866934E+03  0.7957747E-01  0.3422522E+00
         13   -1    0    0    0    0  0.00000000000E+00  0.00000000000E+00  0.14999999963E+04  0.15000000000E+04  0.10566000000E+00 0.  1.
        994   -1    0    0    0    0 -0.00000000000E+00 -0.00000000000E+00  0.11368683772E-12  0.17120000000E+03  0.17120000000E+03 0.  0.
         13    1    1    2    0    0  0.12375663300E+03 -0.29864193097E+02  0.65326912391E+03  0.66555851258E+03  0.10566000000E+00 0.  1.
        994    1    1    2    0    0 -0.20647151399E+03  0.48105644065E+02  0.16491947395E+03  0.31851610943E+03  0.17120000000E+03 0.  0.
        998    1    1    2    0    0  0.82714880985E+02 -0.18241450968E+02  0.68181139842E+03  0.68712537799E+03  0.10000000000E+02 0.  1.
</event>
<event>
 5    1  0.5781797E-010  0.3871342E+03  0.7957747E-01  0.3420671E+00
         13   -1    0    0    0    0  0.00000000000E+00  0.00000000000E+00  0.14999999963E+04  0.15000000000E+04  0.10566000000E+00 0.  1.
        994   -1    0    0    0    0 -0.00000000000E+00 -0.00000000000E+00  0.11368683772E-12  0.17120000000E+03  0.17120000000E+03 0.  0.
         13    1    1    2    0    0  0.14171741912E+02 -0.29154067419E+02  0.14665425200E+03  0.15019413673E+03  0.10566000000E+00 0.  1.
        994    1    1    2    0    0 -0.60514959610E+02  0.30448377953E+03  0.43534399194E+03  0.56143233221E+03  0.17120000000E+03 0.  0.
        998    1    1    2    0    0  0.46343217698E+02 -0.27532971211E+03  0.91800175234E+03  0.95957353105E+03  0.10000000000E+02 0.  1.
</event>
<event>
 5    1  0.5781797E-010  0.3851282E+03  0.7957747E-01  0.3429129E+00
         13   -1    0    0    0    0  0.00000000000E+00  0.00000000000E+00  0.14999999963E+04  0.15000000000E+04  0.10566000000E+00 0. -1.
        994   -1    0    0    0    0 -0.00000000000E+00 -0.00000000000E+00  0.11368683772E-12  0.17120000000E+03  0.17120000000E+03 0.  0.
         13    1    1    2    0    0  0.30365925662E+02  0.21693121934E+03  0.12665233692E+04  0.12853259117E+04  0.10566000000E+00 0. -1.
        994    1    1    2    0    0 -0.30603133303E+02 -0.21647834761E+03  0.17875904930E+03  0.33024788335E+03  0.17120000000E+03 0.  0.
        998    1    1    2    0    0  0.23720764052E+00 -0.45287172912E+00  0.54717577811E+02  0.55626204992E+02  0.10000000000E+02 0.  0.
</event>
<event>
 5    1  0.5781797E-010  0.3855285E+03  0.7957747E-01  0.3427434E+00
         13   -1    0    0    0    0  0.00000000000E+00  0.00000000000E+00  0.14999999963E+04  0.15000000000E+04  0.10566000000E+00 0.  1.
        994   -1    0    0    0    0 -0.00000000000E+00 -0.00000000000E+00  0.11368683772E-12  0.17120000000E+03  0.17120000000E+03 0.  0.
         13    1    1    2    0    0 -0.11379944909E+02 -0.18439196128E+02  0.10762139527E+03  0.10978106843E+03  0.10566000000E+00 0.  1.
        994    1    1    2    0    0  0.47260918631E+02  0.54994480933E+02  0.18824531209E+02  0.18687372833E+03  0.17120000000E+03 0.  0.
        998    1    1    2    0    0 -0.35880973722E+02 -0.36555284805E+02  0.13735540698E+04  0.13745452032E+04  0.10000000000E+02 0.  1.
</event>
<event>
 5    1  0.5781797E-010  0.3873791E+03  0.7957747E-01  0.3419645E+00
         13   -1    0    0    0    0  0.00000000000E+00  0.00000000000E+00  0.14999999963E+04  0.15000000000E+04  0.10566000000E+00 0. -1.
        994   -1    0    0    0    0 -0.00000000000E+00 -0.00000000000E+00  0.11368683772E-12  0.17120000000E+03  0.17120000000E+03 0.  0.
         13    1    1    2    0    0 -0.24099413594E+02 -0.91620703191E+00  0.13538591143E+03  0.13751718928E+03  0.10566000000E+00 0. -1.
        994    1    1    2    0    0  0.17271521594E+03  0.89567754895E+02  0.13556858512E+03  0.29247428913E+03  0.17120000000E+03 0.  0.
        998    1    1    2    0    0 -0.14861580234E+03 -0.88651547863E+02  0.12290454997E+04  0.12412085216E+04  0.10000000000E+02 0. -1.
</event>
<event>
 5    1  0.5781797E-010  0.3844236E+03  0.7957747E-01  0.3432120E+00
         13   -1    0    0    0    0  0.00000000000E+00  0.00000000000E+00  0.14999999963E+04  0.15000000000E+04  0.10566000000E+00 0.  1.
        994   -1    0    0    0    0 -0.00000000000E+00 -0.00000000000E+00  0.11368683772E-12  0.17120000000E+03  0.17120000000E+03 0.  0.
         13    1    1    2    0    0  0.18533718868E+03  0.91571744090E+02  0.87883142130E+03  0.90281777566E+03  0.10566000000E+00 0.  1.
        994    1    1    2    0    0 -0.23863743086E+03 -0.88207791276E+02  0.25678670204E+03  0.39997160923E+03  0.17120000000E+03 0.  0.
        998    1    1    2    0    0  0.53300242174E+02 -0.33639528131E+01  0.36438187294E+03  0.36841061510E+03  0.10000000000E+02 0.  1.
</event>
<event>
 5    1  0.5781797E-010  0.3875989E+03  0.7957747E-01  0.3418724E+00
         13   -1    0    0    0    0  0.00000000000E+00  0.00000000000E+00  0.14999999963E+04  0.15000000000E+04  0.10566000000E+00 0.  1.
        994   -1    0    0    0    0 -0.00000000000E+00 -0.00000000000E+00  0.11368683772E-12  0.17120000000E+03  0.17120000000E+03 0.  0.
         13    1    1    2    0    0  0.16646354643E+03 -0.13737006566E+03  0.10194421712E+04  0.10420379066E+04  0.10566000000E+00 0.  1.
        994    1    1    2    0    0 -0.20031940006E+03  0.17386487895E+03  0.27902903280E+03  0.42133537629E+03  0.17120000000E+03 0.  0.
        998    1    1    2    0    0  0.33855853631E+02 -0.36494813292E+02  0.20152879226E+03  0.20782671708E+03  0.10000000000E+02 0.  1.
</event>
<event>
 5    1  0.5781797E-010  0.3721886E+03  0.7957747E-01  0.3485893E+00
         13   -1    0    0    0    0  0.00000000000E+00  0.00000000000E+00  0.14999999963E+04  0.15000000000E+04  0.10566000000E+00 0.  1.
        994   -1    0    0    0    0 -0.00000000000E+00 -0.00000000000E+00  0.11368683772E-12  0.17120000000E+03  0.17120000000E+03 0.  0.
         13    1    1    2    0    0  0.42139192568E+02 -0.72019652136E+02  0.40664906170E+03  0.41512168383E+03  0.10566000000E+00 0.  1.
        994    1    1    2    0    0 -0.10415914842E+02 -0.49703436701E+01  0.12570161297E+02  0.17204837853E+03  0.17120000000E+03 0.  0.
        998    1    1    2    0    0 -0.31723277726E+02  0.76989995806E+02  0.10807807733E+04  0.10840299376E+04  0.10000000000E+02 0.  1.
</event>
<event>
 5    1  0.5781797E-010  0.3880375E+03  0.7957747E-01  0.3416891E+00
         13   -1    0    0    0    0  0.00000000000E+00  0.00000000000E+00  0.14999999963E+04  0.15000000000E+04  0.10566000000E+00 0.  1.
        994   -1    0    0    0    0 -0.00000000000E+00 -0.00000000000E+00  0.11368683772E-12  0.17120000000E+03  0.17120000000E+03 0.  0.
         13    1    1    2    0    0 -0.10959944260E+01 -0.18453671516E+03  0.84988019108E+03  0.86968462721E+03  0.10566000000E+00 0.  1.
        994    1    1    2    0    0 -0.26551443270E+01  0.26697449981E+03  0.28288277832E+03  0.42498769348E+03  0.17120000000E+03 0.  0.
        998    1    1    2    0    0  0.37511387529E+01 -0.82437784644E+02  0.36723702687E+03  0.37652767931E+03  0.10000000000E+02 0.  0.
</event>
<event>
 5    1  0.5781797E-010  0.3864560E+03  0.7957747E-01  0.3423520E+00
         13   -1    0    0    0    0  0.00000000000E+00  0.00000000000E+00  0.14999999963E+04  0.15000000000E+04  0.10566000000E+00 0.  1.
        994   -1    0    0    0    0 -0.00000000000E+00 -0.00000000000E+00  0.11368683772E-12  0.17120000000E+03  0.17120000000E+03 0.  0.
         13    1    1    2    0    0 -0.13100241097E+03 -0.13888428771E+03  0.11413110932E+04  0.11571696072E+04  0.10566000000E+00 0.  1.
        994    1    1    2    0    0  0.16341761319E+03  0.16514154794E+03  0.20377201175E+03  0.35328390839E+03  0.17120000000E+03 0.  0.
        998    1    1    2    0    0 -0.32415202217E+02 -0.26257260230E+02  0.15491689131E+03  0.16074648445E+03  0.10000000000E+02 0.  0.
</event>
<event>
 5    1  0.5781797E-010  0.3877209E+03  0.7957747E-01  0.3418214E+00
         13   -1    0    0    0    0  0.00000000000E+00  0.00000000000E+00  0.14999999963E+04  0.15000000000E+04  0.10566000000E+00 0.  1.
        994   -1    0    0    0    0 -0.00000000000E+00 -0.00000000000E+00  0.11368683772E-12  0.17120000000E+03  0.17120000000E+03 0.  0.
         13    1    1    2    0    0  0.10612048075E+03  0.12253744151E+03  0.93420227150E+03  0.94816184074E+03  0.10566000000E+00 0.  1.
        994    1    1    2    0    0 -0.15423672085E+03 -0.15913511111E+03  0.18111105427E+03  0.33350202942E+03  0.17120000000E+03 0.  0.
        998    1    1    2    0    0  0.48116240106E+02  0.36597669600E+02  0.38468667051E+03  0.38953612984E+03  0.10000000000E+02 0. -1.
</event>
<event>
 5    1  0.7751779E-010  0.3870874E+03  0.7957747E-01  0.3420867E+00
         13   -1    0    0    0    0  0.00000000000E+00  0.00000000000E+00  0.14999999963E+04  0.15000000000E+04  0.10566000000E+00 0. -1.
        994   -1    0    0    0    0 -0.00000000000E+00 -0.00000000000E+00  0.11368683772E-12  0.17120000000E+03  0.17120000000E+03 0.  0.
         13    1    1    2    0    0  0.27810552241E+02 -0.20886988919E+03  0.12394868106E+04  0.12572699083E+04  0.10566000000E+00 0. -1.
        994    1    1    2    0    0 -0.28666724740E+02  0.21957587246E+03  0.18157154323E+03  0.33363604450E+03  0.17120000000E+03 0.  0.
        998    1    1    2    0    0  0.85617249842E+00 -0.10705983269E+02  0.78941642414E+02  0.80294047202E+02  0.10000000000E+02 0.  0.
</event>
<event>
 5    1  0.5781797E-010  0.3053341E+03  0.7957747E-01  0.3858659E+00
         13   -1    0    0    0    0  0.00000000000E+00  0.00000000000E+00  0.14999999963E+04  0.15000000000E+04  0.10566000000E+00 0.  1.
        994   -1    0    0    0    0 -0.00000000000E+00 -0.00000000000E+00  0.11368683772E-12  0.17120000000E+03  0.17120000000E+03 0.  0.
         13    1    1    2    0    0  0.24466741440E+01 -0.21537146651E+03  0.77944227238E+03  0.80865389503E+03  0.10566000000E+00 0.  1.
        994    1    1    2    0    0 -0.15658362010E+03  0.21896536728E+03  0.46497707152E+03  0.56389482991E+03  0.17120000000E+03 0.  0.
        998    1    1    2    0    0  0.15413694596E+03 -0.35939007728E+01  0.25558065237E+03  0.29865127507E+03  0.10000000000E+02 0.  1.
</event>
<event>
 5    1  0.5781797E-010  0.3872165E+03  0.7957747E-01  0.3420326E+00
         13   -1    0    0    0    0  0.00000000000E+00  0.00000000000E+00  0.14999999963E+04  0.15000000000E+04  0.10566000000E+00 0.  1.
        994   -1    0    0    0    0 -0.00000000000E+00 -0.00000000000E+00  0.11368683772E-12  0.17120000000E+03  0.17120000000E+03 0.  0.
         13    1    1    2    0    0 -0.28011055203E+03 -0.11407310382E+03  0.60305609217E+03  0.67464898713E+03  0.10566000000E+00 0.  1.
        994    1    1    2    0    0  0.32362535426E+03  0.12602287447E+03  0.78040977847E+03  0.87118539768E+03  0.17120000000E+03 0.  0.
        998    1    1    2    0    0 -0.43514802223E+02 -0.11949770647E+02  0.11653412565E+03  0.12536561519E+03  0.10000000000E+02 0.  0.
</event>
<event>
 5    1  0.5781797E-010  0.3881320E+03  0.7957747E-01  0.3416497E+00
         13   -1    0    0    0    0  0.00000000000E+00  0.00000000000E+00  0.14999999963E+04  0.15000000000E+04  0.10566000000E+00 0.  1.
        994   -1    0    0    0    0 -0.00000000000E+00 -0.00000000000E+00  0.11368683772E-12  0.17120000000E+03  0.17120000000E+03 0.  0.
         13    1    1    2    0    0 -0.52346478967E+02 -0.53122923566E+02  0.41151457593E+03  0.41821819214E+03  0.10566000000E+00 0.  1.
        994    1    1    2    0    0  0.16375231797E+03  0.17942913009E+03  0.22390070550E+03  0.37208950575E+03  0.17120000000E+03 0.  0.
        998    1    1    2    0    0 -0.11140583901E+03 -0.12630620652E+03  0.86458471484E+03  0.88089230210E+03  0.10000000000E+02 0.  1.
</event>
<event>
 5    1  0.5781797E-010  0.3869553E+03  0.7957747E-01  0.3421422E+00
         13   -1    0    0    0    0  0.00000000000E+00  0.00000000000E+00  0.14999999963E+04  0.15000000000E+04  0.10566000000E+00 0.  1.
        994   -1    0    0    0    0 -0.00000000000E+00 -0.00000000000E+00  0.11368683772E-12  0.17120000000E+03  0.17120000000E+03 0.  0.
         13    1    1    2    0    0 -0.44152756753E+02 -0.19552473613E+02  0.18107529109E+03  0.18740340808E+03  0.10566000000E+00 0.  1.
        994    1    1    2    0    0  0.20106898076E+03  0.16997723584E+03  0.27501594189E+03  0.41744964250E+03  0.17120000000E+03 0.  0.
        998    1    1    2    0    0 -0.15691622401E+03 -0.15042476223E+03  0.10439087633E+04  0.10663469494E+04  0.10000000000E+02 0.  1.
</event>
<event>
 5    1  0.5781797E-010  0.3791094E+03  0.7957747E-01  0.3455046E+00
         13   -1    0    0    0    0  0.00000000000E+00  0.00000000000E+00  0.14999999963E+04  0.15000000000E+04  0.10566000000E+00 0.  1.
        994   -1    0    0    0    0 -0.00000000000E+00 -0.00000000000E+00  0.11368683772E-12  0.17120000000E+03  0.17120000000E+03 0.  0.
         13    1    1    2    0    0  0.70839403074E+01  0.30141064360E+02  0.14100166141E+03  0.14436116395E+03  0.10566000000E+00 0.  1.
        994    1    1    2    0    0  0.91792409702E+02  0.22052450289E+01  0.33389836542E+02  0.19711679474E+03  0.17120000000E+03 0.  0.
        998    1    1    2    0    0 -0.98876350009E+02 -0.32346309389E+02  0.13256084983E+04  0.13297220413E+04  0.10000000000E+02 0.  1.
</event>
<event>
 5    1  0.5781797E-010  0.3876073E+03  0.7957747E-01  0.3418689E+00
         13   -1    0    0    0    0  0.00000000000E+00  0.00000000000E+00  0.14999999963E+04  0.15000000000E+04  0.10566000000E+00 0.  1.
        994   -1    0    0    0    0 -0.00000000000E+00 -0.00000000000E+00  0.11368683772E-12  0.17120000000E+03  0.17120000000E+03 0.  0.
         13    1    1    2    0    0  0.73036444849E+02 -0.17923992473E+03  0.96328240454E+03  0.98253461769E+03  0.10566000000E+00 0.  1.
        994    1    1    2    0    0 -0.97400504975E+02  0.24176553705E+03  0.26695509348E+03  0.41050200390E+03  0.17120000000E+03 0.  0.
        998    1    1    2    0    0  0.24364060127E+02 -0.62525612312E+02  0.26976249826E+03  0.27816337841E+03  0.10000000000E+02 0.  0.
</event>
<event>
 5    1  0.5781797E-010  0.3782309E+03  0.7957747E-01  0.3458898E+00
         13   -1    0    0    0    0  0.00000000000E+00  0.00000000000E+00  0.14999999963E+04  0.15000000000E+04  0.10566000000E+00 0. -1.
        994   -1    0    0    0    0 -0.00000000000E+00 -0.00000000000E+00  0.11368683772E-12  0.17120000000E+03  0.17120000000E+03 0.  0.
         13    1    1    2    0    0  0.20124889446E+03  0.10437008374E+03  0.12492238535E+04  0.12696276932E+04  0.10566000000E+00 0. -1.
        994    1    1    2    0    0 -0.19279456518E+03 -0.12080525765E+03  0.20393129760E+03  0.35023002267E+03  0.17120000000E+03 0.  0.
        998    1    1    2    0    0 -0.84543292824E+01  0.16435173902E+02  0.46844845157E+02  0.51342284158E+02  0.10000000000E+02 0.  1.
</event>
<event>
 5    1  0.5781797E-010  0.3879654E+03  0.7957747E-01  0.3417192E+00
         13   -1    0    0    0    0  0.00000000000E+00  0.00000000000E+00  0.14999999963E+04  0.15000000000E+04  0.10566000000E+00 0. -1.
        994   -1    0    0    0    0 -0.00000000000E+00 -0.00000000000E+00  0.11368683772E-12  0.17120000000E+03  0.17120000000E+03 0.  0.
         13    1    1    2    0    0 -0.13492867192E+03 -0.10961054206E+03  0.10321404033E+04  0.10466776203E+04  0.10566000000E+00 0. -1.
        994    1    1    2    0    0  0.16968310182E+03  0.13961197954E+03  0.17731545259E+03  0.33020307328E+03  0.17120000000E+03 0.  0.
        998    1    1    2    0    0 -0.34754429906E+02 -0.30001437483E+02  0.29054414036E+03  0.29431930645E+03  0.10000000000E+02 0. -1.
</event>
<event>
 5    1  0.6978030E-010  0.3865413E+03  0.7957747E-01  0.3423161E+00
         13   -1    0    0    0    0  0.00000000000E+00  0.00000000000E+00  0.14999999963E+04  0.15000000000E+04  0.10566000000E+00 0.  1.
        994   -1    0    0    0    0 -0.00000000000E+00 -0.00000000000E+00  0.11368683772E-12  0.17120000000E+03  0.17120000000E+03 0.  0.
         13    1    1    2    0    0 -0.22010920039E+01 -0.10696058887E+02  0.51267440851E+02  0.52417670085E+02  0.10566000000E+00 0.  1.
        994    1    1    2    0    0  0.60666876646E+02  0.43726347153E+02  0.19385241542E+02  0.18782356334E+03  0.17120000000E+03 0.  0.
        998    1    1    2    0    0 -0.58465784642E+02 -0.33030288266E+02  0.14293473139E+04  0.14309587666E+04  0.10000000000E+02 0.  1.
</event>
<event>
 5    1  0.5781797E-010  0.3878400E+03  0.7957747E-01  0.3417716E+00
         13   -1    0    0    0    0  0.00000000000E+00  0.00000000000E+00  0.14999999963E+04  0.15000000000E+04  0.10566000000E+00 0.  1.
        994   -1    0    0    0    0 -0.00000000000E+00 -0.00000000000E+00  0.11368683772E-12  0.17120000000E+03  0.17120000000E+03 0.  0.
         13    1    1    2    0    0  0.10366966371E+03  0.94346246607E+02  0.83452135036E+03  0.84621185811E+03  0.10566000000E+00 0.  1.
        994    1    1    2    0    0 -0.16546753753E+03 -0.13501364341E+03  0.16632622858E+03  0.32028431775E+03  0.17120000000E+03 0.  0.
        998    1    1    2    0    0  0.61797873824E+02  0.40667396799E+02  0.49915241734E+03  0.50470382414E+03  0.10000000000E+02 0.  1.
</event>
<event>
 5    1  0.5781797E-010  0.3841816E+03  0.7957747E-01  0.3433151E+00
         13   -1    0    0    0    0  0.00000000000E+00  0.00000000000E+00  0.14999999963E+04  0.15000000000E+04  0.10566000000E+00 0.  1.
        994   -1    0    0    0    0 -0.00000000000E+00 -0.00000000000E+00  0.11368683772E-12  0.17120000000E+03  0.17120000000E+03 0.  0.
         13    1    1    2    0    0 -0.10788814691E+02  0.17354215182E+01  0.32752829389E+02  0.34527803395E+02  0.10566000000E+00 0.  1.
        994    1    1    2    0    0 -0.32570005629E+02 -0.80103111201E+02  0.27094977907E+02  0.19370310147E+03  0.17120000000E+03 0.  0.
        998    1    1    2    0    0  0.43358820321E+02  0.78367689683E+02  0.14401521890E+04  0.14429690951E+04  0.10000000000E+02 0.  1.
</event>
<event>
 5    1  0.5781797E-010  0.3876588E+03  0.7957747E-01  0.3418474E+00
         13   -1    0    0    0    0  0.00000000000E+00  0.00000000000E+00  0.14999999963E+04  0.15000000000E+04  0.10566000000E+00 0. -1.
        994   -1    0    0    0    0 -0.00000000000E+00 -0.00000000000E+00  0.11368683772E-12  0.17120000000E+03  0.17120000000E+03 0.  0.
         13    1    1    2    0    0  0.25829765861E+02 -0.11447921927E+03  0.56998153203E+03  0.58193782011E+03  0.10566000000E+00 0. -1.
        994    1    1    2    0    0 -0.31891462505E+02  0.23967683046E+03  0.22211813434E+03  0.37028091234E+03  0.17120000000E+03 0.  0.
        998    1    1    2    0    0  0.60616966438E+01 -0.12519761119E+03  0.70790032991E+03  0.71898126756E+03  0.10000000000E+02 0. -1.
</event>
<event>
 5    1  0.5781797E-010  0.3881208E+03  0.7957747E-01  0.3416544E+00
         13   -1    0    0    0    0  0.00000000000E+00  0.00000000000E+00  0.14999999963E+04  0.15000000000E+04  0.10566000000E+00 0. -1.
        994   -1    0    0    0    0 -0.00000000000E+00 -0.00000000000E+00  0.11368683772E-12  0.17120000000E+03  0.17120000000E+03 0.  0.
         13    1    1    2    0    0  0.57962288936E+01 -0.55301528724E+02  0.14462375338E+03  0.15494481777E+03  0.10566000000E+00 0. -1.
        994    1    1    2    0    0 -0.16928014012E+02  0.34312146359E+03  0.65964388280E+03  0.76318961507E+03  0.17120000000E+03 0.  0.
        998    1    1    2    0    0  0.11131785118E+02 -0.28781993487E+03  0.69573236010E+03  0.75306556716E+03  0.10000000000E+02 0.  0.
</event>
<event>
 5    1  0.5781797E-010  0.3830309E+03  0.7957747E-01  0.3438067E+00
         13   -1    0    0    0    0  0.00000000000E+00  0.00000000000E+00  0.14999999963E+04  0.15000000000E+04  0.10566000000E+00 0.  1.
        994   -1    0    0    0    0 -0.00000000000E+00 -0.00000000000E+00  0.11368683772E-12  0.17120000000E+03  0.17120000000E+03 0.  0.
         13    1    1    2    0    0  0.40585599664E+02 -0.42038861389E+02  0.31336203621E+03  0.31876360154E+03  0.10566000000E+00 0.  1.
        994    1    1    2    0    0 -0.95028929997E+02  0.55919679711E+02  0.43948606953E+02  0.20832289401E+03  0.17120000000E+03 0.  0.
        998    1    1    2    0    0  0.54443330333E+02 -0.13880818322E+02  0.11426893531E+04  0.11441135045E+04  0.10000000000E+02 0.  1.
</event>
<event>
 5    1  0.5781797E-010  0.3872222E+03  0.7957747E-01  0.3420302E+00
         13   -1    0    0    0    0  0.00000000000E+00  0.00000000000E+00  0.14999999963E+04  0.15000000000E+04  0.10566000000E+00 0. -1.
        994   -1    0    0    0    0 -0.00000000000E+00 -0.00000000000E+00  0.11368683772E-12  0.17120000000E+03  0.17120000000E+03 0.  0.
         13    1    1    2    0    0  0.70068850190E+01 -0.13933684869E+02  0.91266427615E+02  0.92589502566E+02  0.10566000000E+00 0. -1.
        994    1    1    2    0    0 -0.49383322315E+01  0.11696755237E+03  0.46631318323E+02  0.21257872725E+03  0.17120000000E+03 0.  0.
        998    1    1    2    0    0 -0.20685527875E+01 -0.10303386750E+03  0.13621022503E+04  0.13660317702E+04  0.10000000000E+02 0. -1.
</event>
<event>
 5    1  0.5781797E-010  0.3851594E+03  0.7957747E-01  0.3428996E+00
         13   -1    0    0    0    0  0.00000000000E+00  0.00000000000E+00  0.14999999963E+04  0.15000000000E+04  0.10566000000E+00 0.  1.
        994   -1    0    0    0    0 -0.00000000000E+00 -0.00000000000E+00  0.11368683772E-12  0.17120000000E+03  0.17120000000E+03 0.  0.
         13    1    1    2    0    0  0.17115692191E+03 -0.80575596969E+02  0.66082100234E+03  0.68736564290E+03  0.10566000000E+00 0.  1.
        994    1    1    2    0    0 -0.24197069680E+03  0.15697475410E+03  0.35466249926E+03  0.48814528566E+03  0.17120000000E+03 0.  0.
        998    1    1    2    0    0  0.70813774885E+02 -0.76399157129E+02  0.48451649468E+03  0.49568907144E+03  0.10000000000E+02 0.  1.
</event>
<event>
 5    1  0.5781797E-010  0.3855067E+03  0.7957747E-01  0.3427526E+00
         13   -1    0    0    0    0  0.00000000000E+00  0.00000000000E+00  0.14999999963E+04  0.15000000000E+04  0.10566000000E+00 0.  1.
        994   -1    0    0    0    0 -0.00000000000E+00 -0.00000000000E+00  0.11368683772E-12  0.17120000000E+03  0.17120000000E+03 0.  0.
         13    1    1    2    0    0  0.12349399517E+03  0.13022925317E+03  0.34678092082E+03  0.39047079716E+03  0.10566000000E+00 0.  1.
        994    1    1    2    0    0 -0.27293305063E+03 -0.21128570598E+03  0.75506294756E+03  0.84768130477E+03  0.17120000000E+03 0.  0.
        998    1    1    2    0    0  0.14943905546E+03  0.81056452811E+02  0.39815612790E+03  0.43304789807E+03  0.10000000000E+02 0.  1.
</event>
<event>
 5    1  0.5781797E-010  0.3850604E+03  0.7957747E-01  0.3429416E+00
         13   -1    0    0    0    0  0.00000000000E+00  0.00000000000E+00  0.14999999963E+04  0.15000000000E+04  0.10566000000E+00 0. -1.
        994   -1    0    0    0    0 -0.00000000000E+00 -0.00000000000E+00  0.11368683772E-12  0.17120000000E+03  0.17120000000E+03 0.  0.
         13    1    1    2    0    0  0.92658699923E+02  0.13440066381E+03  0.58771371095E+03  0.60996441725E+03  0.10566000000E+00 0. -1.
        994    1    1    2    0    0 -0.13229196283E+03 -0.23456498516E+03  0.29511433608E+03  0.43465366334E+03  0.17120000000E+03 0.  0.
        998    1    1    2    0    0  0.39633262906E+02  0.10016432135E+03  0.61717194925E+03  0.62658191942E+03  0.10000000000E+02 0. -1.
</event>
<event>
 5    1  0.5781797E-010  0.3869306E+03  0.7957747E-01  0.3421525E+00
         13   -1    0    0    0    0  0.00000000000E+00  0.00000000000E+00  0.14999999963E+04  0.15000000000E+04  0.10566000000E+00 0. -1.
        994   -1    0    0    0    0 -0.00000000000E+00 -0.00000000000E+00  0.11368683772E-12  0.17120000000E+03  0.17120000000E+03 0.  0.
         13    1    1    2    0    0  0.10273234261E+02 -0.22890825829E+02  0.14111767762E+03  0.14333087369E+03  0.10566000000E+00 0. -1.
        994    1    1    2    0    0 -0.40293340806E+02  0.11764623419E+03  0.52951130030E+02  0.21812256166E+03  0.17120000000E+03 0.  0.
        998    1    1    2    0    0  0.30020106546E+02 -0.94755408361E+02  0.13059311886E+04  0.13097465647E+04  0.10000000000E+02 0. -1.
</event>
<event>
 5    1  0.5781797E-010  0.3877937E+03  0.7957747E-01  0.3417910E+00
         13   -1    0    0    0    0  0.00000000000E+00  0.00000000000E+00  0.14999999963E+04  0.15000000000E+04  0.10566000000E+00 0. -1.
        994   -1    0    0    0    0 -0.00000000000E+00 -0.00000000000E+00  0.11368683772E-12  0.17120000000E+03  0.17120000000E+03 0.  0.
         13    1    1    2    0    0  0.32671065227E+02 -0.94724124235E+02  0.46827375615E+03  0.47887407539E+03  0.10566000000E+00 0. -1.
        994    1    1    2    0    0 -0.58805982547E+02  0.24238798596E+03  0.23916724626E+03  0.38564295793E+03  0.17120000000E+03 0.  0.
        998    1    1    2    0    0  0.26134917320E+02 -0.14766386173E+03  0.79255899387E+03  0.80668296668E+03  0.10000000000E+02 0.  0.
</event>
<event>
 5    1  0.5781797E-010  0.3856815E+03  0.7957747E-01  0.3426787E+00
         13   -1    0    0    0    0  0.00000000000E+00  0.00000000000E+00  0.14999999963E+04  0.15000000000E+04  0.10566000000E+00 0.  1.
        994   -1    0    0    0    0 -0.00000000000E+00 -0.00000000000E+00  0.11368683772E-12  0.17120000000E+03  0.17120000000E+03 0.  0.
         13    1    1    2    0    0  0.46504357376E+01 -0.11134593063E+02  0.37008628493E+02  0.38926282409E+02  0.10566000000E+00 0.  1.
        994    1    1    2    0    0 -0.46067515147E+02  0.79799180060E+02  0.29665085390E+02  0.19667125459E+03  0.17120000000E+03 0.  0.
        998    1    1    2    0    0  0.41417079409E+02 -0.68664586997E+02  0.14333262824E+04  0.14356024630E+04  0.10000000000E+02 0.  1.
</event>
<event>
 5    1  0.5781797E-010  0.3878721E+03  0.7957747E-01  0.3417582E+00
         13   -1    0    0    0    0  0.00000000000E+00  0.00000000000E+00  0.14999999963E+04  0.15000000000E+04  0.10566000000E+00 0. -1.
        994   -1    0    0    0    0 -0.00000000000E+00 -0.00000000000E+00  0.11368683772E-12  0.17120000000E+03  0.17120000000E+03 0.  0.
         13    1    1    2    0    0 -0.12978425304E+03  0.94369739976E+02  0.96774774643E+03  0.98096142231E+03  0.10566000000E+00 0. -1.
        994    1    1    2    0    0  0.17491132448E+03 -0.12093440053E+03  0.16468537419E+03  0.31882567829E+03  0.17120000000E+03 0.  0.
        998    1    1    2    0    0 -0.45127071437E+02  0.26564660554E+02  0.36756687566E+03  0.37141289941E+03  0.10000000000E+02 0.  0.
</event>
<event>
 5    1  0.5781797E-010  0.3863267E+03  0.7957747E-01  0.3424065E+00
         13   -1    0    0    0    0  0.00000000000E+00  0.00000000000E+00  0.14999999963E+04  0.15000000000E+04  0.10566000000E+00 0. -1.
        994   -1    0    0    0    0 -0.00000000000E+00 -0.00000000000E+00  0.11368683772E-12  0.17120000000E+03  0.17120000000E+03 0.  0.
         13    1    1    2    0    0  0.71605090283E+02 -0.13312804338E+03  0.63046169375E+03  0.64833041216E+03  0.10566000000E+00 0. -1.
        994    1    1    2    0    0 -0.10848925965E+03  0.22526035564E+03  0.24294246387E+03  0.38838463928E+03  0.17120000000E+03 0.  0.
        998    1    1    2    0    0  0.36884169363E+02 -0.92132312256E+02  0.62659583866E+03  0.63448494855E+03  0.10000000000E+02 0. -1.
</event>
<event>
 5    1  0.5781797E-010  0.3835768E+03  0.7957747E-01  0.3435731E+00
         13   -1    0    0    0    0  0.00000000000E+00  0.00000000000E+00  0.14999999963E+04  0.15000000000E+04  0.10566000000E+00 0.  1.
        994   -1    0    0    0    0 -0.00000000000E+00 -0.00000000000E+00  0.11368683772E-12  0.17120000000E+03  0.17120000000E+03 0.  0.
         13    1    1    2    0    0 -0.49528793259E+02 -0.13546157055E+03  0.58670442753E+03  0.60417301736E+03  0.10566000000E+00 0.  1.
        994    1    1    2    0    0  0.38456159336E+02  0.30319951169E+03  0.42648785531E+03  0.55191498512E+03  0.17120000000E+03 0.  0.
        998    1    1    2    0    0  0.11072633922E+02 -0.16773794114E+03  0.48680771344E+03  0.51511199752E+03  0.10000000000E+02 0.  1.
</event>
<event>
 5    1  0.5781797E-010  0.3803757E+03  0.7957747E-01  0.3449524E+00
         13   -1    0    0    0    0  0.00000000000E+00  0.00000000000E+00  0.14999999963E+04  0.15000000000E+04  0.10566000000E+00 0. -1.
        994   -1    0    0    0    0 -0.00000000000E+00 -0.00000000000E+00  0.11368683772E-12  0.17120000000E+03  0.17120000000E+03 0.  0.
         13    1    1    2    0    0  0.18945767811E+02  0.47379240300E+02  0.16525889199E+03  0.17295735623E+03  0.10566000000E+00 0. -1.
        994    1    1    2    0    0 -0.27929109141E+02 -0.13877708006E+03  0.74036680295E+02  0.23415803022E+03  0.17120000000E+03 0.  0.
        998    1    1    2    0    0  0.89833413298E+01  0.91397839756E+02  0.12607044240E+04  0.12640846135E+04  0.10000000000E+02 0. -1.
</event>
<event>
 5    1  0.5781797E-010  0.3826287E+03  0.7957747E-01  0.3439792E+00
         13   -1    0    0    0    0  0.00000000000E+00  0.00000000000E+00  0.14999999963E+04  0.15000000000E+04  0.10566000000E+00 0.  1.
        994   -1    0    0    0    0 -0.00000000000E+00 -0.00000000000E+00  0.11368683772E-12  0.17120000000E+03  0.17120000000E+03 0.  0.
         13    1    1    2    0    0  0.15332589331E+01 -0.31039256963E+02  0.12340710607E+03  0.12726001472E+03  0.10566000000E+00 0.  1.
        994    1    1    2    0    0 -0.13207259005E+03  0.82954391820E+02  0.88113711036E+02  0.24778633182E+03  0.17120000000E+03 0.  0.
        998    1    1    2    0    0  0.13053933112E+03 -0.51915134857E+02  0.12884791792E+04  0.12961536535E+04  0.10000000000E+02 0.  1.
</event>
<event>
 5    1  0.5781797E-010  0.3844032E+03  0.7957747E-01  0.3432207E+00
         13   -1    0    0    0    0  0.00000000000E+00  0.00000000000E+00  0.14999999963E+04  0.15000000000E+04  0.10566000000E+00 0.  1.
        994   -1    0    0    0    0 -0.00000000000E+00 -0.00000000000E+00  0.11368683772E-12  0.17120000000E+03  0.17120000000E+03 0.  0.
         13    1    1    2    0    0  0.18199784700E+03 -0.10870460019E+03  0.87772328854E+03  0.90296073493E+03  0.10566000000E+00 0.  1.
        994    1    1    2    0    0 -0.22460726175E+03  0.11924844032E+03  0.25652924389E+03  0.39973154181E+03  0.17120000000E+03 0.  0.
        998    1    1    2    0    0  0.42609414746E+02 -0.10543840126E+02  0.36574746385E+03  0.36850772326E+03  0.10000000000E+02 0. -1.
</event>
<event>
 5    1  0.5781797E-010  0.3876332E+03  0.7957747E-01  0.3418581E+00
         13   -1    0    0    0    0  0.00000000000E+00  0.00000000000E+00  0.14999999963E+04  0.15000000000E+04  0.10566000000E+00 0. -1.
        994   -1    0    0    0    0 -0.00000000000E+00 -0.00000000000E+00  0.11368683772E-12  0.17120000000E+03  0.17120000000E+03 0.  0.
         13    1    1    2    0    0 -0.22316487295E+03  0.14534872213E+03  0.10091814114E+04  0.10437317394E+04  0.10566000000E+00 0. -1.
        994    1    1    2    0    0  0.24850517481E+03 -0.16085153954E+03  0.37510132669E+03  0.50758101320E+03  0.17120000000E+03 0.  0.
        998    1    1    2    0    0 -0.25340301856E+02  0.15502817417E+02  0.11571725818E+03  0.11988724739E+03  0.10000000000E+02 0.  0.
</event>
<event>
 5    1  0.5781797E-010  0.3184917E+03  0.7957747E-01  0.3772253E+00
         13   -1    0    0    0    0  0.00000000000E+00  0.00000000000E+00  0.14999999963E+04  0.15000000000E+04  0.10566000000E+00 0.  1.
        994   -1    0    0    0    0 -0.00000000000E+00 -0.00000000000E+00  0.11368683772E-12  0.17120000000E+03  0.17120000000E+03 0.  0.
         13    1    1    2    0    0 -0.16447132772E+03 -0.18111470520E+03  0.53163425373E+03  0.58522503790E+03  0.10566000000E+00 0.  1.
        994    1    1    2    0    0  0.26699229787E+03  0.13768097093E+03  0.52423384501E+03  0.62799004859E+03  0.17120000000E+03 0.  0.
        998    1    1    2    0    0 -0.10252097014E+03  0.43433734266E+02  0.44413189753E+03  0.45798491351E+03  0.10000000000E+02 0.  1.
</event>
<event>
 5    1  0.5781797E-010  0.3724177E+03  0.7957747E-01  0.3484853E+00
         13   -1    0    0    0    0  0.00000000000E+00  0.00000000000E+00  0.14999999963E+04  0.15000000000E+04  0.10566000000E+00 0.  1.
        994   -1    0    0    0    0 -0.00000000000E+00 -0.00000000000E+00  0.11368683772E-12  0.17120000000E+03  0.17120000000E+03 0.  0.
         13    1    1    2    0    0  0.15966536996E+03 -0.27477143429E+03  0.45922923809E+03  0.55846564420E+03  0.10566000000E+00 0.  1.
        994    1    1    2    0    0 -0.16528822482E+03  0.25880022739E+03  0.10336740550E+04  0.10918283963E+04  0.17120000000E+03 0.  0.
        998    1    1    2    0    0  0.56228548667E+01  0.15971206908E+02  0.70967031819E+01  0.20905959509E+02  0.10000000000E+02 0.  1.
</event>
<event>
 5    1  0.5781797E-010  0.3863529E+03  0.7957747E-01  0.3423954E+00
         13   -1    0    0    0    0  0.00000000000E+00  0.00000000000E+00  0.14999999963E+04  0.15000000000E+04  0.10566000000E+00 0.  1.
        994   -1    0    0    0    0 -0.00000000000E+00 -0.00000000000E+00  0.11368683772E-12  0.17120000000E+03  0.17120000000E+03 0.  0.
         13    1    1    2    0    0 -0.15206748397E+02  0.70856018368E+02  0.37656580620E+03  0.38347573339E+03  0.10566000000E+00 0.  1.
        994    1    1    2    0    0  0.93107735295E+02 -0.17907583624E+03  0.14813156416E+03  0.30329788294E+03  0.17120000000E+03 0.  0.
        998    1    1    2    0    0 -0.77900986897E+02  0.10821981787E+03  0.97530262592E+03  0.98442638367E+03  0.10000000000E+02 0.  1.
</event>
<event>
 5    1  0.5781797E-010  0.3849904E+03  0.7957747E-01  0.3429713E+00
         13   -1    0    0    0    0  0.00000000000E+00  0.00000000000E+00  0.14999999963E+04  0.15000000000E+04  0.10566000000E+00 0. -1.
        994   -1    0    0    0    0 -0.00000000000E+00 -0.00000000000E+00  0.11368683772E-12  0.17120000000E+03  0.17120000000E+03 0.  0.
         13    1    1    2    0    0  0.13928347450E+02  0.11373524192E+02  0.66032945313E+02  0.68437686591E+02  0.10566000000E+00 0. -1.
        994    1    1    2    0    0 -0.93786969752E+02 -0.13872079371E+02  0.31776247311E+02  0.19826144399E+03  0.17120000000E+03 0.  0.
        998    1    1    2    0    0  0.79858622301E+02  0.24985551788E+01  0.14021908037E+04  0.14045008694E+04  0.10000000000E+02 0. -1.
</event>
<event>
 5    1  0.5781797E-010  0.3874684E+03  0.7957747E-01  0.3419270E+00
         13   -1    0    0    0    0  0.00000000000E+00  0.00000000000E+00  0.14999999963E+04  0.15000000000E+04  0.10566000000E+00 0.  1.
        994   -1    0    0    0    0 -0.00000000000E+00 -0.00000000000E+00  0.11368683772E-12  0.17120000000E+03  0.17120000000E+03 0.  0.
         13    1    1    2    0    0  0.84013572110E+02 -0.19341843477E+03  0.84172847200E+03  0.86774178357E+03  0.10566000000E+00 0.  1.
        994    1    1    2    0    0 -0.10429798617E+03  0.25831825669E+03  0.31728899785E+03  0.45561841470E+03  0.17120000000E+03 0.  0.
        998    1    1    2    0    0  0.20284414062E+02 -0.64899821918E+02  0.34098252643E+03  0.34783980173E+03  0.10000000000E+02 0.  1.
</event>
<event>
 5    1  0.5781797E-010  0.3874643E+03  0.7957747E-01  0.3419288E+00
         13   -1    0    0    0    0  0.00000000000E+00  0.00000000000E+00  0.14999999963E+04  0.15000000000E+04  0.10566000000E+00 0.  1.
        994   -1    0    0    0    0 -0.00000000000E+00 -0.00000000000E+00  0.11368683772E-12  0.17120000000E+03  0.17120000000E+03 0.  0.
         13    1    1    2    0    0 -0.11454013404E+03  0.17048411291E+03  0.11858301316E+04  0.12034855160E+04  0.10566000000E+00 0.  1.
        994    1    1    2    0    0  0.13010183558E+03 -0.18658224649E+03  0.19265745547E+03  0.34375246541E+03  0.17120000000E+03 0.  0.
        998    1    1    2    0    0 -0.15561701536E+02  0.16098133585E+02  0.12151240924E+03  0.12396201861E+03  0.10000000000E+02 0.  0.
</event>
<event>
 5    1  0.5781797E-010  0.3881700E+03  0.7957747E-01  0.3416338E+00
         13   -1    0    0    0    0  0.00000000000E+00  0.00000000000E+00  0.14999999963E+04  0.15000000000E+04  0.10566000000E+00 0.  1.
        994   -1    0    0    0    0 -0.00000000000E+00 -0.00000000000E+00  0.11368683772E-12  0.17120000000E+03  0.17120000000E+03 0.  0.
         13    1    1    2    0    0  0.10963977161E+02 -0.41186438318E+01  0.37408045061E+02  0.39198788521E+02  0.10566000000E+00 0.  1.
        994    1    1    2    0    0 -0.29734163283E+03  0.73290092037E+02  0.41353134924E+03  0.54231088963E+03  0.17120000000E+03 0.  0.
        998    1    1    2    0    0  0.28637765567E+03 -0.69171448205E+02  0.10490606020E+04  0.10896903218E+04  0.10000000000E+02 0.  1.
</event>
<event>
 5    1  0.5781797E-010  0.3863501E+03  0.7957747E-01  0.3423966E+00
         13   -1    0    0    0    0  0.00000000000E+00  0.00000000000E+00  0.14999999963E+04  0.15000000000E+04  0.10566000000E+00 0. -1.
        994   -1    0    0    0    0 -0.00000000000E+00 -0.00000000000E+00  0.11368683772E-12  0.17120000000E+03  0.17120000000E+03 0.  0.
         13    1    1    2    0    0 -0.11169722646E+02  0.60725794664E+02  0.31988453389E+03  0.32578905910E+03  0.10566000000E+00 0. -1.
        994    1    1    2    0    0  0.24589894912E+02 -0.17073552861E+03  0.10532194726E+03  0.26487249052E+03  0.17120000000E+03 0.  0.
        998    1    1    2    0    0 -0.13420172266E+02  0.11000973394E+03  0.10747935151E+04  0.10805384504E+04  0.10000000000E+02 0. -1.
</event>
<event>
 5    1  0.5781797E-010  0.3857083E+03  0.7957747E-01  0.3426674E+00
         13   -1    0    0    0    0  0.00000000000E+00  0.00000000000E+00  0.14999999963E+04  0.15000000000E+04  0.10566000000E+00 0. -1.
        994   -1    0    0    0    0 -0.00000000000E+00 -0.00000000000E+00  0.11368683772E-12  0.17120000000E+03  0.17120000000E+03 0.  0.
         13    1    1    2    0    0  0.46328654283E+01  0.96040601159E+01  0.58264623981E+02  0.59232414981E+02  0.10566000000E+00 0. -1.
        994    1    1    2    0    0 -0.65364062940E+02  0.53695608930E+02  0.25120008245E+02  0.19260356683E+03  0.17120000000E+03 0.  0.
        998    1    1    2    0    0  0.60731197512E+02 -0.63299669046E+02  0.14166153641E+04  0.14193640182E+04  0.10000000000E+02 0. -1.
</event>
<event>
 5    1  0.5781797E-010  0.3879799E+03  0.7957747E-01  0.3417131E+00
         13   -1    0    0    0    0  0.00000000000E+00  0.00000000000E+00  0.14999999963E+04  0.15000000000E+04  0.10566000000E+00 0. -1.
        994   -1    0    0    0    0 -0.00000000000E+00 -0.00000000000E+00  0.11368683772E-12  0.17120000000E+03  0.17120000000E+03 0.  0.
         13    1    1    2    0    0  0.10787394754E+03  0.20205060206E+03  0.88498360253E+03  0.91414288942E+03  0.10566000000E+00 0. -1.
        994    1    1    2    0    0 -0.13633327497E+03 -0.25885471501E+03  0.36173003921E+03  0.49573237398E+03  0.17120000000E+03 0.  0.
        998    1    1    2    0    0  0.28459327426E+02  0.56804112948E+02  0.25328635454E+03  0.26132473660E+03  0.10000000000E+02 0.  0.
</event>
<event>
 5    1  0.5781797E-010  0.3860610E+03  0.7957747E-01  0.3425185E+00
         13   -1    0    0    0    0  0.00000000000E+00  0.00000000000E+00  0.14999999963E+04  0.15000000000E+04  0.10566000000E+00 0.  1.
        994   -1    0    0    0    0 -0.00000000000E+00 -0.00000000000E+00  0.11368683772E-12  0.17120000000E+03  0.17120000000E+03 0.  0.
         13    1    1    2    0    0  0.23968075701E+03  0.16148276789E+03  0.90858471231E+03  0.95344099986E+03  0.10566000000E+00 0.  1.
        994    1    1    2    0    0 -0.25441190277E+03 -0.18846144885E+03  0.46928131762E+03  0.59141992615E+03  0.17120000000E+03 0.  0.
        998    1    1    2    0    0  0.14731145760E+02  0.26978680964E+02  0.12213396634E+03  0.12633907399E+03  0.10000000000E+02 0. -1.
</event>
<event>
 5    1  0.5781797E-010  0.3828647E+03  0.7957747E-01  0.3438779E+00
         13   -1    0    0    0    0  0.00000000000E+00  0.00000000000E+00  0.14999999963E+04  0.15000000000E+04  0.10566000000E+00 0.  1.
        994   -1    0    0    0    0 -0.00000000000E+00 -0.00000000000E+00  0.11368683772E-12  0.17120000000E+03  0.17120000000E+03 0.  0.
         13    1    1    2    0    0  0.36942154394E+02 -0.21109937939E+03  0.12184917964E+04  0.12371943824E+04  0.10566000000E+00 0.  1.
        994    1    1    2    0    0 -0.22054308307E+02  0.21333347880E+03  0.17388137356E+03  0.32487187900E+03  0.17120000000E+03 0.  0.
        998    1    1    2    0    0 -0.14887846086E+02 -0.22340994072E+01  0.10762682633E+03  0.10913373863E+03  0.10000000000E+02 0.  1.
</event>
<event>
 5    1  0.5781797E-010  0.3450509E+03  0.7957747E-01  0.3619046E+00
         13   -1    0    0    0    0  0.00000000000E+00  0.00000000000E+00  0.14999999963E+04  0.15000000000E+04  0.10566000000E+00 0. -1.
        994   -1    0    0    0    0 -0.00000000000E+00 -0.00000000000E+00  0.11368683772E-12  0.17120000000E+03  0.17120000000E+03 0.  0.
         13    1    1    2    0    0  0.88491896062E+01 -0.25690263596E+03  0.87939987474E+03  0.91619944519E+03  0.10566000000E+00 0. -1.
        994    1    1    2    0    0  0.23985190523E+02  0.31066213350E+03  0.57701847707E+03  0.67775070154E+03  0.17120000000E+03 0.  0.
        998    1    1    2    0    0 -0.32834380129E+02 -0.53759497544E+02  0.43581644467E+02  0.77249853262E+02  0.10000000000E+02 0. -1.
</event>
<event>
 5    1  0.5781797E-010  0.3863190E+03  0.7957747E-01  0.3424097E+00
         13   -1    0    0    0    0  0.00000000000E+00  0.00000000000E+00  0.14999999963E+04  0.15000000000E+04  0.10566000000E+00 0. -1.
        994   -1    0    0    0    0 -0.00000000000E+00 -0.00000000000E+00  0.11368683772E-12  0.17120000000E+03  0.17120000000E+03 0.  0.
         13    1    1    2    0    0  0.64222389572E+02 -0.34836170388E+02  0.32079386686E+03  0.32900879968E+03  0.10566000000E+00 0. -1.
        994    1    1    2    0    0 -0.18631016414E+03  0.95845605765E+02  0.16103459315E+03  0.31486415737E+03  0.17120000000E+03 0.  0.
        998    1    1    2    0    0  0.12208777457E+03 -0.61009435377E+02  0.10181715363E+04  0.10273270429E+04  0.10000000000E+02 0.  1.
</event>
<event>
 5    1  0.5781797E-010  0.3853767E+03  0.7957747E-01  0.3428076E+00
         13   -1    0    0    0    0  0.00000000000E+00  0.00000000000E+00  0.14999999963E+04  0.15000000000E+04  0.10566000000E+00 0. -1.
        994   -1    0    0    0    0 -0.00000000000E+00 -0.00000000000E+00  0.11368683772E-12  0.17120000000E+03  0.17120000000E+03 0.  0.
         13    1    1    2    0    0  0.12096659490E+03  0.18538576216E+03  0.12443172395E+04  0.12638537105E+04  0.10566000000E+00 0. -1.
        994    1    1    2    0    0 -0.11668469398E+03 -0.19545698750E+03  0.19575654892E+03  0.34561368349E+03  0.17120000000E+03 0.  0.
        998    1    1    2    0    0 -0.42819009173E+01  0.10071225332E+02  0.59926207839E+02  0.61732605980E+02  0.10000000000E+02 0. -1.
</event>
<event>
 5    1  0.5781797E-010  0.2330808E+03  0.7957747E-01  0.4531284E+00
         13   -1    0    0    0    0  0.00000000000E+00  0.00000000000E+00  0.14999999963E+04  0.15000000000E+04  0.10566000000E+00 0. -1.
        994   -1    0    0    0    0 -0.00000000000E+00 -0.00000000000E+00  0.11368683772E-12  0.17120000000E+03  0.17120000000E+03 0.  0.
         13    1    1    2    0    0  0.82602614049E+02  0.15632483501E+03  0.45934993065E+03  0.49220221031E+03  0.10566000000E+00 0. -1.
        994    1    1    2    0    0 -0.19173694759E+03  0.72284883464E+02  0.33009914987E+03  0.42457396316E+03  0.17120000000E+03 0.  0.
        998    1    1    2    0    0  0.10913433354E+03 -0.22860971848E+03  0.71055091577E+03  0.75442382653E+03  0.10000000000E+02 0. -1.
</event>
<event>
 5    1  0.5781797E-010  0.3816351E+03  0.7957747E-01  0.3444070E+00
         13   -1    0    0    0    0  0.00000000000E+00  0.00000000000E+00  0.14999999963E+04  0.15000000000E+04  0.10566000000E+00 0.  1.
        994   -1    0    0    0    0 -0.00000000000E+00 -0.00000000000E+00  0.11368683772E-12  0.17120000000E+03  0.17120000000E+03 0.  0.
         13    1    1    2    0    0 -0.44548088181E+02  0.15226145405E+03  0.91942868444E+03  0.93301511214E+03  0.10566000000E+00 0.  1.
        994    1    1    2    0    0  0.12139969944E+03 -0.21123149241E+03  0.23551309289E+03  0.37964784647E+03  0.17120000000E+03 0.  0.
        998    1    1    2    0    0 -0.76851611262E+02  0.58970038364E+02  0.34505821895E+03  0.35853704138E+03  0.10000000000E+02 0. -1.
</event>
<event>
 5    1  0.5781797E-010  0.4067711E+03  0.7957747E-01  0.3342280E+00
         13   -1    0    0    0    0  0.00000000000E+00  0.00000000000E+00  0.14999999963E+04  0.15000000000E+04  0.10566000000E+00 0.  1.
        994   -1    0    0    0    0 -0.00000000000E+00 -0.00000000000E+00  0.11368683772E-12  0.17120000000E+03  0.17120000000E+03 0.  0.
         13    1    1    2    0    0 -0.67541145915E+01 -0.11017458539E+03  0.13389542339E+03  0.17352824813E+03  0.10566000000E+00 0.  1.
        994    1    1    2    0    0  0.24386261497E+03  0.91531602411E+02  0.42575538279E+03  0.52765907099E+03  0.17120000000E+03 0.  0.
        998    1    1    2    0    0 -0.23710850037E+03  0.18642982979E+02  0.94034919010E+03  0.97001268088E+03  0.10000000000E+02 0.  1.
</event>
<event>
 5    1  0.5781797E-010  0.3865008E+03  0.7957747E-01  0.3423332E+00
         13   -1    0    0    0    0  0.00000000000E+00  0.00000000000E+00  0.14999999963E+04  0.15000000000E+04  0.10566000000E+00 0.  1.
        994   -1    0    0    0    0 -0.00000000000E+00 -0.00000000000E+00  0.11368683772E-12  0.17120000000E+03  0.17120000000E+03 0.  0.
         13    1    1    2    0    0  0.81759145129E+02  0.27413597152E+03  0.10673403438E+04  0.11050115426E+04  0.10566000000E+00 0.  1.
        994    1    1    2    0    0 -0.82023623357E+02 -0.28673744768E+03  0.38666363284E+03  0.51745960582E+03  0.17120000000E+03 0.  0.
        998    1    1    2    0    0  0.26447822813E+00  0.12601476166E+02  0.45996019641E+02  0.48728851547E+02  0.10000000000E+02 0.  0.
</event>
<event>
 5    1  0.5781797E-010  0.3856132E+03  0.7957747E-01  0.3427076E+00
         13   -1    0    0    0    0  0.00000000000E+00  0.00000000000E+00  0.14999999963E+04  0.15000000000E+04  0.10566000000E+00 0.  1.
        994   -1    0    0    0    0 -0.00000000000E+00 -0.00000000000E+00  0.11368683772E-12  0.17120000000E+03  0.17120000000E+03 0.  0.
         13    1    1    2    0    0 -0.17540969751E+03  0.10564166368E+03  0.85864123992E+03  0.88271938528E+03  0.10566000000E+00 0.  1.
        994    1    1    2    0    0  0.25507918987E+03 -0.15478879501E+03  0.38979855362E+03  0.51988202178E+03  0.17120000000E+03 0.  0.
        998    1    1    2    0    0 -0.79669492354E+02  0.49147131338E+02  0.25156020273E+03  0.26859859294E+03  0.10000000000E+02 0. -1.
</event>
<event>
 5    1  0.5781797E-010  0.2982273E+03  0.7957747E-01  0.3908756E+00
         13   -1    0    0    0    0  0.00000000000E+00  0.00000000000E+00  0.14999999963E+04  0.15000000000E+04  0.10566000000E+00 0. -1.
        994   -1    0    0    0    0 -0.00000000000E+00 -0.00000000000E+00  0.11368683772E-12  0.17120000000E+03  0.17120000000E+03 0.  0.
         13    1    1    2    0    0  0.17167921859E+03 -0.50809820999E+02  0.89473590827E+03  0.91247342357E+03  0.10566000000E+00 0. -1.
        994    1    1    2    0    0 -0.34539482640E+02  0.26518038192E+02  0.46344922538E+02  0.18262933515E+03  0.17120000000E+03 0.  0.
        998    1    1    2    0    0 -0.13713973595E+03  0.24291782808E+02  0.55891916547E+03  0.57609724129E+03  0.10000000000E+02 0. -1.
</event>
<event>
 5    1  0.5781797E-010  0.3836606E+03  0.7957747E-01  0.3435373E+00
         13   -1    0    0    0    0  0.00000000000E+00  0.00000000000E+00  0.14999999963E+04  0.15000000000E+04  0.10566000000E+00 0.  1.
        994   -1    0    0    0    0 -0.00000000000E+00 -0.00000000000E+00  0.11368683772E-12  0.17120000000E+03  0.17120000000E+03 0.  0.
         13    1    1    2    0    0 -0.10745159491E+03 -0.69427255792E+02  0.51732375326E+03  0.53290699559E+03  0.10566000000E+00 0.  1.
        994    1    1    2    0    0  0.17785004155E+03  0.13514971972E+03  0.18963495021E+03  0.33936254708E+03  0.17120000000E+03 0.  0.
        998    1    1    2    0    0 -0.70398446638E+02 -0.65722463932E+02  0.79304129280E+03  0.79893045733E+03  0.10000000000E+02 0.  1.
</event>
<event>
 5    1  0.5781797E-010  0.3821927E+03  0.7957747E-01  0.3441666E+00
         13   -1    0    0    0    0  0.00000000000E+00  0.00000000000E+00  0.14999999963E+04  0.15000000000E+04  0.10566000000E+00 0.  1.
        994   -1    0    0    0    0 -0.00000000000E+00 -0.00000000000E+00  0.11368683772E-12  0.17120000000E+03  0.17120000000E+03 0.  0.
         13    1    1    2    0    0 -0.11327103816E+03 -0.65205067549E+02  0.36772221971E+03  0.39025846685E+03  0.10566000000E+00 0.  1.
        994    1    1    2    0    0  0.24970799695E+03  0.11888129066E+03  0.32287522614E+03  0.45830633496E+03  0.17120000000E+03 0.  0.
        998    1    1    2    0    0 -0.13643695879E+03 -0.53676223112E+02  0.80940255043E+03  0.82263519819E+03  0.10000000000E+02 0.  1.
</event>
<event>
 5    1  0.5781797E-010  0.3815366E+03  0.7957747E-01  0.3444495E+00
         13   -1    0    0    0    0  0.00000000000E+00  0.00000000000E+00  0.14999999963E+04  0.15000000000E+04  0.10566000000E+00 0. -1.
        994   -1    0    0    0    0 -0.00000000000E+00 -0.00000000000E+00  0.11368683772E-12  0.17120000000E+03  0.17120000000E+03 0.  0.
         13    1    1    2    0    0  0.12768875697E+03 -0.10339080056E+02  0.66393273900E+03  0.67617897654E+03  0.10566000000E+00 0. -1.
        994    1    1    2    0    0 -0.19011604273E+03  0.94996193507E+02  0.17196835517E+03  0.32256928196E+03  0.17120000000E+03 0.  0.
        998    1    1    2    0    0  0.62427285757E+02 -0.84657113451E+02  0.66409890212E+03  0.67245174151E+03  0.10000000000E+02 0. -1.
</event>
<event>
 5    1  0.5781797E-010  0.3863889E+03  0.7957747E-01  0.3423803E+00
         13   -1    0    0    0    0  0.00000000000E+00  0.00000000000E+00  0.14999999963E+04  0.15000000000E+04  0.10566000000E+00 0. -1.
        994   -1    0    0    0    0 -0.00000000000E+00 -0.00000000000E+00  0.11368683772E-12  0.17120000000E+03  0.17120000000E+03 0.  0.
         13    1    1    2    0    0  0.82568645961E+02 -0.17693826350E+03  0.97620929206E+03  0.99554473705E+03  0.10566000000E+00 0. -1.
        994    1    1    2    0    0 -0.12965413048E+03  0.21680086932E+03  0.24902938735E+03  0.39387547049E+03  0.17120000000E+03 0.  0.
        998    1    1    2    0    0  0.47085484514E+02 -0.39862605821E+02  0.27476131687E+03  0.28177979247E+03  0.10000000000E+02 0.  1.
</event>
<event>
 5    1  0.5781797E-010  0.3745238E+03  0.7957747E-01  0.3475355E+00
         13   -1    0    0    0    0  0.00000000000E+00  0.00000000000E+00  0.14999999963E+04  0.15000000000E+04  0.10566000000E+00 0.  1.
        994   -1    0    0    0    0 -0.00000000000E+00 -0.00000000000E+00  0.11368683772E-12  0.17120000000E+03  0.17120000000E+03 0.  0.
         13    1    1    2    0    0  0.44990437339E+02 -0.20449968473E+01  0.76731143200E+02  0.88971911100E+02  0.10566000000E+00 0.  1.
        994    1    1    2    0    0  0.12973652246E+02  0.18718663391E+03  0.15159043025E+03  0.29579765061E+03  0.17120000000E+03 0.  0.
        998    1    1    2    0    0 -0.57964089584E+02 -0.18514163706E+03  0.12716784228E+04  0.12864304383E+04  0.10000000000E+02 0.  1.
</event>
<event>
 5    1  0.5781797E-010  0.3837348E+03  0.7957747E-01  0.3435056E+00
         13   -1    0    0    0    0  0.00000000000E+00  0.00000000000E+00  0.14999999963E+04  0.15000000000E+04  0.10566000000E+00 0.  1.
        994   -1    0    0    0    0 -0.00000000000E+00 -0.00000000000E+00  0.11368683772E-12  0.17120000000E+03  0.17120000000E+03 0.  0.
         13    1    1    2    0    0 -0.50211923664E+02  0.25342709224E+02  0.23065081114E+03  0.23740955758E+03  0.10566000000E+00 0.  1.
        994    1    1    2    0    0  0.15527336697E+03 -0.45757492818E+02  0.94216008117E+02  0.25375118290E+03  0.17120000000E+03 0.  0.
        998    1    1    2    0    0 -0.10506144330E+03  0.20414783594E+02  0.11751331770E+04  0.11800392595E+04  0.10000000000E+02 0.  1.
</event>
<event>
 5    1  0.5781797E-010  0.3798962E+03  0.7957747E-01  0.3451610E+00
         13   -1    0    0    0    0  0.00000000000E+00  0.00000000000E+00  0.14999999963E+04  0.15000000000E+04  0.10566000000E+00 0. -1.
        994   -1    0    0    0    0 -0.00000000000E+00 -0.00000000000E+00  0.11368683772E-12  0.17120000000E+03  0.17120000000E+03 0.  0.
         13    1    1    2    0    0 -0.97220211999E+02  0.75974779624E+02  0.50740681489E+03  0.52219309045E+03  0.10566000000E+00 0. -1.
        994    1    1    2    0    0  0.11794134930E+03 -0.16692354189E+03  0.15957039009E+03  0.31071816829E+03  0.17120000000E+03 0.  0.
        998    1    1    2    0    0 -0.20721137305E+02  0.90948762263E+02  0.83302279130E+03  0.83828874126E+03  0.10000000000E+02 0. -1.
</event>
<event>
 5    1  0.5781797E-010  0.3779308E+03  0.7957747E-01  0.3460218E+00
         13   -1    0    0    0    0  0.00000000000E+00  0.00000000000E+00  0.14999999963E+04  0.15000000000E+04  0.10566000000E+00 0. -1.
        994   -1    0    0    0    0 -0.00000000000E+00 -0.00000000000E+00  0.11368683772E-12  0.17120000000E+03  0.17120000000E+03 0.  0.
         13    1    1    2    0    0  0.44326708078E+02 -0.22657420260E+02  0.15520391177E+03  0.16299227324E+03  0.10566000000E+00 0. -1.
        994    1    1    2    0    0 -0.17554733794E+03 -0.75035959904E+02  0.13969583779E+03  0.29201306517E+03  0.17120000000E+03 0.  0.
        998    1    1    2    0    0  0.13122062986E+03  0.97693380164E+02  0.12051002467E+04  0.12161946616E+04  0.10000000000E+02 0. -1.
</event>
<event>
 5    1  0.5781797E-010  0.3830965E+03  0.7957747E-01  0.3437785E+00
         13   -1    0    0    0    0  0.00000000000E+00  0.00000000000E+00  0.14999999963E+04  0.15000000000E+04  0.10566000000E+00 0. -1.
        994   -1    0    0    0    0 -0.00000000000E+00 -0.00000000000E+00  0.11368683772E-12  0.17120000000E+03  0.17120000000E+03 0.  0.
         13    1    1    2    0    0 -0.12054591488E+02  0.93389984421E+02  0.51504837788E+03  0.52358556615E+03  0.10566000000E+00 0. -1.
        994    1    1    2    0    0  0.12127252064E+03 -0.17969715594E+03  0.17785912617E+03  0.32854436668E+03  0.17120000000E+03 0.  0.
        998    1    1    2    0    0 -0.10921792916E+03  0.86307171523E+02  0.80709249223E+03  0.81907006716E+03  0.10000000000E+02 0. -1.
</event>
<event>
 5    1  0.5781797E-010  0.3843874E+03  0.7957747E-01  0.3432274E+00
         13   -1    0    0    0    0  0.00000000000E+00  0.00000000000E+00  0.14999999963E+04  0.15000000000E+04  0.10566000000E+00 0.  1.
        994   -1    0    0    0    0 -0.00000000000E+00 -0.00000000000E+00  0.11368683772E-12  0.17120000000E+03  0.17120000000E+03 0.  0.
         13    1    1    2    0    0 -0.10133144385E+03 -0.28652363683E+02  0.40049241854E+03  0.41410531019E+03  0.10566000000E+00 0.  1.
        994    1    1    2    0    0  0.22919061585E+03  0.34870417872E+02  0.20560073857E+03  0.35401325983E+03  0.17120000000E+03 0.  0.
        998    1    1    2    0    0 -0.12785917199E+03 -0.62180541898E+01  0.89390683917E+03  0.90308142998E+03  0.10000000000E+02 0.  1.
</event>
<event>
 5    1  0.5781797E-010  0.3849840E+03  0.7957747E-01  0.3429740E+00
         13   -1    0    0    0    0  0.00000000000E+00  0.00000000000E+00  0.14999999963E+04  0.15000000000E+04  0.10566000000E+00 0. -1.
        994   -1    0    0    0    0 -0.00000000000E+00 -0.00000000000E+00  0.11368683772E-12  0.17120000000E+03  0.17120000000E+03 0.  0.
         13    1    1    2    0    0 -0.15087963637E+03  0.18020894702E+03  0.11041470815E+04  0.11288847231E+04  0.10566000000E+00 0. -1.
        994    1    1    2    0    0  0.15404010129E+03 -0.21470562283E+03  0.28127741757E+03  0.42220052453E+03  0.17120000000E+03 0.  0.
        998    1    1    2    0    0 -0.31604649204E+01  0.34496675809E+02  0.11457549718E+03  0.12011475236E+03  0.10000000000E+02 0.  1.
</event>
<event>
 5    1  0.5781797E-010  0.3877406E+03  0.7957747E-01  0.3418131E+00
         13   -1    0    0    0    0  0.00000000000E+00  0.00000000000E+00  0.14999999963E+04  0.15000000000E+04  0.10566000000E+00 0.  1.
        994   -1    0    0    0    0 -0.00000000000E+00 -0.00000000000E+00  0.11368683772E-12  0.17120000000E+03  0.17120000000E+03 0.  0.
         13    1    1    2    0    0 -0.14184854036E+03 -0.34950209620E+02  0.84569257835E+03  0.85821819708E+03  0.10566000000E+00 0.  1.
        994    1    1    2    0    0  0.22457020073E+03  0.37643593611E+02  0.19276789324E+03  0.34397342319E+03  0.17120000000E+03 0.  0.
        998    1    1    2    0    0 -0.82721660367E+02 -0.26933839914E+01  0.46153952469E+03  0.46900837973E+03  0.10000000000E+02 0.  1.
</event>
<event>
 5    1  0.5781797E-010  0.3875402E+03  0.7957747E-01  0.3418970E+00
         13   -1    0    0    0    0  0.00000000000E+00  0.00000000000E+00  0.14999999963E+04  0.15000000000E+04  0.10566000000E+00 0.  1.
        994   -1    0    0    0    0 -0.00000000000E+00 -0.00000000000E+00  0.11368683772E-12  0.17120000000E+03  0.17120000000E+03 0.  0.
         13    1    1    2    0    0  0.13280082515E+02  0.72928416557E+01  0.89780442255E+02  0.91049904484E+02  0.10566000000E+00 0.  1.
        994    1    1    2    0    0 -0.11283510102E+03 -0.45219593908E+02  0.50143334324E+02  0.21587117842E+03  0.17120000000E+03 0.  0.
        998    1    1    2    0    0  0.99555018501E+02  0.37926752253E+02  0.13600762197E+04  0.13642789171E+04  0.10000000000E+02 0.  1.
</event>
<event>
 5    1  0.5781797E-010  0.3876919E+03  0.7957747E-01  0.3418335E+00
         13   -1    0    0    0    0  0.00000000000E+00  0.00000000000E+00  0.14999999963E+04  0.15000000000E+04  0.10566000000E+00 0. -1.
        994   -1    0    0    0    0 -0.00000000000E+00 -0.00000000000E+00  0.11368683772E-12  0.17120000000E+03  0.17120000000E+03 0.  0.
         13    1    1    2    0    0 -0.21350522410E+02 -0.32504733753E+01  0.12431899466E+03  0.12618095729E+03  0.10566000000E+00 0. -1.
        994    1    1    2    0    0  0.15576173466E+03  0.10560006605E+02  0.84226109934E+02  0.24652932750E+03  0.17120000000E+03 0.  0.
        998    1    1    2    0    0 -0.13441121225E+03 -0.73095332297E+01  0.12914548917E+04  0.12984897152E+04  0.10000000000E+02 0. -1.
</event>
<event>
 5    1  0.5781797E-010  0.3876590E+03  0.7957747E-01  0.3418473E+00
         13   -1    0    0    0    0  0.00000000000E+00  0.00000000000E+00  0.14999999963E+04  0.15000000000E+04  0.10566000000E+00 0.  1.
        994   -1    0    0    0    0 -0.00000000000E+00 -0.00000000000E+00  0.11368683772E-12  0.17120000000E+03  0.17120000000E+03 0.  0.
         13    1    1    2    0    0  0.54526580009E+02  0.34451626658E+02  0.29794120913E+03  0.30484264428E+03  0.10566000000E+00 0.  1.
        994    1    1    2    0    0 -0.24967264798E+03 -0.98636578834E+02  0.28760384731E+03  0.42905829303E+03  0.17120000000E+03 0.  0.
        998    1    1    2    0    0  0.19514606797E+03  0.64184952176E+02  0.91445493984E+03  0.93729906269E+03  0.10000000000E+02 0.  1.
</event>
<event>
 5    1  0.5781797E-010  0.3846214E+03  0.7957747E-01  0.3431280E+00
         13   -1    0    0    0    0  0.00000000000E+00  0.00000000000E+00  0.14999999963E+04  0.15000000000E+04  0.10566000000E+00 0.  1.
        994   -1    0    0    0    0 -0.00000000000E+00 -0.00000000000E+00  0.11368683772E-12  0.17120000000E+03  0.17120000000E+03 0.  0.
         13    1    1    2    0    0 -0.11911019660E+02  0.79504796290E+01  0.49027399924E+02  0.51076213867E+02  0.10566000000E+00 0.  1.
        994    1    1    2    0    0  0.78826919153E+02  0.44167940273E+02  0.29180404515E+02  0.19576880788E+03  0.17120000000E+03 0.  0.
        998    1    1    2    0    0 -0.66915899493E+02 -0.52118419902E+02  0.14217921918E+04  0.14243549783E+04  0.10000000000E+02 0.  1.
</event>
<event>
 5    1  0.5781797E-010  0.3820361E+03  0.7957747E-01  0.3442340E+00
         13   -1    0    0    0    0  0.00000000000E+00  0.00000000000E+00  0.14999999963E+04  0.15000000000E+04  0.10566000000E+00 0. -1.
        994   -1    0    0    0    0 -0.00000000000E+00 -0.00000000000E+00  0.11368683772E-12  0.17120000000E+03  0.17120000000E+03 0.  0.
         13    1    1    2    0    0 -0.91527995812E+02  0.23390294227E+02  0.50276259605E+03  0.51156106091E+03  0.10566000000E+00 0. -1.
        994    1    1    2    0    0  0.12999920313E+03 -0.87408715708E+02  0.89401240180E+02  0.24868071526E+03  0.17120000000E+03 0.  0.
        998    1    1    2    0    0 -0.38471207322E+02  0.64018421481E+02  0.90783616005E+03  0.91095822383E+03  0.10000000000E+02 0.  1.
</event>
<event>
 5    1  0.5781797E-010  0.3878158E+03  0.7957747E-01  0.3417817E+00
         13   -1    0    0    0    0  0.00000000000E+00  0.00000000000E+00  0.14999999963E+04  0.15000000000E+04  0.10566000000E+00 0.  1.
        994   -1    0    0    0    0 -0.00000000000E+00 -0.00000000000E+00  0.11368683772E-12  0.17120000000E+03  0.17120000000E+03 0.  0.
         13    1    1    2    0    0 -0.72590562171E+02  0.10481243941E+03  0.73663436620E+03  0.74758627449E+03  0.10566000000E+00 0.  1.
        994    1    1    2    0    0  0.12522152802E+03 -0.17099726237E+03  0.16352235905E+03  0.31775697747E+03  0.17120000000E+03 0.  0.
        998    1    1    2    0    0 -0.52630965848E+02  0.66184822963E+02  0.59984327103E+03  0.60585674805E+03  0.10000000000E+02 0.  1.
</event>
<event>
 5    1  0.5781797E-010  0.3792332E+03  0.7957747E-01  0.3454504E+00
         13   -1    0    0    0    0  0.00000000000E+00  0.00000000000E+00  0.14999999963E+04  0.15000000000E+04  0.10566000000E+00 0. -1.
        994   -1    0    0    0    0 -0.00000000000E+00 -0.00000000000E+00  0.11368683772E-12  0.17120000000E+03  0.17120000000E+03 0.  0.
         13    1    1    2    0    0  0.21742264429E+02 -0.39102791013E+02  0.20563913514E+03  0.21045004014E+03  0.10566000000E+00 0. -1.
        994    1    1    2    0    0  0.52661031645E+02  0.81498938284E+02  0.36751016223E+02  0.20018825737E+03  0.17120000000E+03 0.  0.
        998    1    1    2    0    0 -0.74403296074E+02 -0.42396147271E+02  0.12576098449E+04  0.12605617025E+04  0.10000000000E+02 0. -1.
</event>
<event>
 5    1  0.5781797E-010  0.3765990E+03  0.7957747E-01  0.3466102E+00
         13   -1    0    0    0    0  0.00000000000E+00  0.00000000000E+00  0.14999999963E+04  0.15000000000E+04  0.10566000000E+00 0.  1.
        994   -1    0    0    0    0 -0.00000000000E+00 -0.00000000000E+00  0.11368683772E-12  0.17120000000E+03  0.17120000000E+03 0.  0.
         13    1    1    2    0    0 -0.23457571343E+03  0.11551463051E+03  0.93112276185E+03  0.96713959902E+03  0.10566000000E+00 0.  1.
        994    1    1    2    0    0  0.28601001644E+03 -0.83835054606E+02  0.41758862798E+03  0.54085094814E+03  0.17120000000E+03 0.  0.
        998    1    1    2    0    0 -0.51434303006E+02 -0.31679575909E+02  0.15128860645E+03  0.16320945284E+03  0.10000000000E+02 0.  1.
</event>
<event>
 5    1  0.5781797E-010  0.3868029E+03  0.7957747E-01  0.3422062E+00
         13   -1    0    0    0    0  0.00000000000E+00  0.00000000000E+00  0.14999999963E+04  0.15000000000E+04  0.10566000000E+00 0.  1.
        994   -1    0    0    0    0 -0.00000000000E+00 -0.00000000000E+00  0.11368683772E-12  0.17120000000E+03  0.17120000000E+03 0.  0.
         13    1    1    2    0    0 -0.43961089298E+02 -0.42468611036E+02  0.28773426719E+03  0.29415502712E+03  0.10566000000E+00 0.  1.
        994    1    1    2    0    0  0.11861719571E+03  0.17602626768E+03  0.16524963543E+03  0.31886073456E+03  0.17120000000E+03 0.  0.
        998    1    1    2    0    0 -0.74656106410E+02 -0.13355765665E+03  0.10470160937E+04  0.10581842383E+04  0.10000000000E+02 0.  1.
</event>
<event>
 5    1  0.5781797E-010  0.3781558E+03  0.7957747E-01  0.3459228E+00
         13   -1    0    0    0    0  0.00000000000E+00  0.00000000000E+00  0.14999999963E+04  0.15000000000E+04  0.10566000000E+00 0. -1.
        994   -1    0    0    0    0 -0.00000000000E+00 -0.00000000000E+00  0.11368683772E-12  0.17120000000E+03  0.17120000000E+03 0.  0.
         13    1    1    2    0    0  0.17850085032E+02 -0.51429428552E+01  0.82714688928E+02  0.84775033621E+02  0.10566000000E+00 0. -1.
        994    1    1    2    0    0  0.83719577948E+02 -0.21224848122E+03  0.20675006437E+03  0.35229733838E+03  0.17120000000E+03 0.  0.
        998    1    1    2    0    0 -0.10156966298E+03  0.21739142408E+03  0.12105352430E+04  0.12341276280E+04  0.10000000000E+02 0. -1.
</event>
<event>
 5    1  0.5847399E-010  0.3867422E+03  0.7957747E-01  0.3422317E+00
         13   -1    0    0    0    0  0.00000000000E+00  0.00000000000E+00  0.14999999963E+04  0.15000000000E+04  0.10566000000E+00 0.  1.
        994   -1    0    0    0    0 -0.00000000000E+00 -0.00000000000E+00  0.11368683772E-12  0.17120000000E+03  0.17120000000E+03 0.  0.
         13    1    1    2    0    0 -0.13845299443E+03  0.11727206500E+03  0.10303576890E+04  0.10462117125E+04  0.10566000000E+00 0.  1.
        994    1    1    2    0    0  0.15710765411E+03 -0.14364415718E+03  0.16640118804E+03  0.31986755736E+03  0.17120000000E+03 0.  0.
        998    1    1    2    0    0 -0.18654659681E+02  0.26372092183E+02  0.30324111920E+03  0.30512073012E+03  0.10000000000E+02 0. -1.
</event>
<event>
 5    1  0.5781797E-010  0.3751317E+03  0.7957747E-01  0.3472634E+00
         13   -1    0    0    0    0  0.00000000000E+00  0.00000000000E+00  0.14999999963E+04  0.15000000000E+04  0.10566000000E+00 0.  1.
        994   -1    0    0    0    0 -0.00000000000E+00 -0.00000000000E+00  0.11368683772E-12  0.17120000000E+03  0.17120000000E+03 0.  0.
         13    1    1    2    0    0  0.37455677638E+02 -0.40607803387E+02  0.24658469768E+03  0.25269734026E+03  0.10566000000E+00 0.  1.
        994    1    1    2    0    0 -0.98615732040E+01  0.19088727613E+02  0.81811532246E+01  0.17273679809E+03  0.17120000000E+03 0.  0.
        998    1    1    2    0    0 -0.27594104434E+02  0.21519075774E+02  0.12452341454E+04  0.12457658616E+04  0.10000000000E+02 0.  1.
</event>
<event>
 5    1  0.5781797E-010  0.3879408E+03  0.7957747E-01  0.3417295E+00
         13   -1    0    0    0    0  0.00000000000E+00  0.00000000000E+00  0.14999999963E+04  0.15000000000E+04  0.10566000000E+00 0. -1.
        994   -1    0    0    0    0 -0.00000000000E+00 -0.00000000000E+00  0.11368683772E-12  0.17120000000E+03  0.17120000000E+03 0.  0.
         13    1    1    2    0    0 -0.18742962108E+03 -0.33035507681E+02  0.10330370201E+04  0.10504221550E+04  0.10566000000E+00 0. -1.
        994    1    1    2    0    0  0.23466784042E+03  0.42914423698E+02  0.21471904444E+03  0.36376414217E+03  0.17120000000E+03 0.  0.
        998    1    1    2    0    0 -0.47238219339E+02 -0.98789160170E+01  0.25224393170E+03  0.25701370280E+03  0.10000000000E+02 0.  0.
</event>
<event>
 5    1  0.5781797E-010  0.3796641E+03  0.7957747E-01  0.3452622E+00
         13   -1    0    0    0    0  0.00000000000E+00  0.00000000000E+00  0.14999999963E+04  0.15000000000E+04  0.10566000000E+00 0. -1.
        994   -1    0    0    0    0 -0.00000000000E+00 -0.00000000000E+00  0.11368683772E-12  0.17120000000E+03  0.17120000000E+03 0.  0.
         13    1    1    2    0    0  0.96506633240E+02  0.32702551695E+02  0.29856250006E+03  0.31547197142E+03  0.10566000000E+00 0. -1.
        994    1    1    2    0    0 -0.23587448425E+03 -0.29226973442E+02  0.22505337351E+03  0.36939064583E+03  0.17120000000E+03 0.  0.
        998    1    1    2    0    0  0.13936785101E+03 -0.34755782524E+01  0.97638412271E+03  0.98633738275E+03  0.10000000000E+02 0. -1.
</event>
<event>
 5    1  0.5781797E-010  0.3877508E+03  0.7957747E-01  0.3418089E+00
         13   -1    0    0    0    0  0.00000000000E+00  0.00000000000E+00  0.14999999963E+04  0.15000000000E+04  0.10566000000E+00 0.  1.
        994   -1    0    0    0    0 -0.00000000000E+00 -0.00000000000E+00  0.11368683772E-12  0.17120000000E+03  0.17120000000E+03 0.  0.
         13    1    1    2    0    0 -0.18732926336E+03 -0.77700172854E+02  0.10302204451E+04  0.10499922602E+04  0.10566000000E+00 0.  1.
        994    1    1    2    0    0  0.22780898678E+03  0.88519034029E+02  0.22777117855E+03  0.37539539638E+03  0.17120000000E+03 0.  0.
        998    1    1    2    0    0 -0.40479723429E+02 -0.10818861175E+02  0.24200837262E+03  0.24581234344E+03  0.10000000000E+02 0.  1.
</event>
<event>
 5    1  0.5781797E-010  0.3855582E+03  0.7957747E-01  0.3427308E+00
         13   -1    0    0    0    0  0.00000000000E+00  0.00000000000E+00  0.14999999963E+04  0.15000000000E+04  0.10566000000E+00 0.  1.
        994   -1    0    0    0    0 -0.00000000000E+00 -0.00000000000E+00  0.11368683772E-12  0.17120000000E+03  0.17120000000E+03 0.  0.
         13    1    1    2    0    0 -0.59418660696E+02 -0.81049207394E+02  0.46552174522E+03  0.47624579546E+03  0.10566000000E+00 0.  1.
        994    1    1    2    0    0  0.14071003784E+03  0.26602465448E+03  0.40014615807E+03  0.52914536695E+03  0.17120000000E+03 0.  0.
        998    1    1    2    0    0 -0.81291377139E+02 -0.18497544709E+03  0.63433209299E+03  0.66580883759E+03  0.10000000000E+02 0.  1.
</event>
<event>
 5    1  0.5781797E-010  0.3852015E+03  0.7957747E-01  0.3428818E+00
         13   -1    0    0    0    0  0.00000000000E+00  0.00000000000E+00  0.14999999963E+04  0.15000000000E+04  0.10566000000E+00 0.  1.
        994   -1    0    0    0    0 -0.00000000000E+00 -0.00000000000E+00  0.11368683772E-12  0.17120000000E+03  0.17120000000E+03 0.  0.
         13    1    1    2    0    0  0.15117315488E+02 -0.51912550425E+01  0.84204562982E+02  0.85708237338E+02  0.10566000000E+00 0.  1.
        994    1    1    2    0    0  0.55164007603E+01  0.64318057148E+02  0.15347729081E+02  0.18360892119E+03  0.17120000000E+03 0.  0.
        998    1    1    2    0    0 -0.20633716248E+02 -0.59126802105E+02  0.14004477042E+04  0.14018828415E+04  0.10000000000E+02 0.  1.
</event>
<event>
 5    1  0.5781797E-010  0.3861672E+03  0.7957747E-01  0.3424737E+00
         13   -1    0    0    0    0  0.00000000000E+00  0.00000000000E+00  0.14999999963E+04  0.15000000000E+04  0.10566000000E+00 0. -1.
        994   -1    0    0    0    0 -0.00000000000E+00 -0.00000000000E+00  0.11368683772E-12  0.17120000000E+03  0.17120000000E+03 0.  0.
         13    1    1    2    0    0  0.96609430058E+02  0.21181804208E+03  0.96317445722E+03  0.99091135383E+03  0.10566000000E+00 0. -1.
        994    1    1    2    0    0 -0.12229432532E+03 -0.26749861604E+03  0.37222714894E+03  0.50435493652E+03  0.17120000000E+03 0.  0.
        998    1    1    2    0    0  0.25684895265E+02  0.55680573963E+02  0.16459839012E+03  0.17593370965E+03  0.10000000000E+02 0.  0.
</event>
<event>
 5    1  0.5781797E-010  0.3614784E+03  0.7957747E-01  0.3535995E+00
         13   -1    0    0    0    0  0.00000000000E+00  0.00000000000E+00  0.14999999963E+04  0.15000000000E+04  0.10566000000E+00 0. -1.
        994   -1    0    0    0    0 -0.00000000000E+00 -0.00000000000E+00  0.11368683772E-12  0.17120000000E+03  0.17120000000E+03 0.  0.
         13    1    1    2    0    0  0.67097283718E+02  0.28979613892E+03  0.79909308137E+03  0.85266265984E+03  0.10566000000E+00 0. -1.
        994    1    1    2    0    0 -0.85954386884E+02 -0.32011613821E+03  0.68091172848E+03  0.77641014970E+03  0.17120000000E+03 0.  0.
        998    1    1    2    0    0  0.18857103166E+02  0.30319999288E+02  0.19995186421E+02  0.42127190467E+02  0.10000000000E+02 0. -1.
</event>
<event>
 5    1  0.5781797E-010  0.3859017E+03  0.7957747E-01  0.3425857E+00
         13   -1    0    0    0    0  0.00000000000E+00  0.00000000000E+00  0.14999999963E+04  0.15000000000E+04  0.10566000000E+00 0.  1.
        994   -1    0    0    0    0 -0.00000000000E+00 -0.00000000000E+00  0.11368683772E-12  0.17120000000E+03  0.17120000000E+03 0.  0.
         13    1    1    2    0    0  0.10205449336E+03 -0.17618430583E+03  0.10612436396E+04  0.10805989557E+04  0.10566000000E+00 0.  1.
        994    1    1    2    0    0 -0.10521451628E+03  0.20022036946E+03  0.19218933696E+03  0.34264335981E+03  0.17120000000E+03 0.  0.
        998    1    1    2    0    0  0.31600229186E+01 -0.24036063625E+02  0.24656701973E+03  0.24795768453E+03  0.10000000000E+02 0.  1.
</event>
<event>
 5    1  0.5781797E-010  0.3733637E+03  0.7957747E-01  0.3480573E+00
         13   -1    0    0    0    0  0.00000000000E+00  0.00000000000E+00  0.14999999963E+04  0.15000000000E+04  0.10566000000E+00 0.  1.
        994   -1    0    0    0    0 -0.00000000000E+00 -0.00000000000E+00  0.11368683772E-12  0.17120000000E+03  0.17120000000E+03 0.  0.
         13    1    1    2    0    0  0.28602745975E+02  0.74178732927E+02  0.35406945647E+03  0.36288537124E+03  0.10566000000E+00 0.  1.
        994    1    1    2    0    0  0.12486759473E+02  0.43060148105E+01  0.13346015352E+02  0.17222664443E+03  0.17120000000E+03 0.  0.
        998    1    1    2    0    0 -0.41089505448E+02 -0.78484747738E+02  0.11325845245E+04  0.11360879843E+04  0.10000000000E+02 0.  1.
</event>
<event>
 5    1  0.5781797E-010  0.3804183E+03  0.7957747E-01  0.3449339E+00
         13   -1    0    0    0    0  0.00000000000E+00  0.00000000000E+00  0.14999999963E+04  0.15000000000E+04  0.10566000000E+00 0. -1.
        994   -1    0    0    0    0 -0.00000000000E+00 -0.00000000000E+00  0.11368683772E-12  0.17120000000E+03  0.17120000000E+03 0.  0.
         13    1    1    2    0    0 -0.18919415366E+02 -0.34280509098E+02  0.14634124791E+03  0.15148884310E+03  0.10566000000E+00 0. -1.
        994    1    1    2    0    0  0.12233816265E+03  0.22483898491E+02  0.57429535982E+02  0.21927093591E+03  0.17120000000E+03 0.  0.
        998    1    1    2    0    0 -0.10341874728E+03  0.11796610607E+02  0.12962292124E+04  0.13004402210E+04  0.10000000000E+02 0. -1.
</event>
<event>
 5    1  0.5781797E-010  0.3686873E+03  0.7957747E-01  0.3501946E+00
         13   -1    0    0    0    0  0.00000000000E+00  0.00000000000E+00  0.14999999963E+04  0.15000000000E+04  0.10566000000E+00 0.  1.
        994   -1    0    0    0    0 -0.00000000000E+00 -0.00000000000E+00  0.11368683772E-12  0.17120000000E+03  0.17120000000E+03 0.  0.
         13    1    1    2    0    0  0.20855696307E+02  0.15619269398E+03  0.39824655819E+03  0.42828897954E+03  0.10566000000E+00 0.  1.
        994    1    1    2    0    0 -0.16092508911E+03 -0.22959731941E+03  0.37260973704E+03  0.49674869856E+03  0.17120000000E+03 0.  0.
        998    1    1    2    0    0  0.14006939280E+03  0.73404625433E+02  0.72914370106E+03  0.74616232190E+03  0.10000000000E+02 0.  1.
</event>
<event>
 5    1  0.5781797E-010  0.3848565E+03  0.7957747E-01  0.3430281E+00
         13   -1    0    0    0    0  0.00000000000E+00  0.00000000000E+00  0.14999999963E+04  0.15000000000E+04  0.10566000000E+00 0. -1.
        994   -1    0    0    0    0 -0.00000000000E+00 -0.00000000000E+00  0.11368683772E-12  0.17120000000E+03  0.17120000000E+03 0.  0.
         13    1    1    2    0    0 -0.22362954870E+02  0.32979443922E+02  0.22897938205E+03  0.23242055426E+03  0.10566000000E+00 0. -1.
        994    1    1    2    0    0  0.54661999555E+01 -0.11873976089E+03  0.49659098950E+02  0.21425329931E+03  0.17120000000E+03 0.  0.
        998    1    1    2    0    0  0.16896754915E+02  0.85760316967E+02  0.12213615153E+04  0.12245261464E+04  0.10000000000E+02 0. -1.
</event>
<event>
 5    1  0.5781797E-010  0.3832563E+03  0.7957747E-01  0.3437101E+00
         13   -1    0    0    0    0  0.00000000000E+00  0.00000000000E+00  0.14999999963E+04  0.15000000000E+04  0.10566000000E+00 0. -1.
        994   -1    0    0    0    0 -0.00000000000E+00 -0.00000000000E+00  0.11368683772E-12  0.17120000000E+03  0.17120000000E+03 0.  0.
         13    1    1    2    0    0 -0.13667743621E+02 -0.74301670896E+02  0.31226330290E+03  0.32127235645E+03  0.10566000000E+00 0. -1.
        994    1    1    2    0    0 -0.62399947873E+02  0.21526035061E+03  0.19162274548E+03  0.34096845693E+03  0.17120000000E+03 0.  0.
        998    1    1    2    0    0  0.76067691494E+02 -0.14095867971E+03  0.99611394789E+03  0.10089591866E+04  0.10000000000E+02 0. -1.
</event>
<event>
 5    1  0.5781797E-010  0.3851249E+03  0.7957747E-01  0.3429143E+00
         13   -1    0    0    0    0  0.00000000000E+00  0.00000000000E+00  0.14999999963E+04  0.15000000000E+04  0.10566000000E+00 0.  1.
        994   -1    0    0    0    0 -0.00000000000E+00 -0.00000000000E+00  0.11368683772E-12  0.17120000000E+03  0.17120000000E+03 0.  0.
         13    1    1    2    0    0  0.36083113196E+02  0.63296065933E+02  0.40686252343E+03  0.41333461887E+03  0.10566000000E+00 0.  1.
        994    1    1    2    0    0 -0.94965493458E+02 -0.11822832723E+03  0.81218251400E+02  0.24269780936E+03  0.17120000000E+03 0.  0.
        998    1    1    2    0    0  0.58882380263E+02  0.54932261298E+02  0.10119192215E+04  0.10151675718E+04  0.10000000000E+02 0.  1.
</event>
<event>
 5    1  0.5781797E-010  0.3707749E+03  0.7957747E-01  0.3492337E+00
         13   -1    0    0    0    0  0.00000000000E+00  0.00000000000E+00  0.14999999963E+04  0.15000000000E+04  0.10566000000E+00 0.  1.
        994   -1    0    0    0    0 -0.00000000000E+00 -0.00000000000E+00  0.11368683772E-12  0.17120000000E+03  0.17120000000E+03 0.  0.
         13    1    1    2    0    0 -0.85737303636E+01  0.38182273430E+02  0.12711817305E+03  0.13300539816E+03  0.10566000000E+00 0.  1.
        994    1    1    2    0    0 -0.13490578122E+03  0.32497872691E+02  0.78513548277E+02  0.23394336665E+03  0.17120000000E+03 0.  0.
        998    1    1    2    0    0  0.14347951158E+03 -0.70680146121E+02  0.12943682750E+04  0.13042512352E+04  0.10000000000E+02 0.  1.
</event>
<event>
 5    1  0.5832183E-010  0.3854897E+03  0.7957747E-01  0.3427598E+00
         13   -1    0    0    0    0  0.00000000000E+00  0.00000000000E+00  0.14999999963E+04  0.15000000000E+04  0.10566000000E+00 0.  1.
        994   -1    0    0    0    0 -0.00000000000E+00 -0.00000000000E+00  0.11368683772E-12  0.17120000000E+03  0.17120000000E+03 0.  0.
         13    1    1    2    0    0  0.99656100813E+02 -0.11757179051E+03  0.87308207454E+03  0.88658151594E+03  0.10566000000E+00 0.  1.
        994    1    1    2    0    0 -0.12294401669E+03  0.14990803000E+03  0.13644595113E+03  0.29242877129E+03  0.17120000000E+03 0.  0.
        998    1    1    2    0    0  0.23287915877E+02 -0.32336239489E+02  0.49047197060E+03  0.49218971277E+03  0.10000000000E+02 0.  1.
</event>
<event>
 5    1  0.5781797E-010  0.3876059E+03  0.7957747E-01  0.3418695E+00
         13   -1    0    0    0    0  0.00000000000E+00  0.00000000000E+00  0.14999999963E+04  0.15000000000E+04  0.10566000000E+00 0.  1.
        994   -1    0    0    0    0 -0.00000000000E+00 -0.00000000000E+00  0.11368683772E-12  0.17120000000E+03  0.17120000000E+03 0.  0.
         13    1    1    2    0    0 -0.33256464777E+02 -0.16999503193E+02  0.92241015440E+02  0.99515785942E+02  0.10566000000E+00 0.  1.
        994    1    1    2    0    0  0.33662773544E+03  0.82842393504E+02  0.72704964094E+03  0.82346324436E+03  0.17120000000E+03 0.  0.
        998    1    1    2    0    0 -0.30337127066E+03 -0.65842890311E+02  0.68070933990E+03  0.74822096969E+03  0.10000000000E+02 0. -1.
</event>
<event>
 5    1  0.5781797E-010  0.3880514E+03  0.7957747E-01  0.3416833E+00
         13   -1    0    0    0    0  0.00000000000E+00  0.00000000000E+00  0.14999999963E+04  0.15000000000E+04  0.10566000000E+00 0.  1.
        994   -1    0    0    0    0 -0.00000000000E+00 -0.00000000000E+00  0.11368683772E-12  0.17120000000E+03  0.17120000000E+03 0.  0.
         13    1    1    2    0    0  0.10024534067E+03 -0.12145844321E+03  0.62933291461E+03  0.64873816778E+03  0.10566000000E+00 0.  1.
        994    1    1    2    0    0 -0.17563043680E+03  0.22996284699E+03  0.35049677067E+03  0.48568136424E+03  0.17120000000E+03 0.  0.
        998    1    1    2    0    0  0.75385096136E+02 -0.10850440378E+03  0.52017031100E+03  0.53678046798E+03  0.10000000000E+02 0.  1.
</event>
<event>
 5    1  0.5781797E-010  0.3875054E+03  0.7957747E-01  0.3419116E+00
         13   -1    0    0    0    0  0.00000000000E+00  0.00000000000E+00  0.14999999963E+04  0.15000000000E+04  0.10566000000E+00 0. -1.
        994   -1    0    0    0    0 -0.00000000000E+00 -0.00000000000E+00  0.11368683772E-12  0.17120000000E+03  0.17120000000E+03 0.  0.
         13    1    1    2    0    0 -0.17567141861E+03 -0.97414768677E+01  0.96511066049E+03  0.98101678978E+03  0.10566000000E+00 0. -1.
        994    1    1    2    0    0  0.22908673760E+03  0.27769988571E+02  0.19916432738E+03  0.34961089072E+03  0.17120000000E+03 0.  0.
        998    1    1    2    0    0 -0.53415318983E+02 -0.18028511704E+02  0.33572500841E+03  0.34057231950E+03  0.10000000000E+02 0.  0.
</event>
<event>
 5    1  0.5781797E-010  0.3880770E+03  0.7957747E-01  0.3416726E+00
         13   -1    0    0    0    0  0.00000000000E+00  0.00000000000E+00  0.14999999963E+04  0.15000000000E+04  0.10566000000E+00 0. -1.
        994   -1    0    0    0    0 -0.00000000000E+00 -0.00000000000E+00  0.11368683772E-12  0.17120000000E+03  0.17120000000E+03 0.  0.
         13    1    1    2    0    0 -0.18688494908E+02 -0.13954195011E+02  0.88044595995E+02  0.91081509915E+02  0.10566000000E+00 0. -1.
        994    1    1    2    0    0  0.21753223775E+03  0.15573217170E+03  0.28428217457E+03  0.42626116237E+03  0.17120000000E+03 0.  0.
        998    1    1    2    0    0 -0.19884374285E+03 -0.14177797669E+03  0.11276732257E+04  0.11538573277E+04  0.10000000000E+02 0. -1.
</event>
<event>
 5    1  0.5781797E-010  0.3802808E+03  0.7957747E-01  0.3449937E+00
         13   -1    0    0    0    0  0.00000000000E+00  0.00000000000E+00  0.14999999963E+04  0.15000000000E+04  0.10566000000E+00 0. -1.
        994   -1    0    0    0    0 -0.00000000000E+00 -0.00000000000E+00  0.11368683772E-12  0.17120000000E+03  0.17120000000E+03 0.  0.
         13    1    1    2    0    0  0.23393820080E+02  0.15392589461E+02  0.10394650409E+03  0.10765263352E+03  0.10566000000E+00 0. -1.
        994    1    1    2    0    0  0.48022758273E+02 -0.10031401769E+03  0.46472580022E+02  0.20937580603E+03  0.17120000000E+03 0.  0.
        998    1    1    2    0    0 -0.71416578353E+02  0.84921428224E+02  0.13495809122E+04  0.13541715604E+04  0.10000000000E+02 0. -1.
</event>
<event>
 5    1  0.5781797E-010  0.3855082E+03  0.7957747E-01  0.3427520E+00
         13   -1    0    0    0    0  0.00000000000E+00  0.00000000000E+00  0.14999999963E+04  0.15000000000E+04  0.10566000000E+00 0.  1.
        994   -1    0    0    0    0 -0.00000000000E+00 -0.00000000000E+00  0.11368683772E-12  0.17120000000E+03  0.17120000000E+03 0.  0.
         13    1    1    2    0    0 -0.16723528835E+02  0.10326245795E+02  0.82223204045E+02  0.84539778899E+02  0.10566000000E+00 0.  1.
        994    1    1    2    0    0  0.61203391429E+02 -0.72346598647E+02  0.31437762186E+02  0.19818591865E+03  0.17120000000E+03 0.  0.
        998    1    1    2    0    0 -0.44479862594E+02  0.62020352851E+02  0.13863390300E+04  0.13884743025E+04  0.10000000000E+02 0.  1.
</event>
<event>
 5    1  0.5781797E-010  0.3883806E+03  0.7957747E-01  0.3415460E+00
         13   -1    0    0    0    0  0.00000000000E+00  0.00000000000E+00  0.14999999963E+04  0.15000000000E+04  0.10566000000E+00 0. -1.
        994   -1    0    0    0    0 -0.00000000000E+00 -0.00000000000E+00  0.11368683772E-12  0.17120000000E+03  0.17120000000E+03 0.  0.
         13    1    1    2    0    0  0.35994872557E+02 -0.39398396853E+02  0.27091376699E+03  0.27611980160E+03  0.10566000000E+00 0. -1.
        994    1    1    2    0    0  0.26174993342E+03  0.32431890408E+02  0.36884096563E+03  0.48468335342E+03  0.17120000000E+03 0.  0.
        998    1    1    2    0    0 -0.29774480598E+03  0.69665064454E+01  0.86024526366E+03  0.91039684498E+03  0.10000000000E+02 0. -1.
</event>
<event>
 5    1  0.5781797E-010  0.3879978E+03  0.7957747E-01  0.3417057E+00
         13   -1    0    0    0    0  0.00000000000E+00  0.00000000000E+00  0.14999999963E+04  0.15000000000E+04  0.10566000000E+00 0.  1.
        994   -1    0    0    0    0 -0.00000000000E+00 -0.00000000000E+00  0.11368683772E-12  0.17120000000E+03  0.17120000000E+03 0.  0.
         13    1    1    2    0    0 -0.72436898580E+02  0.21579444356E+03  0.63749679570E+03  0.67691692388E+03  0.10566000000E+00 0.  1.
        994    1    1    2    0    0  0.11316094968E+03 -0.31326102078E+03  0.55974012370E+03  0.67346589651E+03  0.17120000000E+03 0.  0.
        998    1    1    2    0    0 -0.40724051101E+02  0.97466577224E+02  0.30276307688E+03  0.32081717961E+03  0.10000000000E+02 0.  1.
</event>
<event>
 5    1  0.5781797E-010  0.3868310E+03  0.7957747E-01  0.3421943E+00
         13   -1    0    0    0    0  0.00000000000E+00  0.00000000000E+00  0.14999999963E+04  0.15000000000E+04  0.10566000000E+00 0.  1.
        994   -1    0    0    0    0 -0.00000000000E+00 -0.00000000000E+00  0.11368683772E-12  0.17120000000E+03  0.17120000000E+03 0.  0.
         13    1    1    2    0    0 -0.83366711124E+02 -0.13701667286E+03  0.87313752682E+03  0.88774586965E+03  0.10566000000E+00 0.  1.
        994    1    1    2    0    0  0.11975461760E+03  0.17803531819E+03  0.16929119778E+03  0.32250068621E+03  0.17120000000E+03 0.  0.
        998    1    1    2    0    0 -0.36387906478E+02 -0.41018645334E+02  0.45757127168E+03  0.46095344414E+03  0.10000000000E+02 0.  1.
</event>
<event>
 5    1  0.5781797E-010  0.3877216E+03  0.7957747E-01  0.3418211E+00
         13   -1    0    0    0    0  0.00000000000E+00  0.00000000000E+00  0.14999999963E+04  0.15000000000E+04  0.10566000000E+00 0.  1.
        994   -1    0    0    0    0 -0.00000000000E+00 -0.00000000000E+00  0.11368683772E-12  0.17120000000E+03  0.17120000000E+03 0.  0.
         13    1    1    2    0    0 -0.29799718754E+02 -0.93486768469E+02  0.42659383916E+03  0.43773292529E+03  0.10566000000E+00 0.  1.
        994    1    1    2    0    0  0.63542618537E+02  0.28231400099E+03  0.35138342636E+03  0.48633179193E+03  0.17120000000E+03 0.  0.
        998    1    1    2    0    0 -0.33742899784E+02 -0.18882723252E+03  0.72202273076E+03  0.74713528277E+03  0.10000000000E+02 0.  1.
</event>
<event>
 5    1  0.5781797E-010  0.3865446E+03  0.7957747E-01  0.3423148E+00
         13   -1    0    0    0    0  0.00000000000E+00  0.00000000000E+00  0.14999999963E+04  0.15000000000E+04  0.10566000000E+00 0. -1.
        994   -1    0    0    0    0 -0.00000000000E+00 -0.00000000000E+00  0.11368683772E-12  0.17120000000E+03  0.17120000000E+03 0.  0.
         13    1    1    2    0    0 -0.40503589883E+01 -0.11204828048E+02  0.50674361764E+02  0.52056274202E+02  0.10566000000E+00 0. -1.
        994    1    1    2    0    0  0.50520881440E+02  0.68009688833E+02  0.24714345844E+02  0.19260819330E+03  0.17120000000E+03 0.  0.
        998    1    1    2    0    0 -0.46470522452E+02 -0.56804860785E+02  0.14246112887E+04  0.14265355325E+04  0.10000000000E+02 0. -1.
</event>
<event>
 5    1  0.5781797E-010  0.3840534E+03  0.7957747E-01  0.3433697E+00
         13   -1    0    0    0    0  0.00000000000E+00  0.00000000000E+00  0.14999999963E+04  0.15000000000E+04  0.10566000000E+00 0. -1.
        994   -1    0    0    0    0 -0.00000000000E+00 -0.00000000000E+00  0.11368683772E-12  0.17120000000E+03  0.17120000000E+03 0.  0.
         13    1    1    2    0    0  0.18877419779E+03 -0.19835187850E+02  0.80376220140E+03  0.82587094633E+03  0.10566000000E+00 0. -1.
        994    1    1    2    0    0 -0.23951677170E+03  0.42525687383E+02  0.23086882139E+03  0.37654557586E+03  0.17120000000E+03 0.  0.
        998    1    1    2    0    0  0.50742573914E+02 -0.22690499533E+02  0.46536897349E+03  0.46878347781E+03  0.10000000000E+02 0. -1.
</event>
<event>
 5    1  0.5781797E-010  0.3822185E+03  0.7957747E-01  0.3441555E+00
         13   -1    0    0    0    0  0.00000000000E+00  0.00000000000E+00  0.14999999963E+04  0.15000000000E+04  0.10566000000E+00 0.  1.
        994   -1    0    0    0    0 -0.00000000000E+00 -0.00000000000E+00  0.11368683772E-12  0.17120000000E+03  0.17120000000E+03 0.  0.
         13    1    1    2    0    0  0.10530059983E+03 -0.53133053421E+02  0.49576058436E+03  0.50959778831E+03  0.10566000000E+00 0.  1.
        994    1    1    2    0    0 -0.21312906380E+03  0.39817647574E+02  0.17899820743E+03  0.32917964876E+03  0.17120000000E+03 0.  0.
        998    1    1    2    0    0  0.10782846397E+03  0.13315405847E+02  0.82524120450E+03  0.83242256293E+03  0.10000000000E+02 0.  1.
</event>
<event>
 5    1  0.5781797E-010  0.3871836E+03  0.7957747E-01  0.3420464E+00
         13   -1    0    0    0    0  0.00000000000E+00  0.00000000000E+00  0.14999999963E+04  0.15000000000E+04  0.10566000000E+00 0. -1.
        994   -1    0    0    0    0 -0.00000000000E+00 -0.00000000000E+00  0.11368683772E-12  0.17120000000E+03  0.17120000000E+03 0.  0.
         13    1    1    2    0    0 -0.19254577033E+03  0.20991580915E+03  0.91727940816E+03  0.96048948168E+03  0.10566000000E+00 0. -1.
        994    1    1    2    0    0  0.22197394751E+03 -0.22854960422E+03  0.47480148196E+03  0.59686953535E+03  0.17120000000E+03 0.  0.
        998    1    1    2    0    0 -0.29428177175E+02  0.18633795070E+02  0.10791910615E+03  0.11384098297E+03  0.10000000000E+02 0. -1.
</event>
<event>
 5    1  0.5781797E-010  0.3874319E+03  0.7957747E-01  0.3419423E+00
         13   -1    0    0    0    0  0.00000000000E+00  0.00000000000E+00  0.14999999963E+04  0.15000000000E+04  0.10566000000E+00 0.  1.
        994   -1    0    0    0    0 -0.00000000000E+00 -0.00000000000E+00  0.11368683772E-12  0.17120000000E+03  0.17120000000E+03 0.  0.
         13    1    1    2    0    0 -0.14832361771E+02  0.31189551523E+01  0.89345627267E+02  0.90622177819E+02  0.10566000000E+00 0.  1.
        994    1    1    2    0    0  0.11176526281E+03 -0.14801698719E+02  0.43054094575E+02  0.20946040035E+03  0.17120000000E+03 0.  0.
        998    1    1    2    0    0 -0.96932901040E+02  0.11682743567E+02  0.13676002744E+04  0.13711174218E+04  0.10000000000E+02 0.  1.
</event>
<event>
 5    1  0.5781797E-010  0.3851511E+03  0.7957747E-01  0.3429032E+00
         13   -1    0    0    0    0  0.00000000000E+00  0.00000000000E+00  0.14999999963E+04  0.15000000000E+04  0.10566000000E+00 0.  1.
        994   -1    0    0    0    0 -0.00000000000E+00 -0.00000000000E+00  0.11368683772E-12  0.17120000000E+03  0.17120000000E+03 0.  0.
         13    1    1    2    0    0 -0.19534259911E+02  0.55957276811E+01  0.88066819851E+02  0.90380724722E+02  0.10566000000E+00 0.  1.
        994    1    1    2    0    0  0.78851603709E+02  0.10318701753E+02  0.22626163809E+02  0.19011952636E+03  0.17120000000E+03 0.  0.
        998    1    1    2    0    0 -0.59317343799E+02 -0.15914429434E+02  0.13893070126E+04  0.13906997489E+04  0.10000000000E+02 0.  1.
</event>
<event>
 5    1  0.5781797E-010  0.3873356E+03  0.7957747E-01  0.3419827E+00
         13   -1    0    0    0    0  0.00000000000E+00  0.00000000000E+00  0.14999999963E+04  0.15000000000E+04  0.10566000000E+00 0. -1.
        994   -1    0    0    0    0 -0.00000000000E+00 -0.00000000000E+00  0.11368683772E-12  0.17120000000E+03  0.17120000000E+03 0.  0.
         13    1    1    2    0    0 -0.15090656861E+03  0.90005791147E+02  0.93142761908E+03  0.94785613657E+03  0.10566000000E+00 0. -1.
        994    1    1    2    0    0  0.19285034267E+03 -0.11804606615E+03  0.19018357753E+03  0.34147527226E+03  0.17120000000E+03 0.  0.
        998    1    1    2    0    0 -0.41943774066E+02  0.28040275004E+02  0.37838879967E+03  0.38186859117E+03  0.10000000000E+02 0. -1.
</event>
<event>
 5    1  0.5781797E-010  0.3869014E+03  0.7957747E-01  0.3421648E+00
         13   -1    0    0    0    0  0.00000000000E+00  0.00000000000E+00  0.14999999963E+04  0.15000000000E+04  0.10566000000E+00 0. -1.
        994   -1    0    0    0    0 -0.00000000000E+00 -0.00000000000E+00  0.11368683772E-12  0.17120000000E+03  0.17120000000E+03 0.  0.
         13    1    1    2    0    0  0.10912120039E+02 -0.50923625694E+00  0.39640720444E+02  0.41118506377E+02  0.10566000000E+00 0. -1.
        994    1    1    2    0    0 -0.12931402967E+03  0.29037610197E+02  0.60364247313E+02  0.22476339433E+03  0.17120000000E+03 0.  0.
        998    1    1    2    0    0  0.11840190963E+03 -0.28528373940E+02  0.13999950285E+04  0.14053180993E+04  0.10000000000E+02 0. -1.
</event>
<event>
 5    1  0.5781797E-010  0.3871625E+03  0.7957747E-01  0.3420552E+00
         13   -1    0    0    0    0  0.00000000000E+00  0.00000000000E+00  0.14999999963E+04  0.15000000000E+04  0.10566000000E+00 0.  1.
        994   -1    0    0    0    0 -0.00000000000E+00 -0.00000000000E+00  0.11368683772E-12  0.17120000000E+03  0.17120000000E+03 0.  0.
         13    1    1    2    0    0  0.35896063782E+02  0.93871016449E+02  0.48326893303E+03  0.49360831428E+03  0.10566000000E+00 0.  1.
        994    1    1    2    0    0 -0.12904120135E+03 -0.24990296479E+03  0.32622072672E+03  0.46350029773E+03  0.17120000000E+03 0.  0.
        998    1    1    2    0    0  0.93145137568E+02  0.15603194834E+03  0.69051033652E+03  0.71409138799E+03  0.10000000000E+02 0.  1.
</event>
<event>
 5    1  0.5781797E-010  0.3866767E+03  0.7957747E-01  0.3422592E+00
         13   -1    0    0    0    0  0.00000000000E+00  0.00000000000E+00  0.14999999963E+04  0.15000000000E+04  0.10566000000E+00 0. -1.
        994   -1    0    0    0    0 -0.00000000000E+00 -0.00000000000E+00  0.11368683772E-12  0.17120000000E+03  0.17120000000E+03 0.  0.
         13    1    1    2    0    0 -0.12875513184E+03  0.19401581733E+03  0.12104567559E+04  0.12326498247E+04  0.10566000000E+00 0. -1.
        994    1    1    2    0    0  0.13551265812E+03 -0.20565640639E+03  0.23369245430E+03  0.38023655952E+03  0.17120000000E+03 0.  0.
        998    1    1    2    0    0 -0.67575262800E+01  0.11640589065E+02  0.55850786070E+02  0.58313615733E+02  0.10000000000E+02 0.  0.
</event>
<event>
 5    1  0.5781797E-010  0.3727111E+03  0.7957747E-01  0.3483523E+00
         13   -1    0    0    0    0  0.00000000000E+00  0.00000000000E+00  0.14999999963E+04  0.15000000000E+04  0.10566000000E+00 0. -1.
        994   -1    0    0    0    0 -0.00000000000E+00 -0.00000000000E+00  0.11368683772E-12  0.17120000000E+03  0.17120000000E+03 0.  0.
         13    1    1    2    0    0 -0.35020222257E+01  0.16754312866E+03  0.70436122814E+03  0.72402190229E+03  0.10566000000E+00 0. -1.
        994    1    1    2    0    0 -0.93796474768E+02 -0.21161135207E+03  0.22188926563E+03  0.36348511552E+03  0.17120000000E+03 0.  0.
        998    1    1    2    0    0  0.97298496994E+02  0.44068223412E+02  0.57374950251E+03  0.58369298219E+03  0.10000000000E+02 0. -1.
</event>
<event>
 5    1  0.5781797E-010  0.3876595E+03  0.7957747E-01  0.3418471E+00
         13   -1    0    0    0    0  0.00000000000E+00  0.00000000000E+00  0.14999999963E+04  0.15000000000E+04  0.10566000000E+00 0.  1.
        994   -1    0    0    0    0 -0.00000000000E+00 -0.00000000000E+00  0.11368683772E-12  0.17120000000E+03  0.17120000000E+03 0.  0.
         13    1    1    2    0    0 -0.14774044359E+02 -0.53347747644E+01  0.87938048466E+02  0.89329971122E+02  0.10566000000E+00 0.  1.
        994    1    1    2    0    0  0.24270228379E+03  0.15849745834E+03  0.35322993420E+03  0.48796174981E+03  0.17120000000E+03 0.  0.
        998    1    1    2    0    0 -0.22792823943E+03 -0.15316268358E+03  0.10588320136E+04  0.10939082791E+04  0.10000000000E+02 0.  1.
</event>
<event>
 5    1  0.5781797E-010  0.3814959E+03  0.7957747E-01  0.3444671E+00
         13   -1    0    0    0    0  0.00000000000E+00  0.00000000000E+00  0.14999999963E+04  0.15000000000E+04  0.10566000000E+00 0. -1.
        994   -1    0    0    0    0 -0.00000000000E+00 -0.00000000000E+00  0.11368683772E-12  0.17120000000E+03  0.17120000000E+03 0.  0.
         13    1    1    2    0    0 -0.57088911013E+02 -0.23547108097E+03  0.74059698889E+03  0.77922377072E+03  0.10566000000E+00 0. -1.
        994    1    1    2    0    0  0.92159015656E+02  0.28137764748E+03  0.39331126323E+03  0.52121958372E+03  0.17120000000E+03 0.  0.
        998    1    1    2    0    0 -0.35070104643E+02 -0.45906566516E+02  0.36609174416E+03  0.37075664557E+03  0.10000000000E+02 0.  1.
</event>
<event>
 5    1  0.5781797E-010  0.3881662E+03  0.7957747E-01  0.3416354E+00
         13   -1    0    0    0    0  0.00000000000E+00  0.00000000000E+00  0.14999999963E+04  0.15000000000E+04  0.10566000000E+00 0.  1.
        994   -1    0    0    0    0 -0.00000000000E+00 -0.00000000000E+00  0.11368683772E-12  0.17120000000E+03  0.17120000000E+03 0.  0.
         13    1    1    2    0    0 -0.13047843998E+03  0.58854045972E+02  0.44273763961E+03  0.46530103237E+03  0.10566000000E+00 0.  1.
        994    1    1    2    0    0  0.29607847625E+03 -0.12873230581E+03  0.49336877300E+03  0.61396796075E+03  0.17120000000E+03 0.  0.
        998    1    1    2    0    0 -0.16560003627E+03  0.69878259840E+02  0.56389358367E+03  0.59193100689E+03  0.10000000000E+02 0.  0.
</event>
<event>
 5    1  0.5781797E-010  0.3721465E+03  0.7957747E-01  0.3486084E+00
         13   -1    0    0    0    0  0.00000000000E+00  0.00000000000E+00  0.14999999963E+04  0.15000000000E+04  0.10566000000E+00 0.  1.
        994   -1    0    0    0    0 -0.00000000000E+00 -0.00000000000E+00  0.11368683772E-12  0.17120000000E+03  0.17120000000E+03 0.  0.
         13    1    1    2    0    0 -0.27222725414E+02  0.40656062336E+02  0.99668628921E+02  0.11103080176E+03  0.10566000000E+00 0.  1.
        994    1    1    2    0    0  0.19765880595E+03  0.11154145541E+03  0.22434482783E+03  0.36214712703E+03  0.17120000000E+03 0.  0.
        998    1    1    2    0    0 -0.17043608054E+03 -0.15219751774E+03  0.11759865395E+04  0.11980220712E+04  0.10000000000E+02 0.  1.
</event>
<event>
 5    1  0.5781797E-010  0.3878099E+03  0.7957747E-01  0.3417842E+00
         13   -1    0    0    0    0  0.00000000000E+00  0.00000000000E+00  0.14999999963E+04  0.15000000000E+04  0.10566000000E+00 0. -1.
        994   -1    0    0    0    0 -0.00000000000E+00 -0.00000000000E+00  0.11368683772E-12  0.17120000000E+03  0.17120000000E+03 0.  0.
         13    1    1    2    0    0 -0.87819249874E+02  0.18207381891E+03  0.11046149266E+04  0.11229591459E+04  0.10566000000E+00 0. -1.
        994    1    1    2    0    0  0.10262094446E+03 -0.21066317532E+03  0.20601983063E+03  0.35589835949E+03  0.17120000000E+03 0.  0.
        998    1    1    2    0    0 -0.14801694589E+02  0.28589356406E+02  0.18936523905E+03  0.19234249459E+03  0.10000000000E+02 0.  0.
</event>
<event>
 5    1  0.5781797E-010  0.3855631E+03  0.7957747E-01  0.3427288E+00
         13   -1    0    0    0    0  0.00000000000E+00  0.00000000000E+00  0.14999999963E+04  0.15000000000E+04  0.10566000000E+00 0. -1.
        994   -1    0    0    0    0 -0.00000000000E+00 -0.00000000000E+00  0.11368683772E-12  0.17120000000E+03  0.17120000000E+03 0.  0.
         13    1    1    2    0    0  0.84750221706E+02  0.20583183262E+03  0.12085158833E+04  0.12288449840E+04  0.10566000000E+00 0. -1.
        994    1    1    2    0    0 -0.77585503572E+02 -0.22109662779E+03  0.20912659505E+03  0.35769624256E+03  0.17120000000E+03 0.  0.
        998    1    1    2    0    0 -0.71647181334E+01  0.15264795176E+02  0.82357517931E+02  0.84658773423E+02  0.10000000000E+02 0. -1.
</event>
<event>
 5    1  0.5781797E-010  0.3786672E+03  0.7957747E-01  0.3456982E+00
         13   -1    0    0    0    0  0.00000000000E+00  0.00000000000E+00  0.14999999963E+04  0.15000000000E+04  0.10566000000E+00 0. -1.
        994   -1    0    0    0    0 -0.00000000000E+00 -0.00000000000E+00  0.11368683772E-12  0.17120000000E+03  0.17120000000E+03 0.  0.
         13    1    1    2    0    0  0.22619812651E+03  0.10826109482E+03  0.79078611687E+03  0.82959553452E+03  0.10566000000E+00 0. -1.
        994    1    1    2    0    0 -0.24929294598E+03 -0.18676009169E+03  0.47469003502E+03  0.59301464915E+03  0.17120000000E+03 0.  0.
        998    1    1    2    0    0  0.23094819477E+02  0.78498996873E+02  0.23452384439E+03  0.24858981633E+03  0.10000000000E+02 0. -1.
</event>
<event>
 5    1  0.5781797E-010  0.3686237E+03  0.7957747E-01  0.3502240E+00
         13   -1    0    0    0    0  0.00000000000E+00  0.00000000000E+00  0.14999999963E+04  0.15000000000E+04  0.10566000000E+00 0. -1.
        994   -1    0    0    0    0 -0.00000000000E+00 -0.00000000000E+00  0.11368683772E-12  0.17120000000E+03  0.17120000000E+03 0.  0.
         13    1    1    2    0    0  0.12312549101E+03  0.35606517979E+02  0.28688596919E+03  0.31421534199E+03  0.10566000000E+00 0. -1.
        994    1    1    2    0    0 -0.23887880860E+03 -0.22938071445E+02  0.24918029818E+03  0.38599158193E+03  0.17120000000E+03 0.  0.
        998    1    1    2    0    0  0.11575331759E+03 -0.12668446534E+02  0.96393372891E+03  0.97099307608E+03  0.10000000000E+02 0. -1.
</event>
<event>
 5    1  0.5781797E-010  0.3879367E+03  0.7957747E-01  0.3417312E+00
         13   -1    0    0    0    0  0.00000000000E+00  0.00000000000E+00  0.14999999963E+04  0.15000000000E+04  0.10566000000E+00 0. -1.
        994   -1    0    0    0    0 -0.00000000000E+00 -0.00000000000E+00  0.11368683772E-12  0.17120000000E+03  0.17120000000E+03 0.  0.
         13    1    1    2    0    0  0.51378168833E+02 -0.56451621163E+02  0.38282871317E+03  0.39036436384E+03  0.10566000000E+00 0. -1.
        994    1    1    2    0    0 -0.16182834731E+03  0.16365319521E+03  0.19736347023E+03  0.34818466606E+03  0.17120000000E+03 0.  0.
        998    1    1    2    0    0  0.11045017847E+03 -0.10720157405E+03  0.91980781288E+03  0.93265097010E+03  0.10000000000E+02 0. -1.
</event>
<event>
 5    1  0.5781797E-010  0.3869354E+03  0.7957747E-01  0.3421505E+00
         13   -1    0    0    0    0  0.00000000000E+00  0.00000000000E+00  0.14999999963E+04  0.15000000000E+04  0.10566000000E+00 0. -1.
        994   -1    0    0    0    0 -0.00000000000E+00 -0.00000000000E+00  0.11368683772E-12  0.17120000000E+03  0.17120000000E+03 0.  0.
         13    1    1    2    0    0  0.13035313693E+03  0.81708142085E+02  0.89821377057E+03  0.91129366815E+03  0.10566000000E+00 0. -1.
        994    1    1    2    0    0 -0.19894961006E+03 -0.92831291140E+02  0.17821977321E+03  0.33056062004E+03  0.17120000000E+03 0.  0.
        998    1    1    2    0    0  0.68596473131E+02  0.11123149056E+02  0.42356645250E+03  0.42934571181E+03  0.10000000000E+02 0. -1.
</event>
<event>
 5    1  0.5781797E-010  0.3871761E+03  0.7957747E-01  0.3420495E+00
         13   -1    0    0    0    0  0.00000000000E+00  0.00000000000E+00  0.14999999963E+04  0.15000000000E+04  0.10566000000E+00 0. -1.
        994   -1    0    0    0    0 -0.00000000000E+00 -0.00000000000E+00  0.11368683772E-12  0.17120000000E+03  0.17120000000E+03 0.  0.
         13    1    1    2    0    0 -0.80117280710E+01 -0.78003364174E+01  0.53231957943E+02  0.54393800616E+02  0.10566000000E+00 0. -1.
        994    1    1    2    0    0  0.10338900900E+03  0.45348057542E+02  0.43338570766E+02  0.20960297045E+03  0.17120000000E+03 0.  0.
        998    1    1    2    0    0 -0.95377280933E+02 -0.37547721124E+02  0.14034294676E+04  0.14072032289E+04  0.10000000000E+02 0. -1.
</event>
<event>
 5    1  0.5781797E-010  0.3829076E+03  0.7957747E-01  0.3438595E+00
         13   -1    0    0    0    0  0.00000000000E+00  0.00000000000E+00  0.14999999963E+04  0.15000000000E+04  0.10566000000E+00 0. -1.
        994   -1    0    0    0    0 -0.00000000000E+00 -0.00000000000E+00  0.11368683772E-12  0.17120000000E+03  0.17120000000E+03 0.  0.
         13    1    1    2    0    0  0.50451406110E+02 -0.25001324095E+02  0.24014462573E+03  0.24665737981E+03  0.10566000000E+00 0. -1.
        994    1    1    2    0    0 -0.10814028604E+03  0.94997382123E+02  0.74604517492E+02  0.23578400731E+03  0.17120000000E+03 0.  0.
        998    1    1    2    0    0  0.57688879931E+02 -0.69996058028E+02  0.11852508531E+04  0.11887586129E+04  0.10000000000E+02 0. -1.
</event>
<event>
 5    1  0.5781797E-010  0.3857108E+03  0.7957747E-01  0.3426663E+00
         13   -1    0    0    0    0  0.00000000000E+00  0.00000000000E+00  0.14999999963E+04  0.15000000000E+04  0.10566000000E+00 0.  1.
        994   -1    0    0    0    0 -0.00000000000E+00 -0.00000000000E+00  0.11368683772E-12  0.17120000000E+03  0.17120000000E+03 0.  0.
         13    1    1    2    0    0  0.47337381042E+01 -0.13629086866E+02  0.54649496789E+02  0.56522021802E+02  0.10566000000E+00 0.  1.
        994    1    1    2    0    0 -0.79251689065E+02  0.56409310954E+02  0.32966500345E+02  0.19964736594E+03  0.17120000000E+03 0.  0.
        998    1    1    2    0    0  0.74517950961E+02 -0.42780224088E+02  0.14123839991E+04  0.14150306123E+04  0.10000000000E+02 0.  1.
</event>
<event>
 5    1  0.5781797E-010  0.3860416E+03  0.7957747E-01  0.3425267E+00
         13   -1    0    0    0    0  0.00000000000E+00  0.00000000000E+00  0.14999999963E+04  0.15000000000E+04  0.10566000000E+00 0. -1.
        994   -1    0    0    0    0 -0.00000000000E+00 -0.00000000000E+00  0.11368683772E-12  0.17120000000E+03  0.17120000000E+03 0.  0.
         13    1    1    2    0    0  0.13361056025E+03 -0.14158631779E+03  0.84934897086E+03  0.87137371584E+03  0.10566000000E+00 0. -1.
        994    1    1    2    0    0 -0.18276097522E+03  0.17318281845E+03  0.24760189125E+03  0.39244107739E+03  0.17120000000E+03 0.  0.
        998    1    1    2    0    0  0.49150414963E+02 -0.31596500663E+02  0.40304913417E+03  0.40738520677E+03  0.10000000000E+02 0.  1.
</event>
<event>
 5    1  0.5781797E-010  0.3850665E+03  0.7957747E-01  0.3429390E+00
         13   -1    0    0    0    0  0.00000000000E+00  0.00000000000E+00  0.14999999963E+04  0.15000000000E+04  0.10566000000E+00 0.  1.
        994   -1    0    0    0    0 -0.00000000000E+00 -0.00000000000E+00  0.11368683772E-12  0.17120000000E+03  0.17120000000E+03 0.  0.
         13    1    1    2    0    0  0.10766498234E+02 -0.14361523956E+03  0.45165258685E+03  0.47405835600E+03  0.10566000000E+00 0.  1.
        994    1    1    2    0    0 -0.37364379211E+02  0.28169506617E+03  0.34049846426E+03  0.47539126128E+03  0.17120000000E+03 0.  0.
        998    1    1    2    0    0  0.26597880976E+02 -0.13807982660E+03  0.70784894517E+03  0.72175038273E+03  0.10000000000E+02 0.  1.
</event>
<event>
 5    1  0.5781797E-010  0.3878345E+03  0.7957747E-01  0.3417739E+00
         13   -1    0    0    0    0  0.00000000000E+00  0.00000000000E+00  0.14999999963E+04  0.15000000000E+04  0.10566000000E+00 0.  1.
        994   -1    0    0    0    0 -0.00000000000E+00 -0.00000000000E+00  0.11368683772E-12  0.17120000000E+03  0.17120000000E+03 0.  0.
         13    1    1    2    0    0  0.17212714615E+03 -0.46296257329E+02  0.94433493640E+03  0.96100966756E+03  0.10566000000E+00 0.  1.
        994    1    1    2    0    0 -0.23113649632E+03  0.53091018499E+02  0.21188984305E+03  0.36117790874E+03  0.17120000000E+03 0.  0.
        998    1    1    2    0    0  0.59009350166E+02 -0.67947611695E+01  0.34377521683E+03  0.34901242369E+03  0.10000000000E+02 0.  0.
</event>
<event>
 5    1  0.5781797E-010  0.3825366E+03  0.7957747E-01  0.3440187E+00
         13   -1    0    0    0    0  0.00000000000E+00  0.00000000000E+00  0.14999999963E+04  0.15000000000E+04  0.10566000000E+00 0.  1.
        994   -1    0    0    0    0 -0.00000000000E+00 -0.00000000000E+00  0.11368683772E-12  0.17120000000E+03  0.17120000000E+03 0.  0.
         13    1    1    2    0    0 -0.11820854266E+03  0.11126090425E+03  0.83467066433E+03  0.85031016543E+03  0.10566000000E+00 0.  1.
        994    1    1    2    0    0  0.14681585604E+03 -0.21848936376E+03  0.28322324766E+03  0.42286800030E+03  0.17120000000E+03 0.  0.
        998    1    1    2    0    0 -0.28607313373E+02  0.10722845951E+03  0.38210608428E+03  0.39802183427E+03  0.10000000000E+02 0. -1.
</event>
<event>
 5    1  0.5781797E-010  0.3767036E+03  0.7957747E-01  0.3465639E+00
         13   -1    0    0    0    0  0.00000000000E+00  0.00000000000E+00  0.14999999963E+04  0.15000000000E+04  0.10566000000E+00 0.  1.
        994   -1    0    0    0    0 -0.00000000000E+00 -0.00000000000E+00  0.11368683772E-12  0.17120000000E+03  0.17120000000E+03 0.  0.
         13    1    1    2    0    0  0.18592443888E+02 -0.15566873253E+03  0.52157300971E+03  0.54462542071E+03  0.10566000000E+00 0.  1.
        994    1    1    2    0    0 -0.99957380204E+02  0.22697828481E+03  0.25423840316E+03  0.39428064279E+03  0.17120000000E+03 0.  0.
        998    1    1    2    0    0  0.81364936316E+02 -0.71309552284E+02  0.72418858340E+03  0.73229393650E+03  0.10000000000E+02 0.  1.
</event>
<event>
 5    1  0.5781797E-010  0.3854348E+03  0.7957747E-01  0.3427830E+00
         13   -1    0    0    0    0  0.00000000000E+00  0.00000000000E+00  0.14999999963E+04  0.15000000000E+04  0.10566000000E+00 0.  1.
        994   -1    0    0    0    0 -0.00000000000E+00 -0.00000000000E+00  0.11368683772E-12  0.17120000000E+03  0.17120000000E+03 0.  0.
         13    1    1    2    0    0  0.22892112349E+03 -0.13162439806E+02  0.87636831019E+03  0.90586950323E+03  0.10566000000E+00 0.  1.
        994    1    1    2    0    0 -0.27709229982E+03 -0.12911873918E+01  0.31724291873E+03  0.45468045841E+03  0.17120000000E+03 0.  0.
        998    1    1    2    0    0  0.48171176323E+02  0.14453627198E+02  0.30638876736E+03  0.31065003836E+03  0.10000000000E+02 0. -1.
</event>
<event>
 5    1  0.5781797E-010  0.3792737E+03  0.7957747E-01  0.3454327E+00
         13   -1    0    0    0    0  0.00000000000E+00  0.00000000000E+00  0.14999999963E+04  0.15000000000E+04  0.10566000000E+00 0.  1.
        994   -1    0    0    0    0 -0.00000000000E+00 -0.00000000000E+00  0.11368683772E-12  0.17120000000E+03  0.17120000000E+03 0.  0.
         13    1    1    2    0    0 -0.34454252629E+02 -0.54824116520E+02  0.34715102768E+03  0.35313825403E+03  0.10566000000E+00 0.  1.
        994    1    1    2    0    0  0.15918144814E+03  0.22178997136E+02  0.96577890634E+02  0.25390425421E+03  0.17120000000E+03 0.  0.
        998    1    1    2    0    0 -0.12472719552E+03  0.32645119385E+02  0.10562710780E+04  0.10641574918E+04  0.10000000000E+02 0.  1.
</event>
<event>
 5    1  0.5781797E-010  0.3876699E+03  0.7957747E-01  0.3418427E+00
         13   -1    0    0    0    0  0.00000000000E+00  0.00000000000E+00  0.14999999963E+04  0.15000000000E+04  0.10566000000E+00 0.  1.
        994   -1    0    0    0    0 -0.00000000000E+00 -0.00000000000E+00  0.11368683772E-12  0.17120000000E+03  0.17120000000E+03 0.  0.
         13    1    1    2    0    0  0.10143419692E+03 -0.49154890494E+02  0.63118788567E+03  0.64117334454E+03  0.10566000000E+00 0.  1.
        994    1    1    2    0    0 -0.21176789168E+03  0.74036883704E+02  0.18633264731E+03  0.33816622473E+03  0.17120000000E+03 0.  0.
        998    1    1    2    0    0  0.11033369476E+03 -0.24881993210E+02  0.68247946330E+03  0.69186043073E+03  0.10000000000E+02 0.  1.
</event>
<event>
 5    1  0.5781797E-010  0.3238561E+03  0.7957747E-01  0.3739173E+00
         13   -1    0    0    0    0  0.00000000000E+00  0.00000000000E+00  0.14999999963E+04  0.15000000000E+04  0.10566000000E+00 0. -1.
        994   -1    0    0    0    0 -0.00000000000E+00 -0.00000000000E+00  0.11368683772E-12  0.17120000000E+03  0.17120000000E+03 0.  0.
         13    1    1    2    0    0  0.17779850916E+02  0.17751814178E+03  0.89978721925E+03  0.91730358380E+03  0.10566000000E+00 0. -1.
        994    1    1    2    0    0 -0.11161800068E+03 -0.15970671015E+03  0.16317528107E+03  0.30643176026E+03  0.17120000000E+03 0.  0.
        998    1    1    2    0    0  0.93838149765E+02 -0.17811431633E+02  0.43703749595E+03  0.44746465594E+03  0.10000000000E+02 0. -1.
</event>
<event>
 5    1  0.5781797E-010  0.3839877E+03  0.7957747E-01  0.3433977E+00
         13   -1    0    0    0    0  0.00000000000E+00  0.00000000000E+00  0.14999999963E+04  0.15000000000E+04  0.10566000000E+00 0.  1.
        994   -1    0    0    0    0 -0.00000000000E+00 -0.00000000000E+00  0.11368683772E-12  0.17120000000E+03  0.17120000000E+03 0.  0.
         13    1    1    2    0    0  0.60260969865E+01  0.12563707783E+02  0.78484770039E+02  0.79712175295E+02  0.10566000000E+00 0.  1.
        994    1    1    2    0    0  0.22289554463E+02  0.68854617401E+02  0.19611300652E+02  0.18690057702E+03  0.17120000000E+03 0.  0.
        998    1    1    2    0    0 -0.28315651450E+02 -0.81418325185E+02  0.14019039256E+04  0.14045872477E+04  0.10000000000E+02 0.  1.
</event>
<event>
 5    1  0.5781797E-010  0.3728503E+03  0.7957747E-01  0.3482893E+00
         13   -1    0    0    0    0  0.00000000000E+00  0.00000000000E+00  0.14999999963E+04  0.15000000000E+04  0.10566000000E+00 0. -1.
        994   -1    0    0    0    0 -0.00000000000E+00 -0.00000000000E+00  0.11368683772E-12  0.17120000000E+03  0.17120000000E+03 0.  0.
         13    1    1    2    0    0 -0.15506410062E+02 -0.37906877237E+02  0.69151543996E+02  0.80369940251E+02  0.10566000000E+00 0. -1.
        994    1    1    2    0    0  0.15809773558E+03  0.84647429110E+02  0.12742466841E+03  0.27875897720E+03  0.17120000000E+03 0.  0.
        998    1    1    2    0    0 -0.14259132551E+03 -0.46740551873E+02  0.13034237839E+04  0.13120710826E+04  0.10000000000E+02 0. -1.
</event>
<event>
 5    1  0.5781797E-010  0.3867593E+03  0.7957747E-01  0.3422245E+00
         13   -1    0    0    0    0  0.00000000000E+00  0.00000000000E+00  0.14999999963E+04  0.15000000000E+04  0.10566000000E+00 0. -1.
        994   -1    0    0    0    0 -0.00000000000E+00 -0.00000000000E+00  0.11368683772E-12  0.17120000000E+03  0.17120000000E+03 0.  0.
         13    1    1    2    0    0 -0.19688923304E+03  0.13969479280E+03  0.11814513430E+04  0.12058637122E+04  0.10566000000E+00 0. -1.
        994    1    1    2    0    0  0.20386129321E+03 -0.15032227007E+03  0.25005641126E+03  0.39496058102E+03  0.17120000000E+03 0.  0.
        998    1    1    2    0    0 -0.69720601653E+01  0.10627477269E+02  0.68492241980E+02  0.70375706799E+02  0.10000000000E+02 0. -1.
</event>
<event>
 5    1  0.6173832E-010  0.3870487E+03  0.7957747E-01  0.3421029E+00
         13   -1    0    0    0    0  0.00000000000E+00  0.00000000000E+00  0.14999999963E+04  0.15000000000E+04  0.10566000000E+00 0. -1.
        994   -1    0    0    0    0 -0.00000000000E+00 -0.00000000000E+00  0.11368683772E-12  0.17120000000E+03  0.17120000000E+03 0.  0.
         13    1    1    2    0    0 -0.73391221768E+02  0.18855953788E+03  0.10842251366E+04  0.11029438466E+04  0.10566000000E+00 0. -1.
        994    1    1    2    0    0  0.84054342216E+02 -0.21159903373E+03  0.19363383904E+03  0.34444562291E+03  0.17120000000E+03 0.  0.
        998    1    1    2    0    0 -0.10663120448E+02  0.23039495852E+02  0.22214102060E+03  0.22381053045E+03  0.10000000000E+02 0. -1.
</event>
<event>
 5    1  0.5781797E-010  0.3839980E+03  0.7957747E-01  0.3433933E+00
         13   -1    0    0    0    0  0.00000000000E+00  0.00000000000E+00  0.14999999963E+04  0.15000000000E+04  0.10566000000E+00 0.  1.
        994   -1    0    0    0    0 -0.00000000000E+00 -0.00000000000E+00  0.11368683772E-12  0.17120000000E+03  0.17120000000E+03 0.  0.
         13    1    1    2    0    0 -0.37464131204E+01 -0.94278016373E+01  0.27767508219E+02  0.29562894508E+02  0.10566000000E+00 0.  1.
        994    1    1    2    0    0 -0.72101647092E+02 -0.81662445430E+01  0.19698566145E+02  0.18698344465E+03  0.17120000000E+03 0.  0.
        998    1    1    2    0    0  0.75848060213E+02  0.17594046180E+02  0.14525339219E+04  0.14546536608E+04  0.10000000000E+02 0.  1.
</event>
<event>
 5    1  0.5781797E-010  0.3843026E+03  0.7957747E-01  0.3432635E+00
         13   -1    0    0    0    0  0.00000000000E+00  0.00000000000E+00  0.14999999963E+04  0.15000000000E+04  0.10566000000E+00 0.  1.
        994   -1    0    0    0    0 -0.00000000000E+00 -0.00000000000E+00  0.11368683772E-12  0.17120000000E+03  0.17120000000E+03 0.  0.
         13    1    1    2    0    0 -0.18872285502E+03 -0.12644579313E+03  0.10210361523E+04  0.10460017639E+04  0.10566000000E+00 0.  1.
        994    1    1    2    0    0  0.19682199114E+03  0.16358179790E+03  0.26077649264E+03  0.40349934314E+03  0.17120000000E+03 0.  0.
        998    1    1    2    0    0 -0.80991361220E+01 -0.37136004775E+02  0.21818735134E+03  0.22169889297E+03  0.10000000000E+02 0.  1.
</event>
<event>
 5    1  0.5781797E-010  0.3826375E+03  0.7957747E-01  0.3439754E+00
         13   -1    0    0    0    0  0.00000000000E+00  0.00000000000E+00  0.14999999963E+04  0.15000000000E+04  0.10566000000E+00 0.  1.
        994   -1    0    0    0    0 -0.00000000000E+00 -0.00000000000E+00  0.11368683772E-12  0.17120000000E+03  0.17120000000E+03 0.  0.
         13    1    1    2    0    0 -0.47477508847E+02 -0.11184999967E+01  0.20225641863E+03  0.20775715374E+03  0.10566000000E+00 0.  1.
        994    1    1    2    0    0  0.12078347526E+03 -0.58057867820E+02  0.64800757956E+02  0.22686547147E+03  0.17120000000E+03 0.  0.
        998    1    1    2    0    0 -0.73305966416E+02  0.59176367817E+02  0.12329428197E+04  0.12365773748E+04  0.10000000000E+02 0.  1.
</event>
<event>
 5    1  0.5781797E-010  0.3880072E+03  0.7957747E-01  0.3417018E+00
         13   -1    0    0    0    0  0.00000000000E+00  0.00000000000E+00  0.14999999963E+04  0.15000000000E+04  0.10566000000E+00 0.  1.
        994   -1    0    0    0    0 -0.00000000000E+00 -0.00000000000E+00  0.11368683772E-12  0.17120000000E+03  0.17120000000E+03 0.  0.
         13    1    1    2    0    0  0.92507977540E+02 -0.20730922368E+03  0.65214179605E+03  0.69052427433E+03  0.10566000000E+00 0.  1.
        994    1    1    2    0    0 -0.13817941039E+03  0.30336752631E+03  0.56178264085E+03  0.67530332521E+03  0.17120000000E+03 0.  0.
        998    1    1    2    0    0  0.45671432853E+02 -0.96058302632E+02  0.28607555939E+03  0.30537240046E+03  0.10000000000E+02 0.  1.
</event>
<event>
 5    1  0.5781797E-010  0.3878705E+03  0.7957747E-01  0.3417589E+00
         13   -1    0    0    0    0  0.00000000000E+00  0.00000000000E+00  0.14999999963E+04  0.15000000000E+04  0.10566000000E+00 0.  1.
        994   -1    0    0    0    0 -0.00000000000E+00 -0.00000000000E+00  0.11368683772E-12  0.17120000000E+03  0.17120000000E+03 0.  0.
         13    1    1    2    0    0  0.23687545845E+03 -0.19016130339E+02  0.85305339468E+03  0.88553469801E+03  0.10566000000E+00 0.  1.
        994    1    1    2    0    0 -0.30428936011E+03  0.30721697387E+02  0.41281774261E+03  0.54153833288E+03  0.17120000000E+03 0.  0.
        998    1    1    2    0    0  0.67413901666E+02 -0.11705567048E+02  0.23412885898E+03  0.24412696911E+03  0.10000000000E+02 0.  1.
</event>
<event>
 5    1  0.5781797E-010  0.3845300E+03  0.7957747E-01  0.3431668E+00
         13   -1    0    0    0    0  0.00000000000E+00  0.00000000000E+00  0.14999999963E+04  0.15000000000E+04  0.10566000000E+00 0. -1.
        994   -1    0    0    0    0 -0.00000000000E+00 -0.00000000000E+00  0.11368683772E-12  0.17120000000E+03  0.17120000000E+03 0.  0.
         13    1    1    2    0    0  0.28978259016E+02 -0.27510628807E+03  0.10940571509E+04  0.11284876028E+04  0.10566000000E+00 0. -1.
        994    1    1    2    0    0 -0.17365914891E+02  0.28573916484E+03  0.34886470898E+03  0.48266393121E+03  0.17120000000E+03 0.  0.
        998    1    1    2    0    0 -0.11612344125E+02 -0.10632876769E+02  0.57078136435E+02  0.60048465953E+02  0.10000000000E+02 0.  1.
</event>
<event>
 5    1  0.5781797E-010  0.3853819E+03  0.7957747E-01  0.3428054E+00
         13   -1    0    0    0    0  0.00000000000E+00  0.00000000000E+00  0.14999999963E+04  0.15000000000E+04  0.10566000000E+00 0.  1.
        994   -1    0    0    0    0 -0.00000000000E+00 -0.00000000000E+00  0.11368683772E-12  0.17120000000E+03  0.17120000000E+03 0.  0.
         13    1    1    2    0    0 -0.23131710879E+02  0.56168166610E+02  0.33326459615E+03  0.33875542977E+03  0.10566000000E+00 0.  1.
        994    1    1    2    0    0  0.27044036061E+02 -0.14643129149E+03  0.78014909838E+02  0.23993596890E+03  0.17120000000E+03 0.  0.
        998    1    1    2    0    0 -0.39123251824E+01  0.90263124880E+02  0.10887204903E+04  0.10925086013E+04  0.10000000000E+02 0.  1.
</event>
<event>
 5    1  0.5781797E-010  0.3860587E+03  0.7957747E-01  0.3425194E+00
         13   -1    0    0    0    0  0.00000000000E+00  0.00000000000E+00  0.14999999963E+04  0.15000000000E+04  0.10566000000E+00 0. -1.
        994   -1    0    0    0    0 -0.00000000000E+00 -0.00000000000E+00  0.11368683772E-12  0.17120000000E+03  0.17120000000E+03 0.  0.
         13    1    1    2    0    0 -0.10281102727E+03  0.36556874448E+02  0.48118127351E+03  0.49339835988E+03  0.10566000000E+00 0. -1.
        994    1    1    2    0    0  0.20575097090E+03 -0.90882417696E+02  0.18954104843E+03  0.34033560630E+03  0.17120000000E+03 0.  0.
        998    1    1    2    0    0 -0.10293994363E+03  0.54325543247E+02  0.82927767434E+03  0.83746603382E+03  0.10000000000E+02 0. -1.
</event>
<event>
 5    1  0.7236646E-010  0.3875176E+03  0.7957747E-01  0.3419064E+00
         13   -1    0    0    0    0  0.00000000000E+00  0.00000000000E+00  0.14999999963E+04  0.15000000000E+04  0.10566000000E+00 0. -1.
        994   -1    0    0    0    0 -0.00000000000E+00 -0.00000000000E+00  0.11368683772E-12  0.17120000000E+03  0.17120000000E+03 0.  0.
         13    1    1    2    0    0  0.74003901968E+02  0.18821934884E+03  0.11728743503E+04  0.11901837478E+04  0.10566000000E+00 0. -1.
        994    1    1    2    0    0 -0.81959757407E+02 -0.20612196553E+03  0.18174825402E+03  0.33398433248E+03  0.17120000000E+03 0.  0.
        998    1    1    2    0    0  0.79558554399E+01  0.17902616690E+02  0.14537739201E+03  0.14703191976E+03  0.10000000000E+02 0.  0.
</event>
<event>
 5    1  0.5781797E-010  0.3868889E+03  0.7957747E-01  0.3421700E+00
         13   -1    0    0    0    0  0.00000000000E+00  0.00000000000E+00  0.14999999963E+04  0.15000000000E+04  0.10566000000E+00 0. -1.
        994   -1    0    0    0    0 -0.00000000000E+00 -0.00000000000E+00  0.11368683772E-12  0.17120000000E+03  0.17120000000E+03 0.  0.
         13    1    1    2    0    0  0.13138631654E+03 -0.12028484723E+03  0.10327801900E+04  0.10480294561E+04  0.10566000000E+00 0. -1.
        994    1    1    2    0    0 -0.15426317862E+03  0.16882911153E+03  0.19584493921E+03  0.34635975140E+03  0.17120000000E+03 0.  0.
        998    1    1    2    0    0  0.22876862079E+02 -0.48544264300E+02  0.27137486703E+03  0.27681079254E+03  0.10000000000E+02 0.  0.
</event>
<event>
 5    1  0.5781797E-010  0.3872507E+03  0.7957747E-01  0.3420183E+00
         13   -1    0    0    0    0  0.00000000000E+00  0.00000000000E+00  0.14999999963E+04  0.15000000000E+04  0.10566000000E+00 0. -1.
        994   -1    0    0    0    0 -0.00000000000E+00 -0.00000000000E+00  0.11368683772E-12  0.17120000000E+03  0.17120000000E+03 0.  0.
         13    1    1    2    0    0  0.20029418782E+03 -0.93677384917E+02  0.10501221630E+04  0.10731494689E+04  0.10566000000E+00 0. -1.
        994    1    1    2    0    0 -0.23346564580E+03  0.99136736646E+02  0.25008944321E+03  0.39520686979E+03  0.17120000000E+03 0.  0.
        998    1    1    2    0    0  0.33171457978E+02 -0.54593517285E+01  0.19978839005E+03  0.20284366133E+03  0.10000000000E+02 0. -1.
</event>
<event>
 5    1  0.5781797E-010  0.3797933E+03  0.7957747E-01  0.3452059E+00
         13   -1    0    0    0    0  0.00000000000E+00  0.00000000000E+00  0.14999999963E+04  0.15000000000E+04  0.10566000000E+00 0.  1.
        994   -1    0    0    0    0 -0.00000000000E+00 -0.00000000000E+00  0.11368683772E-12  0.17120000000E+03  0.17120000000E+03 0.  0.
         13    1    1    2    0    0 -0.85245087906E+02  0.90574736817E+02  0.69298499229E+03  0.70405874660E+03  0.10566000000E+00 0.  1.
        994    1    1    2    0    0  0.20241025436E+03 -0.74795598436E+02  0.18011462553E+03  0.32911245942E+03  0.17120000000E+03 0.  0.
        998    1    1    2    0    0 -0.11716516645E+03 -0.15779138381E+02  0.62690037845E+03  0.63802879398E+03  0.10000000000E+02 0.  1.
</event>
<event>
 5    1  0.5781797E-010  0.3863571E+03  0.7957747E-01  0.3423937E+00
         13   -1    0    0    0    0  0.00000000000E+00  0.00000000000E+00  0.14999999963E+04  0.15000000000E+04  0.10566000000E+00 0.  1.
        994   -1    0    0    0    0 -0.00000000000E+00 -0.00000000000E+00  0.11368683772E-12  0.17120000000E+03  0.17120000000E+03 0.  0.
         13    1    1    2    0    0 -0.27967937637E+01 -0.10486555969E+02  0.55733980588E+02  0.56780962194E+02  0.10566000000E+00 0.  1.
        994    1    1    2    0    0 -0.27428812599E+02  0.33101199952E+02  0.70322248571E+01  0.17665480855E+03  0.17120000000E+03 0.  0.
        998    1    1    2    0    0  0.30225606363E+02 -0.22614643983E+02  0.14372337908E+04  0.14377642293E+04  0.10000000000E+02 0.  1.
</event>
<event>
 5    1  0.5781797E-010  0.3743041E+03  0.7957747E-01  0.3476341E+00
         13   -1    0    0    0    0  0.00000000000E+00  0.00000000000E+00  0.14999999963E+04  0.15000000000E+04  0.10566000000E+00 0.  1.
        994   -1    0    0    0    0 -0.00000000000E+00 -0.00000000000E+00  0.11368683772E-12  0.17120000000E+03  0.17120000000E+03 0.  0.
         13    1    1    2    0    0 -0.36912759186E+02  0.49352749282E+02  0.15036993780E+03  0.16250961513E+03  0.10566000000E+00 0.  1.
        994    1    1    2    0    0  0.14407949458E+03  0.74868949714E+02  0.11377137403E+03  0.26194966298E+03  0.17120000000E+03 0.  0.
        998    1    1    2    0    0 -0.10716673539E+03 -0.12422169900E+03  0.12358586845E+04  0.12467407219E+04  0.10000000000E+02 0.  1.
</event>
<event>
 5    1  0.5781797E-010  0.3775834E+03  0.7957747E-01  0.3461749E+00
         13   -1    0    0    0    0  0.00000000000E+00  0.00000000000E+00  0.14999999963E+04  0.15000000000E+04  0.10566000000E+00 0. -1.
        994   -1    0    0    0    0 -0.00000000000E+00 -0.00000000000E+00  0.11368683772E-12  0.17120000000E+03  0.17120000000E+03 0.  0.
         13    1    1    2    0    0  0.38220811175E+01  0.10705038669E+02  0.12623752275E+02  0.16987537859E+02  0.10566000000E+00 0. -1.
        994    1    1    2    0    0 -0.47452221466E+02  0.15562830153E+03  0.10048957468E+03  0.25666997522E+03  0.17120000000E+03 0.  0.
        998    1    1    2    0    0  0.43630140348E+02 -0.16633334020E+03  0.13868866693E+04  0.13975424869E+04  0.10000000000E+02 0. -1.
</event>
<event>
 5    1  0.1009419E-009  0.3861712E+03  0.7957747E-01  0.3424720E+00
         13   -1    0    0    0    0  0.00000000000E+00  0.00000000000E+00  0.14999999963E+04  0.15000000000E+04  0.10566000000E+00 0. -1.
        994   -1    0    0    0    0 -0.00000000000E+00 -0.00000000000E+00  0.11368683772E-12  0.17120000000E+03  0.17120000000E+03 0.  0.
         13    1    1    2    0    0 -0.14011760629E+02 -0.29454780534E+01  0.81590889385E+02  0.82837730966E+02  0.10566000000E+00 0. -1.
        994    1    1    2    0    0  0.48398773476E+02 -0.45910503668E+02  0.15767569116E+02  0.18441331800E+03  0.17120000000E+03 0.  0.
        998    1    1    2    0    0 -0.34387012847E+02  0.48855981722E+02  0.14026415378E+04  0.14039489510E+04  0.10000000000E+02 0. -1.
</event>
<event>
 5    1  0.5781797E-010  0.3621676E+03  0.7957747E-01  0.3532680E+00
         13   -1    0    0    0    0  0.00000000000E+00  0.00000000000E+00  0.14999999963E+04  0.15000000000E+04  0.10566000000E+00 0. -1.
        994   -1    0    0    0    0 -0.00000000000E+00 -0.00000000000E+00  0.11368683772E-12  0.17120000000E+03  0.17120000000E+03 0.  0.
         13    1    1    2    0    0  0.14431423947E+03 -0.18058901581E+03  0.10840417428E+04  0.11084157630E+04  0.10566000000E+00 0. -1.
        994    1    1    2    0    0 -0.11876620125E+03  0.22293734894E+03  0.26685123042E+03  0.40537080714E+03  0.17120000000E+03 0.  0.
        998    1    1    2    0    0 -0.25548038227E+02 -0.42348333127E+02  0.14910702302E+03  0.15741342983E+03  0.10000000000E+02 0. -1.
</event>
<event>
 5    1  0.5781797E-010  0.3832603E+03  0.7957747E-01  0.3437084E+00
         13   -1    0    0    0    0  0.00000000000E+00  0.00000000000E+00  0.14999999963E+04  0.15000000000E+04  0.10566000000E+00 0. -1.
        994   -1    0    0    0    0 -0.00000000000E+00 -0.00000000000E+00  0.11368683772E-12  0.17120000000E+03  0.17120000000E+03 0.  0.
         13    1    1    2    0    0  0.31145912580E+03 -0.28494062320E+02  0.10111285791E+04  0.10583948759E+04  0.10566000000E+00 0. -1.
        994    1    1    2    0    0 -0.31358777552E+03  0.25497921497E+02  0.46767001959E+03  0.58907734991E+03  0.17120000000E+03 0.  0.
        998    1    1    2    0    0  0.21286497218E+01  0.29961408231E+01  0.21201397564E+02  0.23727774193E+02  0.10000000000E+02 0.  0.
</event>
<event>
 5    1  0.5781797E-010  0.2131186E+03  0.7957747E-01  0.4814282E+00
         13   -1    0    0    0    0  0.00000000000E+00  0.00000000000E+00  0.14999999963E+04  0.15000000000E+04  0.10566000000E+00 0.  1.
        994   -1    0    0    0    0 -0.00000000000E+00 -0.00000000000E+00  0.11368683772E-12  0.17120000000E+03  0.17120000000E+03 0.  0.
         13    1    1    2    0    0 -0.31530494104E+02  0.11528283087E+03  0.52923045825E+03  0.54255800819E+03  0.10566000000E+00 0.  1.
        994    1    1    2    0    0  0.54806500145E+02  0.19360885259E+03  0.48866402397E+03  0.55550887354E+03  0.17120000000E+03 0.  0.
        998    1    1    2    0    0 -0.23276006041E+02 -0.30889168346E+03  0.48210551406E+03  0.57313311827E+03  0.10000000000E+02 0.  1.
</event>
<event>
 5    1  0.5781797E-010  0.3867466E+03  0.7957747E-01  0.3422298E+00
         13   -1    0    0    0    0  0.00000000000E+00  0.00000000000E+00  0.14999999963E+04  0.15000000000E+04  0.10566000000E+00 0.  1.
        994   -1    0    0    0    0 -0.00000000000E+00 -0.00000000000E+00  0.11368683772E-12  0.17120000000E+03  0.17120000000E+03 0.  0.
         13    1    1    2    0    0  0.14513990377E+02  0.18648520488E+01  0.55176950772E+02  0.57084504468E+02  0.10566000000E+00 0.  1.
        994    1    1    2    0    0 -0.18373671212E+03  0.10851740784E+03  0.16730279151E+03  0.32067876642E+03  0.17120000000E+03 0.  0.
        998    1    1    2    0    0  0.16922272174E+03 -0.11038225989E+03  0.12775202540E+04  0.12934367291E+04  0.10000000000E+02 0.  1.
</event>
<event>
 5    1  0.5781797E-010  0.3789179E+03  0.7957747E-01  0.3455884E+00
         13   -1    0    0    0    0  0.00000000000E+00  0.00000000000E+00  0.14999999963E+04  0.15000000000E+04  0.10566000000E+00 0.  1.
        994   -1    0    0    0    0 -0.00000000000E+00 -0.00000000000E+00  0.11368683772E-12  0.17120000000E+03  0.17120000000E+03 0.  0.
         13    1    1    2    0    0 -0.45259980404E+02 -0.46120806255E+02  0.31927896888E+03  0.32575246082E+03  0.10566000000E+00 0.  1.
        994    1    1    2    0    0  0.13951458802E+03 -0.33600077566E+01  0.73067597979E+02  0.23264548953E+03  0.17120000000E+03 0.  0.
        998    1    1    2    0    0 -0.94254607616E+02  0.49480814011E+02  0.11076534294E+04  0.11128020497E+04  0.10000000000E+02 0.  1.
</event>
<event>
 5    1  0.5781797E-010  0.3836132E+03  0.7957747E-01  0.3435575E+00
         13   -1    0    0    0    0  0.00000000000E+00  0.00000000000E+00  0.14999999963E+04  0.15000000000E+04  0.10566000000E+00 0. -1.
        994   -1    0    0    0    0 -0.00000000000E+00 -0.00000000000E+00  0.11368683772E-12  0.17120000000E+03  0.17120000000E+03 0.  0.
         13    1    1    2    0    0  0.49930055276E+02  0.18449432740E+03  0.98145657121E+03  0.99989408419E+03  0.10566000000E+00 0. -1.
        994    1    1    2    0    0 -0.39764168015E+02 -0.21016265437E+03  0.17192459934E+03  0.32344557225E+03  0.17120000000E+03 0.  0.
        998    1    1    2    0    0 -0.10165887260E+02  0.25668326967E+02  0.34661882573E+03  0.34786034356E+03  0.10000000000E+02 0. -1.
</event>
<event>
 5    1  0.5781797E-010  0.3829328E+03  0.7957747E-01  0.3438487E+00
         13   -1    0    0    0    0  0.00000000000E+00  0.00000000000E+00  0.14999999963E+04  0.15000000000E+04  0.10566000000E+00 0. -1.
        994   -1    0    0    0    0 -0.00000000000E+00 -0.00000000000E+00  0.11368683772E-12  0.17120000000E+03  0.17120000000E+03 0.  0.
         13    1    1    2    0    0  0.70206267009E+02 -0.11149060925E+03  0.66724243232E+03  0.68012612840E+03  0.10566000000E+00 0. -1.
        994    1    1    2    0    0 -0.15253748082E+03  0.13645595805E+03  0.15659255639E+03  0.30938419523E+03  0.17120000000E+03 0.  0.
        998    1    1    2    0    0  0.82331213806E+02 -0.24965348807E+02  0.67616500758E+03  0.68168967638E+03  0.10000000000E+02 0. -1.
</event>
<event>
 5    1  0.5781797E-010  0.3711635E+03  0.7957747E-01  0.3490560E+00
         13   -1    0    0    0    0  0.00000000000E+00  0.00000000000E+00  0.14999999963E+04  0.15000000000E+04  0.10566000000E+00 0. -1.
        994   -1    0    0    0    0 -0.00000000000E+00 -0.00000000000E+00  0.11368683772E-12  0.17120000000E+03  0.17120000000E+03 0.  0.
         13    1    1    2    0    0 -0.82329084067E+02  0.24009263453E+03  0.11376760225E+04  0.11656454412E+04  0.10566000000E+00 0. -1.
        994    1    1    2    0    0  0.53437318908E+02 -0.25751077663E+03  0.30087502652E+03  0.43474425668E+03  0.17120000000E+03 0.  0.
        998    1    1    2    0    0  0.28891765159E+02  0.17418142093E+02  0.61448947230E+02  0.70810302101E+02  0.10000000000E+02 0. -1.
</event>
<event>
 5    1  0.5781797E-010  0.3737390E+03  0.7957747E-01  0.3478882E+00
         13   -1    0    0    0    0  0.00000000000E+00  0.00000000000E+00  0.14999999963E+04  0.15000000000E+04  0.10566000000E+00 0. -1.
        994   -1    0    0    0    0 -0.00000000000E+00 -0.00000000000E+00  0.11368683772E-12  0.17120000000E+03  0.17120000000E+03 0.  0.
         13    1    1    2    0    0  0.12575637118E+02  0.99935853421E+02  0.55603268030E+03  0.56508200659E+03  0.10566000000E+00 0. -1.
        994    1    1    2    0    0 -0.18270521317E+03 -0.19087279047E+03  0.30407019138E+03  0.43770051216E+03  0.17120000000E+03 0.  0.
        998    1    1    2    0    0  0.17012957605E+03  0.90936937053E+02  0.63989712460E+03  0.66841748125E+03  0.10000000000E+02 0. -1.
</event>
<event>
 5    1  0.5781797E-010  0.3706787E+03  0.7957747E-01  0.3492778E+00
         13   -1    0    0    0    0  0.00000000000E+00  0.00000000000E+00  0.14999999963E+04  0.15000000000E+04  0.10566000000E+00 0. -1.
        994   -1    0    0    0    0 -0.00000000000E+00 -0.00000000000E+00  0.11368683772E-12  0.17120000000E+03  0.17120000000E+03 0.  0.
         13    1    1    2    0    0  0.19310324409E+02 -0.48303891030E+02  0.22148693790E+03  0.22751402010E+03  0.10566000000E+00 0. -1.
        994    1    1    2    0    0 -0.88319895227E+02 -0.61447696365E+02  0.49975542695E+02  0.20828638493E+03  0.17120000000E+03 0.  0.
        998    1    1    2    0    0  0.69009570818E+02  0.10975158740E+03  0.12285375157E+04  0.12353995950E+04  0.10000000000E+02 0. -1.
</event>
<event>
 5    1  0.5781797E-010  0.3878846E+03  0.7957747E-01  0.3417530E+00
         13   -1    0    0    0    0  0.00000000000E+00  0.00000000000E+00  0.14999999963E+04  0.15000000000E+04  0.10566000000E+00 0.  1.
        994   -1    0    0    0    0 -0.00000000000E+00 -0.00000000000E+00  0.11368683772E-12  0.17120000000E+03  0.17120000000E+03 0.  0.
         13    1    1    2    0    0  0.71958195940E+02  0.55448156411E+02  0.41119817544E+03  0.42111332283E+03  0.10566000000E+00 0.  1.
        994    1    1    2    0    0 -0.80730717057E+02  0.14640222828E+03  0.13433729058E+03  0.27442122506E+03  0.17120000000E+03 0.  0.
        998    1    1    2    0    0  0.87725211170E+01 -0.20185038469E+03  0.95446453026E+03  0.97566545212E+03  0.10000000000E+02 0.  1.
</event>
<event>
 5    1  0.5781797E-010  0.3787064E+03  0.7957747E-01  0.3456810E+00
         13   -1    0    0    0    0  0.00000000000E+00  0.00000000000E+00  0.14999999963E+04  0.15000000000E+04  0.10566000000E+00 0. -1.
        994   -1    0    0    0    0 -0.00000000000E+00 -0.00000000000E+00  0.11368683772E-12  0.17120000000E+03  0.17120000000E+03 0.  0.
         13    1    1    2    0    0  0.11828815410E+03  0.14932924425E+03  0.34023910572E+03  0.38994098376E+03  0.10566000000E+00 0. -1.
        994    1    1    2    0    0 -0.20302212851E+03 -0.26184945025E+03  0.62177814609E+03  0.72505215138E+03  0.17120000000E+03 0.  0.
        998    1    1    2    0    0  0.84733974414E+02  0.11252020600E+03  0.53798274447E+03  0.55620686486E+03  0.10000000000E+02 0.  1.
</event>
<event>
 5    1  0.5781797E-010  0.3793332E+03  0.7957747E-01  0.3454067E+00
         13   -1    0    0    0    0  0.00000000000E+00  0.00000000000E+00  0.14999999963E+04  0.15000000000E+04  0.10566000000E+00 0.  1.
        994   -1    0    0    0    0 -0.00000000000E+00 -0.00000000000E+00  0.11368683772E-12  0.17120000000E+03  0.17120000000E+03 0.  0.
         13    1    1    2    0    0  0.17933847211E+03 -0.14898378354E+02  0.62056188613E+03  0.64612794007E+03  0.10566000000E+00 0.  1.
        994    1    1    2    0    0 -0.24617499506E+03  0.13075338081E+02  0.24609365612E+03  0.38812964360E+03  0.17120000000E+03 0.  0.
        998    1    1    2    0    0  0.66836522948E+02  0.18230402725E+01  0.63334445403E+03  0.63694241633E+03  0.10000000000E+02 0.  1.
</event>
<event>
 5    1  0.5781797E-010  0.3881110E+03  0.7957747E-01  0.3416584E+00
         13   -1    0    0    0    0  0.00000000000E+00  0.00000000000E+00  0.14999999963E+04  0.15000000000E+04  0.10566000000E+00 0.  1.
        994   -1    0    0    0    0 -0.00000000000E+00 -0.00000000000E+00  0.11368683772E-12  0.17120000000E+03  0.17120000000E+03 0.  0.
         13    1    1    2    0    0 -0.12044768310E+03 -0.34563899493E+02  0.74749980672E+03  0.75793026046E+03  0.10566000000E+00 0.  1.
        994    1    1    2    0    0  0.21598293733E+03  0.56143124658E+02  0.18353592282E+03  0.33585049447E+03  0.17120000000E+03 0.  0.
        998    1    1    2    0    0 -0.95535254237E+02 -0.21579225165E+02  0.56896426673E+03  0.57741924507E+03  0.10000000000E+02 0.  0.
</event>
<event>
 5    1  0.5781797E-010  0.3840792E+03  0.7957747E-01  0.3433587E+00
         13   -1    0    0    0    0  0.00000000000E+00  0.00000000000E+00  0.14999999963E+04  0.15000000000E+04  0.10566000000E+00 0.  1.
        994   -1    0    0    0    0 -0.00000000000E+00 -0.00000000000E+00  0.11368683772E-12  0.17120000000E+03  0.17120000000E+03 0.  0.
         13    1    1    2    0    0 -0.11200059773E+03 -0.32378389344E+03  0.69157635235E+03  0.77178883500E+03  0.10566000000E+00 0.  1.
        994    1    1    2    0    0  0.11282707649E+03  0.32475324512E+03  0.78999698847E+03  0.87840725248E+03  0.17120000000E+03 0.  0.
        998    1    1    2    0    0 -0.82647876477E+00 -0.96935168789E+00  0.18426655455E+02  0.21003912519E+02  0.10000000000E+02 0.  0.
</event>
<event>
 5    1  0.5781797E-010  0.3730964E+03  0.7957747E-01  0.3481780E+00
         13   -1    0    0    0    0  0.00000000000E+00  0.00000000000E+00  0.14999999963E+04  0.15000000000E+04  0.10566000000E+00 0.  1.
        994   -1    0    0    0    0 -0.00000000000E+00 -0.00000000000E+00  0.11368683772E-12  0.17120000000E+03  0.17120000000E+03 0.  0.
         13    1    1    2    0    0  0.76426731201E+02 -0.32918231552E+02  0.47247541835E+03  0.47974752456E+03  0.10566000000E+00 0.  1.
        994    1    1    2    0    0 -0.17660028940E+03 -0.10461426308E+03  0.16913095381E+03  0.31630132120E+03  0.17120000000E+03 0.  0.
        998    1    1    2    0    0  0.10017355820E+03  0.13753249463E+03  0.85839362412E+03  0.87515115424E+03  0.10000000000E+02 0.  1.
</event>
<event>
 5    1  0.5781797E-010  0.3860154E+03  0.7957747E-01  0.3425377E+00
         13   -1    0    0    0    0  0.00000000000E+00  0.00000000000E+00  0.14999999963E+04  0.15000000000E+04  0.10566000000E+00 0.  1.
        994   -1    0    0    0    0 -0.00000000000E+00 -0.00000000000E+00  0.11368683772E-12  0.17120000000E+03  0.17120000000E+03 0.  0.
         13    1    1    2    0    0  0.68562958230E+01 -0.12390681942E+02  0.46762984146E+02  0.48860266492E+02  0.10566000000E+00 0.  1.
        994    1    1    2    0    0 -0.11971963136E+03  0.76215619662E+02  0.70187134992E+02  0.23318937525E+03  0.17120000000E+03 0.  0.
        998    1    1    2    0    0  0.11286333553E+03 -0.63824937720E+02  0.13830498771E+04  0.13891503583E+04  0.10000000000E+02 0.  1.
</event>
<event>
 5    1  0.5781797E-010  0.3835652E+03  0.7957747E-01  0.3435780E+00
         13   -1    0    0    0    0  0.00000000000E+00  0.00000000000E+00  0.14999999963E+04  0.15000000000E+04  0.10566000000E+00 0. -1.
        994   -1    0    0    0    0 -0.00000000000E+00 -0.00000000000E+00  0.11368683772E-12  0.17120000000E+03  0.17120000000E+03 0.  0.
         13    1    1    2    0    0  0.19231791630E+03  0.35339420669E+02  0.87598438032E+03  0.89754314732E+03  0.10566000000E+00 0. -1.
        994    1    1    2    0    0 -0.22674270596E+03 -0.60010693641E+02  0.21246415059E+03  0.35981105228E+03  0.17120000000E+03 0.  0.
        998    1    1    2    0    0  0.34424789668E+02  0.24671272972E+02  0.41155146538E+03  0.41384580040E+03  0.10000000000E+02 0. -1.
</event>
<event>
 5    1  0.5781797E-010  0.3856164E+03  0.7957747E-01  0.3427062E+00
         13   -1    0    0    0    0  0.00000000000E+00  0.00000000000E+00  0.14999999963E+04  0.15000000000E+04  0.10566000000E+00 0.  1.
        994   -1    0    0    0    0 -0.00000000000E+00 -0.00000000000E+00  0.11368683772E-12  0.17120000000E+03  0.17120000000E+03 0.  0.
         13    1    1    2    0    0 -0.53210622299E+01 -0.16848060758E+02  0.90438589330E+02  0.92148361128E+02  0.10566000000E+00 0.  1.
        994    1    1    2    0    0  0.91755769085E+02  0.30225930888E+02  0.32578420129E+02  0.19925742525E+03  0.17120000000E+03 0.  0.
        998    1    1    2    0    0 -0.86434706855E+02 -0.13377870130E+02  0.13769829868E+04  0.13797942136E+04  0.10000000000E+02 0.  1.
</event>
<event>
 5    1  0.5781797E-010  0.3809710E+03  0.7957747E-01  0.3446941E+00
         13   -1    0    0    0    0  0.00000000000E+00  0.00000000000E+00  0.14999999963E+04  0.15000000000E+04  0.10566000000E+00 0. -1.
        994   -1    0    0    0    0 -0.00000000000E+00 -0.00000000000E+00  0.11368683772E-12  0.17120000000E+03  0.17120000000E+03 0.  0.
         13    1    1    2    0    0  0.18557531405E+02 -0.87496097132E+01  0.94613633275E+02  0.96812645907E+02  0.10566000000E+00 0. -1.
        994    1    1    2    0    0  0.76795216755E+02 -0.14516921177E+02  0.24273061873E+02  0.18975475712E+03  0.17120000000E+03 0.  0.
        998    1    1    2    0    0 -0.95352748161E+02  0.23266530890E+02  0.13811133011E+04  0.13846325970E+04  0.10000000000E+02 0. -1.
</event>
<event>
 5    1  0.5781797E-010  0.3840394E+03  0.7957747E-01  0.3433756E+00
         13   -1    0    0    0    0  0.00000000000E+00  0.00000000000E+00  0.14999999963E+04  0.15000000000E+04  0.10566000000E+00 0. -1.
        994   -1    0    0    0    0 -0.00000000000E+00 -0.00000000000E+00  0.11368683772E-12  0.17120000000E+03  0.17120000000E+03 0.  0.
         13    1    1    2    0    0 -0.12215740585E+02  0.16944031199E+02  0.86280746976E+02  0.88773323550E+02  0.10566000000E+00 0. -1.
        994    1    1    2    0    0 -0.38585247224E+02 -0.89160166468E+02  0.33891759447E+02  0.19974095210E+03  0.17120000000E+03 0.  0.
        998    1    1    2    0    0  0.50800987809E+02  0.72216135269E+02  0.13798274899E+04  0.13826857243E+04  0.10000000000E+02 0. -1.
</event>
<event>
 5    1  0.6669776E-010  0.3871898E+03  0.7957747E-01  0.3420438E+00
         13   -1    0    0    0    0  0.00000000000E+00  0.00000000000E+00  0.14999999963E+04  0.15000000000E+04  0.10566000000E+00 0. -1.
        994   -1    0    0    0    0 -0.00000000000E+00 -0.00000000000E+00  0.11368683772E-12  0.17120000000E+03  0.17120000000E+03 0.  0.
         13    1    1    2    0    0 -0.18693238738E+03 -0.60947725304E+02  0.10756063923E+04  0.10934292227E+04  0.10566000000E+00 0. -1.
        994    1    1    2    0    0  0.21415970387E+03  0.67459932735E+02  0.18732164894E+03  0.33884223681E+03  0.17120000000E+03 0.  0.
        998    1    1    2    0    0 -0.27227316489E+02 -0.65122074308E+01  0.23707195501E+03  0.23892854049E+03  0.10000000000E+02 0. -1.
</event>
<event>
 5    1  0.5781797E-010  0.3847995E+03  0.7957747E-01  0.3430523E+00
         13   -1    0    0    0    0  0.00000000000E+00  0.00000000000E+00  0.14999999963E+04  0.15000000000E+04  0.10566000000E+00 0.  1.
        994   -1    0    0    0    0 -0.00000000000E+00 -0.00000000000E+00  0.11368683772E-12  0.17120000000E+03  0.17120000000E+03 0.  0.
         13    1    1    2    0    0 -0.47211190954E+00  0.14744832169E+02  0.41074763530E+02  0.43643789116E+02  0.10566000000E+00 0.  1.
        994    1    1    2    0    0 -0.39022666672E+02 -0.10090133450E+03  0.41243147286E+02  0.20667434533E+03  0.17120000000E+03 0.  0.
        998    1    1    2    0    0  0.39494778582E+02  0.86156502331E+02  0.14176820855E+04  0.14208818656E+04  0.10000000000E+02 0.  1.
</event>
<event>
 5    1  0.5781797E-010  0.3859995E+03  0.7957747E-01  0.3425444E+00
         13   -1    0    0    0    0  0.00000000000E+00  0.00000000000E+00  0.14999999963E+04  0.15000000000E+04  0.10566000000E+00 0. -1.
        994   -1    0    0    0    0 -0.00000000000E+00 -0.00000000000E+00  0.11368683772E-12  0.17120000000E+03  0.17120000000E+03 0.  0.
         13    1    1    2    0    0  0.19607626892E+02 -0.12588576063E+01  0.96412880859E+02  0.98394606125E+02  0.10566000000E+00 0. -1.
        994    1    1    2    0    0 -0.81842422624E+02  0.12428632989E+02  0.23929010558E+02  0.19166296096E+03  0.17120000000E+03 0.  0.
        998    1    1    2    0    0  0.62234795732E+02 -0.11169775383E+02  0.13796581049E+04  0.13811424329E+04  0.10000000000E+02 0. -1.
</event>
<event>
 5    1  0.5781797E-010  0.3702713E+03  0.7957747E-01  0.3494645E+00
         13   -1    0    0    0    0  0.00000000000E+00  0.00000000000E+00  0.14999999963E+04  0.15000000000E+04  0.10566000000E+00 0. -1.
        994   -1    0    0    0    0 -0.00000000000E+00 -0.00000000000E+00  0.11368683772E-12  0.17120000000E+03  0.17120000000E+03 0.  0.
         13    1    1    2    0    0 -0.30407358151E+02 -0.97211758970E+01  0.62717249746E+02  0.70374521456E+02  0.10566000000E+00 0. -1.
        994    1    1    2    0    0 -0.12345878677E+03 -0.92471057425E+01  0.66825766526E+02  0.22159129962E+03  0.17120000000E+03 0.  0.
        998    1    1    2    0    0  0.15386614492E+03  0.18968281640E+02  0.13704569800E+04  0.13792341789E+04  0.10000000000E+02 0. -1.
</event>
<event>
 5    1  0.5781797E-010  0.3878425E+03  0.7957747E-01  0.3417706E+00
         13   -1    0    0    0    0  0.00000000000E+00  0.00000000000E+00  0.14999999963E+04  0.15000000000E+04  0.10566000000E+00 0.  1.
        994   -1    0    0    0    0 -0.00000000000E+00 -0.00000000000E+00  0.11368683772E-12  0.17120000000E+03  0.17120000000E+03 0.  0.
         13    1    1    2    0    0 -0.14482678984E+03  0.82922187364E+01  0.41139181419E+03  0.43621874776E+03  0.10566000000E+00 0.  1.
        994    1    1    2    0    0  0.32381988834E+03 -0.32189312194E+02  0.50976888926E+03  0.62854533039E+03  0.17120000000E+03 0.  0.
        998    1    1    2    0    0 -0.17899309850E+03  0.23897093458E+02  0.57883929283E+03  0.60643592185E+03  0.10000000000E+02 0.  0.
</event>
<event>
 5    1  0.5781797E-010  0.3828881E+03  0.7957747E-01  0.3438678E+00
         13   -1    0    0    0    0  0.00000000000E+00  0.00000000000E+00  0.14999999963E+04  0.15000000000E+04  0.10566000000E+00 0.  1.
        994   -1    0    0    0    0 -0.00000000000E+00 -0.00000000000E+00  0.11368683772E-12  0.17120000000E+03  0.17120000000E+03 0.  0.
         13    1    1    2    0    0  0.71390617690E+02  0.15766700821E+03  0.88181563168E+03  0.89864026463E+03  0.10566000000E+00 0.  1.
        994    1    1    2    0    0 -0.14371806797E+03 -0.18586787541E+03  0.21429499567E+03  0.36115583249E+03  0.17120000000E+03 0.  0.
        998    1    1    2    0    0  0.72327450281E+02  0.28200867196E+02  0.40388936892E+03  0.41140390288E+03  0.10000000000E+02 0.  1.
</event>
<event>
 5    1  0.5781797E-010  0.3864365E+03  0.7957747E-01  0.3423603E+00
         13   -1    0    0    0    0  0.00000000000E+00  0.00000000000E+00  0.14999999963E+04  0.15000000000E+04  0.10566000000E+00 0. -1.
        994   -1    0    0    0    0 -0.00000000000E+00 -0.00000000000E+00  0.11368683772E-12  0.17120000000E+03  0.17120000000E+03 0.  0.
         13    1    1    2    0    0  0.16626835570E+03 -0.11518721476E+03  0.96560017400E+03  0.98655814210E+03  0.10566000000E+00 0. -1.
        994    1    1    2    0    0 -0.19162291373E+03  0.15853635590E+03  0.23965701189E+03  0.38548416383E+03  0.17120000000E+03 0.  0.
        998    1    1    2    0    0  0.25354558036E+02 -0.43349141144E+02  0.29474281039E+03  0.29915769408E+03  0.10000000000E+02 0. -1.
</event>
<event>
 5    1  0.5948108E-010  0.3863602E+03  0.7957747E-01  0.3423924E+00
         13   -1    0    0    0    0  0.00000000000E+00  0.00000000000E+00  0.14999999963E+04  0.15000000000E+04  0.10566000000E+00 0.  1.
        994   -1    0    0    0    0 -0.00000000000E+00 -0.00000000000E+00  0.11368683772E-12  0.17120000000E+03  0.17120000000E+03 0.  0.
         13    1    1    2    0    0  0.18328664861E+02  0.12965488946E+03  0.77931095825E+03  0.79023535174E+03  0.10566000000E+00 0.  1.
        994    1    1    2    0    0 -0.22546082004E+02 -0.18476598909E+03  0.12403983403E+03  0.28167732774E+03  0.17120000000E+03 0.  0.
        998    1    1    2    0    0  0.42174171427E+01  0.55111099627E+02  0.59664920400E+03  0.59928732052E+03  0.10000000000E+02 0.  1.
</event>
<event>
 5    1  0.5781797E-010  0.2705008E+03  0.7957747E-01  0.4132078E+00
         13   -1    0    0    0    0  0.00000000000E+00  0.00000000000E+00  0.14999999963E+04  0.15000000000E+04  0.10566000000E+00 0.  1.
        994   -1    0    0    0    0 -0.00000000000E+00 -0.00000000000E+00  0.11368683772E-12  0.17120000000E+03  0.17120000000E+03 0.  0.
         13    1    1    2    0    0 -0.42603880165E+02  0.11328996059E+03  0.66307968339E+03  0.67403589182E+03  0.10566000000E+00 0.  1.
        994    1    1    2    0    0 -0.15113759931E+03 -0.17347837291E+03  0.26588100536E+03  0.39107476115E+03  0.17120000000E+03 0.  0.
        998    1    1    2    0    0  0.19374147947E+03  0.60188412326E+02  0.57103930752E+03  0.60608934703E+03  0.10000000000E+02 0.  1.
</event>
<event>
 5    1  0.5781797E-010  0.3880992E+03  0.7957747E-01  0.3416634E+00
         13   -1    0    0    0    0  0.00000000000E+00  0.00000000000E+00  0.14999999963E+04  0.15000000000E+04  0.10566000000E+00 0. -1.
        994   -1    0    0    0    0 -0.00000000000E+00 -0.00000000000E+00  0.11368683772E-12  0.17120000000E+03  0.17120000000E+03 0.  0.
         13    1    1    2    0    0  0.96115627269E+02  0.15881236530E+03  0.63783067224E+03  0.66429478306E+03  0.10566000000E+00 0. -1.
        994    1    1    2    0    0 -0.15692219274E+03 -0.26539575654E+03  0.42258780167E+03  0.55040836865E+03  0.17120000000E+03 0.  0.
        998    1    1    2    0    0  0.60806565471E+02  0.10658339124E+03  0.43958152236E+03  0.45649684829E+03  0.10000000000E+02 0.  0.
</event>
<event>
 5    1  0.5781797E-010  0.3873911E+03  0.7957747E-01  0.3419594E+00
         13   -1    0    0    0    0  0.00000000000E+00  0.00000000000E+00  0.14999999963E+04  0.15000000000E+04  0.10566000000E+00 0.  1.
        994   -1    0    0    0    0 -0.00000000000E+00 -0.00000000000E+00  0.11368683772E-12  0.17120000000E+03  0.17120000000E+03 0.  0.
         13    1    1    2    0    0 -0.49595181965E+01  0.31155422320E+02  0.14614593023E+03  0.14951221103E+03  0.10566000000E+00 0.  1.
        994    1    1    2    0    0 -0.21080718528E+02 -0.20927753055E+03  0.16122208166E+03  0.31550512056E+03  0.17120000000E+03 0.  0.
        998    1    1    2    0    0  0.26040236724E+02  0.17812210823E+03  0.11926319844E+04  0.12061826684E+04  0.10000000000E+02 0.  1.
</event>
<event>
 5    1  0.5781797E-010  0.3861532E+03  0.7957747E-01  0.3424796E+00
         13   -1    0    0    0    0  0.00000000000E+00  0.00000000000E+00  0.14999999963E+04  0.15000000000E+04  0.10566000000E+00 0.  1.
        994   -1    0    0    0    0 -0.00000000000E+00 -0.00000000000E+00  0.11368683772E-12  0.17120000000E+03  0.17120000000E+03 0.  0.
         13    1    1    2    0    0 -0.85764557154E+02 -0.14368795289E+03  0.73979459903E+03  0.75848391347E+03  0.10566000000E+00 0.  1.
        994    1    1    2    0    0  0.17634149552E+03  0.21684331420E+03  0.32302449026E+03  0.46018649183E+03  0.17120000000E+03 0.  0.
        998    1    1    2    0    0 -0.90576938363E+02 -0.73155361307E+02  0.43718090698E+03  0.45252959470E+03  0.10000000000E+02 0.  1.
</event>
<event>
 5    1  0.5781797E-010  0.3868286E+03  0.7957747E-01  0.3421954E+00
         13   -1    0    0    0    0  0.00000000000E+00  0.00000000000E+00  0.14999999963E+04  0.15000000000E+04  0.10566000000E+00 0.  1.
        994   -1    0    0    0    0 -0.00000000000E+00 -0.00000000000E+00  0.11368683772E-12  0.17120000000E+03  0.17120000000E+03 0.  0.
         13    1    1    2    0    0 -0.20092337607E+03 -0.18852956292E+03  0.95087562652E+03  0.98998892288E+03  0.10566000000E+00 0.  1.
        994    1    1    2    0    0  0.22525272065E+03  0.20329645527E+03  0.40621479321E+03  0.53515244100E+03  0.17120000000E+03 0.  0.
        998    1    1    2    0    0 -0.24329344575E+02 -0.14766892355E+02  0.14290957655E+03  0.14605863612E+03  0.10000000000E+02 0.  0.
</event>
<event>
 5    1  0.5781797E-010  0.3858552E+03  0.7957747E-01  0.3426053E+00
         13   -1    0    0    0    0  0.00000000000E+00  0.00000000000E+00  0.14999999963E+04  0.15000000000E+04  0.10566000000E+00 0. -1.
        994   -1    0    0    0    0 -0.00000000000E+00 -0.00000000000E+00  0.11368683772E-12  0.17120000000E+03  0.17120000000E+03 0.  0.
         13    1    1    2    0    0  0.17323355078E+02 -0.96197000969E+02  0.55243955033E+03  0.56101999034E+03  0.10566000000E+00 0. -1.
        994    1    1    2    0    0  0.19869079988E+02  0.20174023758E+03  0.15011115523E+03  0.30485521600E+03  0.17120000000E+03 0.  0.
        998    1    1    2    0    0 -0.37192435066E+02 -0.10554323661E+03  0.79744929071E+03  0.80532479366E+03  0.10000000000E+02 0.  1.
</event>
<event>
 5    1  0.5781797E-010  0.3713962E+03  0.7957747E-01  0.3489499E+00
         13   -1    0    0    0    0  0.00000000000E+00  0.00000000000E+00  0.14999999963E+04  0.15000000000E+04  0.10566000000E+00 0. -1.
        994   -1    0    0    0    0 -0.00000000000E+00 -0.00000000000E+00  0.11368683772E-12  0.17120000000E+03  0.17120000000E+03 0.  0.
         13    1    1    2    0    0  0.16051965182E+03 -0.41009907376E+02  0.99477076838E+03  0.10084727383E+04  0.10566000000E+00 0. -1.
        994    1    1    2    0    0 -0.14646507427E+03  0.11677721772E+03  0.14101599151E+03  0.29031687243E+03  0.17120000000E+03 0.  0.
        998    1    1    2    0    0 -0.14054577548E+02 -0.75767310341E+02  0.36421323639E+03  0.37241038926E+03  0.10000000000E+02 0. -1.
</event>
<event>
 5    1  0.5781797E-010  0.3880164E+03  0.7957747E-01  0.3416979E+00
         13   -1    0    0    0    0  0.00000000000E+00  0.00000000000E+00  0.14999999963E+04  0.15000000000E+04  0.10566000000E+00 0.  1.
        994   -1    0    0    0    0 -0.00000000000E+00 -0.00000000000E+00  0.11368683772E-12  0.17120000000E+03  0.17120000000E+03 0.  0.
         13    1    1    2    0    0  0.62946510445E+02  0.16938859893E+03  0.87394272748E+03  0.89242964019E+03  0.10566000000E+00 0.  1.
        994    1    1    2    0    0 -0.95117134808E+02 -0.23912809231E+03  0.25790434503E+03  0.40255882185E+03  0.17120000000E+03 0.  0.
        998    1    1    2    0    0  0.32170624363E+02  0.69739493378E+02  0.36815292377E+03  0.37621153795E+03  0.10000000000E+02 0.  0.
</event>
<event>
 5    1  0.5781797E-010  0.3842761E+03  0.7957747E-01  0.3432748E+00
         13   -1    0    0    0    0  0.00000000000E+00  0.00000000000E+00  0.14999999963E+04  0.15000000000E+04  0.10566000000E+00 0. -1.
        994   -1    0    0    0    0 -0.00000000000E+00 -0.00000000000E+00  0.11368683772E-12  0.17120000000E+03  0.17120000000E+03 0.  0.
         13    1    1    2    0    0 -0.65278796873E+02  0.10716073158E+00  0.35149260330E+03  0.35750299879E+03  0.10566000000E+00 0. -1.
        994    1    1    2    0    0  0.13264488328E+03  0.11885088419E+02  0.62825421957E+02  0.22581495529E+03  0.17120000000E+03 0.  0.
        998    1    1    2    0    0 -0.67366086411E+02 -0.11992249150E+02  0.10856819710E+04  0.10878820459E+04  0.10000000000E+02 0. -1.
</event>
<event>
 5    1  0.5781797E-010  0.3863025E+03  0.7957747E-01  0.3424167E+00
         13   -1    0    0    0    0  0.00000000000E+00  0.00000000000E+00  0.14999999963E+04  0.15000000000E+04  0.10566000000E+00 0. -1.
        994   -1    0    0    0    0 -0.00000000000E+00 -0.00000000000E+00  0.11368683772E-12  0.17120000000E+03  0.17120000000E+03 0.  0.
         13    1    1    2    0    0  0.44988729305E+02  0.27577234189E+02  0.27716608000E+03  0.28214453154E+03  0.10566000000E+00 0. -1.
        994    1    1    2    0    0 -0.12399320151E+03 -0.10973888134E+03  0.96589193682E+02  0.25701332346E+03  0.17120000000E+03 0.  0.
        998    1    1    2    0    0  0.79004472209E+02  0.82161647146E+02  0.11262447226E+04  0.11320421450E+04  0.10000000000E+02 0. -1.
</event>
<event>
 5    1  0.5781797E-010  0.3840454E+03  0.7957747E-01  0.3433731E+00
         13   -1    0    0    0    0  0.00000000000E+00  0.00000000000E+00  0.14999999963E+04  0.15000000000E+04  0.10566000000E+00 0.  1.
        994   -1    0    0    0    0 -0.00000000000E+00 -0.00000000000E+00  0.11368683772E-12  0.17120000000E+03  0.17120000000E+03 0.  0.
         13    1    1    2    0    0  0.68203280881E+02 -0.64995275853E+02  0.43231353281E+03  0.44246025270E+03  0.10566000000E+00 0.  1.
        994    1    1    2    0    0 -0.15002772138E+03  0.11058425938E+03  0.12664265401E+03  0.28299292821E+03  0.17120000000E+03 0.  0.
        998    1    1    2    0    0  0.81824440499E+02 -0.45588983527E+02  0.94104380946E+03  0.94574681908E+03  0.10000000000E+02 0.  1.
</event>
<event>
 5    1  0.5781797E-010  0.3854010E+03  0.7957747E-01  0.3427973E+00
         13   -1    0    0    0    0  0.00000000000E+00  0.00000000000E+00  0.14999999963E+04  0.15000000000E+04  0.10566000000E+00 0.  1.
        994   -1    0    0    0    0 -0.00000000000E+00 -0.00000000000E+00  0.11368683772E-12  0.17120000000E+03  0.17120000000E+03 0.  0.
         13    1    1    2    0    0 -0.58421644498E+01 -0.20418698289E+03  0.89629970334E+03  0.91928212440E+03  0.10566000000E+00 0.  1.
        994    1    1    2    0    0 -0.27515793521E+02  0.26536102417E+03  0.28740366981E+03  0.42788304648E+03  0.17120000000E+03 0.  0.
        998    1    1    2    0    0  0.33357957971E+02 -0.61174041277E+02  0.31629662312E+03  0.32403482912E+03  0.10000000000E+02 0. -1.
</event>
<event>
 5    1  0.5781797E-010  0.3855668E+03  0.7957747E-01  0.3427272E+00
         13   -1    0    0    0    0  0.00000000000E+00  0.00000000000E+00  0.14999999963E+04  0.15000000000E+04  0.10566000000E+00 0.  1.
        994   -1    0    0    0    0 -0.00000000000E+00 -0.00000000000E+00  0.11368683772E-12  0.17120000000E+03  0.17120000000E+03 0.  0.
         13    1    1    2    0    0 -0.34275909611E+02 -0.10077438085E+03  0.54652052580E+03  0.55678991559E+03  0.10566000000E+00 0.  1.
        994    1    1    2    0    0  0.65752993245E+02  0.17814518017E+03  0.13033321264E+03  0.28697621444E+03  0.17120000000E+03 0.  0.
        998    1    1    2    0    0 -0.31477083634E+02 -0.77370799320E+02  0.82314625784E+03  0.82743386997E+03  0.10000000000E+02 0.  1.
</event>
<event>
 5    1  0.5781797E-010  0.3876634E+03  0.7957747E-01  0.3418454E+00
         13   -1    0    0    0    0  0.00000000000E+00  0.00000000000E+00  0.14999999963E+04  0.15000000000E+04  0.10566000000E+00 0.  1.
        994   -1    0    0    0    0 -0.00000000000E+00 -0.00000000000E+00  0.11368683772E-12  0.17120000000E+03  0.17120000000E+03 0.  0.
         13    1    1    2    0    0  0.12771863471E+03  0.16288102865E+03  0.61840773993E+03  0.65212761260E+03  0.10566000000E+00 0.  1.
        994    1    1    2    0    0 -0.21744856448E+03 -0.24715644609E+03  0.53456335367E+03  0.65072083579E+03  0.17120000000E+03 0.  0.
        998    1    1    2    0    0  0.89729929769E+02  0.84275417439E+02  0.34702890268E+03  0.36835155161E+03  0.10000000000E+02 0.  1.
</event>
<event>
 5    1  0.5781797E-010  0.3837182E+03  0.7957747E-01  0.3435127E+00
         13   -1    0    0    0    0  0.00000000000E+00  0.00000000000E+00  0.14999999963E+04  0.15000000000E+04  0.10566000000E+00 0.  1.
        994   -1    0    0    0    0 -0.00000000000E+00 -0.00000000000E+00  0.11368683772E-12  0.17120000000E+03  0.17120000000E+03 0.  0.
         13    1    1    2    0    0  0.13991764593E+02  0.82346709250E+01  0.95591877464E+02  0.96960803848E+02  0.10566000000E+00 0.  1.
        994    1    1    2    0    0  0.69857023500E+02 -0.73385249877E+01  0.18735258783E+02  0.18599545049E+03  0.17120000000E+03 0.  0.
        998    1    1    2    0    0 -0.83848788094E+02 -0.89614593730E+00  0.13856728600E+04  0.13882437457E+04  0.10000000000E+02 0.  1.
</event>
<event>
 5    1  0.5781797E-010  0.3835403E+03  0.7957747E-01  0.3435886E+00
         13   -1    0    0    0    0  0.00000000000E+00  0.00000000000E+00  0.14999999963E+04  0.15000000000E+04  0.10566000000E+00 0. -1.
        994   -1    0    0    0    0 -0.00000000000E+00 -0.00000000000E+00  0.11368683772E-12  0.17120000000E+03  0.17120000000E+03 0.  0.
         13    1    1    2    0    0 -0.47886446826E+01 -0.13924762317E+02  0.81113342805E+02  0.82439163439E+02  0.10566000000E+00 0. -1.
        994    1    1    2    0    0 -0.26621667437E+02 -0.72502861941E+02  0.22323786224E+02  0.18913796445E+03  0.17120000000E+03 0.  0.
        998    1    1    2    0    0  0.31410312119E+02  0.86427624258E+02  0.13965628673E+04  0.13996228721E+04  0.10000000000E+02 0. -1.
</event>
<event>
 5    1  0.5781797E-010  0.3834843E+03  0.7957747E-01  0.3436126E+00
         13   -1    0    0    0    0  0.00000000000E+00  0.00000000000E+00  0.14999999963E+04  0.15000000000E+04  0.10566000000E+00 0. -1.
        994   -1    0    0    0    0 -0.00000000000E+00 -0.00000000000E+00  0.11368683772E-12  0.17120000000E+03  0.17120000000E+03 0.  0.
         13    1    1    2    0    0 -0.34745268249E+02 -0.36236545103E+02  0.21631975313E+03  0.22206883533E+03  0.10566000000E+00 0. -1.
        994    1    1    2    0    0  0.17239888754E+03  0.43011156259E+02  0.11484883676E+03  0.27215993697E+03  0.17120000000E+03 0.  0.
        998    1    1    2    0    0 -0.13765361929E+03 -0.67746111562E+01  0.11688314064E+04  0.11769712277E+04  0.10000000000E+02 0. -1.
</event>
<event>
 5    1  0.5781797E-010  0.3879309E+03  0.7957747E-01  0.3417336E+00
         13   -1    0    0    0    0  0.00000000000E+00  0.00000000000E+00  0.14999999963E+04  0.15000000000E+04  0.10566000000E+00 0.  1.
        994   -1    0    0    0    0 -0.00000000000E+00 -0.00000000000E+00  0.11368683772E-12  0.17120000000E+03  0.17120000000E+03 0.  0.
         13    1    1    2    0    0 -0.10649614858E+03  0.24771465431E+02  0.58935922029E+03  0.59941584636E+03  0.10566000000E+00 0.  1.
        994    1    1    2    0    0  0.22127569860E+03 -0.40949230163E+02  0.18733443511E+03  0.33918049003E+03  0.17120000000E+03 0.  0.
        998    1    1    2    0    0 -0.11477955002E+03  0.16177764732E+02  0.72330634088E+03  0.73260366361E+03  0.10000000000E+02 0.  0.
</event>
<event>
 5    1  0.5781797E-010  0.3212979E+03  0.7957747E-01  0.3754802E+00
         13   -1    0    0    0    0  0.00000000000E+00  0.00000000000E+00  0.14999999963E+04  0.15000000000E+04  0.10566000000E+00 0.  1.
        994   -1    0    0    0    0 -0.00000000000E+00 -0.00000000000E+00  0.11368683772E-12  0.17120000000E+03  0.17120000000E+03 0.  0.
         13    1    1    2    0    0 -0.46364956156E+02 -0.15102549271E+03  0.91040250298E+03  0.92400819109E+03  0.10566000000E+00 0.  1.
        994    1    1    2    0    0  0.14813400550E+03  0.12255086274E+03  0.15648914345E+03  0.30126514827E+03  0.17120000000E+03 0.  0.
        998    1    1    2    0    0 -0.10176904935E+03  0.28474629969E+02  0.43310834985E+03  0.44592666064E+03  0.10000000000E+02 0. -1.
</event>
<event>
 5    1  0.5781797E-010  0.3752039E+03  0.7957747E-01  0.3472312E+00
         13   -1    0    0    0    0  0.00000000000E+00  0.00000000000E+00  0.14999999963E+04  0.15000000000E+04  0.10566000000E+00 0.  1.
        994   -1    0    0    0    0 -0.00000000000E+00 -0.00000000000E+00  0.11368683772E-12  0.17120000000E+03  0.17120000000E+03 0.  0.
         13    1    1    2    0    0  0.13204606429E+03  0.15101613942E+02  0.69211324313E+03  0.70475880577E+03  0.10566000000E+00 0.  1.
        994    1    1    2    0    0 -0.20583062896E+03  0.93902382500E+02  0.20693869927E+03  0.35116516130E+03  0.17120000000E+03 0.  0.
        998    1    1    2    0    0  0.73784564669E+02 -0.10900399644E+03  0.60094805388E+03  0.61527603292E+03  0.10000000000E+02 0.  1.
</event>
<event>
 5    1  0.5781797E-010  0.3791294E+03  0.7957747E-01  0.3454958E+00
         13   -1    0    0    0    0  0.00000000000E+00  0.00000000000E+00  0.14999999963E+04  0.15000000000E+04  0.10566000000E+00 0. -1.
        994   -1    0    0    0    0 -0.00000000000E+00 -0.00000000000E+00  0.11368683772E-12  0.17120000000E+03  0.17120000000E+03 0.  0.
         13    1    1    2    0    0 -0.48439932384E+02 -0.87996506550E+02  0.37531061821E+03  0.38852011984E+03  0.10566000000E+00 0. -1.
        994    1    1    2    0    0 -0.76306343003E+02  0.92042416203E+02  0.69485438513E+02  0.22007301181E+03  0.17120000000E+03 0.  0.
        998    1    1    2    0    0  0.12474627539E+03 -0.40459096535E+01  0.10552039396E+04  0.10626068683E+04  0.10000000000E+02 0. -1.
</event>
<event>
 5    1  0.5781797E-010  0.3844653E+03  0.7957747E-01  0.3431943E+00
         13   -1    0    0    0    0  0.00000000000E+00  0.00000000000E+00  0.14999999963E+04  0.15000000000E+04  0.10566000000E+00 0. -1.
        994   -1    0    0    0    0 -0.00000000000E+00 -0.00000000000E+00  0.11368683772E-12  0.17120000000E+03  0.17120000000E+03 0.  0.
         13    1    1    2    0    0 -0.45671500851E+02 -0.17862311653E+03  0.54757783202E+03  0.57778334783E+03  0.10566000000E+00 0. -1.
        994    1    1    2    0    0  0.96498515111E+02  0.28331342820E+03  0.39693031375E+03  0.52577711627E+03  0.17120000000E+03 0.  0.
        998    1    1    2    0    0 -0.50827014260E+02 -0.10469031167E+03  0.55549185051E+03  0.56763953590E+03  0.10000000000E+02 0. -1.
</event>
<event>
 5    1  0.5781797E-010  0.3855331E+03  0.7957747E-01  0.3427414E+00
         13   -1    0    0    0    0  0.00000000000E+00  0.00000000000E+00  0.14999999963E+04  0.15000000000E+04  0.10566000000E+00 0. -1.
        994   -1    0    0    0    0 -0.00000000000E+00 -0.00000000000E+00  0.11368683772E-12  0.17120000000E+03  0.17120000000E+03 0.  0.
         13    1    1    2    0    0  0.14065785905E+03 -0.14445889253E+03  0.12025922913E+04  0.12193773966E+04  0.10566000000E+00 0. -1.
        994    1    1    2    0    0 -0.16784622196E+03  0.15135085942E+03  0.19233034195E+03  0.34260740989E+03  0.17120000000E+03 0.  0.
        998    1    1    2    0    0  0.27188362906E+02 -0.68919668918E+01  0.10507736302E+03  0.10921519356E+03  0.10000000000E+02 0.  1.
</event>
<event>
 5    1  0.5781797E-010  0.3880972E+03  0.7957747E-01  0.3416642E+00
         13   -1    0    0    0    0  0.00000000000E+00  0.00000000000E+00  0.14999999963E+04  0.15000000000E+04  0.10566000000E+00 0.  1.
        994   -1    0    0    0    0 -0.00000000000E+00 -0.00000000000E+00  0.11368683772E-12  0.17120000000E+03  0.17120000000E+03 0.  0.
         13    1    1    2    0    0 -0.95381430566E+02 -0.37067731195E+02  0.59767645704E+03  0.60637347605E+03  0.10566000000E+00 0.  1.
        994    1    1    2    0    0  0.20045657850E+03  0.87130389964E+02  0.17502079420E+03  0.32820155868E+03  0.17120000000E+03 0.  0.
        998    1    1    2    0    0 -0.10507514793E+03 -0.50062658769E+02  0.72730274504E+03  0.73662496527E+03  0.10000000000E+02 0.  0.
</event>
<event>
 5    1  0.5781797E-010  0.3877819E+03  0.7957747E-01  0.3417959E+00
         13   -1    0    0    0    0  0.00000000000E+00  0.00000000000E+00  0.14999999963E+04  0.15000000000E+04  0.10566000000E+00 0. -1.
        994   -1    0    0    0    0 -0.00000000000E+00 -0.00000000000E+00  0.11368683772E-12  0.17120000000E+03  0.17120000000E+03 0.  0.
         13    1    1    2    0    0 -0.12698569774E+03  0.14929815693E+03  0.10848550714E+04  0.11024181803E+04  0.10566000000E+00 0. -1.
        994    1    1    2    0    0  0.14800393100E+03 -0.18205466790E+03  0.20667187554E+03  0.35647127491E+03  0.17120000000E+03 0.  0.
        998    1    1    2    0    0 -0.21018233264E+02  0.32756510961E+02  0.20847304929E+03  0.21231054477E+03  0.10000000000E+02 0. -1.
</event>
<event>
 5    1  0.5781797E-010  0.3936571E+03  0.7957747E-01  0.3393766E+00
         13   -1    0    0    0    0  0.00000000000E+00  0.00000000000E+00  0.14999999963E+04  0.15000000000E+04  0.10566000000E+00 0.  1.
        994   -1    0    0    0    0 -0.00000000000E+00 -0.00000000000E+00  0.11368683772E-12  0.17120000000E+03  0.17120000000E+03 0.  0.
         13    1    1    2    0    0 -0.91705321448E+02  0.15647193845E+02  0.32277314458E+03  0.33591251046E+03  0.10566000000E+00 0.  1.
        994    1    1    2    0    0 -0.71851522685E+02 -0.86275385372E+02  0.73957013657E+02  0.21768133430E+03  0.17120000000E+03 0.  0.
        998    1    1    2    0    0  0.16355684413E+03  0.70628191527E+02  0.11032698380E+04  0.11176061552E+04  0.10000000000E+02 0.  1.
</event>
<event>
 5    1  0.5781797E-010  0.3841669E+03  0.7957747E-01  0.3433213E+00
         13   -1    0    0    0    0  0.00000000000E+00  0.00000000000E+00  0.14999999963E+04  0.15000000000E+04  0.10566000000E+00 0.  1.
        994   -1    0    0    0    0 -0.00000000000E+00 -0.00000000000E+00  0.11368683772E-12  0.17120000000E+03  0.17120000000E+03 0.  0.
         13    1    1    2    0    0  0.18913087082E+03  0.27396428986E+02  0.81634267874E+03  0.83841304314E+03  0.10566000000E+00 0.  1.
        994    1    1    2    0    0 -0.24885472411E+03 -0.82323844920E+02  0.27709898699E+03  0.41808991586E+03  0.17120000000E+03 0.  0.
        998    1    1    2    0    0  0.59723853285E+02  0.54927415934E+02  0.40655833055E+03  0.41469704100E+03  0.10000000000E+02 0. -1.
</event>
<event>
 5    1  0.5781797E-010  0.3865847E+03  0.7957747E-01  0.3422979E+00
         13   -1    0    0    0    0  0.00000000000E+00  0.00000000000E+00  0.14999999963E+04  0.15000000000E+04  0.10566000000E+00 0. -1.
        994   -1    0    0    0    0 -0.00000000000E+00 -0.00000000000E+00  0.11368683772E-12  0.17120000000E+03  0.17120000000E+03 0.  0.
         13    1    1    2    0    0 -0.10226667448E+03 -0.19608107917E+02  0.62369879400E+03  0.63233151701E+03  0.10566000000E+00 0. -1.
        994    1    1    2    0    0  0.17335553670E+03  0.43094900875E+02  0.11328956828E+03  0.27212732106E+03  0.17120000000E+03 0.  0.
        998    1    1    2    0    0 -0.71088862218E+02 -0.23486792958E+02  0.76301163400E+03  0.76674116193E+03  0.10000000000E+02 0. -1.
</event>
<event>
 5    1  0.5781797E-010  0.3880429E+03  0.7957747E-01  0.3416868E+00
         13   -1    0    0    0    0  0.00000000000E+00  0.00000000000E+00  0.14999999963E+04  0.15000000000E+04  0.10566000000E+00 0. -1.
        994   -1    0    0    0    0 -0.00000000000E+00 -0.00000000000E+00  0.11368683772E-12  0.17120000000E+03  0.17120000000E+03 0.  0.
         13    1    1    2    0    0 -0.21240779875E+02 -0.12442344223E+03  0.69163419349E+03  0.70305777321E+03  0.10566000000E+00 0. -1.
        994    1    1    2    0    0  0.31875794695E+02  0.23937233665E+03  0.22088593461E+03  0.36934430814E+03  0.17120000000E+03 0.  0.
        998    1    1    2    0    0 -0.10635014820E+02 -0.11494889442E+03  0.58747986817E+03  0.59879791865E+03  0.10000000000E+02 0.  0.
</event>
<event>
 5    1  0.5781797E-010  0.3697500E+03  0.7957747E-01  0.3497041E+00
         13   -1    0    0    0    0  0.00000000000E+00  0.00000000000E+00  0.14999999963E+04  0.15000000000E+04  0.10566000000E+00 0. -1.
        994   -1    0    0    0    0 -0.00000000000E+00 -0.00000000000E+00  0.11368683772E-12  0.17120000000E+03  0.17120000000E+03 0.  0.
         13    1    1    2    0    0 -0.39679184008E+02 -0.11327244771E+03  0.70954591051E+03  0.71962524645E+03  0.10566000000E+00 0. -1.
        994    1    1    2    0    0  0.56941887126E+02  0.29336866045E+03  0.45925010267E+03  0.57404498626E+03  0.17120000000E+03 0.  0.
        998    1    1    2    0    0 -0.17262703118E+02 -0.18009621275E+03  0.33120398310E+03  0.37752976729E+03  0.10000000000E+02 0. -1.
</event>
<event>
 5    1  0.5781797E-010  0.3831811E+03  0.7957747E-01  0.3437423E+00
         13   -1    0    0    0    0  0.00000000000E+00  0.00000000000E+00  0.14999999963E+04  0.15000000000E+04  0.10566000000E+00 0.  1.
        994   -1    0    0    0    0 -0.00000000000E+00 -0.00000000000E+00  0.11368683772E-12  0.17120000000E+03  0.17120000000E+03 0.  0.
         13    1    1    2    0    0  0.24454013045E+01  0.11172864040E+02  0.13731947300E+02  0.17871497394E+02  0.10566000000E+00 0.  1.
        994    1    1    2    0    0 -0.71273060906E+02 -0.18153631307E+03  0.14062331612E+03  0.29516036186E+03  0.17120000000E+03 0.  0.
        998    1    1    2    0    0  0.68827659601E+02  0.17036344903E+03  0.13456447329E+04  0.13581681408E+04  0.10000000000E+02 0.  1.
</event>
<event>
 5    1  0.5781797E-010  0.3812047E+03  0.7957747E-01  0.3445930E+00
         13   -1    0    0    0    0  0.00000000000E+00  0.00000000000E+00  0.14999999963E+04  0.15000000000E+04  0.10566000000E+00 0. -1.
        994   -1    0    0    0    0 -0.00000000000E+00 -0.00000000000E+00  0.11368683772E-12  0.17120000000E+03  0.17120000000E+03 0.  0.
         13    1    1    2    0    0  0.86134147325E+02 -0.24485916043E+03  0.79638483184E+03  0.83761799845E+03  0.10566000000E+00 0. -1.
        994    1    1    2    0    0 -0.12597052437E+03  0.27309639276E+03  0.41344716966E+03  0.53916436719E+03  0.17120000000E+03 0.  0.
        998    1    1    2    0    0  0.39836377047E+02 -0.28237232330E+02  0.29016799478E+03  0.29441763436E+03  0.10000000000E+02 0. -1.
</event>
<event>
 5    1  0.5781797E-010  0.3869054E+03  0.7957747E-01  0.3421631E+00
         13   -1    0    0    0    0  0.00000000000E+00  0.00000000000E+00  0.14999999963E+04  0.15000000000E+04  0.10566000000E+00 0. -1.
        994   -1    0    0    0    0 -0.00000000000E+00 -0.00000000000E+00  0.11368683772E-12  0.17120000000E+03  0.17120000000E+03 0.  0.
         13    1    1    2    0    0  0.13831719125E+02  0.12272892857E+02  0.90965039547E+02  0.92825588804E+02  0.10566000000E+00 0. -1.
        994    1    1    2    0    0 -0.14166540659E+03 -0.39313889277E+02  0.74826541813E+02  0.23774591621E+03  0.17120000000E+03 0.  0.
        998    1    1    2    0    0  0.12783368746E+03  0.27040996421E+02  0.13342084149E+04  0.13406284950E+04  0.10000000000E+02 0. -1.
</event>
<event>
 5    1  0.5781797E-010  0.3823592E+03  0.7957747E-01  0.3440950E+00
         13   -1    0    0    0    0  0.00000000000E+00  0.00000000000E+00  0.14999999963E+04  0.15000000000E+04  0.10566000000E+00 0. -1.
        994   -1    0    0    0    0 -0.00000000000E+00 -0.00000000000E+00  0.11368683772E-12  0.17120000000E+03  0.17120000000E+03 0.  0.
         13    1    1    2    0    0  0.14183027195E+03  0.26111859741E+03  0.99063787037E+03  0.10342447241E+04  0.10566000000E+00 0. -1.
        994    1    1    2    0    0 -0.16003600519E+03 -0.27194695202E+03  0.47987620240E+03  0.59929731962E+03  0.17120000000E+03 0.  0.
        998    1    1    2    0    0  0.18205733231E+02  0.10828354613E+02  0.29485923501E+02  0.37657956275E+02  0.10000000000E+02 0. -1.
</event>
<event>
 5    1  0.5781797E-010  0.3841358E+03  0.7957747E-01  0.3433346E+00
         13   -1    0    0    0    0  0.00000000000E+00  0.00000000000E+00  0.14999999963E+04  0.15000000000E+04  0.10566000000E+00 0. -1.
        994   -1    0    0    0    0 -0.00000000000E+00 -0.00000000000E+00  0.11368683772E-12  0.17120000000E+03  0.17120000000E+03 0.  0.
         13    1    1    2    0    0  0.77615466814E+02 -0.74454570959E+02  0.59603739423E+03  0.60566346292E+03  0.10566000000E+00 0. -1.
        994    1    1    2    0    0 -0.16354816964E+03  0.84668211484E+02  0.12334215540E+03  0.28007041459E+03  0.17120000000E+03 0.  0.
        998    1    1    2    0    0  0.85932702828E+02 -0.10213640525E+02  0.78062044664E+03  0.78546612249E+03  0.10000000000E+02 0. -1.
</event>
<event>
 5    1  0.5781797E-010  0.3638543E+03  0.7957747E-01  0.3524621E+00
         13   -1    0    0    0    0  0.00000000000E+00  0.00000000000E+00  0.14999999963E+04  0.15000000000E+04  0.10566000000E+00 0.  1.
        994   -1    0    0    0    0 -0.00000000000E+00 -0.00000000000E+00  0.11368683772E-12  0.17120000000E+03  0.17120000000E+03 0.  0.
         13    1    1    2    0    0 -0.22373670204E+03  0.19755194135E+03  0.41695715907E+03  0.51277496530E+03  0.10566000000E+00 0.  1.
        994    1    1    2    0    0  0.24382328189E+03 -0.17617936839E+03  0.10703798806E+04  0.11249495506E+04  0.17120000000E+03 0.  0.
        998    1    1    2    0    0 -0.20086579848E+02 -0.21372572963E+02  0.12662956619E+02  0.33475484094E+02  0.10000000000E+02 0. -1.
</event>
<event>
 5    1  0.5781797E-010  0.3861390E+03  0.7957747E-01  0.3424856E+00
         13   -1    0    0    0    0  0.00000000000E+00  0.00000000000E+00  0.14999999963E+04  0.15000000000E+04  0.10566000000E+00 0. -1.
        994   -1    0    0    0    0 -0.00000000000E+00 -0.00000000000E+00  0.11368683772E-12  0.17120000000E+03  0.17120000000E+03 0.  0.
         13    1    1    2    0    0 -0.18709570581E+03 -0.11460564598E+03  0.12649805989E+04  0.12838672766E+04  0.10566000000E+00 0. -1.
        994    1    1    2    0    0  0.19132251751E+03  0.11594812283E+03  0.18709313872E+03  0.33817385388E+03  0.17120000000E+03 0.  0.
        998    1    1    2    0    0 -0.42268116925E+01 -0.13424768496E+01  0.47926258702E+02  0.49158869539E+02  0.10000000000E+02 0. -1.
</event>
<event>
 5    1  0.5781797E-010  0.3875953E+03  0.7957747E-01  0.3418739E+00
         13   -1    0    0    0    0  0.00000000000E+00  0.00000000000E+00  0.14999999963E+04  0.15000000000E+04  0.10566000000E+00 0.  1.
        994   -1    0    0    0    0 -0.00000000000E+00 -0.00000000000E+00  0.11368683772E-12  0.17120000000E+03  0.17120000000E+03 0.  0.
         13    1    1    2    0    0  0.17827569030E+03  0.87893338597E+02  0.10651819421E+04  0.10835681989E+04  0.10566000000E+00 0.  1.
        994    1    1    2    0    0 -0.22142215485E+03 -0.10053463637E+03  0.22527412528E+03  0.37308558708E+03  0.17120000000E+03 0.  0.
        998    1    1    2    0    0  0.43146464551E+02  0.12641297772E+02  0.20954392889E+03  0.21454621401E+03  0.10000000000E+02 0. -1.
</event>
<event>
 5    1  0.5781797E-010  0.3851756E+03  0.7957747E-01  0.3428928E+00
         13   -1    0    0    0    0  0.00000000000E+00  0.00000000000E+00  0.14999999963E+04  0.15000000000E+04  0.10566000000E+00 0. -1.
        994   -1    0    0    0    0 -0.00000000000E+00 -0.00000000000E+00  0.11368683772E-12  0.17120000000E+03  0.17120000000E+03 0.  0.
         13    1    1    2    0    0  0.17178176400E+03  0.84242189941E+01  0.89903574134E+03  0.91533885381E+03  0.10566000000E+00 0. -1.
        994    1    1    2    0    0 -0.20937994669E+03 -0.15803750563E+02  0.16313967394E+03  0.31624944873E+03  0.17120000000E+03 0.  0.
        998    1    1    2    0    0  0.37598182683E+02  0.73795315689E+01  0.43782458100E+03  0.43961169747E+03  0.10000000000E+02 0. -1.
</event>
<event>
 5    1  0.5781797E-010  0.3868624E+03  0.7957747E-01  0.3421812E+00
         13   -1    0    0    0    0  0.00000000000E+00  0.00000000000E+00  0.14999999963E+04  0.15000000000E+04  0.10566000000E+00 0. -1.
        994   -1    0    0    0    0 -0.00000000000E+00 -0.00000000000E+00  0.11368683772E-12  0.17120000000E+03  0.17120000000E+03 0.  0.
         13    1    1    2    0    0 -0.17986279913E+03 -0.29478711902E+02  0.75580285304E+03  0.77746870342E+03  0.10566000000E+00 0. -1.
        994    1    1    2    0    0  0.27917855129E+03  0.13901313739E+02  0.32152460459E+03  0.45915293899E+03  0.17120000000E+03 0.  0.
        998    1    1    2    0    0 -0.99315752163E+02  0.15577398164E+02  0.42267253865E+03  0.43457835759E+03  0.10000000000E+02 0. -1.
</event>
<event>
 5    1  0.5781797E-010  0.3785429E+03  0.7957747E-01  0.3457528E+00
         13   -1    0    0    0    0  0.00000000000E+00  0.00000000000E+00  0.14999999963E+04  0.15000000000E+04  0.10566000000E+00 0. -1.
        994   -1    0    0    0    0 -0.00000000000E+00 -0.00000000000E+00  0.11368683772E-12  0.17120000000E+03  0.17120000000E+03 0.  0.
         13    1    1    2    0    0 -0.31178367512E+03  0.72082239959E+02  0.90664065818E+03  0.96145837332E+03  0.10566000000E+00 0. -1.
        994    1    1    2    0    0  0.31963990321E+03 -0.56770978803E+02  0.54117345875E+03  0.65388895404E+03  0.17120000000E+03 0.  0.
        998    1    1    2    0    0 -0.78562280924E+01 -0.15311261156E+02  0.52185879350E+02  0.55852672644E+02  0.10000000000E+02 0.  1.
</event>
<event>
 5    1  0.5781797E-010  0.3715175E+03  0.7957747E-01  0.3488946E+00
         13   -1    0    0    0    0  0.00000000000E+00  0.00000000000E+00  0.14999999963E+04  0.15000000000E+04  0.10566000000E+00 0.  1.
        994   -1    0    0    0    0 -0.00000000000E+00 -0.00000000000E+00  0.11368683772E-12  0.17120000000E+03  0.17120000000E+03 0.  0.
         13    1    1    2    0    0  0.33875929965E+02  0.13172227593E+03  0.70872443618E+03  0.72165689508E+03  0.10566000000E+00 0.  1.
        994    1    1    2    0    0  0.63609968841E+02 -0.17529914062E+03  0.13957974666E+03  0.28908123861E+03  0.17120000000E+03 0.  0.
        998    1    1    2    0    0 -0.97485898806E+02  0.43576864685E+02  0.65169581344E+03  0.66046186632E+03  0.10000000000E+02 0.  1.
</event>
<event>
 5    1  0.5781797E-010  0.3817519E+03  0.7957747E-01  0.3443566E+00
         13   -1    0    0    0    0  0.00000000000E+00  0.00000000000E+00  0.14999999963E+04  0.15000000000E+04  0.10566000000E+00 0. -1.
        994   -1    0    0    0    0 -0.00000000000E+00 -0.00000000000E+00  0.11368683772E-12  0.17120000000E+03  0.17120000000E+03 0.  0.
         13    1    1    2    0    0 -0.47664815241E+02 -0.92256274627E+02  0.40927104613E+03  0.42223921559E+03  0.10566000000E+00 0. -1.
        994    1    1    2    0    0  0.16092682895E+03  0.15014579073E+03  0.18577557678E+03  0.33505702153E+03  0.17120000000E+03 0.  0.
        998    1    1    2    0    0 -0.11326201371E+03 -0.57889516106E+02  0.90495337337E+03  0.91390376287E+03  0.10000000000E+02 0. -1.
</event>
<event>
 5    1  0.5781797E-010  0.3868010E+03  0.7957747E-01  0.3422070E+00
         13   -1    0    0    0    0  0.00000000000E+00  0.00000000000E+00  0.14999999963E+04  0.15000000000E+04  0.10566000000E+00 0. -1.
        994   -1    0    0    0    0 -0.00000000000E+00 -0.00000000000E+00  0.11368683772E-12  0.17120000000E+03  0.17120000000E+03 0.  0.
         13    1    1    2    0    0  0.94162449980E+02  0.87709646387E+02  0.70513639197E+03  0.71678231807E+03  0.10566000000E+00 0. -1.
        994    1    1    2    0    0 -0.13657646798E+03 -0.17826770783E+03  0.18789381766E+03  0.33918436576E+03  0.17120000000E+03 0.  0.
        998    1    1    2    0    0  0.42414018004E+02  0.90558061442E+02  0.60696978665E+03  0.61523331617E+03  0.10000000000E+02 0. -1.
</event>
<event>
 5    1  0.5781797E-010  0.3867523E+03  0.7957747E-01  0.3422274E+00
         13   -1    0    0    0    0  0.00000000000E+00  0.00000000000E+00  0.14999999963E+04  0.15000000000E+04  0.10566000000E+00 0. -1.
        994   -1    0    0    0    0 -0.00000000000E+00 -0.00000000000E+00  0.11368683772E-12  0.17120000000E+03  0.17120000000E+03 0.  0.
         13    1    1    2    0    0 -0.27289369341E+03  0.57785769701E+02  0.10191608738E+04  0.10566451916E+04  0.10566000000E+00 0. -1.
        994    1    1    2    0    0  0.29371536758E+03 -0.53984345630E+02  0.38744776343E+03  0.51827428656E+03  0.17120000000E+03 0.  0.
        998    1    1    2    0    0 -0.20821674169E+02 -0.38014240709E+01  0.93391359078E+02  0.96280521865E+02  0.10000000000E+02 0.  1.
</event>
<event>
 5    1  0.5781797E-010  0.3850321E+03  0.7957747E-01  0.3429536E+00
         13   -1    0    0    0    0  0.00000000000E+00  0.00000000000E+00  0.14999999963E+04  0.15000000000E+04  0.10566000000E+00 0.  1.
        994   -1    0    0    0    0 -0.00000000000E+00 -0.00000000000E+00  0.11368683772E-12  0.17120000000E+03  0.17120000000E+03 0.  0.
         13    1    1    2    0    0 -0.26835275073E+03 -0.70569417048E+02  0.11247812586E+04  0.11585016756E+04  0.10566000000E+00 0.  1.
        994    1    1    2    0    0  0.27685057967E+03  0.75183280318E+02  0.34967323022E+03  0.48361097696E+03  0.17120000000E+03 0.  0.
        998    1    1    2    0    0 -0.84978289393E+01 -0.46138632695E+01  0.25545507421E+02  0.29087347427E+02  0.10000000000E+02 0.  0.
</event>
<event>
 5    1  0.5781797E-010  0.3878661E+03  0.7957747E-01  0.3417607E+00
         13   -1    0    0    0    0  0.00000000000E+00  0.00000000000E+00  0.14999999963E+04  0.15000000000E+04  0.10566000000E+00 0.  1.
        994   -1    0    0    0    0 -0.00000000000E+00 -0.00000000000E+00  0.11368683772E-12  0.17120000000E+03  0.17120000000E+03 0.  0.
         13    1    1    2    0    0 -0.17309513583E+03 -0.49184532030E+02  0.10052135667E+04  0.10211931111E+04  0.10566000000E+00 0.  1.
        994    1    1    2    0    0  0.21789624767E+03  0.67442966866E+02  0.19337343898E+03  0.34457227897E+03  0.17120000000E+03 0.  0.
        998    1    1    2    0    0 -0.44801111849E+02 -0.18258434837E+02  0.30141299057E+03  0.30543460994E+03  0.10000000000E+02 0.  1.
</event>
<event>
 5    1  0.5781797E-010  0.3826229E+03  0.7957747E-01  0.3439817E+00
         13   -1    0    0    0    0  0.00000000000E+00  0.00000000000E+00  0.14999999963E+04  0.15000000000E+04  0.10566000000E+00 0. -1.
        994   -1    0    0    0    0 -0.00000000000E+00 -0.00000000000E+00  0.11368683772E-12  0.17120000000E+03  0.17120000000E+03 0.  0.
         13    1    1    2    0    0 -0.14104498376E+03 -0.30226027706E+02  0.82070702919E+03  0.83328706886E+03  0.10566000000E+00 0. -1.
        994    1    1    2    0    0  0.17116973950E+03  0.87661133969E+02  0.13698078397E+03  0.29164486847E+03  0.17120000000E+03 0.  0.
        998    1    1    2    0    0 -0.30124755737E+02 -0.57435106263E+02  0.54231218311E+03  0.54626806267E+03  0.10000000000E+02 0. -1.
</event>
<event>
 5    1  0.5781797E-010  0.3775735E+03  0.7957747E-01  0.3461792E+00
         13   -1    0    0    0    0  0.00000000000E+00  0.00000000000E+00  0.14999999963E+04  0.15000000000E+04  0.10566000000E+00 0. -1.
        994   -1    0    0    0    0 -0.00000000000E+00 -0.00000000000E+00  0.11368683772E-12  0.17120000000E+03  0.17120000000E+03 0.  0.
         13    1    1    2    0    0 -0.17960474632E+03  0.13293805234E+03  0.12791700025E+04  0.12985400638E+04  0.10566000000E+00 0. -1.
        994    1    1    2    0    0  0.15967703413E+03 -0.13539846851E+03  0.17639503796E+03  0.32288411221E+03  0.17120000000E+03 0.  0.
        998    1    1    2    0    0  0.19927712198E+02  0.24604161716E+01  0.44434955770E+02  0.49775824006E+02  0.10000000000E+02 0. -1.
</event>
<event>
 5    1  0.5781797E-010  0.3870640E+03  0.7957747E-01  0.3420965E+00
         13   -1    0    0    0    0  0.00000000000E+00  0.00000000000E+00  0.14999999963E+04  0.15000000000E+04  0.10566000000E+00 0.  1.
        994   -1    0    0    0    0 -0.00000000000E+00 -0.00000000000E+00  0.11368683772E-12  0.17120000000E+03  0.17120000000E+03 0.  0.
         13    1    1    2    0    0  0.11866644451E+03  0.11470338584E+03  0.81015434101E+03  0.82679420607E+03  0.10566000000E+00 0.  1.
        994    1    1    2    0    0 -0.15846190980E+03 -0.17670014382E+03  0.21339054256E+03  0.36218514786E+03  0.17120000000E+03 0.  0.
        998    1    1    2    0    0  0.39795465285E+02  0.61996757977E+02  0.47645511272E+03  0.48222064606E+03  0.10000000000E+02 0.  1.
</event>
<event>
 5    1  0.5781797E-010  0.3862045E+03  0.7957747E-01  0.3424580E+00
         13   -1    0    0    0    0  0.00000000000E+00  0.00000000000E+00  0.14999999963E+04  0.15000000000E+04  0.10566000000E+00 0. -1.
        994   -1    0    0    0    0 -0.00000000000E+00 -0.00000000000E+00  0.11368683772E-12  0.17120000000E+03  0.17120000000E+03 0.  0.
         13    1    1    2    0    0  0.16679427510E+02  0.70451522699E+01  0.91361097103E+02  0.93138062576E+02  0.10566000000E+00 0. -1.
        994    1    1    2    0    0 -0.15744604755E+03  0.75245379442E+02  0.10808459997E+03  0.26728794542E+03  0.17120000000E+03 0.  0.
        998    1    1    2    0    0  0.14076662004E+03 -0.82290531712E+02  0.13005542992E+04  0.13107739920E+04  0.10000000000E+02 0. -1.
</event>
<event>
 5    1  0.5781797E-010  0.3484628E+03  0.7957747E-01  0.3601132E+00
         13   -1    0    0    0    0  0.00000000000E+00  0.00000000000E+00  0.14999999963E+04  0.15000000000E+04  0.10566000000E+00 0.  1.
        994   -1    0    0    0    0 -0.00000000000E+00 -0.00000000000E+00  0.11368683772E-12  0.17120000000E+03  0.17120000000E+03 0.  0.
         13    1    1    2    0    0 -0.72345637902E+02  0.28053535559E+03  0.60799780585E+03  0.67349485532E+03  0.10566000000E+00 0.  1.
        994    1    1    2    0    0  0.14442237725E+03 -0.28785652532E+03  0.65532841377E+03  0.74998931467E+03  0.17120000000E+03 0.  0.
        998    1    1    2    0    0 -0.72076739347E+02  0.73211697296E+01  0.23667377665E+03  0.24771583001E+03  0.10000000000E+02 0. -1.
</event>
<event>
 5    1  0.5781797E-010  0.3846769E+03  0.7957747E-01  0.3431044E+00
         13   -1    0    0    0    0  0.00000000000E+00  0.00000000000E+00  0.14999999963E+04  0.15000000000E+04  0.10566000000E+00 0.  1.
        994   -1    0    0    0    0 -0.00000000000E+00 -0.00000000000E+00  0.11368683772E-12  0.17120000000E+03  0.17120000000E+03 0.  0.
         13    1    1    2    0    0  0.31130410973E+02  0.54135471326E+01  0.18753231489E+03  0.19017568002E+03  0.10566000000E+00 0.  1.
        994    1    1    2    0    0 -0.74943212094E+02  0.43089276336E+02  0.26792932286E+02  0.19365038599E+03  0.17120000000E+03 0.  0.
        998    1    1    2    0    0  0.43812801121E+02 -0.48502823469E+02  0.12856747491E+04  0.12873739340E+04  0.10000000000E+02 0.  1.
</event>
<event>
 5    1  0.5781797E-010  0.3873540E+03  0.7957747E-01  0.3419750E+00
         13   -1    0    0    0    0  0.00000000000E+00  0.00000000000E+00  0.14999999963E+04  0.15000000000E+04  0.10566000000E+00 0. -1.
        994   -1    0    0    0    0 -0.00000000000E+00 -0.00000000000E+00  0.11368683772E-12  0.17120000000E+03  0.17120000000E+03 0.  0.
         13    1    1    2    0    0 -0.42921665572E+02 -0.18410401290E+03  0.11269383426E+04  0.11426839441E+04  0.10566000000E+00 0. -1.
        994    1    1    2    0    0  0.59388066138E+02  0.20953969908E+03  0.17449383293E+03  0.32740092489E+03  0.17120000000E+03 0.  0.
        998    1    1    2    0    0 -0.16466400567E+02 -0.25435686175E+02  0.19856782073E+03  0.20111513098E+03  0.10000000000E+02 0. -1.
</event>
<event>
 5    1  0.5781797E-010  0.3859050E+03  0.7957747E-01  0.3425843E+00
         13   -1    0    0    0    0  0.00000000000E+00  0.00000000000E+00  0.14999999963E+04  0.15000000000E+04  0.10566000000E+00 0. -1.
        994   -1    0    0    0    0 -0.00000000000E+00 -0.00000000000E+00  0.11368683772E-12  0.17120000000E+03  0.17120000000E+03 0.  0.
         13    1    1    2    0    0 -0.38143160882E+02  0.24309001382E+03  0.10845908685E+04  0.11121533252E+04  0.10566000000E+00 0. -1.
        994    1    1    2    0    0  0.35483619859E+02 -0.25819443314E+03  0.26994749735E+03  0.41243732118E+03  0.17120000000E+03 0.  0.
        998    1    1    2    0    0  0.26595410229E+01  0.15104419315E+02  0.14546163039E+03  0.14660935358E+03  0.10000000000E+02 0. -1.
</event>
<event>
 5    1  0.5781797E-010  0.3880721E+03  0.7957747E-01  0.3416746E+00
         13   -1    0    0    0    0  0.00000000000E+00  0.00000000000E+00  0.14999999963E+04  0.15000000000E+04  0.10566000000E+00 0.  1.
        994   -1    0    0    0    0 -0.00000000000E+00 -0.00000000000E+00  0.11368683772E-12  0.17120000000E+03  0.17120000000E+03 0.  0.
         13    1    1    2    0    0  0.18940294280E+03 -0.98696993046E+02  0.45910912290E+03  0.50635537824E+03  0.10566000000E+00 0.  1.
        994    1    1    2    0    0 -0.30563301718E+03  0.16638201378E+03  0.75826763339E+03  0.85168876919E+03  0.17120000000E+03 0.  0.
        998    1    1    2    0    0  0.11623007438E+03 -0.67685020737E+02  0.28262323998E+03  0.31315585258E+03  0.10000000000E+02 0.  0.
</event>
<event>
 5    1  0.5781797E-010  0.3852664E+03  0.7957747E-01  0.3428543E+00
         13   -1    0    0    0    0  0.00000000000E+00  0.00000000000E+00  0.14999999963E+04  0.15000000000E+04  0.10566000000E+00 0.  1.
        994   -1    0    0    0    0 -0.00000000000E+00 -0.00000000000E+00  0.11368683772E-12  0.17120000000E+03  0.17120000000E+03 0.  0.
         13    1    1    2    0    0  0.17678162446E+02  0.16080494189E+02  0.10766135407E+03  0.11028181194E+03  0.10566000000E+00 0.  1.
        994    1    1    2    0    0 -0.62323041291E+02 -0.64475527223E+02  0.28381491218E+02  0.19533613114E+03  0.17120000000E+03 0.  0.
        998    1    1    2    0    0  0.44644878845E+02  0.48395033034E+02  0.13639571510E+04  0.13655820569E+04  0.10000000000E+02 0.  1.
</event>
<event>
 5    1  0.5781797E-010  0.3847347E+03  0.7957747E-01  0.3430798E+00
         13   -1    0    0    0    0  0.00000000000E+00  0.00000000000E+00  0.14999999963E+04  0.15000000000E+04  0.10566000000E+00 0.  1.
        994   -1    0    0    0    0 -0.00000000000E+00 -0.00000000000E+00  0.11368683772E-12  0.17120000000E+03  0.17120000000E+03 0.  0.
         13    1    1    2    0    0 -0.21462623047E+03 -0.13480932963E+03  0.10895411034E+04  0.11186321117E+04  0.10566000000E+00 0.  1.
        994    1    1    2    0    0  0.23950544758E+03  0.12821589097E+03  0.30257566411E+03  0.44120703375E+03  0.17120000000E+03 0.  0.
        998    1    1    2    0    0 -0.24879217104E+02  0.65934386645E+01  0.10788322878E+03  0.11136085456E+03  0.10000000000E+02 0. -1.
</event>
<event>
 5    1  0.5781797E-010  0.3869982E+03  0.7957747E-01  0.3421241E+00
         13   -1    0    0    0    0  0.00000000000E+00  0.00000000000E+00  0.14999999963E+04  0.15000000000E+04  0.10566000000E+00 0. -1.
        994   -1    0    0    0    0 -0.00000000000E+00 -0.00000000000E+00  0.11368683772E-12  0.17120000000E+03  0.17120000000E+03 0.  0.
         13    1    1    2    0    0 -0.21467916648E+03  0.64279297739E+02  0.97375787482E+03  0.99921138032E+03  0.10566000000E+00 0. -1.
        994    1    1    2    0    0  0.27020359517E+03 -0.63481743839E+02  0.31522932644E+03  0.45356243549E+03  0.17120000000E+03 0.  0.
        998    1    1    2    0    0 -0.55524428684E+02 -0.79755389961E+00  0.21101279502E+03  0.21842618418E+03  0.10000000000E+02 0.  1.
</event>
<event>
 5    1  0.5781797E-010  0.3858189E+03  0.7957747E-01  0.3426207E+00
         13   -1    0    0    0    0  0.00000000000E+00  0.00000000000E+00  0.14999999963E+04  0.15000000000E+04  0.10566000000E+00 0. -1.
        994   -1    0    0    0    0 -0.00000000000E+00 -0.00000000000E+00  0.11368683772E-12  0.17120000000E+03  0.17120000000E+03 0.  0.
         13    1    1    2    0    0  0.13420384230E+03  0.98685782645E+02  0.91179441409E+03  0.92688651933E+03  0.10566000000E+00 0. -1.
        994    1    1    2    0    0 -0.15776091040E+03 -0.15621638841E+03  0.18425930483E+03  0.33548918950E+03  0.17120000000E+03 0.  0.
        998    1    1    2    0    0  0.23557068096E+02  0.57530605762E+02  0.40394627736E+03  0.40882429117E+03  0.10000000000E+02 0. -1.
</event>
<event>
 5    1  0.5781797E-010  0.3872230E+03  0.7957747E-01  0.3420299E+00
         13   -1    0    0    0    0  0.00000000000E+00  0.00000000000E+00  0.14999999963E+04  0.15000000000E+04  0.10566000000E+00 0.  1.
        994   -1    0    0    0    0 -0.00000000000E+00 -0.00000000000E+00  0.11368683772E-12  0.17120000000E+03  0.17120000000E+03 0.  0.
         13    1    1    2    0    0 -0.52554884284E+02  0.13851355188E+03  0.89295912424E+03  0.90516519412E+03  0.10566000000E+00 0.  1.
        994    1    1    2    0    0  0.62263655295E+02 -0.22153342325E+03  0.19824368170E+03  0.34866003172E+03  0.17120000000E+03 0.  0.
        998    1    1    2    0    0 -0.97087710107E+01  0.83019871364E+02  0.40879719034E+03  0.41737477416E+03  0.10000000000E+02 0.  1.
</event>
<event>
 5    1  0.5781797E-010  0.3793067E+03  0.7957747E-01  0.3454183E+00
         13   -1    0    0    0    0  0.00000000000E+00  0.00000000000E+00  0.14999999963E+04  0.15000000000E+04  0.10566000000E+00 0. -1.
        994   -1    0    0    0    0 -0.00000000000E+00 -0.00000000000E+00  0.11368683772E-12  0.17120000000E+03  0.17120000000E+03 0.  0.
         13    1    1    2    0    0  0.13544887993E+02  0.75980186256E+02  0.19781552361E+03  0.21233804473E+03  0.10566000000E+00 0. -1.
        994    1    1    2    0    0  0.13301803743E+02 -0.23446111443E+03  0.21932135580E+03  0.36408824380E+03  0.17120000000E+03 0.  0.
        998    1    1    2    0    0 -0.26846691736E+02  0.15848092817E+03  0.10828631169E+04  0.10947737115E+04  0.10000000000E+02 0. -1.
</event>
<event>
 5    1  0.5781797E-010  0.3731463E+03  0.7957747E-01  0.3481555E+00
         13   -1    0    0    0    0  0.00000000000E+00  0.00000000000E+00  0.14999999963E+04  0.15000000000E+04  0.10566000000E+00 0.  1.
        994   -1    0    0    0    0 -0.00000000000E+00 -0.00000000000E+00  0.11368683772E-12  0.17120000000E+03  0.17120000000E+03 0.  0.
         13    1    1    2    0    0  0.14058908341E+02 -0.28170546685E+02  0.22131054178E+02  0.38484117859E+02  0.10566000000E+00 0.  1.
        994    1    1    2    0    0 -0.13973864139E+03  0.11300786040E+03  0.13747768305E+03  0.28373793850E+03  0.17120000000E+03 0.  0.
        998    1    1    2    0    0  0.12567973304E+03 -0.84837313711E+02  0.13403912590E+04  0.13489779436E+04  0.10000000000E+02 0.  1.
</event>
<event>
 5    1  0.5781797E-010  0.3878690E+03  0.7957747E-01  0.3417595E+00
         13   -1    0    0    0    0  0.00000000000E+00  0.00000000000E+00  0.14999999963E+04  0.15000000000E+04  0.10566000000E+00 0. -1.
        994   -1    0    0    0    0 -0.00000000000E+00 -0.00000000000E+00  0.11368683772E-12  0.17120000000E+03  0.17120000000E+03 0.  0.
         13    1    1    2    0    0  0.15720997909E+02  0.81254477464E+02  0.38713713124E+03  0.39588459105E+03  0.10566000000E+00 0. -1.
        994    1    1    2    0    0 -0.57096857593E+02 -0.23458425530E+03  0.22102737066E+03  0.36939458925E+03  0.17120000000E+03 0.  0.
        998    1    1    2    0    0  0.41375859684E+02  0.15332977784E+03  0.89183549438E+03  0.90592081970E+03  0.10000000000E+02 0. -1.
</event>
<event>
 5    1  0.5781797E-010  0.3832196E+03  0.7957747E-01  0.3437258E+00
         13   -1    0    0    0    0  0.00000000000E+00  0.00000000000E+00  0.14999999963E+04  0.15000000000E+04  0.10566000000E+00 0.  1.
        994   -1    0    0    0    0 -0.00000000000E+00 -0.00000000000E+00  0.11368683772E-12  0.17120000000E+03  0.17120000000E+03 0.  0.
         13    1    1    2    0    0 -0.86749449747E+01  0.61856891862E+01  0.26227075635E+02  0.28308798658E+02  0.10566000000E+00 0.  1.
        994    1    1    2    0    0 -0.58957424837E+02 -0.24143187400E+01  0.14120029164E+02  0.18163320760E+03  0.17120000000E+03 0.  0.
        998    1    1    2    0    0  0.67632369811E+02 -0.37713704462E+01  0.14596528915E+04  0.14612579937E+04  0.10000000000E+02 0.  1.
</event>
<event>
 5    1  0.5781797E-010  0.3843935E+03  0.7957747E-01  0.3432249E+00
         13   -1    0    0    0    0  0.00000000000E+00  0.00000000000E+00  0.14999999963E+04  0.15000000000E+04  0.10566000000E+00 0.  1.
        994   -1    0    0    0    0 -0.00000000000E+00 -0.00000000000E+00  0.11368683772E-12  0.17120000000E+03  0.17120000000E+03 0.  0.
         13    1    1    2    0    0  0.13524659310E+02  0.19926153794E+02  0.12722818249E+03  0.12948741096E+03  0.10566000000E+00 0.  1.
        994    1    1    2    0    0  0.65168181166E+02 -0.11994444195E+03  0.65956794870E+02  0.22867728304E+03  0.17120000000E+03 0.  0.
        998    1    1    2    0    0 -0.78692840476E+02  0.10001828816E+03  0.13068150189E+04  0.13130353060E+04  0.10000000000E+02 0.  1.
</event>
<event>
 5    1  0.5781797E-010  0.3852512E+03  0.7957747E-01  0.3428607E+00
         13   -1    0    0    0    0  0.00000000000E+00  0.00000000000E+00  0.14999999963E+04  0.15000000000E+04  0.10566000000E+00 0. -1.
        994   -1    0    0    0    0 -0.00000000000E+00 -0.00000000000E+00  0.11368683772E-12  0.17120000000E+03  0.17120000000E+03 0.  0.
         13    1    1    2    0    0 -0.26134032290E+01 -0.35436715878E+02  0.15842587751E+03  0.16236181983E+03  0.10566000000E+00 0. -1.
        994    1    1    2    0    0  0.83144017762E+02  0.13737842886E+03  0.91398002741E+02  0.25189044307E+03  0.17120000000E+03 0.  0.
        998    1    1    2    0    0 -0.80530614533E+02 -0.10194171298E+03  0.12501761160E+04  0.12569477371E+04  0.10000000000E+02 0. -1.
</event>
<event>
 5    1  0.5781797E-010  0.3868521E+03  0.7957747E-01  0.3421855E+00
         13   -1    0    0    0    0  0.00000000000E+00  0.00000000000E+00  0.14999999963E+04  0.15000000000E+04  0.10566000000E+00 0.  1.
        994   -1    0    0    0    0 -0.00000000000E+00 -0.00000000000E+00  0.11368683772E-12  0.17120000000E+03  0.17120000000E+03 0.  0.
         13    1    1    2    0    0  0.38363909647E+02  0.28084592294E+03  0.10675730910E+04  0.11045626002E+04  0.10566000000E+00 0.  1.
        994    1    1    2    0    0 -0.40163352982E+02 -0.29294247253E+03  0.37603692437E+03  0.50807636790E+03  0.17120000000E+03 0.  0.
        998    1    1    2    0    0  0.17994433356E+01  0.12096549594E+02  0.56389980932E+02  0.58561031906E+02  0.10000000000E+02 0. -1.
</event>
<event>
 5    1  0.5781797E-010  0.2443471E+03  0.7957747E-01  0.4396000E+00
         13   -1    0    0    0    0  0.00000000000E+00  0.00000000000E+00  0.14999999963E+04  0.15000000000E+04  0.10566000000E+00 0.  1.
        994   -1    0    0    0    0 -0.00000000000E+00 -0.00000000000E+00  0.11368683772E-12  0.17120000000E+03  0.17120000000E+03 0.  0.
         13    1    1    2    0    0 -0.12108488701E+03 -0.18140430970E+02  0.71164243368E+03  0.72209804713E+03  0.10566000000E+00 0.  1.
        994    1    1    2    0    0 -0.86493065828E+02  0.15404597265E+03  0.22474148852E+03  0.33321072731E+03  0.17120000000E+03 0.  0.
        998    1    1    2    0    0  0.20757795284E+03 -0.13590554168E+03  0.56361607408E+03  0.61589122556E+03  0.10000000000E+02 0.  1.
</event>
<event>
 5    1  0.5781797E-010  0.3857378E+03  0.7957747E-01  0.3426549E+00
         13   -1    0    0    0    0  0.00000000000E+00  0.00000000000E+00  0.14999999963E+04  0.15000000000E+04  0.10566000000E+00 0. -1.
        994   -1    0    0    0    0 -0.00000000000E+00 -0.00000000000E+00  0.11368683772E-12  0.17120000000E+03  0.17120000000E+03 0.  0.
         13    1    1    2    0    0  0.72616648112E+02  0.99835577567E+02  0.42415178733E+03  0.44175227220E+03  0.10566000000E+00 0. -1.
        994    1    1    2    0    0  0.80293892255E+02 -0.16502243272E+03  0.15789653633E+03  0.29651352181E+03  0.17120000000E+03 0.  0.
        998    1    1    2    0    0 -0.15291054037E+03  0.65186855152E+02  0.91795167262E+03  0.93293420599E+03  0.10000000000E+02 0. -1.
</event>
<event>
 5    1  0.5781797E-010  0.3865807E+03  0.7957747E-01  0.3422996E+00
         13   -1    0    0    0    0  0.00000000000E+00  0.00000000000E+00  0.14999999963E+04  0.15000000000E+04  0.10566000000E+00 0. -1.
        994   -1    0    0    0    0 -0.00000000000E+00 -0.00000000000E+00  0.11368683772E-12  0.17120000000E+03  0.17120000000E+03 0.  0.
         13    1    1    2    0    0  0.20072378715E+03 -0.18995712247E+03  0.70714997449E+03  0.75923306349E+03  0.10566000000E+00 0. -1.
        994    1    1    2    0    0 -0.25815705086E+03  0.21706713360E+03  0.60593573247E+03  0.71430438559E+03  0.17120000000E+03 0.  0.
        998    1    1    2    0    0  0.57433263706E+02 -0.27110011131E+02  0.18691428932E+03  0.19766255092E+03  0.10000000000E+02 0.  1.
</event>
<event>
 5    1  0.5781797E-010  0.3845070E+03  0.7957747E-01  0.3431766E+00
         13   -1    0    0    0    0  0.00000000000E+00  0.00000000000E+00  0.14999999963E+04  0.15000000000E+04  0.10566000000E+00 0. -1.
        994   -1    0    0    0    0 -0.00000000000E+00 -0.00000000000E+00  0.11368683772E-12  0.17120000000E+03  0.17120000000E+03 0.  0.
         13    1    1    2    0    0  0.66669728112E+01  0.14957080565E+02  0.71039504042E+02  0.72902572548E+02  0.10566000000E+00 0. -1.
        994    1    1    2    0    0 -0.68724415782E+02  0.12410485271E+02  0.18108344681E+02  0.18578056307E+03  0.17120000000E+03 0.  0.
        998    1    1    2    0    0  0.62057442971E+02 -0.27367565836E+02  0.14108521476E+04  0.14125168644E+04  0.10000000000E+02 0. -1.
</event>
<event>
 5    1  0.5781797E-010  0.3850886E+03  0.7957747E-01  0.3429297E+00
         13   -1    0    0    0    0  0.00000000000E+00  0.00000000000E+00  0.14999999963E+04  0.15000000000E+04  0.10566000000E+00 0.  1.
        994   -1    0    0    0    0 -0.00000000000E+00 -0.00000000000E+00  0.11368683772E-12  0.17120000000E+03  0.17120000000E+03 0.  0.
         13    1    1    2    0    0  0.22470123864E+01 -0.29081272404E+02  0.16497227636E+03  0.16753098997E+03  0.10566000000E+00 0.  1.
        994    1    1    2    0    0  0.26287435508E+02  0.73477356289E+02  0.21871017756E+02  0.18941418260E+03  0.17120000000E+03 0.  0.
        998    1    1    2    0    0 -0.28534447894E+02 -0.44396083885E+02  0.13131567022E+04  0.13142548274E+04  0.10000000000E+02 0.  1.
</event>
<event>
 5    1  0.5781797E-010  0.3839068E+03  0.7957747E-01  0.3434322E+00
         13   -1    0    0    0    0  0.00000000000E+00  0.00000000000E+00  0.14999999963E+04  0.15000000000E+04  0.10566000000E+00 0.  1.
        994   -1    0    0    0    0 -0.00000000000E+00 -0.00000000000E+00  0.11368683772E-12  0.17120000000E+03  0.17120000000E+03 0.  0.
         13    1    1    2    0    0 -0.17778197493E+02  0.21596717260E+03  0.11861985416E+04  0.12058295382E+04  0.10566000000E+00 0.  1.
        994    1    1    2    0    0  0.27575416885E+02 -0.24542700847E+03  0.23965858537E+03  0.38437026114E+03  0.17120000000E+03 0.  0.
        998    1    1    2    0    0 -0.97972193912E+01  0.29459835871E+02  0.74142869302E+02  0.81000200652E+02  0.10000000000E+02 0. -1.
</event>
<event>
 5    1  0.5781797E-010  0.3845272E+03  0.7957747E-01  0.3431680E+00
         13   -1    0    0    0    0  0.00000000000E+00  0.00000000000E+00  0.14999999963E+04  0.15000000000E+04  0.10566000000E+00 0.  1.
        994   -1    0    0    0    0 -0.00000000000E+00 -0.00000000000E+00  0.11368683772E-12  0.17120000000E+03  0.17120000000E+03 0.  0.
         13    1    1    2    0    0  0.17620150459E+03 -0.10021343432E+03  0.10902996743E+04  0.11089829095E+04  0.10566000000E+00 0.  1.
        994    1    1    2    0    0 -0.22773810468E+03  0.10524316681E+03  0.24794096594E+03  0.39207771051E+03  0.17120000000E+03 0.  0.
        998    1    1    2    0    0  0.51536600083E+02 -0.50297324930E+01  0.16175935600E+03  0.17013937995E+03  0.10000000000E+02 0. -1.
</event>
<event>
 5    1  0.5781797E-010  0.3861479E+03  0.7957747E-01  0.3424818E+00
         13   -1    0    0    0    0  0.00000000000E+00  0.00000000000E+00  0.14999999963E+04  0.15000000000E+04  0.10566000000E+00 0. -1.
        994   -1    0    0    0    0 -0.00000000000E+00 -0.00000000000E+00  0.11368683772E-12  0.17120000000E+03  0.17120000000E+03 0.  0.
         13    1    1    2    0    0  0.58915130932E+02  0.90173754931E+01  0.30718499832E+03  0.31291363037E+03  0.10566000000E+00 0. -1.
        994    1    1    2    0    0 -0.16801758266E+03 -0.79641596252E+02  0.12395668530E+03  0.28150913265E+03  0.17120000000E+03 0.  0.
        998    1    1    2    0    0  0.10910245173E+03  0.70624220759E+02  0.10688583127E+04  0.10767772370E+04  0.10000000000E+02 0. -1.
</event>
<event>
 5    1  0.5781797E-010  0.3778093E+03  0.7957747E-01  0.3460753E+00
         13   -1    0    0    0    0  0.00000000000E+00  0.00000000000E+00  0.14999999963E+04  0.15000000000E+04  0.10566000000E+00 0. -1.
        994   -1    0    0    0    0 -0.00000000000E+00 -0.00000000000E+00  0.11368683772E-12  0.17120000000E+03  0.17120000000E+03 0.  0.
         13    1    1    2    0    0  0.22057660431E+03  0.40257223673E+02  0.76614213128E+03  0.79827843446E+03  0.10566000000E+00 0. -1.
        994    1    1    2    0    0 -0.32150091216E+03 -0.49049110539E+01  0.54182626706E+03  0.65289512048E+03  0.17120000000E+03 0.  0.
        998    1    1    2    0    0  0.10092430785E+03 -0.35352312619E+02  0.19203159794E+03  0.22002644506E+03  0.10000000000E+02 0.  1.
</event>
<event>
 5    1  0.5781797E-010  0.3863174E+03  0.7957747E-01  0.3424104E+00
         13   -1    0    0    0    0  0.00000000000E+00  0.00000000000E+00  0.14999999963E+04  0.15000000000E+04  0.10566000000E+00 0. -1.
        994   -1    0    0    0    0 -0.00000000000E+00 -0.00000000000E+00  0.11368683772E-12  0.17120000000E+03  0.17120000000E+03 0.  0.
         13    1    1    2    0    0 -0.20353792105E+03  0.16950066154E+03  0.92479760201E+03  0.96198169183E+03  0.10566000000E+00 0. -1.
        994    1    1    2    0    0  0.22797771671E+03 -0.21139211812E+03  0.44045254004E+03  0.56565744665E+03  0.17120000000E+03 0.  0.
        998    1    1    2    0    0 -0.24439795667E+02  0.41891456578E+02  0.13474985423E+03  0.14356086152E+03  0.10000000000E+02 0. -1.
</event>
<event>
 5    1  0.5781797E-010  0.3842196E+03  0.7957747E-01  0.3432989E+00
         13   -1    0    0    0    0  0.00000000000E+00  0.00000000000E+00  0.14999999963E+04  0.15000000000E+04  0.10566000000E+00 0. -1.
        994   -1    0    0    0    0 -0.00000000000E+00 -0.00000000000E+00  0.11368683772E-12  0.17120000000E+03  0.17120000000E+03 0.  0.
         13    1    1    2    0    0  0.34541623634E+02 -0.21308024989E+03  0.11706877787E+04  0.11904226993E+04  0.10566000000E+00 0. -1.
        994    1    1    2    0    0 -0.57258691570E+02  0.22268257202E+03  0.20192844074E+03  0.35064315311E+03  0.17120000000E+03 0.  0.
        998    1    1    2    0    0  0.22717067935E+02 -0.96023221296E+01  0.12738377681E+03  0.13013414756E+03  0.10000000000E+02 0.  1.
</event>
<event>
 5    1  0.5781797E-010  0.3868507E+03  0.7957747E-01  0.3421861E+00
         13   -1    0    0    0    0  0.00000000000E+00  0.00000000000E+00  0.14999999963E+04  0.15000000000E+04  0.10566000000E+00 0. -1.
        994   -1    0    0    0    0 -0.00000000000E+00 -0.00000000000E+00  0.11368683772E-12  0.17120000000E+03  0.17120000000E+03 0.  0.
         13    1    1    2    0    0  0.11809547379E+03 -0.15417684003E+03  0.68896586130E+03  0.71581492589E+03  0.10566000000E+00 0. -1.
        994    1    1    2    0    0 -0.21218558713E+03  0.22615071746E+03  0.43486782817E+03  0.56087996788E+03  0.17120000000E+03 0.  0.
        998    1    1    2    0    0  0.94090113330E+02 -0.71973877432E+02  0.37616630681E+03  0.39450510623E+03  0.10000000000E+02 0. -1.
</event>
<event>
 5    1  0.5781797E-010  0.3872306E+03  0.7957747E-01  0.3420267E+00
         13   -1    0    0    0    0  0.00000000000E+00  0.00000000000E+00  0.14999999963E+04  0.15000000000E+04  0.10566000000E+00 0. -1.
        994   -1    0    0    0    0 -0.00000000000E+00 -0.00000000000E+00  0.11368683772E-12  0.17120000000E+03  0.17120000000E+03 0.  0.
         13    1    1    2    0    0  0.11028586481E+03 -0.17045586105E+03  0.89658166433E+03  0.91928062338E+03  0.10566000000E+00 0. -1.
        994    1    1    2    0    0 -0.15239051201E+03  0.21248809976E+03  0.26978946915E+03  0.41287995634E+03  0.17120000000E+03 0.  0.
        998    1    1    2    0    0  0.42104647195E+02 -0.42032238713E+02  0.33362886280E+03  0.33903942027E+03  0.10000000000E+02 0. -1.
</event>
<event>
 5    1  0.5781797E-010  0.3873559E+03  0.7957747E-01  0.3419742E+00
         13   -1    0    0    0    0  0.00000000000E+00  0.00000000000E+00  0.14999999963E+04  0.15000000000E+04  0.10566000000E+00 0.  1.
        994   -1    0    0    0    0 -0.00000000000E+00 -0.00000000000E+00  0.11368683772E-12  0.17120000000E+03  0.17120000000E+03 0.  0.
         13    1    1    2    0    0  0.40294362724E+02  0.11543118466E+03  0.49460147000E+03  0.50948858608E+03  0.10566000000E+00 0.  1.
        994    1    1    2    0    0 -0.54755385478E+02 -0.27553191413E+03  0.32474226839E+03  0.46225855192E+03  0.17120000000E+03 0.  0.
        998    1    1    2    0    0  0.14461022754E+02  0.16010072947E+03  0.68065625789E+03  0.69945286200E+03  0.10000000000E+02 0.  1.
</event>
<event>
 5    1  0.5781797E-010  0.3880381E+03  0.7957747E-01  0.3416889E+00
         13   -1    0    0    0    0  0.00000000000E+00  0.00000000000E+00  0.14999999963E+04  0.15000000000E+04  0.10566000000E+00 0.  1.
        994   -1    0    0    0    0 -0.00000000000E+00 -0.00000000000E+00  0.11368683772E-12  0.17120000000E+03  0.17120000000E+03 0.  0.
         13    1    1    2    0    0 -0.56294801611E+02  0.12347863604E+03  0.75596606766E+03  0.76804998852E+03  0.10566000000E+00 0.  1.
        994    1    1    2    0    0  0.86636590864E+02 -0.21298959602E+03  0.19679318581E+03  0.34771750728E+03  0.17120000000E+03 0.  0.
        998    1    1    2    0    0 -0.30341789254E+02  0.89510959976E+02  0.54724074281E+03  0.55543250420E+03  0.10000000000E+02 0.  0.
</event>
<event>
 5    1  0.5781797E-010  0.3829136E+03  0.7957747E-01  0.3438569E+00
         13   -1    0    0    0    0  0.00000000000E+00  0.00000000000E+00  0.14999999963E+04  0.15000000000E+04  0.10566000000E+00 0.  1.
        994   -1    0    0    0    0 -0.00000000000E+00 -0.00000000000E+00  0.11368683772E-12  0.17120000000E+03  0.17120000000E+03 0.  0.
         13    1    1    2    0    0 -0.17235872220E+02 -0.16703634825E+01  0.90532433491E+02  0.92173738577E+02  0.10566000000E+00 0.  1.
        994    1    1    2    0    0 -0.57464602258E+02  0.10984288922E+03  0.55337365789E+02  0.21849326049E+03  0.17120000000E+03 0.  0.
        998    1    1    2    0    0  0.74700474478E+02 -0.10817252574E+03  0.13541301970E+04  0.13605330009E+04  0.10000000000E+02 0.  1.
</event>
<event>
 5    1  0.5781797E-010  0.3849149E+03  0.7957747E-01  0.3430033E+00
         13   -1    0    0    0    0  0.00000000000E+00  0.00000000000E+00  0.14999999963E+04  0.15000000000E+04  0.10566000000E+00 0. -1.
        994   -1    0    0    0    0 -0.00000000000E+00 -0.00000000000E+00  0.11368683772E-12  0.17120000000E+03  0.17120000000E+03 0.  0.
         13    1    1    2    0    0  0.10728809775E+03 -0.10652805552E+03  0.75120487645E+03  0.76626871272E+03  0.10566000000E+00 0. -1.
        994    1    1    2    0    0 -0.13316304656E+03  0.16647133389E+03  0.16908839331E+03  0.32147383522E+03  0.17120000000E+03 0.  0.
        998    1    1    2    0    0  0.25874948805E+02 -0.59943278369E+02  0.57970672651E+03  0.58345745206E+03  0.10000000000E+02 0. -1.
</event>
<event>
 5    1  0.5781797E-010  0.3768550E+03  0.7957747E-01  0.3464968E+00
         13   -1    0    0    0    0  0.00000000000E+00  0.00000000000E+00  0.14999999963E+04  0.15000000000E+04  0.10566000000E+00 0.  1.
        994   -1    0    0    0    0 -0.00000000000E+00 -0.00000000000E+00  0.11368683772E-12  0.17120000000E+03  0.17120000000E+03 0.  0.
         13    1    1    2    0    0  0.62249378925E+02  0.22549222078E+02  0.83079073739E+02  0.10623368698E+03  0.10566000000E+00 0.  1.
        994    1    1    2    0    0 -0.29679149564E+03 -0.10229389936E+03  0.49728252789E+03  0.61249374387E+03  0.17120000000E+03 0.  0.
        998    1    1    2    0    0  0.23454211672E+03  0.79744677282E+02  0.91963839465E+03  0.95247256915E+03  0.10000000000E+02 0.  1.
</event>
<event>
 5    1  0.5781797E-010  0.3853873E+03  0.7957747E-01  0.3428031E+00
         13   -1    0    0    0    0  0.00000000000E+00  0.00000000000E+00  0.14999999963E+04  0.15000000000E+04  0.10566000000E+00 0.  1.
        994   -1    0    0    0    0 -0.00000000000E+00 -0.00000000000E+00  0.11368683772E-12  0.17120000000E+03  0.17120000000E+03 0.  0.
         13    1    1    2    0    0  0.31589064298E+02 -0.32784112390E+02  0.25143349700E+03  0.25552197867E+03  0.10566000000E+00 0.  1.
        994    1    1    2    0    0 -0.65352422360E+02  0.10726354430E+03  0.55093978899E+02  0.21936543382E+03  0.17120000000E+03 0.  0.
        998    1    1    2    0    0  0.33763358062E+02 -0.74479431906E+02  0.11934725204E+04  0.11963125875E+04  0.10000000000E+02 0.  1.
</event>
<event>
 5    1  0.5781797E-010  0.3870017E+03  0.7957747E-01  0.3421227E+00
         13   -1    0    0    0    0  0.00000000000E+00  0.00000000000E+00  0.14999999963E+04  0.15000000000E+04  0.10566000000E+00 0. -1.
        994   -1    0    0    0    0 -0.00000000000E+00 -0.00000000000E+00  0.11368683772E-12  0.17120000000E+03  0.17120000000E+03 0.  0.
         13    1    1    2    0    0 -0.18318400302E+03 -0.12605045371E+03  0.11978458019E+04  0.12183101707E+04  0.10566000000E+00 0. -1.
        994    1    1    2    0    0  0.19440534625E+03  0.13994982591E+03  0.21818441024E+03  0.36646046075E+03  0.17120000000E+03 0.  0.
        998    1    1    2    0    0 -0.11221343227E+02 -0.13899372207E+02  0.83969784181E+02  0.86429368544E+02  0.10000000000E+02 0.  0.
</event>
<event>
 5    1  0.5781797E-010  0.3880384E+03  0.7957747E-01  0.3416887E+00
         13   -1    0    0    0    0  0.00000000000E+00  0.00000000000E+00  0.14999999963E+04  0.15000000000E+04  0.10566000000E+00 0. -1.
        994   -1    0    0    0    0 -0.00000000000E+00 -0.00000000000E+00  0.11368683772E-12  0.17120000000E+03  0.17120000000E+03 0.  0.
         13    1    1    2    0    0  0.11831163666E+03  0.20866807027E+03  0.60546915354E+03  0.65125487636E+03  0.10566000000E+00 0. -1.
        994    1    1    2    0    0 -0.16849561619E+03 -0.29608361012E+03  0.62627170580E+03  0.73319981338E+03  0.17120000000E+03 0.  0.
        998    1    1    2    0    0  0.50183979528E+02  0.87415539852E+02  0.26825913694E+03  0.28674531027E+03  0.10000000000E+02 0.  0.
</event>
<event>
 5    1  0.5781797E-010  0.3881735E+03  0.7957747E-01  0.3416324E+00
         13   -1    0    0    0    0  0.00000000000E+00  0.00000000000E+00  0.14999999963E+04  0.15000000000E+04  0.10566000000E+00 0.  1.
        994   -1    0    0    0    0 -0.00000000000E+00 -0.00000000000E+00  0.11368683772E-12  0.17120000000E+03  0.17120000000E+03 0.  0.
         13    1    1    2    0    0  0.10708460165E+02  0.44377012257E+01  0.62015523729E+02  0.63089624018E+02  0.10566000000E+00 0.  1.
        994    1    1    2    0    0 -0.19538118897E+03 -0.12119425943E+03  0.19657595536E+03  0.34758222588E+03  0.17120000000E+03 0.  0.
        998    1    1    2    0    0  0.18467272880E+03  0.11675655821E+03  0.12414085172E+04  0.12605281501E+04  0.10000000000E+02 0.  0.
</event>
<event>
 5    1  0.5781797E-010  0.3877351E+03  0.7957747E-01  0.3418154E+00
         13   -1    0    0    0    0  0.00000000000E+00  0.00000000000E+00  0.14999999963E+04  0.15000000000E+04  0.10566000000E+00 0.  1.
        994   -1    0    0    0    0 -0.00000000000E+00 -0.00000000000E+00  0.11368683772E-12  0.17120000000E+03  0.17120000000E+03 0.  0.
         13    1    1    2    0    0  0.10953815264E+02  0.73020567691E+01  0.32838553205E+02  0.35379200705E+02  0.10566000000E+00 0.  1.
        994    1    1    2    0    0 -0.21554478898E+03 -0.20652684370E+03  0.38413670313E+03  0.51573572682E+03  0.17120000000E+03 0.  0.
        998    1    1    2    0    0  0.20459097371E+03  0.19922478693E+03  0.10830247399E+04  0.11200850725E+04  0.10000000000E+02 0.  1.
</event>
<event>
 5    1  0.5781797E-010  0.3864778E+03  0.7957747E-01  0.3423429E+00
         13   -1    0    0    0    0  0.00000000000E+00  0.00000000000E+00  0.14999999963E+04  0.15000000000E+04  0.10566000000E+00 0.  1.
        994   -1    0    0    0    0 -0.00000000000E+00 -0.00000000000E+00  0.11368683772E-12  0.17120000000E+03  0.17120000000E+03 0.  0.
         13    1    1    2    0    0 -0.17138100194E+02  0.10959054898E+02  0.11675417088E+03  0.11851313406E+03  0.10566000000E+00 0.  1.
        994    1    1    2    0    0  0.10458237585E+03 -0.34938226789E+01  0.37592962081E+02  0.20413806831E+03  0.17120000000E+03 0.  0.
        998    1    1    2    0    0 -0.87444275657E+02 -0.74652322189E+01  0.13456528633E+04  0.13485487976E+04  0.10000000000E+02 0.  1.
</event>
<event>
 5    1  0.5781797E-010  0.3855211E+03  0.7957747E-01  0.3427465E+00
         13   -1    0    0    0    0  0.00000000000E+00  0.00000000000E+00  0.14999999963E+04  0.15000000000E+04  0.10566000000E+00 0.  1.
        994   -1    0    0    0    0 -0.00000000000E+00 -0.00000000000E+00  0.11368683772E-12  0.17120000000E+03  0.17120000000E+03 0.  0.
         13    1    1    2    0    0  0.13501368873E+02  0.17739116350E+02  0.10692667392E+03  0.10922585761E+03  0.10566000000E+00 0.  1.
        994    1    1    2    0    0 -0.12059180884E+02 -0.96808893479E+02  0.33267369067E+02  0.19983378980E+03  0.17120000000E+03 0.  0.
        998    1    1    2    0    0 -0.14421879888E+01  0.79069777129E+02  0.13598059533E+04  0.13621403526E+04  0.10000000000E+02 0.  1.
</event>
<event>
 5    1  0.5781797E-010  0.3836316E+03  0.7957747E-01  0.3435497E+00
         13   -1    0    0    0    0  0.00000000000E+00  0.00000000000E+00  0.14999999963E+04  0.15000000000E+04  0.10566000000E+00 0.  1.
        994   -1    0    0    0    0 -0.00000000000E+00 -0.00000000000E+00  0.11368683772E-12  0.17120000000E+03  0.17120000000E+03 0.  0.
         13    1    1    2    0    0  0.15032346707E+02 -0.29495126594E+02  0.18046320395E+03  0.18347455705E+03  0.10566000000E+00 0.  1.
        994    1    1    2    0    0  0.53559799324E+02  0.10477228366E+03  0.49476244535E+02  0.21354910981E+03  0.17120000000E+03 0.  0.
        998    1    1    2    0    0 -0.68592146031E+02 -0.75277157069E+02  0.12700605478E+04  0.12741763331E+04  0.10000000000E+02 0.  1.
</event>
<event>
 5    1  0.5781797E-010  0.3687670E+03  0.7957747E-01  0.3501577E+00
         13   -1    0    0    0    0  0.00000000000E+00  0.00000000000E+00  0.14999999963E+04  0.15000000000E+04  0.10566000000E+00 0. -1.
        994   -1    0    0    0    0 -0.00000000000E+00 -0.00000000000E+00  0.11368683772E-12  0.17120000000E+03  0.17120000000E+03 0.  0.
         13    1    1    2    0    0  0.30845002548E+02  0.26176560479E+02  0.14054703848E+03  0.14625357325E+03  0.10566000000E+00 0. -1.
        994    1    1    2    0    0  0.96719439563E+01  0.13449022161E+03  0.75988659418E+02  0.23079185984E+03  0.17120000000E+03 0.  0.
        998    1    1    2    0    0 -0.40516946504E+02 -0.16066678209E+03  0.12834642984E+04  0.12941545669E+04  0.10000000000E+02 0. -1.
</event>
<event>
 5    1  0.5781797E-010  0.3881425E+03  0.7957747E-01  0.3416453E+00
         13   -1    0    0    0    0  0.00000000000E+00  0.00000000000E+00  0.14999999963E+04  0.15000000000E+04  0.10566000000E+00 0.  1.
        994   -1    0    0    0    0 -0.00000000000E+00 -0.00000000000E+00  0.11368683772E-12  0.17120000000E+03  0.17120000000E+03 0.  0.
         13    1    1    2    0    0  0.97980897904E+02  0.65072819728E+02  0.64873076753E+03  0.65930747616E+03  0.10566000000E+00 0.  1.
        994    1    1    2    0    0 -0.19073437677E+03 -0.12982091451E+03  0.19822793192E+03  0.34905132190E+03  0.17120000000E+03 0.  0.
        998    1    1    2    0    0  0.92753478869E+02  0.64748094786E+02  0.65304129682E+03  0.66284120193E+03  0.10000000000E+02 0.  0.
</event>
<event>
 5    1  0.5781797E-010  0.3859855E+03  0.7957747E-01  0.3425503E+00
         13   -1    0    0    0    0  0.00000000000E+00  0.00000000000E+00  0.14999999963E+04  0.15000000000E+04  0.10566000000E+00 0.  1.
        994   -1    0    0    0    0 -0.00000000000E+00 -0.00000000000E+00  0.11368683772E-12  0.17120000000E+03  0.17120000000E+03 0.  0.
         13    1    1    2    0    0  0.30653720116E+03 -0.71926972479E+02  0.47679753274E+03  0.57137942162E+03  0.10566000000E+00 0.  1.
        994    1    1    2    0    0 -0.32382076311E+03  0.72651569611E+02  0.10072770505E+04  0.10742693488E+04  0.17120000000E+03 0.  0.
        998    1    1    2    0    0  0.17283561953E+02 -0.72459713194E+00  0.15925413020E+02  0.25551229611E+02  0.10000000000E+02 0.  0.
</event>
<event>
 5    1  0.5781797E-010  0.3873616E+03  0.7957747E-01  0.3419718E+00
         13   -1    0    0    0    0  0.00000000000E+00  0.00000000000E+00  0.14999999963E+04  0.15000000000E+04  0.10566000000E+00 0.  1.
        994   -1    0    0    0    0 -0.00000000000E+00 -0.00000000000E+00  0.11368683772E-12  0.17120000000E+03  0.17120000000E+03 0.  0.
         13    1    1    2    0    0  0.80177253188E+02  0.15484673376E+02  0.47805189469E+03  0.48497607386E+03  0.10566000000E+00 0.  1.
        994    1    1    2    0    0 -0.18634943394E+03 -0.67779900302E+02  0.14139187554E+03  0.29769334706E+03  0.17120000000E+03 0.  0.
        998    1    1    2    0    0  0.10617218075E+03  0.52295226926E+02  0.88055622605E+03  0.88853057908E+03  0.10000000000E+02 0.  1.
</event>
<event>
 5    1  0.5781797E-010  0.3871447E+03  0.7957747E-01  0.3420627E+00
         13   -1    0    0    0    0  0.00000000000E+00  0.00000000000E+00  0.14999999963E+04  0.15000000000E+04  0.10566000000E+00 0. -1.
        994   -1    0    0    0    0 -0.00000000000E+00 -0.00000000000E+00  0.11368683772E-12  0.17120000000E+03  0.17120000000E+03 0.  0.
         13    1    1    2    0    0 -0.16869381666E+03 -0.14741395440E+02  0.57731115879E+03  0.60163369067E+03  0.10566000000E+00 0. -1.
        994    1    1    2    0    0  0.29475650754E+03  0.51262477029E+02  0.38839159615E+03  0.51929443695E+03  0.17120000000E+03 0.  0.
        998    1    1    2    0    0 -0.12606269088E+03 -0.36521081589E+02  0.53429724134E+03  0.55027187238E+03  0.10000000000E+02 0. -1.
</event>
<event>
 5    1  0.5781797E-010  0.3854601E+03  0.7957747E-01  0.3427723E+00
         13   -1    0    0    0    0  0.00000000000E+00  0.00000000000E+00  0.14999999963E+04  0.15000000000E+04  0.10566000000E+00 0. -1.
        994   -1    0    0    0    0 -0.00000000000E+00 -0.00000000000E+00  0.11368683772E-12  0.17120000000E+03  0.17120000000E+03 0.  0.
         13    1    1    2    0    0 -0.16998756400E+02  0.35031644076E+02  0.22116972493E+03  0.22457121854E+03  0.10566000000E+00 0. -1.
        994    1    1    2    0    0  0.30991635636E+02 -0.10283063153E+03  0.40241545859E+02  0.20606659669E+03  0.17120000000E+03 0.  0.
        998    1    1    2    0    0 -0.13992879236E+02  0.67798987452E+02  0.12385887255E+04  0.12405621848E+04  0.10000000000E+02 0. -1.
</event>
<event>
 5    1  0.5781797E-010  0.3862645E+03  0.7957747E-01  0.3424327E+00
         13   -1    0    0    0    0  0.00000000000E+00  0.00000000000E+00  0.14999999963E+04  0.15000000000E+04  0.10566000000E+00 0. -1.
        994   -1    0    0    0    0 -0.00000000000E+00 -0.00000000000E+00  0.11368683772E-12  0.17120000000E+03  0.17120000000E+03 0.  0.
         13    1    1    2    0    0 -0.45511905708E+02  0.12173684438E+03  0.73756197267E+03  0.74892514147E+03  0.10566000000E+00 0. -1.
        994    1    1    2    0    0  0.35962484346E+02 -0.22711565640E+03  0.19918695342E+03  0.34908409313E+03  0.17120000000E+03 0.  0.
        998    1    1    2    0    0  0.95494213619E+01  0.10537881202E+03  0.56325107019E+03  0.57319076540E+03  0.10000000000E+02 0.  1.
</event>
<event>
 5    1  0.5781797E-010  0.3866939E+03  0.7957747E-01  0.3422520E+00
         13   -1    0    0    0    0  0.00000000000E+00  0.00000000000E+00  0.14999999963E+04  0.15000000000E+04  0.10566000000E+00 0. -1.
        994   -1    0    0    0    0 -0.00000000000E+00 -0.00000000000E+00  0.11368683772E-12  0.17120000000E+03  0.17120000000E+03 0.  0.
         13    1    1    2    0    0 -0.21296287241E+02  0.17517405297E+02  0.16646410719E+03  0.16873263313E+03  0.10566000000E+00 0. -1.
        994    1    1    2    0    0  0.72047688064E+02 -0.85368865690E+02  0.42723537182E+02  0.20883834230E+03  0.17120000000E+03 0.  0.
        998    1    1    2    0    0 -0.50751400822E+02  0.67851460393E+02  0.12908123519E+04  0.12936290246E+04  0.10000000000E+02 0. -1.
</event>
<event>
 5    1  0.5781797E-010  0.3867491E+03  0.7957747E-01  0.3422288E+00
         13   -1    0    0    0    0  0.00000000000E+00  0.00000000000E+00  0.14999999963E+04  0.15000000000E+04  0.10566000000E+00 0.  1.
        994   -1    0    0    0    0 -0.00000000000E+00 -0.00000000000E+00  0.11368683772E-12  0.17120000000E+03  0.17120000000E+03 0.  0.
         13    1    1    2    0    0  0.25887896328E+03  0.38748041825E+02  0.11226427664E+04  0.11527560542E+04  0.10566000000E+00 0.  1.
        994    1    1    2    0    0 -0.27248586098E+03 -0.35697013346E+02  0.30756862925E+03  0.44657667079E+03  0.17120000000E+03 0.  0.
        998    1    1    2    0    0  0.13606897701E+02 -0.30510284795E+01  0.69788600585E+02  0.71867274969E+02  0.10000000000E+02 0.  1.
</event>
<event>
 5    1  0.5781797E-010  0.3881862E+03  0.7957747E-01  0.3416271E+00
         13   -1    0    0    0    0  0.00000000000E+00  0.00000000000E+00  0.14999999963E+04  0.15000000000E+04  0.10566000000E+00 0.  1.
        994   -1    0    0    0    0 -0.00000000000E+00 -0.00000000000E+00  0.11368683772E-12  0.17120000000E+03  0.17120000000E+03 0.  0.
         13    1    1    2    0    0 -0.35339350964E+02  0.86846725456E+02  0.51166504739E+03  0.52018492417E+03  0.10566000000E+00 0.  1.
        994    1    1    2    0    0  0.87172837455E+02 -0.21837594846E+03  0.20716124757E+03  0.35708875781E+03  0.17120000000E+03 0.  0.
        998    1    1    2    0    0 -0.51833486491E+02  0.13152922300E+03  0.78117370132E+03  0.79392631803E+03  0.10000000000E+02 0.  0.
</event>
<event>
 5    1  0.5781797E-010  0.3855624E+03  0.7957747E-01  0.3427291E+00
         13   -1    0    0    0    0  0.00000000000E+00  0.00000000000E+00  0.14999999963E+04  0.15000000000E+04  0.10566000000E+00 0.  1.
        994   -1    0    0    0    0 -0.00000000000E+00 -0.00000000000E+00  0.11368683772E-12  0.17120000000E+03  0.17120000000E+03 0.  0.
         13    1    1    2    0    0  0.13861139536E+03 -0.28401014385E+02  0.75076694574E+03  0.76398347791E+03  0.10566000000E+00 0.  1.
        994    1    1    2    0    0 -0.19455610452E+03  0.44802032006E+02  0.14544464488E+03  0.30053765921E+03  0.17120000000E+03 0.  0.
        998    1    1    2    0    0  0.55944709157E+02 -0.16401017621E+02  0.60378840566E+03  0.60667886288E+03  0.10000000000E+02 0.  1.
</event>
<event>
 5    1  0.5781797E-010  0.3857330E+03  0.7957747E-01  0.3426570E+00
         13   -1    0    0    0    0  0.00000000000E+00  0.00000000000E+00  0.14999999963E+04  0.15000000000E+04  0.10566000000E+00 0. -1.
        994   -1    0    0    0    0 -0.00000000000E+00 -0.00000000000E+00  0.11368683772E-12  0.17120000000E+03  0.17120000000E+03 0.  0.
         13    1    1    2    0    0  0.72769181387E+02 -0.18392407130E+03  0.95526894889E+03  0.97553174917E+03  0.10566000000E+00 0. -1.
        994    1    1    2    0    0 -0.11360971480E+03  0.21567534528E+03  0.22942355509E+03  0.37598886884E+03  0.17120000000E+03 0.  0.
        998    1    1    2    0    0  0.40840533416E+02 -0.31751273987E+02  0.31530749230E+03  0.31967938199E+03  0.10000000000E+02 0. -1.
</event>
<event>
 5    1  0.5781797E-010  0.3870977E+03  0.7957747E-01  0.3420824E+00
         13   -1    0    0    0    0  0.00000000000E+00  0.00000000000E+00  0.14999999963E+04  0.15000000000E+04  0.10566000000E+00 0.  1.
        994   -1    0    0    0    0 -0.00000000000E+00 -0.00000000000E+00  0.11368683772E-12  0.17120000000E+03  0.17120000000E+03 0.  0.
         13    1    1    2    0    0 -0.84661242236E+02 -0.15721295798E+03  0.10147179327E+04  0.10303086597E+04  0.10566000000E+00 0.  1.
        994    1    1    2    0    0  0.12610835598E+03  0.19371827406E+03  0.20049300745E+03  0.35062369171E+03  0.17120000000E+03 0.  0.
        998    1    1    2    0    0 -0.41447113743E+02 -0.36505316080E+02  0.28478905608E+03  0.29026764856E+03  0.10000000000E+02 0.  1.
</event>
<event>
 5    1  0.5781797E-010  0.3867390E+03  0.7957747E-01  0.3422330E+00
         13   -1    0    0    0    0  0.00000000000E+00  0.00000000000E+00  0.14999999963E+04  0.15000000000E+04  0.10566000000E+00 0.  1.
        994   -1    0    0    0    0 -0.00000000000E+00 -0.00000000000E+00  0.11368683772E-12  0.17120000000E+03  0.17120000000E+03 0.  0.
         13    1    1    2    0    0 -0.21419657513E+02 -0.12734037743E+02  0.12055092661E+03  0.12309953093E+03  0.10566000000E+00 0.  1.
        994    1    1    2    0    0  0.93408607989E+02  0.16252905396E+03  0.12559267667E+03  0.28323810100E+03  0.17120000000E+03 0.  0.
        998    1    1    2    0    0 -0.71988950476E+02 -0.14979501622E+03  0.12538563930E+04  0.12648623681E+04  0.10000000000E+02 0.  1.
</event>
<event>
 5    1  0.5781797E-010  0.3850241E+03  0.7957747E-01  0.3429570E+00
         13   -1    0    0    0    0  0.00000000000E+00  0.00000000000E+00  0.14999999963E+04  0.15000000000E+04  0.10566000000E+00 0.  1.
        994   -1    0    0    0    0 -0.00000000000E+00 -0.00000000000E+00  0.11368683772E-12  0.17120000000E+03  0.17120000000E+03 0.  0.
         13    1    1    2    0    0  0.11302611436E+02 -0.81016614971E+01  0.52374332480E+02  0.54189185370E+02  0.10566000000E+00 0.  1.
        994    1    1    2    0    0 -0.66778013038E+02 -0.30334598592E+02  0.19512634272E+02  0.18726898780E+03  0.17120000000E+03 0.  0.
        998    1    1    2    0    0  0.55475401602E+02  0.38436260089E+02  0.14281130295E+04  0.14297418268E+04  0.10000000000E+02 0.  1.
</event>
<event>
 5    1  0.5781797E-010  0.3877165E+03  0.7957747E-01  0.3418232E+00
         13   -1    0    0    0    0  0.00000000000E+00  0.00000000000E+00  0.14999999963E+04  0.15000000000E+04  0.10566000000E+00 0.  1.
        994   -1    0    0    0    0 -0.00000000000E+00 -0.00000000000E+00  0.11368683772E-12  0.17120000000E+03  0.17120000000E+03 0.  0.
         13    1    1    2    0    0  0.14320076426E+03  0.33404362010E+02  0.75123769775E+03  0.76549356625E+03  0.10566000000E+00 0.  1.
        994    1    1    2    0    0 -0.23963535797E+03 -0.36281324227E+02  0.22330089574E+03  0.37136797023E+03  0.17120000000E+03 0.  0.
        998    1    1    2    0    0  0.96434593706E+02  0.28769622164E+01  0.52546140279E+03  0.53433846352E+03  0.10000000000E+02 0.  1.
</event>
<event>
 5    1  0.5781797E-010  0.2749951E+03  0.7957747E-01  0.4092466E+00
         13   -1    0    0    0    0  0.00000000000E+00  0.00000000000E+00  0.14999999963E+04  0.15000000000E+04  0.10566000000E+00 0. -1.
        994   -1    0    0    0    0 -0.00000000000E+00 -0.00000000000E+00  0.11368683772E-12  0.17120000000E+03  0.17120000000E+03 0.  0.
         13    1    1    2    0    0  0.19139822036E+03 -0.82866794203E+02  0.46548602092E+03  0.51007590727E+03  0.10566000000E+00 0. -1.
        994    1    1    2    0    0 -0.23083734287E+03 -0.96499114360E+02  0.40883809162E+03  0.50897542484E+03  0.17120000000E+03 0.  0.
        998    1    1    2    0    0  0.39439122502E+02  0.17936590856E+03  0.62567588374E+03  0.65214866789E+03  0.10000000000E+02 0. -1.
</event>
<event>
 5    1  0.5781797E-010  0.3871350E+03  0.7957747E-01  0.3420668E+00
         13   -1    0    0    0    0  0.00000000000E+00  0.00000000000E+00  0.14999999963E+04  0.15000000000E+04  0.10566000000E+00 0.  1.
        994   -1    0    0    0    0 -0.00000000000E+00 -0.00000000000E+00  0.11368683772E-12  0.17120000000E+03  0.17120000000E+03 0.  0.
         13    1    1    2    0    0 -0.19976208409E+02 -0.72121816444E+02  0.40188055349E+03  0.40878918252E+03  0.10566000000E+00 0.  1.
        994    1    1    2    0    0  0.57934923518E+02  0.18387742627E+03  0.13311895136E+03  0.29016798318E+03  0.17120000000E+03 0.  0.
        998    1    1    2    0    0 -0.37958715109E+02 -0.11175560982E+03  0.96500049143E+03  0.97224283430E+03  0.10000000000E+02 0.  1.
</event>
<event>
 5    1  0.5781797E-010  0.3859179E+03  0.7957747E-01  0.3425788E+00
         13   -1    0    0    0    0  0.00000000000E+00  0.00000000000E+00  0.14999999963E+04  0.15000000000E+04  0.10566000000E+00 0.  1.
        994   -1    0    0    0    0 -0.00000000000E+00 -0.00000000000E+00  0.11368683772E-12  0.17120000000E+03  0.17120000000E+03 0.  0.
         13    1    1    2    0    0 -0.10512458049E+02 -0.51389303973E+01  0.44850866356E+02  0.46352257300E+02  0.10566000000E+00 0.  1.
        994    1    1    2    0    0  0.38163349550E+02  0.45868312298E+02  0.12937237071E+02  0.18176125942E+03  0.17120000000E+03 0.  0.
        998    1    1    2    0    0 -0.27650891501E+02 -0.40729381901E+02  0.14422118929E+04  0.14430864833E+04  0.10000000000E+02 0.  1.
</event>
<event>
 5    1  0.5781797E-010  0.3827897E+03  0.7957747E-01  0.3439101E+00
         13   -1    0    0    0    0  0.00000000000E+00  0.00000000000E+00  0.14999999963E+04  0.15000000000E+04  0.10566000000E+00 0.  1.
        994   -1    0    0    0    0 -0.00000000000E+00 -0.00000000000E+00  0.11368683772E-12  0.17120000000E+03  0.17120000000E+03 0.  0.
         13    1    1    2    0    0 -0.13710917568E+03  0.14545996556E+03  0.70402400890E+03  0.73185199591E+03  0.10566000000E+00 0.  1.
        994    1    1    2    0    0  0.18711737695E+03 -0.18989455635E+03  0.29204401368E+03  0.43089674078E+03  0.17120000000E+03 0.  0.
        998    1    1    2    0    0 -0.50008201276E+02  0.44434590782E+02  0.50393197370E+03  0.50845126332E+03  0.10000000000E+02 0.  1.
</event>
<event>
 5    1  0.5781797E-010  0.3844177E+03  0.7957747E-01  0.3432145E+00
         13   -1    0    0    0    0  0.00000000000E+00  0.00000000000E+00  0.14999999963E+04  0.15000000000E+04  0.10566000000E+00 0.  1.
        994   -1    0    0    0    0 -0.00000000000E+00 -0.00000000000E+00  0.11368683772E-12  0.17120000000E+03  0.17120000000E+03 0.  0.
         13    1    1    2    0    0 -0.16646834966E+02  0.73034337457E+02  0.30030961777E+03  0.30951091944E+03  0.10566000000E+00 0.  1.
        994    1    1    2    0    0  0.99264295445E+02 -0.18622942171E+03  0.16587092004E+03  0.31836676958E+03  0.17120000000E+03 0.  0.
        998    1    1    2    0    0 -0.82617460479E+02  0.11319508425E+03  0.10338194585E+04  0.10433223110E+04  0.10000000000E+02 0. -1.
</event>
<event>
 5    1  0.5781797E-010  0.3857156E+03  0.7957747E-01  0.3426643E+00
         13   -1    0    0    0    0  0.00000000000E+00  0.00000000000E+00  0.14999999963E+04  0.15000000000E+04  0.10566000000E+00 0.  1.
        994   -1    0    0    0    0 -0.00000000000E+00 -0.00000000000E+00  0.11368683772E-12  0.17120000000E+03  0.17120000000E+03 0.  0.
         13    1    1    2    0    0  0.67895368018E+02  0.16839270921E+03  0.86055064662E+03  0.87949605574E+03  0.10566000000E+00 0.  1.
        994    1    1    2    0    0 -0.89634141102E+02 -0.21308752682E+03  0.20242037033E+03  0.35174425320E+03  0.17120000000E+03 0.  0.
        998    1    1    2    0    0  0.21738773084E+02  0.44694817607E+02  0.43702897933E+03  0.43995969105E+03  0.10000000000E+02 0. -1.
</event>
<event>
 5    1  0.5781797E-010  0.3476412E+03  0.7957747E-01  0.3605413E+00
         13   -1    0    0    0    0  0.00000000000E+00  0.00000000000E+00  0.14999999963E+04  0.15000000000E+04  0.10566000000E+00 0.  1.
        994   -1    0    0    0    0 -0.00000000000E+00 -0.00000000000E+00  0.11368683772E-12  0.17120000000E+03  0.17120000000E+03 0.  0.
         13    1    1    2    0    0 -0.24508336317E+03 -0.10568162544E+03  0.11829019052E+04  0.12126381939E+04  0.10566000000E+00 0.  1.
        994    1    1    2    0    0  0.18749627008E+03  0.88811604062E+02  0.27432378564E+03  0.38419439308E+03  0.17120000000E+03 0.  0.
        998    1    1    2    0    0  0.57587093083E+02  0.16870021377E+02  0.42774305456E+02  0.74367413013E+02  0.10000000000E+02 0.  1.
</event>
<event>
 5    1  0.5781797E-010  0.3146565E+03  0.7957747E-01  0.3796640E+00
         13   -1    0    0    0    0  0.00000000000E+00  0.00000000000E+00  0.14999999963E+04  0.15000000000E+04  0.10566000000E+00 0. -1.
        994   -1    0    0    0    0 -0.00000000000E+00 -0.00000000000E+00  0.11368683772E-12  0.17120000000E+03  0.17120000000E+03 0.  0.
         13    1    1    2    0    0  0.77461885145E+02  0.17583313503E+03  0.94711088705E+03  0.96640399345E+03  0.10566000000E+00 0. -1.
        994    1    1    2    0    0 -0.14919765422E+02 -0.86697168680E+02  0.62513400854E+02  0.20237678657E+03  0.17120000000E+03 0.  0.
        998    1    1    2    0    0 -0.62542119723E+02 -0.89135966353E+02  0.49037570838E+03  0.50241921998E+03  0.10000000000E+02 0. -1.
</event>
<event>
 5    1  0.5781797E-010  0.3796639E+03  0.7957747E-01  0.3452623E+00
         13   -1    0    0    0    0  0.00000000000E+00  0.00000000000E+00  0.14999999963E+04  0.15000000000E+04  0.10566000000E+00 0. -1.
        994   -1    0    0    0    0 -0.00000000000E+00 -0.00000000000E+00  0.11368683772E-12  0.17120000000E+03  0.17120000000E+03 0.  0.
         13    1    1    2    0    0  0.34805137907E+02 -0.18560156659E+02  0.15030445101E+03  0.15539406745E+03  0.10566000000E+00 0. -1.
        994    1    1    2    0    0 -0.94157669600E+01  0.11438136851E+03  0.49724956786E+02  0.21202303049E+03  0.17120000000E+03 0.  0.
        998    1    1    2    0    0 -0.25389370947E+02 -0.95821211854E+02  0.12999705885E+04  0.13037829021E+04  0.10000000000E+02 0. -1.
</event>
<event>
 5    1  0.5781797E-010  0.3835751E+03  0.7957747E-01  0.3435738E+00
         13   -1    0    0    0    0  0.00000000000E+00  0.00000000000E+00  0.14999999963E+04  0.15000000000E+04  0.10566000000E+00 0.  1.
        994   -1    0    0    0    0 -0.00000000000E+00 -0.00000000000E+00  0.11368683772E-12  0.17120000000E+03  0.17120000000E+03 0.  0.
         13    1    1    2    0    0 -0.19236035057E+02 -0.19301762181E+02  0.11889659881E+03  0.12197948779E+03  0.10566000000E+00 0.  1.
        994    1    1    2    0    0 -0.32234761561E+02  0.14623452806E+03  0.80330679120E+02  0.24121789954E+03  0.17120000000E+03 0.  0.
        998    1    1    2    0    0  0.51470796617E+02 -0.12693276588E+03  0.13007727183E+04  0.13080026127E+04  0.10000000000E+02 0.  1.
</event>
<event>
 5    1  0.6673303E-010  0.3863329E+03  0.7957747E-01  0.3424039E+00
         13   -1    0    0    0    0  0.00000000000E+00  0.00000000000E+00  0.14999999963E+04  0.15000000000E+04  0.10566000000E+00 0. -1.
        994   -1    0    0    0    0 -0.00000000000E+00 -0.00000000000E+00  0.11368683772E-12  0.17120000000E+03  0.17120000000E+03 0.  0.
         13    1    1    2    0    0 -0.42862755537E+01  0.97173649228E+01  0.57634467544E+02  0.58604968665E+02  0.10566000000E+00 0. -1.
        994    1    1    2    0    0 -0.34994348630E+02 -0.30572089608E+02  0.80724351444E+01  0.17757776130E+03  0.17120000000E+03 0.  0.
        998    1    1    2    0    0  0.39280624183E+02  0.20854724685E+02  0.14342930936E+04  0.14350172700E+04  0.10000000000E+02 0. -1.
</event>
<event>
 5    1  0.5781797E-010  0.2358776E+03  0.7957747E-01  0.4496260E+00
         13   -1    0    0    0    0  0.00000000000E+00  0.00000000000E+00  0.14999999963E+04  0.15000000000E+04  0.10566000000E+00 0. -1.
        994   -1    0    0    0    0 -0.00000000000E+00 -0.00000000000E+00  0.11368683772E-12  0.17120000000E+03  0.17120000000E+03 0.  0.
         13    1    1    2    0    0  0.16860182390E+03 -0.37910111584E+02  0.64167153359E+03  0.66453451360E+03  0.10566000000E+00 0. -1.
        994    1    1    2    0    0  0.66051262986E+02 -0.12503810297E+02  0.96175674427E+02  0.20755316178E+03  0.17120000000E+03 0.  0.
        998    1    1    2    0    0 -0.23465308688E+03  0.50413921882E+02  0.76215278827E+03  0.79911232462E+03  0.10000000000E+02 0. -1.
</event>
<event>
 5    1  0.5781797E-010  0.3810453E+03  0.7957747E-01  0.3446620E+00
         13   -1    0    0    0    0  0.00000000000E+00  0.00000000000E+00  0.14999999963E+04  0.15000000000E+04  0.10566000000E+00 0. -1.
        994   -1    0    0    0    0 -0.00000000000E+00 -0.00000000000E+00  0.11368683772E-12  0.17120000000E+03  0.17120000000E+03 0.  0.
         13    1    1    2    0    0  0.69452735533E+02  0.75523054166E+02  0.52497176003E+03  0.53490445331E+03  0.10566000000E+00 0. -1.
        994    1    1    2    0    0 -0.60061151693E+02 -0.15540147991E+03  0.10239397875E+03  0.25990561515E+03  0.17120000000E+03 0.  0.
        998    1    1    2    0    0 -0.93915838406E+01  0.79878425740E+02  0.87263425750E+03  0.87638993154E+03  0.10000000000E+02 0. -1.
</event>
<event>
 5    1  0.5781797E-010  0.3910218E+03  0.7957747E-01  0.3404528E+00
         13   -1    0    0    0    0  0.00000000000E+00  0.00000000000E+00  0.14999999963E+04  0.15000000000E+04  0.10566000000E+00 0.  1.
        994   -1    0    0    0    0 -0.00000000000E+00 -0.00000000000E+00  0.11368683772E-12  0.17120000000E+03  0.17120000000E+03 0.  0.
         13    1    1    2    0    0 -0.28901626983E+02  0.72284037229E+02  0.35151804922E+03  0.36003504853E+03  0.10566000000E+00 0.  1.
        994    1    1    2    0    0 -0.14437928645E+03  0.57360736987E+02  0.12069155126E+03  0.26079018971E+03  0.17120000000E+03 0.  0.
        998    1    1    2    0    0  0.17328091343E+03 -0.12964477422E+03  0.10277903958E+04  0.10503747618E+04  0.10000000000E+02 0.  1.
</event>
<event>
 5    1  0.5781797E-010  0.3729348E+03  0.7957747E-01  0.3482511E+00
         13   -1    0    0    0    0  0.00000000000E+00  0.00000000000E+00  0.14999999963E+04  0.15000000000E+04  0.10566000000E+00 0.  1.
        994   -1    0    0    0    0 -0.00000000000E+00 -0.00000000000E+00  0.11368683772E-12  0.17120000000E+03  0.17120000000E+03 0.  0.
         13    1    1    2    0    0  0.43642399089E+02  0.29431455499E+02  0.25543817819E+03  0.26080556668E+03  0.10566000000E+00 0.  1.
        994    1    1    2    0    0 -0.56796108269E+02  0.96126885685E+02  0.51698859660E+02  0.21082786380E+03  0.17120000000E+03 0.  0.
        998    1    1    2    0    0  0.13153709180E+02 -0.12555834118E+03  0.11928629584E+04  0.11995665695E+04  0.10000000000E+02 0.  1.
</event>
<event>
 5    1  0.5781797E-010  0.3701535E+03  0.7957747E-01  0.3495186E+00
         13   -1    0    0    0    0  0.00000000000E+00  0.00000000000E+00  0.14999999963E+04  0.15000000000E+04  0.10566000000E+00 0.  1.
        994   -1    0    0    0    0 -0.00000000000E+00 -0.00000000000E+00  0.11368683772E-12  0.17120000000E+03  0.17120000000E+03 0.  0.
         13    1    1    2    0    0 -0.13851418812E+03  0.10039111898E+02  0.74373921566E+03  0.75659434055E+03  0.10566000000E+00 0.  1.
        994    1    1    2    0    0  0.15593437736E+03 -0.12972561831E+03  0.16839020171E+03  0.31433893511E+03  0.17120000000E+03 0.  0.
        998    1    1    2    0    0 -0.17420189244E+02  0.11968650641E+03  0.58787057891E+03  0.60026672435E+03  0.10000000000E+02 0.  1.
</event>
<event>
 5    1  0.5781797E-010  0.3876619E+03  0.7957747E-01  0.3418461E+00
         13   -1    0    0    0    0  0.00000000000E+00  0.00000000000E+00  0.14999999963E+04  0.15000000000E+04  0.10566000000E+00 0. -1.
        994   -1    0    0    0    0 -0.00000000000E+00 -0.00000000000E+00  0.11368683772E-12  0.17120000000E+03  0.17120000000E+03 0.  0.
         13    1    1    2    0    0  0.13719466099E+03  0.11797928537E+03  0.96276430789E+03  0.97962064622E+03  0.10566000000E+00 0. -1.
        994    1    1    2    0    0 -0.17305985790E+03 -0.15254466550E+03  0.19881324529E+03  0.34936476052E+03  0.17120000000E+03 0.  0.
        998    1    1    2    0    0  0.35865196904E+02  0.34565380130E+02  0.33842244309E+03  0.34221459326E+03  0.10000000000E+02 0. -1.
</event>
<event>
 5    1  0.5781797E-010  0.3834845E+03  0.7957747E-01  0.3436125E+00
         13   -1    0    0    0    0  0.00000000000E+00  0.00000000000E+00  0.14999999963E+04  0.15000000000E+04  0.10566000000E+00 0. -1.
        994   -1    0    0    0    0 -0.00000000000E+00 -0.00000000000E+00  0.11368683772E-12  0.17120000000E+03  0.17120000000E+03 0.  0.
         13    1    1    2    0    0  0.12510657577E+02  0.15494340230E+01  0.62680113255E+02  0.63935319351E+02  0.10566000000E+00 0. -1.
        994    1    1    2    0    0  0.96507680283E+02  0.40904055851E+02  0.39583433484E+02  0.20460489326E+03  0.17120000000E+03 0.  0.
        998    1    1    2    0    0 -0.10901833786E+03 -0.42453489874E+02  0.13977364495E+04  0.14026597874E+04  0.10000000000E+02 0. -1.
</event>
<event>
 5    1  0.5781797E-010  0.3845860E+03  0.7957747E-01  0.3431430E+00
         13   -1    0    0    0    0  0.00000000000E+00  0.00000000000E+00  0.14999999963E+04  0.15000000000E+04  0.10566000000E+00 0.  1.
        994   -1    0    0    0    0 -0.00000000000E+00 -0.00000000000E+00  0.11368683772E-12  0.17120000000E+03  0.17120000000E+03 0.  0.
         13    1    1    2    0    0 -0.57485061852E+02 -0.41846919693E+02  0.42193530255E+03  0.42788445604E+03  0.10566000000E+00 0.  1.
        994    1    1    2    0    0  0.99532902091E+02  0.82345943864E+02  0.58871404523E+02  0.22240264239E+03  0.17120000000E+03 0.  0.
        998    1    1    2    0    0 -0.42047840239E+02 -0.40499024171E+02  0.10191932892E+04  0.10209129016E+04  0.10000000000E+02 0.  1.
</event>
<event>
 5    1  0.5781797E-010  0.3810881E+03  0.7957747E-01  0.3446434E+00
         13   -1    0    0    0    0  0.00000000000E+00  0.00000000000E+00  0.14999999963E+04  0.15000000000E+04  0.10566000000E+00 0. -1.
        994   -1    0    0    0    0 -0.00000000000E+00 -0.00000000000E+00  0.11368683772E-12  0.17120000000E+03  0.17120000000E+03 0.  0.
         13    1    1    2    0    0  0.60528709195E+02  0.27923138180E+03  0.80959699089E+03  0.85853432549E+03  0.10566000000E+00 0. -1.
        994    1    1    2    0    0 -0.29505662973E+02 -0.32395451726E+03  0.54784496624E+03  0.65974287448E+03  0.17120000000E+03 0.  0.
        998    1    1    2    0    0 -0.31023046221E+02  0.44723135464E+02  0.14255803915E+03  0.15292280003E+03  0.10000000000E+02 0. -1.
</event>
<event>
 5    1  0.5781797E-010  0.3859144E+03  0.7957747E-01  0.3425803E+00
         13   -1    0    0    0    0  0.00000000000E+00  0.00000000000E+00  0.14999999963E+04  0.15000000000E+04  0.10566000000E+00 0. -1.
        994   -1    0    0    0    0 -0.00000000000E+00 -0.00000000000E+00  0.11368683772E-12  0.17120000000E+03  0.17120000000E+03 0.  0.
         13    1    1    2    0    0  0.10267122447E+02 -0.35966277045E+01  0.40096283500E+02  0.41546030481E+02  0.10566000000E+00 0. -1.
        994    1    1    2    0    0 -0.32017622790E+02  0.25631154486E+03  0.26396611514E+03  0.40707282658E+03  0.17120000000E+03 0.  0.
        998    1    1    2    0    0  0.21750500343E+02 -0.25271491716E+03  0.11959375976E+04  0.12225811429E+04  0.10000000000E+02 0. -1.
</event>
<event>
 5    1  0.5781797E-010  0.3874548E+03  0.7957747E-01  0.3419328E+00
         13   -1    0    0    0    0  0.00000000000E+00  0.00000000000E+00  0.14999999963E+04  0.15000000000E+04  0.10566000000E+00 0.  1.
        994   -1    0    0    0    0 -0.00000000000E+00 -0.00000000000E+00  0.11368683772E-12  0.17120000000E+03  0.17120000000E+03 0.  0.
         13    1    1    2    0    0 -0.65853270578E+01  0.70173310655E+02  0.29306131526E+03  0.30141765994E+03  0.10566000000E+00 0.  1.
        994    1    1    2    0    0 -0.21939536124E+02  0.12644580314E+03  0.84809069251E+02  0.23015625693E+03  0.17120000000E+03 0.  0.
        998    1    1    2    0    0  0.28524863182E+02 -0.19661911380E+03  0.11221296118E+04  0.11396260831E+04  0.10000000000E+02 0.  1.
</event>
<event>
 5    1  0.5781797E-010  0.3868466E+03  0.7957747E-01  0.3421878E+00
         13   -1    0    0    0    0  0.00000000000E+00  0.00000000000E+00  0.14999999963E+04  0.15000000000E+04  0.10566000000E+00 0.  1.
        994   -1    0    0    0    0 -0.00000000000E+00 -0.00000000000E+00  0.11368683772E-12  0.17120000000E+03  0.17120000000E+03 0.  0.
         13    1    1    2    0    0  0.73145356622E+02  0.31357399917E+03  0.83356880042E+03  0.89359714209E+03  0.10566000000E+00 0.  1.
        994    1    1    2    0    0 -0.74606158316E+02 -0.32961148566E+03  0.60993318552E+03  0.71800956897E+03  0.17120000000E+03 0.  0.
        998    1    1    2    0    0  0.14608016940E+01  0.16037486493E+02  0.56498010340E+02  0.59593288942E+02  0.10000000000E+02 0.  0.
</event>
<event>
 5    1  0.5781797E-010  0.3834033E+03  0.7957747E-01  0.3436472E+00
         13   -1    0    0    0    0  0.00000000000E+00  0.00000000000E+00  0.14999999963E+04  0.15000000000E+04  0.10566000000E+00 0. -1.
        994   -1    0    0    0    0 -0.00000000000E+00 -0.00000000000E+00  0.11368683772E-12  0.17120000000E+03  0.17120000000E+03 0.  0.
         13    1    1    2    0    0  0.59986085571E+02  0.31624058268E+02  0.23721727738E+03  0.24671939400E+03  0.10566000000E+00 0. -1.
        994    1    1    2    0    0 -0.14506250933E+03 -0.19831999603E+03  0.23752149970E+03  0.38223010774E+03  0.17120000000E+03 0.  0.
        998    1    1    2    0    0  0.85076423760E+02  0.16669593776E+03  0.10252612192E+04  0.10422504983E+04  0.10000000000E+02 0. -1.
</event>
<event>
 5    1  0.5781797E-010  0.3805441E+03  0.7957747E-01  0.3448793E+00
         13   -1    0    0    0    0  0.00000000000E+00  0.00000000000E+00  0.14999999963E+04  0.15000000000E+04  0.10566000000E+00 0. -1.
        994   -1    0    0    0    0 -0.00000000000E+00 -0.00000000000E+00  0.11368683772E-12  0.17120000000E+03  0.17120000000E+03 0.  0.
         13    1    1    2    0    0 -0.23271139553E+02 -0.74699957709E+01  0.10982388086E+03  0.11251063392E+03  0.10566000000E+00 0. -1.
        994    1    1    2    0    0 -0.40439026799E+02 -0.27393802759E+02  0.11861089811E+02  0.17842606528E+03  0.17120000000E+03 0.  0.
        998    1    1    2    0    0  0.63710166352E+02  0.34863798530E+02  0.13783150256E+04  0.13802633008E+04  0.10000000000E+02 0. -1.
</event>
<event>
 5    1  0.6762808E-010  0.3870525E+03  0.7957747E-01  0.3421014E+00
         13   -1    0    0    0    0  0.00000000000E+00  0.00000000000E+00  0.14999999963E+04  0.15000000000E+04  0.10566000000E+00 0.  1.
        994   -1    0    0    0    0 -0.00000000000E+00 -0.00000000000E+00  0.11368683772E-12  0.17120000000E+03  0.17120000000E+03 0.  0.
         13    1    1    2    0    0  0.52788579308E+02 -0.18010066414E+03  0.10431248856E+04  0.10598737762E+04  0.10566000000E+00 0.  1.
        994    1    1    2    0    0 -0.69232905213E+02  0.20899513077E+03  0.17923060834E+03  0.33151954817E+03  0.17120000000E+03 0.  0.
        998    1    1    2    0    0  0.16444325904E+02 -0.28894466634E+02  0.27764450234E+03  0.27980667565E+03  0.10000000000E+02 0.  1.
</event>
<event>
 5    1  0.5781797E-010  0.3838854E+03  0.7957747E-01  0.3434413E+00
         13   -1    0    0    0    0  0.00000000000E+00  0.00000000000E+00  0.14999999963E+04  0.15000000000E+04  0.10566000000E+00 0.  1.
        994   -1    0    0    0    0 -0.00000000000E+00 -0.00000000000E+00  0.11368683772E-12  0.17120000000E+03  0.17120000000E+03 0.  0.
         13    1    1    2    0    0 -0.10828481442E+02 -0.61664771670E+01  0.41020414600E+02  0.42871517689E+02  0.10566000000E+00 0.  1.
        994    1    1    2    0    0 -0.72533696607E+02  0.91765996436E+02  0.48733228861E+02  0.21299413804E+03  0.17120000000E+03 0.  0.
        998    1    1    2    0    0  0.83362178050E+02 -0.85599519269E+02  0.14102463528E+04  0.14153343443E+04  0.10000000000E+02 0.  1.
</event>
<event>
 5    1  0.5781797E-010  0.3873591E+03  0.7957747E-01  0.3419728E+00
         13   -1    0    0    0    0  0.00000000000E+00  0.00000000000E+00  0.14999999963E+04  0.15000000000E+04  0.10566000000E+00 0.  1.
        994   -1    0    0    0    0 -0.00000000000E+00 -0.00000000000E+00  0.11368683772E-12  0.17120000000E+03  0.17120000000E+03 0.  0.
         13    1    1    2    0    0  0.91588894501E+02  0.14251951369E+03  0.90595081379E+03  0.92165461294E+03  0.10566000000E+00 0.  1.
        994    1    1    2    0    0 -0.12659199299E+03 -0.18532654401E+03  0.18691816185E+03  0.33855472206E+03  0.17120000000E+03 0.  0.
        998    1    1    2    0    0  0.35003098488E+02  0.42807030319E+02  0.40713102064E+03  0.41099066500E+03  0.10000000000E+02 0. -1.
</event>
<event>
 5    1  0.5781797E-010  0.3875328E+03  0.7957747E-01  0.3419001E+00
         13   -1    0    0    0    0  0.00000000000E+00  0.00000000000E+00  0.14999999963E+04  0.15000000000E+04  0.10566000000E+00 0.  1.
        994   -1    0    0    0    0 -0.00000000000E+00 -0.00000000000E+00  0.11368683772E-12  0.17120000000E+03  0.17120000000E+03 0.  0.
         13    1    1    2    0    0 -0.29254713271E+02 -0.22234941247E+02  0.18832512406E+03  0.19187650814E+03  0.10566000000E+00 0.  1.
        994    1    1    2    0    0  0.18207780820E+03  0.85131702192E+02  0.14551454132E+03  0.30146916375E+03  0.17120000000E+03 0.  0.
        998    1    1    2    0    0 -0.15282309493E+03 -0.62896760945E+02  0.11661603309E+04  0.11778543281E+04  0.10000000000E+02 0.  1.
</event>
<event>
 5    1  0.5781797E-010  0.3864970E+03  0.7957747E-01  0.3423348E+00
         13   -1    0    0    0    0  0.00000000000E+00  0.00000000000E+00  0.14999999963E+04  0.15000000000E+04  0.10566000000E+00 0. -1.
        994   -1    0    0    0    0 -0.00000000000E+00 -0.00000000000E+00  0.11368683772E-12  0.17120000000E+03  0.17120000000E+03 0.  0.
         13    1    1    2    0    0 -0.13050608206E+03  0.19106940171E+03  0.96772616816E+03  0.99500417157E+03  0.10566000000E+00 0. -1.
        994    1    1    2    0    0  0.15633750491E+03 -0.21689210775E+03  0.28686954698E+03  0.42788687621E+03  0.17120000000E+03 0.  0.
        998    1    1    2    0    0 -0.25831422859E+02  0.25822706044E+02  0.24540428114E+03  0.24830895222E+03  0.10000000000E+02 0. -1.
</event>
<event>
 5    1  0.5781797E-010  0.3850833E+03  0.7957747E-01  0.3429319E+00
         13   -1    0    0    0    0  0.00000000000E+00  0.00000000000E+00  0.14999999963E+04  0.15000000000E+04  0.10566000000E+00 0. -1.
        994   -1    0    0    0    0 -0.00000000000E+00 -0.00000000000E+00  0.11368683772E-12  0.17120000000E+03  0.17120000000E+03 0.  0.
         13    1    1    2    0    0 -0.30764959593E+02  0.91454179244E+01  0.16869326324E+03  0.17171939213E+03  0.10566000000E+00 0. -1.
        994    1    1    2    0    0  0.12834417816E+03  0.53990620185E+02  0.68161437741E+02  0.23096024925E+03  0.17120000000E+03 0.  0.
        998    1    1    2    0    0 -0.97579218572E+02 -0.63136038110E+02  0.12631452953E+04  0.12685203586E+04  0.10000000000E+02 0. -1.
</event>
<event>
 5    1  0.5781797E-010  0.3878597E+03  0.7957747E-01  0.3417634E+00
         13   -1    0    0    0    0  0.00000000000E+00  0.00000000000E+00  0.14999999963E+04  0.15000000000E+04  0.10566000000E+00 0. -1.
        994   -1    0    0    0    0 -0.00000000000E+00 -0.00000000000E+00  0.11368683772E-12  0.17120000000E+03  0.17120000000E+03 0.  0.
         13    1    1    2    0    0 -0.17680707817E+03  0.92877418215E+02  0.10097600199E+04  0.10293212651E+04  0.10566000000E+00 0. -1.
        994    1    1    2    0    0  0.21950972809E+03 -0.11084410903E+03  0.23099579604E+03  0.37833772614E+03  0.17120000000E+03 0.  0.
        998    1    1    2    0    0 -0.42702649919E+02  0.17966690819E+02  0.25924418032E+03  0.26354100880E+03  0.10000000000E+02 0.  1.
</event>
<event>
 5    1  0.5781797E-010  0.3878523E+03  0.7957747E-01  0.3417665E+00
         13   -1    0    0    0    0  0.00000000000E+00  0.00000000000E+00  0.14999999963E+04  0.15000000000E+04  0.10566000000E+00 0. -1.
        994   -1    0    0    0    0 -0.00000000000E+00 -0.00000000000E+00  0.11368683772E-12  0.17120000000E+03  0.17120000000E+03 0.  0.
         13    1    1    2    0    0 -0.54701206690E+02  0.12558827547E+03  0.63566691067E+03  0.65025923249E+03  0.10566000000E+00 0. -1.
        994    1    1    2    0    0  0.12113888693E+03 -0.22961179132E+03  0.26386400304E+03  0.40783557562E+03  0.17120000000E+03 0.  0.
        998    1    1    2    0    0 -0.66437680240E+02  0.10402351585E+03  0.60046908257E+03  0.61310519190E+03  0.10000000000E+02 0. -1.
</event>
<event>
 5    1  0.5781797E-010  0.3843210E+03  0.7957747E-01  0.3432557E+00
         13   -1    0    0    0    0  0.00000000000E+00  0.00000000000E+00  0.14999999963E+04  0.15000000000E+04  0.10566000000E+00 0. -1.
        994   -1    0    0    0    0 -0.00000000000E+00 -0.00000000000E+00  0.11368683772E-12  0.17120000000E+03  0.17120000000E+03 0.  0.
         13    1    1    2    0    0  0.17177634273E+02  0.12780146405E+02  0.65307165116E+02  0.68727288910E+02  0.10566000000E+00 0. -1.
        994    1    1    2    0    0 -0.13685082694E+03 -0.20593379173E+02  0.67873989435E+02  0.23036613150E+03  0.17120000000E+03 0.  0.
        998    1    1    2    0    0  0.11967319267E+03  0.78132327677E+01  0.13668188417E+04  0.13721065796E+04  0.10000000000E+02 0. -1.
</event>
<event>
 5    1  0.5781797E-010  0.3872569E+03  0.7957747E-01  0.3420157E+00
         13   -1    0    0    0    0  0.00000000000E+00  0.00000000000E+00  0.14999999963E+04  0.15000000000E+04  0.10566000000E+00 0. -1.
        994   -1    0    0    0    0 -0.00000000000E+00 -0.00000000000E+00  0.11368683772E-12  0.17120000000E+03  0.17120000000E+03 0.  0.
         13    1    1    2    0    0  0.16847428312E+03 -0.98076935502E+01  0.90302192771E+03  0.91865575054E+03  0.10566000000E+00 0. -1.
        994    1    1    2    0    0 -0.23156619692E+03  0.34721399363E+02  0.20642606526E+03  0.35601915615E+03  0.17120000000E+03 0.  0.
        998    1    1    2    0    0  0.63091913802E+02 -0.24913705813E+02  0.39055200332E+03  0.39652509330E+03  0.10000000000E+02 0. -1.
</event>
<event>
 5    1  0.5781797E-010  0.3859106E+03  0.7957747E-01  0.3425819E+00
         13   -1    0    0    0    0  0.00000000000E+00  0.00000000000E+00  0.14999999963E+04  0.15000000000E+04  0.10566000000E+00 0. -1.
        994   -1    0    0    0    0 -0.00000000000E+00 -0.00000000000E+00  0.11368683772E-12  0.17120000000E+03  0.17120000000E+03 0.  0.
         13    1    1    2    0    0 -0.26210957150E+03  0.13478829186E+02  0.10996481790E+04  0.11305349331E+04  0.10566000000E+00 0. -1.
        994    1    1    2    0    0  0.28434244975E+03 -0.78438488236E+01  0.33940163615E+03  0.47477896470E+03  0.17120000000E+03 0.  0.
        998    1    1    2    0    0 -0.22232878252E+02 -0.56349803622E+01  0.60950181163E+02  0.65886102198E+02  0.10000000000E+02 0.  0.
</event>
<event>
 5    1  0.5781797E-010  0.3840589E+03  0.7957747E-01  0.3433673E+00
         13   -1    0    0    0    0  0.00000000000E+00  0.00000000000E+00  0.14999999963E+04  0.15000000000E+04  0.10566000000E+00 0.  1.
        994   -1    0    0    0    0 -0.00000000000E+00 -0.00000000000E+00  0.11368683772E-12  0.17120000000E+03  0.17120000000E+03 0.  0.
         13    1    1    2    0    0  0.41981011932E+01  0.86379712532E+02  0.35333189390E+03  0.36376162139E+03  0.10566000000E+00 0.  1.
        994    1    1    2    0    0 -0.57409486339E+02 -0.20135176648E+03  0.16338840931E+03  0.31598037167E+03  0.17120000000E+03 0.  0.
        998    1    1    2    0    0  0.53211385146E+02  0.11497205395E+03  0.98327969308E+03  0.99145800693E+03  0.10000000000E+02 0.  1.
</event>
<event>
 5    1  0.5781797E-010  0.3720403E+03  0.7957747E-01  0.3486566E+00
         13   -1    0    0    0    0  0.00000000000E+00  0.00000000000E+00  0.14999999963E+04  0.15000000000E+04  0.10566000000E+00 0.  1.
        994   -1    0    0    0    0 -0.00000000000E+00 -0.00000000000E+00  0.11368683772E-12  0.17120000000E+03  0.17120000000E+03 0.  0.
         13    1    1    2    0    0 -0.54336841394E+02  0.42335067269E+02  0.29849728621E+03  0.30634195157E+03  0.10566000000E+00 0.  1.
        994    1    1    2    0    0 -0.20728173167E+02  0.20218401624E+02  0.14979674382E+02  0.17427642288E+03  0.17120000000E+03 0.  0.
        998    1    1    2    0    0  0.75065014561E+02 -0.62553468893E+02  0.11865230357E+04  0.11905816255E+04  0.10000000000E+02 0.  1.
</event>
<event>
 5    1  0.5781797E-010  0.3729032E+03  0.7957747E-01  0.3482654E+00
         13   -1    0    0    0    0  0.00000000000E+00  0.00000000000E+00  0.14999999963E+04  0.15000000000E+04  0.10566000000E+00 0. -1.
        994   -1    0    0    0    0 -0.00000000000E+00 -0.00000000000E+00  0.11368683772E-12  0.17120000000E+03  0.17120000000E+03 0.  0.
         13    1    1    2    0    0  0.54905092436E+02  0.25170437810E+02  0.32355695898E+03  0.32914622432E+03  0.10566000000E+00 0. -1.
        994    1    1    2    0    0  0.31159001442E+02 -0.75902135336E+02  0.31169464889E+02  0.19238761151E+03  0.17120000000E+03 0.  0.
        998    1    1    2    0    0 -0.86064093878E+02  0.50731697526E+02  0.11452735724E+04  0.11496661642E+04  0.10000000000E+02 0. -1.
</event>
<event>
 5    1  0.5781797E-010  0.3744836E+03  0.7957747E-01  0.3475535E+00
         13   -1    0    0    0    0  0.00000000000E+00  0.00000000000E+00  0.14999999963E+04  0.15000000000E+04  0.10566000000E+00 0.  1.
        994   -1    0    0    0    0 -0.00000000000E+00 -0.00000000000E+00  0.11368683772E-12  0.17120000000E+03  0.17120000000E+03 0.  0.
         13    1    1    2    0    0 -0.18272290822E+03 -0.59560271039E+02  0.99742034191E+03  0.10157669205E+04  0.10566000000E+00 0.  1.
        994    1    1    2    0    0  0.17460634974E+03  0.12279216189E+03  0.18248925327E+03  0.32890281232E+03  0.17120000000E+03 0.  0.
        998    1    1    2    0    0  0.81165584766E+01 -0.63231890847E+02  0.32009040110E+03  0.32653026723E+03  0.10000000000E+02 0.  1.
</event>
<event>
 5    1  0.5781797E-010  0.3841082E+03  0.7957747E-01  0.3433463E+00
         13   -1    0    0    0    0  0.00000000000E+00  0.00000000000E+00  0.14999999963E+04  0.15000000000E+04  0.10566000000E+00 0. -1.
        994   -1    0    0    0    0 -0.00000000000E+00 -0.00000000000E+00  0.11368683772E-12  0.17120000000E+03  0.17120000000E+03 0.  0.
         13    1    1    2    0    0 -0.20708109283E+01 -0.14028459575E+03  0.50005950572E+03  0.51936844001E+03  0.10566000000E+00 0. -1.
        994    1    1    2    0    0  0.25449823542E+02  0.25389380039E+03  0.25920472006E+03  0.40200283867E+03  0.17120000000E+03 0.  0.
        998    1    1    2    0    0 -0.23379012614E+02 -0.11360920465E+03  0.74073577050E+03  0.74982872132E+03  0.10000000000E+02 0. -1.
</event>
<event>
 5    1  0.5781797E-010  0.3879422E+03  0.7957747E-01  0.3417289E+00
         13   -1    0    0    0    0  0.00000000000E+00  0.00000000000E+00  0.14999999963E+04  0.15000000000E+04  0.10566000000E+00 0.  1.
        994   -1    0    0    0    0 -0.00000000000E+00 -0.00000000000E+00  0.11368683772E-12  0.17120000000E+03  0.17120000000E+03 0.  0.
         13    1    1    2    0    0 -0.14824141766E+03  0.36489266632E+02  0.82581769403E+03  0.83981060926E+03  0.10566000000E+00 0.  1.
        994    1    1    2    0    0  0.22371501202E+03 -0.50973821524E+02  0.19595084015E+03  0.34691916759E+03  0.17120000000E+03 0.  0.
        998    1    1    2    0    0 -0.75473594361E+02  0.14484554892E+02  0.47823146211E+03  0.48447022316E+03  0.10000000000E+02 0.  0.
</event>
<event>
 5    1  0.5781797E-010  0.3851805E+03  0.7957747E-01  0.3428907E+00
         13   -1    0    0    0    0  0.00000000000E+00  0.00000000000E+00  0.14999999963E+04  0.15000000000E+04  0.10566000000E+00 0.  1.
        994   -1    0    0    0    0 -0.00000000000E+00 -0.00000000000E+00  0.11368683772E-12  0.17120000000E+03  0.17120000000E+03 0.  0.
         13    1    1    2    0    0  0.24835736677E+02  0.28530102683E+03  0.94772762912E+03  0.99005108954E+03  0.10566000000E+00 0.  1.
        994    1    1    2    0    0 -0.99015226809E+01 -0.31531047107E+03  0.46712123878E+03  0.58909288320E+03  0.17120000000E+03 0.  0.
        998    1    1    2    0    0 -0.14934213996E+02  0.30009444247E+02  0.85151128374E+02  0.92056027261E+02  0.10000000000E+02 0.  1.
</event>
<event>
 5    1  0.5781797E-010  0.3826867E+03  0.7957747E-01  0.3439543E+00
         13   -1    0    0    0    0  0.00000000000E+00  0.00000000000E+00  0.14999999963E+04  0.15000000000E+04  0.10566000000E+00 0.  1.
        994   -1    0    0    0    0 -0.00000000000E+00 -0.00000000000E+00  0.11368683772E-12  0.17120000000E+03  0.17120000000E+03 0.  0.
         13    1    1    2    0    0 -0.27698665785E+02 -0.25066603763E+02  0.12228475840E+03  0.12786369309E+03  0.10566000000E+00 0.  1.
        994    1    1    2    0    0  0.27091789069E+02  0.19830362597E+03  0.14935170319E+03  0.30277659149E+03  0.17120000000E+03 0.  0.
        998    1    1    2    0    0  0.60687671587E+00 -0.17323702220E+03  0.12283635347E+04  0.12405597154E+04  0.10000000000E+02 0.  1.
</event>
<event>
 5    1  0.5781797E-010  0.3708189E+03  0.7957747E-01  0.3492136E+00
         13   -1    0    0    0    0  0.00000000000E+00  0.00000000000E+00  0.14999999963E+04  0.15000000000E+04  0.10566000000E+00 0. -1.
        994   -1    0    0    0    0 -0.00000000000E+00 -0.00000000000E+00  0.11368683772E-12  0.17120000000E+03  0.17120000000E+03 0.  0.
         13    1    1    2    0    0  0.29205433818E+02  0.51259527342E+00  0.48825926817E+02  0.56896418270E+02  0.10566000000E+00 0. -1.
        994    1    1    2    0    0  0.13296842570E+03  0.57547956254E+02  0.89078524218E+02  0.24132300549E+03  0.17120000000E+03 0.  0.
        998    1    1    2    0    0 -0.16217385952E+03 -0.58060551527E+02  0.13620955452E+04  0.13729805762E+04  0.10000000000E+02 0. -1.
</event>
<event>
 5    1  0.5781797E-010  0.3831833E+03  0.7957747E-01  0.3437414E+00
         13   -1    0    0    0    0  0.00000000000E+00  0.00000000000E+00  0.14999999963E+04  0.15000000000E+04  0.10566000000E+00 0.  1.
        994   -1    0    0    0    0 -0.00000000000E+00 -0.00000000000E+00  0.11368683772E-12  0.17120000000E+03  0.17120000000E+03 0.  0.
         13    1    1    2    0    0  0.18666699126E+03  0.99534095943E+02  0.10992942886E+04  0.11194639548E+04  0.10566000000E+00 0.  1.
        994    1    1    2    0    0 -0.20086564273E+03 -0.14292714996E+03  0.23977982989E+03  0.38416010132E+03  0.17120000000E+03 0.  0.
        998    1    1    2    0    0  0.14198651466E+02  0.43393054014E+02  0.16092587775E+03  0.16757594389E+03  0.10000000000E+02 0.  1.
</event>
<event>
 5    1  0.5781797E-010  0.3868908E+03  0.7957747E-01  0.3421692E+00
         13   -1    0    0    0    0  0.00000000000E+00  0.00000000000E+00  0.14999999963E+04  0.15000000000E+04  0.10566000000E+00 0. -1.
        994   -1    0    0    0    0 -0.00000000000E+00 -0.00000000000E+00  0.11368683772E-12  0.17120000000E+03  0.17120000000E+03 0.  0.
         13    1    1    2    0    0 -0.10186108926E+03 -0.21418726176E+03  0.10834017812E+04  0.11090587430E+04  0.10566000000E+00 0. -1.
        994    1    1    2    0    0  0.10519236189E+03  0.23663537478E+03  0.26391857429E+03  0.40746065755E+03  0.17120000000E+03 0.  0.
        998    1    1    2    0    0 -0.33312726367E+01 -0.22448113020E+02  0.15267964074E+03  0.15468059947E+03  0.10000000000E+02 0. -1.
</event>
<event>
 5    1  0.5781797E-010  0.3863158E+03  0.7957747E-01  0.3424111E+00
         13   -1    0    0    0    0  0.00000000000E+00  0.00000000000E+00  0.14999999963E+04  0.15000000000E+04  0.10566000000E+00 0. -1.
        994   -1    0    0    0    0 -0.00000000000E+00 -0.00000000000E+00  0.11368683772E-12  0.17120000000E+03  0.17120000000E+03 0.  0.
         13    1    1    2    0    0  0.19112540322E+03 -0.18162531629E+03  0.93723257820E+03  0.97361264992E+03  0.10566000000E+00 0. -1.
        994    1    1    2    0    0 -0.20898288265E+03  0.20894484235E+03  0.37693800904E+03  0.50864869512E+03  0.17120000000E+03 0.  0.
        998    1    1    2    0    0  0.17857479434E+02 -0.27319526068E+02  0.18582940903E+03  0.18893865496E+03  0.10000000000E+02 0.  1.
</event>
<event>
 5    1  0.5781797E-010  0.3684815E+03  0.7957747E-01  0.3502899E+00
         13   -1    0    0    0    0  0.00000000000E+00  0.00000000000E+00  0.14999999963E+04  0.15000000000E+04  0.10566000000E+00 0.  1.
        994   -1    0    0    0    0 -0.00000000000E+00 -0.00000000000E+00  0.11368683772E-12  0.17120000000E+03  0.17120000000E+03 0.  0.
         13    1    1    2    0    0 -0.76140291919E+02  0.29062218722E+02  0.25825730897E+03  0.27081138345E+03  0.10566000000E+00 0.  1.
        994    1    1    2    0    0  0.15672633878E+03  0.10536740294E+03  0.14661995198E+03  0.29406170303E+03  0.17120000000E+03 0.  0.
        998    1    1    2    0    0 -0.80586046860E+02 -0.13442962166E+03  0.10951227353E+04  0.11063269135E+04  0.10000000000E+02 0.  1.
</event>
<event>
 5    1  0.5781797E-010  0.3877739E+03  0.7957747E-01  0.3417992E+00
         13   -1    0    0    0    0  0.00000000000E+00  0.00000000000E+00  0.14999999963E+04  0.15000000000E+04  0.10566000000E+00 0.  1.
        994   -1    0    0    0    0 -0.00000000000E+00 -0.00000000000E+00  0.11368683772E-12  0.17120000000E+03  0.17120000000E+03 0.  0.
         13    1    1    2    0    0  0.31325592076E+02 -0.88108888514E+02  0.46699636539E+03  0.47626682165E+03  0.10566000000E+00 0.  1.
        994    1    1    2    0    0 -0.66042265677E+02  0.21980287119E+03  0.19629600384E+03  0.34715478415E+03  0.17120000000E+03 0.  0.
        998    1    1    2    0    0  0.34716673601E+02 -0.13169398267E+03  0.83670762705E+03  0.84777839419E+03  0.10000000000E+02 0.  1.
</event>
<event>
 5    1  0.5781797E-010  0.3849530E+03  0.7957747E-01  0.3429872E+00
         13   -1    0    0    0    0  0.00000000000E+00  0.00000000000E+00  0.14999999963E+04  0.15000000000E+04  0.10566000000E+00 0. -1.
        994   -1    0    0    0    0 -0.00000000000E+00 -0.00000000000E+00  0.11368683772E-12  0.17120000000E+03  0.17120000000E+03 0.  0.
         13    1    1    2    0    0  0.14724969079E+03 -0.13043405415E+02  0.85474427491E+03  0.86743321847E+03  0.10566000000E+00 0. -1.
        994    1    1    2    0    0 -0.25182023288E+03 -0.10534297760E+02  0.25004025998E+03  0.39414968315E+03  0.17120000000E+03 0.  0.
        998    1    1    2    0    0  0.10457054209E+03  0.23577703175E+02  0.39521546139E+03  0.40961709838E+03  0.10000000000E+02 0. -1.
</event>
<event>
 5    1  0.5781797E-010  0.3879124E+03  0.7957747E-01  0.3417413E+00
         13   -1    0    0    0    0  0.00000000000E+00  0.00000000000E+00  0.14999999963E+04  0.15000000000E+04  0.10566000000E+00 0.  1.
        994   -1    0    0    0    0 -0.00000000000E+00 -0.00000000000E+00  0.11368683772E-12  0.17120000000E+03  0.17120000000E+03 0.  0.
         13    1    1    2    0    0  0.37074037235E+02 -0.37010837808E+02  0.23232956206E+03  0.23816238772E+03  0.10566000000E+00 0.  1.
        994    1    1    2    0    0 -0.17526490256E+03  0.16744752059E+03  0.22307777225E+03  0.37125407835E+03  0.17120000000E+03 0.  0.
        998    1    1    2    0    0  0.13819086533E+03 -0.13043668279E+03  0.10445926620E+04  0.10617835339E+04  0.10000000000E+02 0.  1.
</event>
<event>
 5    1  0.5781797E-010  0.3878582E+03  0.7957747E-01  0.3417640E+00
         13   -1    0    0    0    0  0.00000000000E+00  0.00000000000E+00  0.14999999963E+04  0.15000000000E+04  0.10566000000E+00 0.  1.
        994   -1    0    0    0    0 -0.00000000000E+00 -0.00000000000E+00  0.11368683772E-12  0.17120000000E+03  0.17120000000E+03 0.  0.
         13    1    1    2    0    0 -0.18471824876E+03 -0.49280598143E+02  0.99942300381E+03  0.10175439845E+04  0.10566000000E+00 0.  1.
        994    1    1    2    0    0  0.23989643858E+03  0.64844622496E+02  0.23694319136E+03  0.38367517803E+03  0.17120000000E+03 0.  0.
        998    1    1    2    0    0 -0.55178189818E+02 -0.15564024352E+02  0.26363380111E+03  0.26998083742E+03  0.10000000000E+02 0.  0.
</event>
<event>
 5    1  0.5781797E-010  0.3880911E+03  0.7957747E-01  0.3416668E+00
         13   -1    0    0    0    0  0.00000000000E+00  0.00000000000E+00  0.14999999963E+04  0.15000000000E+04  0.10566000000E+00 0.  1.
        994   -1    0    0    0    0 -0.00000000000E+00 -0.00000000000E+00  0.11368683772E-12  0.17120000000E+03  0.17120000000E+03 0.  0.
         13    1    1    2    0    0  0.10115015881E+02  0.34678423567E+02  0.20958012432E+03  0.21267051107E+03  0.10566000000E+00 0.  1.
        994    1    1    2    0    0 -0.60187063618E+02 -0.19190882031E+03  0.14512871284E+03  0.30136897854E+03  0.17120000000E+03 0.  0.
        998    1    1    2    0    0  0.50072047737E+02  0.15723039674E+03  0.11452911591E+04  0.11571605104E+04  0.10000000000E+02 0. -1.
</event>
<event>
 5    1  0.5781797E-010  0.3847251E+03  0.7957747E-01  0.3430839E+00
         13   -1    0    0    0    0  0.00000000000E+00  0.00000000000E+00  0.14999999963E+04  0.15000000000E+04  0.10566000000E+00 0.  1.
        994   -1    0    0    0    0 -0.00000000000E+00 -0.00000000000E+00  0.11368683772E-12  0.17120000000E+03  0.17120000000E+03 0.  0.
         13    1    1    2    0    0  0.14093561922E+02 -0.18418114232E+03  0.79639629103E+03  0.81753800230E+03  0.10566000000E+00 0.  1.
        994    1    1    2    0    0 -0.10713194818E+02  0.24062401650E+03  0.22445574112E+03  0.37108558256E+03  0.17120000000E+03 0.  0.
        998    1    1    2    0    0 -0.33803671040E+01 -0.56442874173E+02  0.47914796412E+03  0.48257641514E+03  0.10000000000E+02 0. -1.
</event>
<event>
 5    1  0.5781797E-010  0.3881128E+03  0.7957747E-01  0.3416577E+00
         13   -1    0    0    0    0  0.00000000000E+00  0.00000000000E+00  0.14999999963E+04  0.15000000000E+04  0.10566000000E+00 0.  1.
        994   -1    0    0    0    0 -0.00000000000E+00 -0.00000000000E+00  0.11368683772E-12  0.17120000000E+03  0.17120000000E+03 0.  0.
         13    1    1    2    0    0 -0.10481003061E+03  0.12430683123E+02  0.53737398848E+03  0.54764083035E+03  0.10566000000E+00 0.  1.
        994    1    1    2    0    0  0.25416941964E+03 -0.24412430050E+02  0.25277854631E+03  0.39800062072E+03  0.17120000000E+03 0.  0.
        998    1    1    2    0    0 -0.14935938903E+03  0.11981746927E+02  0.70984746148E+03  0.72555854893E+03  0.10000000000E+02 0.  0.
</event>
<event>
 5    1  0.5781797E-010  0.3881306E+03  0.7957747E-01  0.3416503E+00
         13   -1    0    0    0    0  0.00000000000E+00  0.00000000000E+00  0.14999999963E+04  0.15000000000E+04  0.10566000000E+00 0. -1.
        994   -1    0    0    0    0 -0.00000000000E+00 -0.00000000000E+00  0.11368683772E-12  0.17120000000E+03  0.17120000000E+03 0.  0.
         13    1    1    2    0    0 -0.21272818910E+02 -0.23386109540E+02  0.15521412320E+03  0.15840100425E+03  0.10566000000E+00 0. -1.
        994    1    1    2    0    0  0.17337831953E+03  0.16221466845E+03  0.21205267382E+03  0.36145458472E+03  0.17120000000E+03 0.  0.
        998    1    1    2    0    0 -0.15210550062E+03 -0.13882855891E+03  0.11327331993E+04  0.11513444110E+04  0.10000000000E+02 0. -1.
</event>
<event>
 5    1  0.5781797E-010  0.3788232E+03  0.7957747E-01  0.3456299E+00
         13   -1    0    0    0    0  0.00000000000E+00  0.00000000000E+00  0.14999999963E+04  0.15000000000E+04  0.10566000000E+00 0.  1.
        994   -1    0    0    0    0 -0.00000000000E+00 -0.00000000000E+00  0.11368683772E-12  0.17120000000E+03  0.17120000000E+03 0.  0.
         13    1    1    2    0    0 -0.71620717486E+01  0.40803968333E+02  0.19154392265E+03  0.19597281590E+03  0.10566000000E+00 0.  1.
        994    1    1    2    0    0 -0.17404533230E+03 -0.10414776056E+03  0.15813665832E+03  0.30895821146E+03  0.17120000000E+03 0.  0.
        998    1    1    2    0    0  0.18120740405E+03  0.63343792223E+02  0.11503194153E+04  0.11662689726E+04  0.10000000000E+02 0.  1.
</event>
<event>
 5    1  0.5781797E-010  0.3855868E+03  0.7957747E-01  0.3427187E+00
         13   -1    0    0    0    0  0.00000000000E+00  0.00000000000E+00  0.14999999963E+04  0.15000000000E+04  0.10566000000E+00 0.  1.
        994   -1    0    0    0    0 -0.00000000000E+00 -0.00000000000E+00  0.11368683772E-12  0.17120000000E+03  0.17120000000E+03 0.  0.
         13    1    1    2    0    0  0.22170357050E+02 -0.15342464575E+02  0.13745133195E+03  0.14007068134E+03  0.10566000000E+00 0.  1.
        994    1    1    2    0    0 -0.78938479935E+02  0.48931301297E+02  0.30182389038E+02  0.19709381642E+03  0.17120000000E+03 0.  0.
        998    1    1    2    0    0  0.56768122885E+02 -0.33588836722E+02  0.13323662753E+04  0.13340355022E+04  0.10000000000E+02 0.  1.
</event>
<event>
 5    1  0.5781797E-010  0.3851132E+03  0.7957747E-01  0.3429192E+00
         13   -1    0    0    0    0  0.00000000000E+00  0.00000000000E+00  0.14999999963E+04  0.15000000000E+04  0.10566000000E+00 0. -1.
        994   -1    0    0    0    0 -0.00000000000E+00 -0.00000000000E+00  0.11368683772E-12  0.17120000000E+03  0.17120000000E+03 0.  0.
         13    1    1    2    0    0 -0.13931416480E+02 -0.37424048759E+02  0.19470312203E+03  0.19875603307E+03  0.10566000000E+00 0. -1.
        994    1    1    2    0    0  0.45829112126E+02  0.11471984911E+03  0.53463890803E+02  0.21778149352E+03  0.17120000000E+03 0.  0.
        998    1    1    2    0    0 -0.31897695646E+02 -0.77295800355E+02  0.12518329834E+04  0.12546624734E+04  0.10000000000E+02 0. -1.
</event>
<event>
 5    1  0.5781797E-010  0.3871429E+03  0.7957747E-01  0.3420634E+00
         13   -1    0    0    0    0  0.00000000000E+00  0.00000000000E+00  0.14999999963E+04  0.15000000000E+04  0.10566000000E+00 0.  1.
        994   -1    0    0    0    0 -0.00000000000E+00 -0.00000000000E+00  0.11368683772E-12  0.17120000000E+03  0.17120000000E+03 0.  0.
         13    1    1    2    0    0  0.66984028743E+01  0.23099622811E+02  0.12363884149E+03  0.12595648242E+03  0.10566000000E+00 0.  1.
        994    1    1    2    0    0 -0.11307030968E+02 -0.15224158034E+03  0.80768259298E+02  0.24318367429E+03  0.17120000000E+03 0.  0.
        998    1    1    2    0    0  0.46086280941E+01  0.12914195753E+03  0.12955928955E+04  0.13020598433E+04  0.10000000000E+02 0.  1.
</event>
<event>
 5    1  0.5781797E-010  0.3875345E+03  0.7957747E-01  0.3418994E+00
         13   -1    0    0    0    0  0.00000000000E+00  0.00000000000E+00  0.14999999963E+04  0.15000000000E+04  0.10566000000E+00 0.  1.
        994   -1    0    0    0    0 -0.00000000000E+00 -0.00000000000E+00  0.11368683772E-12  0.17120000000E+03  0.17120000000E+03 0.  0.
         13    1    1    2    0    0 -0.64104814500E+01  0.26086401077E+02  0.14481244484E+03  0.14728289086E+03  0.10566000000E+00 0.  1.
        994    1    1    2    0    0  0.30960440184E+02 -0.16308235426E+03  0.96061675684E+02  0.25708303846E+03  0.17120000000E+03 0.  0.
        998    1    1    2    0    0 -0.24549958734E+02  0.13699595318E+03  0.12591258758E+04  0.12668340707E+04  0.10000000000E+02 0.  1.
</event>
<event>
 5    1  0.5781797E-010  0.3815877E+03  0.7957747E-01  0.3444274E+00
         13   -1    0    0    0    0  0.00000000000E+00  0.00000000000E+00  0.14999999963E+04  0.15000000000E+04  0.10566000000E+00 0.  1.
        994   -1    0    0    0    0 -0.00000000000E+00 -0.00000000000E+00  0.11368683772E-12  0.17120000000E+03  0.17120000000E+03 0.  0.
         13    1    1    2    0    0  0.14383966451E+03 -0.17569866743E+03  0.11158574114E+04  0.11387263256E+04  0.10566000000E+00 0.  1.
        994    1    1    2    0    0 -0.14461803096E+03  0.21824634649E+03  0.28117953544E+03  0.42061528002E+03  0.17120000000E+03 0.  0.
        998    1    1    2    0    0  0.77836645549E+00 -0.42547679065E+02  0.10296304945E+03  0.11185839441E+03  0.10000000000E+02 0.  0.
</event>
<event>
 5    1  0.5781797E-010  0.3801588E+03  0.7957747E-01  0.3450467E+00
         13   -1    0    0    0    0  0.00000000000E+00  0.00000000000E+00  0.14999999963E+04  0.15000000000E+04  0.10566000000E+00 0. -1.
        994   -1    0    0    0    0 -0.00000000000E+00 -0.00000000000E+00  0.11368683772E-12  0.17120000000E+03  0.17120000000E+03 0.  0.
         13    1    1    2    0    0 -0.90643791500E+02 -0.73231017716E+02  0.34211279886E+03  0.36141424599E+03  0.10566000000E+00 0. -1.
        994    1    1    2    0    0 -0.26294546717E+02  0.26240185282E+03  0.34416379563E+03  0.46615908633E+03  0.17120000000E+03 0.  0.
        998    1    1    2    0    0  0.11693833822E+03 -0.18917083511E+03  0.81372340179E+03  0.84362666768E+03  0.10000000000E+02 0. -1.
</event>
<event>
 5    1  0.5781797E-010  0.3881158E+03  0.7957747E-01  0.3416564E+00
         13   -1    0    0    0    0  0.00000000000E+00  0.00000000000E+00  0.14999999963E+04  0.15000000000E+04  0.10566000000E+00 0.  1.
        994   -1    0    0    0    0 -0.00000000000E+00 -0.00000000000E+00  0.11368683772E-12  0.17120000000E+03  0.17120000000E+03 0.  0.
         13    1    1    2    0    0 -0.49185248823E+02 -0.95115330496E+02  0.61390033881E+03  0.62316911986E+03  0.10566000000E+00 0.  1.
        994    1    1    2    0    0  0.10440873887E+03  0.19466254879E+03  0.17927898509E+03  0.33203175624E+03  0.17120000000E+03 0.  0.
        998    1    1    2    0    0 -0.55223490052E+02 -0.99547218292E+02  0.70682067238E+03  0.71599912390E+03  0.10000000000E+02 0.  0.
</event>
<event>
 5    1  0.5781797E-010  0.3841550E+03  0.7957747E-01  0.3433264E+00
         13   -1    0    0    0    0  0.00000000000E+00  0.00000000000E+00  0.14999999963E+04  0.15000000000E+04  0.10566000000E+00 0. -1.
        994   -1    0    0    0    0 -0.00000000000E+00 -0.00000000000E+00  0.11368683772E-12  0.17120000000E+03  0.17120000000E+03 0.  0.
         13    1    1    2    0    0  0.99213225402E+02 -0.77031655357E+02  0.58804165169E+03  0.60130702250E+03  0.10566000000E+00 0. -1.
        994    1    1    2    0    0 -0.15224229416E+03  0.13074334891E+03  0.14862361265E+03  0.30277047024E+03  0.17120000000E+03 0.  0.
        998    1    1    2    0    0  0.53029068756E+02 -0.53711693552E+02  0.76333473194E+03  0.76712250726E+03  0.10000000000E+02 0. -1.
</event>
<event>
 5    1  0.5781797E-010  0.3822443E+03  0.7957747E-01  0.3441444E+00
         13   -1    0    0    0    0  0.00000000000E+00  0.00000000000E+00  0.14999999963E+04  0.15000000000E+04  0.10566000000E+00 0. -1.
        994   -1    0    0    0    0 -0.00000000000E+00 -0.00000000000E+00  0.11368683772E-12  0.17120000000E+03  0.17120000000E+03 0.  0.
         13    1    1    2    0    0  0.10877935512E+03  0.10427506884E+03  0.77326782820E+03  0.78781303833E+03  0.10566000000E+00 0. -1.
        994    1    1    2    0    0 -0.10835561157E+03 -0.19244708388E+03  0.18660159272E+03  0.33601549526E+03  0.17120000000E+03 0.  0.
        998    1    1    2    0    0 -0.42374355562E+00  0.88172015040E+02  0.54013057536E+03  0.54737146640E+03  0.10000000000E+02 0. -1.
</event>
<event>
 5    1  0.5781797E-010  0.3871790E+03  0.7957747E-01  0.3420483E+00
         13   -1    0    0    0    0  0.00000000000E+00  0.00000000000E+00  0.14999999963E+04  0.15000000000E+04  0.10566000000E+00 0.  1.
        994   -1    0    0    0    0 -0.00000000000E+00 -0.00000000000E+00  0.11368683772E-12  0.17120000000E+03  0.17120000000E+03 0.  0.
         13    1    1    2    0    0 -0.19253651708E+03 -0.21264346143E+03  0.88807767792E+03  0.93325748070E+03  0.10566000000E+00 0.  1.
        994    1    1    2    0    0  0.20870009517E+03  0.24387573730E+03  0.48758803067E+03  0.60834417283E+03  0.17120000000E+03 0.  0.
        998    1    1    2    0    0 -0.16163578087E+02 -0.31232275867E+02  0.12433428769E+03  0.12959834647E+03  0.10000000000E+02 0.  1.
</event>
<event>
 5    1  0.5781797E-010  0.3864755E+03  0.7957747E-01  0.3423438E+00
         13   -1    0    0    0    0  0.00000000000E+00  0.00000000000E+00  0.14999999963E+04  0.15000000000E+04  0.10566000000E+00 0.  1.
        994   -1    0    0    0    0 -0.00000000000E+00 -0.00000000000E+00  0.11368683772E-12  0.17120000000E+03  0.17120000000E+03 0.  0.
         13    1    1    2    0    0 -0.47017183399E+02 -0.10069773118E+02  0.25444071337E+03  0.25894420953E+03  0.10566000000E+00 0.  1.
        994    1    1    2    0    0  0.16365698960E+03  0.47534171786E+01  0.94171145790E+02  0.25491930080E+03  0.17120000000E+03 0.  0.
        998    1    1    2    0    0 -0.11663980620E+03  0.53163559391E+01  0.11513881371E+04  0.11573364897E+04  0.10000000000E+02 0.  1.
</event>
<event>
 5    1  0.5781797E-010  0.3852630E+03  0.7957747E-01  0.3428558E+00
         13   -1    0    0    0    0  0.00000000000E+00  0.00000000000E+00  0.14999999963E+04  0.15000000000E+04  0.10566000000E+00 0. -1.
        994   -1    0    0    0    0 -0.00000000000E+00 -0.00000000000E+00  0.11368683772E-12  0.17120000000E+03  0.17120000000E+03 0.  0.
         13    1    1    2    0    0 -0.15369714486E+03  0.22436488981E+02  0.75149098452E+03  0.76737534450E+03  0.10566000000E+00 0. -1.
        994    1    1    2    0    0  0.21495145384E+03 -0.57569279971E+02  0.18593632179E+03  0.33674932110E+03  0.17120000000E+03 0.  0.
        998    1    1    2    0    0 -0.61254308981E+02  0.35132790990E+02  0.56257268997E+03  0.56707533439E+03  0.10000000000E+02 0. -1.
</event>
<event>
 5    1  0.5781797E-010  0.3868232E+03  0.7957747E-01  0.3421976E+00
         13   -1    0    0    0    0  0.00000000000E+00  0.00000000000E+00  0.14999999963E+04  0.15000000000E+04  0.10566000000E+00 0.  1.
        994   -1    0    0    0    0 -0.00000000000E+00 -0.00000000000E+00  0.11368683772E-12  0.17120000000E+03  0.17120000000E+03 0.  0.
         13    1    1    2    0    0  0.76902246998E+02 -0.25512349401E+03  0.92955173119E+03  0.96698934064E+03  0.10566000000E+00 0.  1.
        994    1    1    2    0    0 -0.74030360002E+02  0.29768054057E+03  0.42015481482E+03  0.54766203707E+03  0.17120000000E+03 0.  0.
        998    1    1    2    0    0 -0.28718869957E+01 -0.42557046556E+02  0.15029345028E+03  0.15654862230E+03  0.10000000000E+02 0.  1.
</event>
<event>
 5    1  0.5781797E-010  0.3874249E+03  0.7957747E-01  0.3419453E+00
         13   -1    0    0    0    0  0.00000000000E+00  0.00000000000E+00  0.14999999963E+04  0.15000000000E+04  0.10566000000E+00 0. -1.
        994   -1    0    0    0    0 -0.00000000000E+00 -0.00000000000E+00  0.11368683772E-12  0.17120000000E+03  0.17120000000E+03 0.  0.
         13    1    1    2    0    0  0.10459879649E+03 -0.12799724898E+03  0.84741355971E+03  0.86338517263E+03  0.10566000000E+00 0. -1.
        994    1    1    2    0    0 -0.13977169465E+03  0.18495436441E+03  0.20142503030E+03  0.35160450277E+03  0.17120000000E+03 0.  0.
        998    1    1    2    0    0  0.35172898160E+02 -0.56957115427E+02  0.45116140627E+03  0.45621032460E+03  0.10000000000E+02 0.  0.
</event>
<event>
 5    1  0.5781797E-010  0.3878167E+03  0.7957747E-01  0.3417813E+00
         13   -1    0    0    0    0  0.00000000000E+00  0.00000000000E+00  0.14999999963E+04  0.15000000000E+04  0.10566000000E+00 0.  1.
        994   -1    0    0    0    0 -0.00000000000E+00 -0.00000000000E+00  0.11368683772E-12  0.17120000000E+03  0.17120000000E+03 0.  0.
         13    1    1    2    0    0  0.15217710947E+03  0.11549109886E+03  0.10591569771E+04  0.10762479174E+04  0.10566000000E+00 0.  1.
        994    1    1    2    0    0 -0.19075073698E+03 -0.14127778337E+03  0.21237190179E+03  0.36160271073E+03  0.17120000000E+03 0.  0.
        998    1    1    2    0    0  0.38573627510E+02  0.25786684512E+02  0.22847111743E+03  0.23334937183E+03  0.10000000000E+02 0.  0.
</event>
<event>
 5    1  0.5781797E-010  0.3854327E+03  0.7957747E-01  0.3427839E+00
         13   -1    0    0    0    0  0.00000000000E+00  0.00000000000E+00  0.14999999963E+04  0.15000000000E+04  0.10566000000E+00 0. -1.
        994   -1    0    0    0    0 -0.00000000000E+00 -0.00000000000E+00  0.11368683772E-12  0.17120000000E+03  0.17120000000E+03 0.  0.
         13    1    1    2    0    0 -0.12113913583E+02 -0.10895166110E+02  0.63075304797E+02  0.65145658229E+02  0.10566000000E+00 0. -1.
        994    1    1    2    0    0  0.75912617834E+02  0.28668245296E+02  0.23346537678E+02  0.19089026863E+03  0.17120000000E+03 0.  0.
        998    1    1    2    0    0 -0.63798704251E+02 -0.17773079186E+02  0.14135781538E+04  0.14151640731E+04  0.10000000000E+02 0. -1.
</event>
<event>
 5    1  0.5781797E-010  0.3813345E+03  0.7957747E-01  0.3445368E+00
         13   -1    0    0    0    0  0.00000000000E+00  0.00000000000E+00  0.14999999963E+04  0.15000000000E+04  0.10566000000E+00 0.  1.
        994   -1    0    0    0    0 -0.00000000000E+00 -0.00000000000E+00  0.11368683772E-12  0.17120000000E+03  0.17120000000E+03 0.  0.
         13    1    1    2    0    0  0.11100423704E+03 -0.92203023927E+02  0.77201356630E+03  0.78538417095E+03  0.10566000000E+00 0.  1.
        994    1    1    2    0    0 -0.11926674029E+03  0.12542504513E+03  0.11058390592E+03  0.26738406372E+03  0.17120000000E+03 0.  0.
        998    1    1    2    0    0  0.82625032463E+01 -0.33222021205E+02  0.61740252405E+03  0.61843176532E+03  0.10000000000E+02 0.  1.
</event>
<event>
 5    1  0.5781797E-010  0.3852310E+03  0.7957747E-01  0.3428693E+00
         13   -1    0    0    0    0  0.00000000000E+00  0.00000000000E+00  0.14999999963E+04  0.15000000000E+04  0.10566000000E+00 0. -1.
        994   -1    0    0    0    0 -0.00000000000E+00 -0.00000000000E+00  0.11368683772E-12  0.17120000000E+03  0.17120000000E+03 0.  0.
         13    1    1    2    0    0  0.15504955739E+03 -0.33069983529E+02  0.94367410442E+03  0.95689853985E+03  0.10566000000E+00 0. -1.
        994    1    1    2    0    0 -0.18342538320E+03  0.63159127414E+02  0.13689480949E+03  0.29271756942E+03  0.17120000000E+03 0.  0.
        998    1    1    2    0    0  0.28375825816E+02 -0.30089143885E+02  0.41943108237E+03  0.42158389073E+03  0.10000000000E+02 0. -1.
</event>
<event>
 5    1  0.5781797E-010  0.3869050E+03  0.7957747E-01  0.3421633E+00
         13   -1    0    0    0    0  0.00000000000E+00  0.00000000000E+00  0.14999999963E+04  0.15000000000E+04  0.10566000000E+00 0.  1.
        994   -1    0    0    0    0 -0.00000000000E+00 -0.00000000000E+00  0.11368683772E-12  0.17120000000E+03  0.17120000000E+03 0.  0.
         13    1    1    2    0    0  0.45356218974E+02 -0.17618525000E+03  0.71863419198E+03  0.74130529606E+03  0.10566000000E+00 0.  1.
        994    1    1    2    0    0 -0.63038195301E+02  0.26249977890E+03  0.29329191694E+03  0.43383123047E+03  0.17120000000E+03 0.  0.
        998    1    1    2    0    0  0.17681976326E+02 -0.86314528904E+02  0.48807388736E+03  0.49606347347E+03  0.10000000000E+02 0.  1.
</event>
<event>
 5    1  0.5781797E-010  0.2929844E+03  0.7957747E-01  0.3947413E+00
         13   -1    0    0    0    0  0.00000000000E+00  0.00000000000E+00  0.14999999963E+04  0.15000000000E+04  0.10566000000E+00 0.  1.
        994   -1    0    0    0    0 -0.00000000000E+00 -0.00000000000E+00  0.11368683772E-12  0.17120000000E+03  0.17120000000E+03 0.  0.
         13    1    1    2    0    0 -0.12384626881E+03 -0.16940272560E+03  0.41077845231E+03  0.46127446253E+03  0.10566000000E+00 0.  1.
        994    1    1    2    0    0  0.27254345709E+03  0.11557042633E+03  0.54768026486E+03  0.64567760683E+03  0.17120000000E+03 0.  0.
        998    1    1    2    0    0 -0.14869718828E+03  0.53832299263E+02  0.54154127911E+03  0.56424793064E+03  0.10000000000E+02 0.  1.
</event>
<event>
 5    1  0.5781797E-010  0.3847748E+03  0.7957747E-01  0.3430628E+00
         13   -1    0    0    0    0  0.00000000000E+00  0.00000000000E+00  0.14999999963E+04  0.15000000000E+04  0.10566000000E+00 0.  1.
        994   -1    0    0    0    0 -0.00000000000E+00 -0.00000000000E+00  0.11368683772E-12  0.17120000000E+03  0.17120000000E+03 0.  0.
         13    1    1    2    0    0  0.93362733126E+01  0.58185611973E+01  0.63900310258E+02  0.64840438531E+02  0.10566000000E+00 0.  1.
        994    1    1    2    0    0  0.17590945669E+02  0.10839189419E+03  0.42488199525E+02  0.20778096928E+03  0.17120000000E+03 0.  0.
        998    1    1    2    0    0 -0.26927218982E+02 -0.11421045539E+03  0.13936114865E+04  0.13985785922E+04  0.10000000000E+02 0.  1.
</event>
<event>
 5    1  0.5781797E-010  0.3881305E+03  0.7957747E-01  0.3416503E+00
         13   -1    0    0    0    0  0.00000000000E+00  0.00000000000E+00  0.14999999963E+04  0.15000000000E+04  0.10566000000E+00 0. -1.
        994   -1    0    0    0    0 -0.00000000000E+00 -0.00000000000E+00  0.11368683772E-12  0.17120000000E+03  0.17120000000E+03 0.  0.
         13    1    1    2    0    0 -0.11003125038E+03  0.20633930403E+02  0.65237853416E+03  0.66191419243E+03  0.10566000000E+00 0. -1.
        994    1    1    2    0    0  0.22219872804E+03 -0.48455116481E+02  0.19170564844E+03  0.34319188321E+03  0.17120000000E+03 0.  0.
        998    1    1    2    0    0 -0.11216747766E+03  0.27821186078E+02  0.65591581367E+03  0.66609392436E+03  0.10000000000E+02 0. -1.
</event>
<event>
 5    1  0.5781797E-010  0.3876162E+03  0.7957747E-01  0.3418652E+00
         13   -1    0    0    0    0  0.00000000000E+00  0.00000000000E+00  0.14999999963E+04  0.15000000000E+04  0.10566000000E+00 0.  1.
        994   -1    0    0    0    0 -0.00000000000E+00 -0.00000000000E+00  0.11368683772E-12  0.17120000000E+03  0.17120000000E+03 0.  0.
         13    1    1    2    0    0  0.11332896716E+03 -0.17502575561E+03  0.10878134931E+04  0.11076171166E+04  0.10566000000E+00 0.  1.
        994    1    1    2    0    0 -0.12761953566E+03  0.20980863666E+03  0.23061196549E+03  0.37788586706E+03  0.17120000000E+03 0.  0.
        998    1    1    2    0    0  0.14290568501E+02 -0.34782881044E+02  0.18157453767E+03  0.18569701638E+03  0.10000000000E+02 0.  0.
</event>
<event>
 5    1  0.5781797E-010  0.3846793E+03  0.7957747E-01  0.3431033E+00
         13   -1    0    0    0    0  0.00000000000E+00  0.00000000000E+00  0.14999999963E+04  0.15000000000E+04  0.10566000000E+00 0.  1.
        994   -1    0    0    0    0 -0.00000000000E+00 -0.00000000000E+00  0.11368683772E-12  0.17120000000E+03  0.17120000000E+03 0.  0.
         13    1    1    2    0    0  0.28251639059E+01  0.10152049972E+02  0.28497294731E+02  0.30383427074E+02  0.10566000000E+00 0.  1.
        994    1    1    2    0    0  0.10349690972E+03 -0.60442367553E+02  0.50604305071E+02  0.21502354710E+03  0.17120000000E+03 0.  0.
        998    1    1    2    0    0 -0.10632207362E+03  0.50290317581E+02  0.14208983965E+04  0.14257930258E+04  0.10000000000E+02 0.  1.
</event>
<event>
 5    1  0.5781797E-010  0.3843243E+03  0.7957747E-01  0.3432543E+00
         13   -1    0    0    0    0  0.00000000000E+00  0.00000000000E+00  0.14999999963E+04  0.15000000000E+04  0.10566000000E+00 0. -1.
        994   -1    0    0    0    0 -0.00000000000E+00 -0.00000000000E+00  0.11368683772E-12  0.17120000000E+03  0.17120000000E+03 0.  0.
         13    1    1    2    0    0 -0.52360123021E+01 -0.10553818029E+02  0.70969283817E+02  0.71940595698E+02  0.10566000000E+00 0. -1.
        994    1    1    2    0    0 -0.36488055374E+02 -0.85873702304E+02  0.31206291720E+02  0.19745618141E+03  0.17120000000E+03 0.  0.
        998    1    1    2    0    0  0.41724067677E+02  0.96427520334E+02  0.13978244207E+04  0.14018032229E+04  0.10000000000E+02 0. -1.
</event>
<event>
 5    1  0.5781797E-010  0.3728530E+03  0.7957747E-01  0.3482881E+00
         13   -1    0    0    0    0  0.00000000000E+00  0.00000000000E+00  0.14999999963E+04  0.15000000000E+04  0.10566000000E+00 0. -1.
        994   -1    0    0    0    0 -0.00000000000E+00 -0.00000000000E+00  0.11368683772E-12  0.17120000000E+03  0.17120000000E+03 0.  0.
         13    1    1    2    0    0  0.91692713927E+02 -0.11840853381E+02  0.55674774967E+03  0.56437206480E+03  0.10566000000E+00 0. -1.
        994    1    1    2    0    0 -0.21017160092E+02  0.13034430461E+03  0.76847110310E+02  0.22944776557E+03  0.17120000000E+03 0.  0.
        998    1    1    2    0    0 -0.70675553835E+02 -0.11850345123E+03  0.86640513629E+03  0.87738016963E+03  0.10000000000E+02 0.  1.
</event>
<event>
 5    1  0.5781797E-010  0.3841396E+03  0.7957747E-01  0.3433329E+00
         13   -1    0    0    0    0  0.00000000000E+00  0.00000000000E+00  0.14999999963E+04  0.15000000000E+04  0.10566000000E+00 0.  1.
        994   -1    0    0    0    0 -0.00000000000E+00 -0.00000000000E+00  0.11368683772E-12  0.17120000000E+03  0.17120000000E+03 0.  0.
         13    1    1    2    0    0  0.14218862832E+03  0.64120342660E+02  0.86633528681E+03  0.88026465606E+03  0.10566000000E+00 0.  1.
        994    1    1    2    0    0 -0.16541795256E+03 -0.10039040645E+03  0.13724915750E+03  0.29255444616E+03  0.17120000000E+03 0.  0.
        998    1    1    2    0    0  0.23229324242E+02  0.36270063791E+02  0.49641555197E+03  0.49838089778E+03  0.10000000000E+02 0.  1.
</event>
<event>
 5    1  0.5781797E-010  0.3880012E+03  0.7957747E-01  0.3417043E+00
         13   -1    0    0    0    0  0.00000000000E+00  0.00000000000E+00  0.14999999963E+04  0.15000000000E+04  0.10566000000E+00 0.  1.
        994   -1    0    0    0    0 -0.00000000000E+00 -0.00000000000E+00  0.11368683772E-12  0.17120000000E+03  0.17120000000E+03 0.  0.
         13    1    1    2    0    0 -0.16408870136E+03  0.58718350368E+02  0.87789874529E+03  0.89503025911E+03  0.10566000000E+00 0.  1.
        994    1    1    2    0    0  0.23480347445E+03 -0.77735989456E+02  0.23402973992E+03  0.38112322789E+03  0.17120000000E+03 0.  0.
        998    1    1    2    0    0 -0.70714773088E+02  0.19017639088E+02  0.38807151107E+03  0.39504651300E+03  0.10000000000E+02 0.  0.
</event>
<event>
 5    1  0.5781797E-010  0.3821272E+03  0.7957747E-01  0.3441948E+00
         13   -1    0    0    0    0  0.00000000000E+00  0.00000000000E+00  0.14999999963E+04  0.15000000000E+04  0.10566000000E+00 0.  1.
        994   -1    0    0    0    0 -0.00000000000E+00 -0.00000000000E+00  0.11368683772E-12  0.17120000000E+03  0.17120000000E+03 0.  0.
         13    1    1    2    0    0  0.99215429347E+01 -0.13813153160E+02  0.39890570465E+02  0.43364835876E+02  0.10566000000E+00 0.  1.
        994    1    1    2    0    0  0.40883929380E+02  0.92113762164E+02  0.37545131422E+02  0.20217694665E+03  0.17120000000E+03 0.  0.
        998    1    1    2    0    0 -0.50805472315E+02 -0.78300609004E+02  0.14225642944E+04  0.14256582175E+04  0.10000000000E+02 0.  1.
</event>
<event>
 5    1  0.5781797E-010  0.3690407E+03  0.7957747E-01  0.3500311E+00
         13   -1    0    0    0    0  0.00000000000E+00  0.00000000000E+00  0.14999999963E+04  0.15000000000E+04  0.10566000000E+00 0. -1.
        994   -1    0    0    0    0 -0.00000000000E+00 -0.00000000000E+00  0.11368683772E-12  0.17120000000E+03  0.17120000000E+03 0.  0.
         13    1    1    2    0    0 -0.20214434506E+03  0.10909301289E+03  0.54721948168E+03  0.59347518398E+03  0.10566000000E+00 0. -1.
        994    1    1    2    0    0  0.27724615024E+03 -0.89221846605E+02  0.41903080162E+03  0.53825850522E+03  0.17120000000E+03 0.  0.
        998    1    1    2    0    0 -0.75101805177E+02 -0.19871166284E+02  0.53374971298E+03  0.53946631081E+03  0.10000000000E+02 0. -1.
</event>
<event>
 5    1  0.5781797E-010  0.3881981E+03  0.7957747E-01  0.3416221E+00
         13   -1    0    0    0    0  0.00000000000E+00  0.00000000000E+00  0.14999999963E+04  0.15000000000E+04  0.10566000000E+00 0.  1.
        994   -1    0    0    0    0 -0.00000000000E+00 -0.00000000000E+00  0.11368683772E-12  0.17120000000E+03  0.17120000000E+03 0.  0.
         13    1    1    2    0    0  0.77676604659E+01 -0.20080448640E+02  0.90920976672E+02  0.93435518566E+02  0.10566000000E+00 0.  1.
        994    1    1    2    0    0 -0.79110188256E+02  0.26336808281E+03  0.30505662162E+03  0.44496084246E+03  0.17120000000E+03 0.  0.
        998    1    1    2    0    0  0.71342527790E+02 -0.24328763417E+03  0.11040223980E+04  0.11328036390E+04  0.10000000000E+02 0.  1.
</event>
<event>
 5    1  0.5781797E-010  0.3877779E+03  0.7957747E-01  0.3417976E+00
         13   -1    0    0    0    0  0.00000000000E+00  0.00000000000E+00  0.14999999963E+04  0.15000000000E+04  0.10566000000E+00 0. -1.
        994   -1    0    0    0    0 -0.00000000000E+00 -0.00000000000E+00  0.11368683772E-12  0.17120000000E+03  0.17120000000E+03 0.  0.
         13    1    1    2    0    0  0.28739097604E+03  0.24869032561E+02  0.48610042254E+03  0.56524832937E+03  0.10566000000E+00 0. -1.
        994    1    1    2    0    0 -0.34166578032E+03 -0.34716330098E+02  0.91614547781E+03  0.99326366365E+03  0.17120000000E+03 0.  0.
        998    1    1    2    0    0  0.54274804272E+02  0.98472975373E+01  0.97754095930E+02  0.11268800699E+03  0.10000000000E+02 0.  0.
</event>
<event>
 5    1  0.5781797E-010  0.3736793E+03  0.7957747E-01  0.3479151E+00
         13   -1    0    0    0    0  0.00000000000E+00  0.00000000000E+00  0.14999999963E+04  0.15000000000E+04  0.10566000000E+00 0. -1.
        994   -1    0    0    0    0 -0.00000000000E+00 -0.00000000000E+00  0.11368683772E-12  0.17120000000E+03  0.17120000000E+03 0.  0.
         13    1    1    2    0    0 -0.29006818251E+02 -0.22642027140E+02  0.63149111964E+02  0.73088155018E+02  0.10566000000E+00 0. -1.
        994    1    1    2    0    0  0.14315435835E+03  0.13407953822E+02  0.81598982133E+02  0.23799322979E+03  0.17120000000E+03 0.  0.
        998    1    1    2    0    0 -0.11414754010E+03  0.92340733189E+01  0.13552519022E+04  0.13601186152E+04  0.10000000000E+02 0. -1.
</event>
<event>
 5    1  0.5781797E-010  0.3823465E+03  0.7957747E-01  0.3441004E+00
         13   -1    0    0    0    0  0.00000000000E+00  0.00000000000E+00  0.14999999963E+04  0.15000000000E+04  0.10566000000E+00 0.  1.
        994   -1    0    0    0    0 -0.00000000000E+00 -0.00000000000E+00  0.11368683772E-12  0.17120000000E+03  0.17120000000E+03 0.  0.
         13    1    1    2    0    0 -0.10189772912E+03  0.63461365624E+02  0.65887591674E+03  0.66972231331E+03  0.10566000000E+00 0.  1.
        994    1    1    2    0    0  0.25608237389E+03 -0.12976719926E+03  0.35731798203E+03  0.48928855342E+03  0.17120000000E+03 0.  0.
        998    1    1    2    0    0 -0.15418464477E+03  0.66305833632E+02  0.48380609751E+03  0.51218913327E+03  0.10000000000E+02 0.  1.
</event>
<event>
 5    1  0.5781797E-010  0.3870336E+03  0.7957747E-01  0.3421093E+00
         13   -1    0    0    0    0  0.00000000000E+00  0.00000000000E+00  0.14999999963E+04  0.15000000000E+04  0.10566000000E+00 0.  1.
        994   -1    0    0    0    0 -0.00000000000E+00 -0.00000000000E+00  0.11368683772E-12  0.17120000000E+03  0.17120000000E+03 0.  0.
         13    1    1    2    0    0 -0.62121280939E+02 -0.21560691665E+03  0.11393381938E+04  0.11612221696E+04  0.10566000000E+00 0.  1.
        994    1    1    2    0    0  0.59228901541E+02  0.23875610012E+03  0.23246212652E+03  0.37928962336E+03  0.17120000000E+03 0.  0.
        998    1    1    2    0    0  0.28923793977E+01 -0.23149183474E+02  0.12819967595E+03  0.13068820707E+03  0.10000000000E+02 0. -1.
</event>
<event>
 5    1  0.5781797E-010  0.3876377E+03  0.7957747E-01  0.3418562E+00
         13   -1    0    0    0    0  0.00000000000E+00  0.00000000000E+00  0.14999999963E+04  0.15000000000E+04  0.10566000000E+00 0. -1.
        994   -1    0    0    0    0 -0.00000000000E+00 -0.00000000000E+00  0.11368683772E-12  0.17120000000E+03  0.17120000000E+03 0.  0.
         13    1    1    2    0    0  0.18529663556E+03 -0.10191115508E+03  0.10854321082E+04  0.11058406754E+04  0.10566000000E+00 0. -1.
        994    1    1    2    0    0 -0.21115042667E+03  0.12330554088E+03  0.22820036673E+03  0.37573076328E+03  0.17120000000E+03 0.  0.
        998    1    1    2    0    0  0.25853791114E+02 -0.21394385807E+02  0.18636752131E+03  0.18962856129E+03  0.10000000000E+02 0.  0.
</event>
<event>
 5    1  0.5781797E-010  0.3860006E+03  0.7957747E-01  0.3425439E+00
         13   -1    0    0    0    0  0.00000000000E+00  0.00000000000E+00  0.14999999963E+04  0.15000000000E+04  0.10566000000E+00 0.  1.
        994   -1    0    0    0    0 -0.00000000000E+00 -0.00000000000E+00  0.11368683772E-12  0.17120000000E+03  0.17120000000E+03 0.  0.
         13    1    1    2    0    0 -0.18525389355E+03 -0.17746483412E+03  0.11782334685E+04  0.12058386666E+04  0.10566000000E+00 0.  1.
        994    1    1    2    0    0  0.19231594205E+03  0.17898852198E+03  0.27528070025E+03  0.41726636157E+03  0.17120000000E+03 0.  0.
        998    1    1    2    0    0 -0.70620485033E+01 -0.15236878569E+01  0.46485827575E+02  0.48094971869E+02  0.10000000000E+02 0.  1.
</event>
<event>
 5    1  0.5781797E-010  0.3877236E+03  0.7957747E-01  0.3418203E+00
         13   -1    0    0    0    0  0.00000000000E+00  0.00000000000E+00  0.14999999963E+04  0.15000000000E+04  0.10566000000E+00 0.  1.
        994   -1    0    0    0    0 -0.00000000000E+00 -0.00000000000E+00  0.11368683772E-12  0.17120000000E+03  0.17120000000E+03 0.  0.
         13    1    1    2    0    0 -0.11834335151E+03  0.19502431738E+02  0.50806668614E+03  0.52203185958E+03  0.10566000000E+00 0.  1.
        994    1    1    2    0    0  0.25567574504E+03 -0.51959400285E+02  0.26740004503E+03  0.41095266146E+03  0.17120000000E+03 0.  0.
        998    1    1    2    0    0 -0.13733239353E+03  0.32456968547E+02  0.72453326511E+03  0.73821547896E+03  0.10000000000E+02 0.  1.
</event>
<event>
 5    1  0.5781797E-010  0.3837660E+03  0.7957747E-01  0.3434923E+00
         13   -1    0    0    0    0  0.00000000000E+00  0.00000000000E+00  0.14999999963E+04  0.15000000000E+04  0.10566000000E+00 0.  1.
        994   -1    0    0    0    0 -0.00000000000E+00 -0.00000000000E+00  0.11368683772E-12  0.17120000000E+03  0.17120000000E+03 0.  0.
         13    1    1    2    0    0 -0.49430829203E+02  0.26923885991E+02  0.31732736366E+03  0.32228088589E+03  0.10566000000E+00 0.  1.
        994    1    1    2    0    0  0.73844560082E+02 -0.98013309119E+02  0.53665495191E+02  0.21736847332E+03  0.17120000000E+03 0.  0.
        998    1    1    2    0    0 -0.24413730879E+02  0.71089423128E+02  0.11290071374E+04  0.11315506408E+04  0.10000000000E+02 0.  1.
</event>
<event>
 5    1  0.5781797E-010  0.3790825E+03  0.7957747E-01  0.3455163E+00
         13   -1    0    0    0    0  0.00000000000E+00  0.00000000000E+00  0.14999999963E+04  0.15000000000E+04  0.10566000000E+00 0. -1.
        994   -1    0    0    0    0 -0.00000000000E+00 -0.00000000000E+00  0.11368683772E-12  0.17120000000E+03  0.17120000000E+03 0.  0.
         13    1    1    2    0    0  0.80184298730E+02 -0.90269548509E+02  0.42542436846E+03  0.44222620636E+03  0.10566000000E+00 0. -1.
        994    1    1    2    0    0 -0.18306970441E+03  0.12122296837E+03  0.18821971198E+03  0.33607383818E+03  0.17120000000E+03 0.  0.
        998    1    1    2    0    0  0.10288540568E+03 -0.30953419857E+02  0.88635591584E+03  0.89289995545E+03  0.10000000000E+02 0. -1.
</event>
<event>
 5    1  0.5781797E-010  0.3849178E+03  0.7957747E-01  0.3430021E+00
         13   -1    0    0    0    0  0.00000000000E+00  0.00000000000E+00  0.14999999963E+04  0.15000000000E+04  0.10566000000E+00 0.  1.
        994   -1    0    0    0    0 -0.00000000000E+00 -0.00000000000E+00  0.11368683772E-12  0.17120000000E+03  0.17120000000E+03 0.  0.
         13    1    1    2    0    0 -0.23338138122E+02  0.48348757127E+01  0.94850183473E+02  0.97798840398E+02  0.10566000000E+00 0.  1.
        994    1    1    2    0    0  0.92586607679E+02 -0.49624167495E+02  0.38854256323E+02  0.20458233344E+03  0.17120000000E+03 0.  0.
        998    1    1    2    0    0 -0.69248469557E+02  0.44789291783E+02  0.13662955565E+04  0.13688188262E+04  0.10000000000E+02 0.  1.
</event>
<event>
 5    1  0.6368168E-010  0.3866868E+03  0.7957747E-01  0.3422550E+00
         13   -1    0    0    0    0  0.00000000000E+00  0.00000000000E+00  0.14999999963E+04  0.15000000000E+04  0.10566000000E+00 0. -1.
        994   -1    0    0    0    0 -0.00000000000E+00 -0.00000000000E+00  0.11368683772E-12  0.17120000000E+03  0.17120000000E+03 0.  0.
         13    1    1    2    0    0  0.41141947918E+01 -0.24927102366E+03  0.11697792224E+04  0.11960503377E+04  0.10566000000E+00 0. -1.
        994    1    1    2    0    0 -0.37054079205E+01  0.25809839579E+03  0.26215238713E+03  0.40578544335E+03  0.17120000000E+03 0.  0.
        998    1    1    2    0    0 -0.40878687131E+00 -0.88273721216E+01  0.68068386705E+02  0.69364218974E+02  0.10000000000E+02 0.  0.
</event>
<event>
 5    1  0.5781797E-010  0.3844046E+03  0.7957747E-01  0.3432201E+00
         13   -1    0    0    0    0  0.00000000000E+00  0.00000000000E+00  0.14999999963E+04  0.15000000000E+04  0.10566000000E+00 0.  1.
        994   -1    0    0    0    0 -0.00000000000E+00 -0.00000000000E+00  0.11368683772E-12  0.17120000000E+03  0.17120000000E+03 0.  0.
         13    1    1    2    0    0 -0.18647589024E+03 -0.55960646592E+02  0.78822515010E+03  0.81191363458E+03  0.10566000000E+00 0.  1.
        994    1    1    2    0    0  0.25744073132E+03  0.12909943203E+03  0.35512123849E+03  0.48822425945E+03  0.17120000000E+03 0.  0.
        998    1    1    2    0    0 -0.70964841072E+02 -0.73138785441E+02  0.35665360769E+03  0.37106210596E+03  0.10000000000E+02 0.  1.
</event>
<event>
 5    1  0.5781797E-010  0.3852492E+03  0.7957747E-01  0.3428616E+00
         13   -1    0    0    0    0  0.00000000000E+00  0.00000000000E+00  0.14999999963E+04  0.15000000000E+04  0.10566000000E+00 0.  1.
        994   -1    0    0    0    0 -0.00000000000E+00 -0.00000000000E+00  0.11368683772E-12  0.17120000000E+03  0.17120000000E+03 0.  0.
         13    1    1    2    0    0 -0.11934407468E+03  0.10321753235E+03  0.95118249756E+03  0.96418101100E+03  0.10566000000E+00 0.  1.
        994    1    1    2    0    0  0.14694981226E+03 -0.11417442979E+03  0.12504941575E+03  0.28209367969E+03  0.17120000000E+03 0.  0.
        998    1    1    2    0    0 -0.27605737577E+02  0.10956897438E+02  0.42376808297E+03  0.42492530931E+03  0.10000000000E+02 0.  1.
</event>
<event>
 5    1  0.5781797E-010  0.3842811E+03  0.7957747E-01  0.3432727E+00
         13   -1    0    0    0    0  0.00000000000E+00  0.00000000000E+00  0.14999999963E+04  0.15000000000E+04  0.10566000000E+00 0. -1.
        994   -1    0    0    0    0 -0.00000000000E+00 -0.00000000000E+00  0.11368683772E-12  0.17120000000E+03  0.17120000000E+03 0.  0.
         13    1    1    2    0    0 -0.21345744257E+03  0.89530196768E+02  0.80943221755E+03  0.84187900668E+03  0.10566000000E+00 0. -1.
        994    1    1    2    0    0  0.28150780173E+03 -0.14826088377E+03  0.48541154429E+03  0.60511299724E+03  0.17120000000E+03 0.  0.
        998    1    1    2    0    0 -0.68050359164E+02  0.58730687004E+02  0.20515623444E+03  0.22420799608E+03  0.10000000000E+02 0. -1.
</event>
<event>
 5    1  0.5781797E-010  0.3819199E+03  0.7957747E-01  0.3442841E+00
         13   -1    0    0    0    0  0.00000000000E+00  0.00000000000E+00  0.14999999963E+04  0.15000000000E+04  0.10566000000E+00 0.  1.
        994   -1    0    0    0    0 -0.00000000000E+00 -0.00000000000E+00  0.11368683772E-12  0.17120000000E+03  0.17120000000E+03 0.  0.
         13    1    1    2    0    0 -0.11513098896E+02 -0.15015502988E+02  0.75927863008E+02  0.78250037196E+02  0.10566000000E+00 0.  1.
        994    1    1    2    0    0 -0.35325551456E+02 -0.31993018656E+02  0.10749500749E+02  0.17803493925E+03  0.17120000000E+03 0.  0.
        998    1    1    2    0    0  0.46838650352E+02  0.47008521644E+02  0.14133226325E+04  0.14149150236E+04  0.10000000000E+02 0.  1.
</event>
<event>
 5    1  0.5781797E-010  0.3874892E+03  0.7957747E-01  0.3419183E+00
         13   -1    0    0    0    0  0.00000000000E+00  0.00000000000E+00  0.14999999963E+04  0.15000000000E+04  0.10566000000E+00 0.  1.
        994   -1    0    0    0    0 -0.00000000000E+00 -0.00000000000E+00  0.11368683772E-12  0.17120000000E+03  0.17120000000E+03 0.  0.
         13    1    1    2    0    0  0.29863789536E+02  0.28639791751E+02  0.22387055687E+03  0.22766229594E+03  0.10566000000E+00 0.  1.
        994    1    1    2    0    0 -0.16072996278E+03 -0.10366877678E+03  0.13046989170E+03  0.28794646873E+03  0.17120000000E+03 0.  0.
        998    1    1    2    0    0  0.13086617325E+03  0.75028985033E+02  0.11456595477E+04  0.11555912353E+04  0.10000000000E+02 0.  1.
</event>
<event>
 5    1  0.5781797E-010  0.3837527E+03  0.7957747E-01  0.3434979E+00
         13   -1    0    0    0    0  0.00000000000E+00  0.00000000000E+00  0.14999999963E+04  0.15000000000E+04  0.10566000000E+00 0.  1.
        994   -1    0    0    0    0 -0.00000000000E+00 -0.00000000000E+00  0.11368683772E-12  0.17120000000E+03  0.17120000000E+03 0.  0.
         13    1    1    2    0    0  0.51323526764E+01 -0.10990746737E+02  0.69631409118E+02  0.70680137645E+02  0.10566000000E+00 0.  1.
        994    1    1    2    0    0  0.71046019355E+02 -0.86078833207E+02  0.44531070408E+02  0.20916395154E+03  0.17120000000E+03 0.  0.
        998    1    1    2    0    0 -0.76178372031E+02  0.97069579944E+02  0.13858375168E+04  0.13913559108E+04  0.10000000000E+02 0.  1.
</event>
<event>
 5    1  0.6243327E-010  0.3865193E+03  0.7957747E-01  0.3423254E+00
         13   -1    0    0    0    0  0.00000000000E+00  0.00000000000E+00  0.14999999963E+04  0.15000000000E+04  0.10566000000E+00 0. -1.
        994   -1    0    0    0    0 -0.00000000000E+00 -0.00000000000E+00  0.11368683772E-12  0.17120000000E+03  0.17120000000E+03 0.  0.
         13    1    1    2    0    0 -0.13741786340E+03 -0.15603967818E+03  0.11121150109E+04  0.11313849296E+04  0.10566000000E+00 0. -1.
        994    1    1    2    0    0  0.14688362779E+03  0.17209655098E+03  0.19152815361E+03  0.34232221166E+03  0.17120000000E+03 0.  0.
        998    1    1    2    0    0 -0.94657643904E+01 -0.16056872797E+02  0.19635683178E+03  0.19749285872E+03  0.10000000000E+02 0.  1.
</event>
<event>
 5    1  0.5781797E-010  0.3863688E+03  0.7957747E-01  0.3423887E+00
         13   -1    0    0    0    0  0.00000000000E+00  0.00000000000E+00  0.14999999963E+04  0.15000000000E+04  0.10566000000E+00 0.  1.
        994   -1    0    0    0    0 -0.00000000000E+00 -0.00000000000E+00  0.11368683772E-12  0.17120000000E+03  0.17120000000E+03 0.  0.
         13    1    1    2    0    0  0.18013214670E+02 -0.10159159936E+02  0.12489097812E+03  0.12659167434E+03  0.10566000000E+00 0.  1.
        994    1    1    2    0    0 -0.43980651328E+02  0.80995544170E+02  0.29274941385E+02  0.19662410346E+03  0.17120000000E+03 0.  0.
        998    1    1    2    0    0  0.25967436659E+02 -0.70836384234E+02  0.13458340768E+04  0.13479842222E+04  0.10000000000E+02 0.  1.
</event>
<event>
 5    1  0.5781797E-010  0.3714899E+03  0.7957747E-01  0.3489072E+00
         13   -1    0    0    0    0  0.00000000000E+00  0.00000000000E+00  0.14999999963E+04  0.15000000000E+04  0.10566000000E+00 0.  1.
        994   -1    0    0    0    0 -0.00000000000E+00 -0.00000000000E+00  0.11368683772E-12  0.17120000000E+03  0.17120000000E+03 0.  0.
         13    1    1    2    0    0 -0.24258624604E+02  0.41443310459E+02  0.56680837746E+02  0.74288339469E+02  0.10566000000E+00 0.  1.
        994    1    1    2    0    0  0.11040718152E+03 -0.14884346178E+03  0.14443953766E+03  0.29071694462E+03  0.17120000000E+03 0.  0.
        998    1    1    2    0    0 -0.86148556918E+02  0.10740015132E+03  0.12988796209E+04  0.13061947159E+04  0.10000000000E+02 0.  1.
</event>
<event>
 5    1  0.5781797E-010  0.3845815E+03  0.7957747E-01  0.3431449E+00
         13   -1    0    0    0    0  0.00000000000E+00  0.00000000000E+00  0.14999999963E+04  0.15000000000E+04  0.10566000000E+00 0. -1.
        994   -1    0    0    0    0 -0.00000000000E+00 -0.00000000000E+00  0.11368683772E-12  0.17120000000E+03  0.17120000000E+03 0.  0.
         13    1    1    2    0    0 -0.24998440309E+01 -0.10598089619E+02  0.30625366733E+02  0.32503737866E+02  0.10566000000E+00 0. -1.
        994    1    1    2    0    0  0.69159878226E+02  0.31326420574E+01  0.17784298042E+02  0.18552256860E+03  0.17120000000E+03 0.  0.
        998    1    1    2    0    0 -0.66660034195E+02  0.74654475615E+01  0.14515903315E+04  0.14531736935E+04  0.10000000000E+02 0. -1.
</event>
<event>
 5    1  0.5781797E-010  0.3871648E+03  0.7957747E-01  0.3420542E+00
         13   -1    0    0    0    0  0.00000000000E+00  0.00000000000E+00  0.14999999963E+04  0.15000000000E+04  0.10566000000E+00 0.  1.
        994   -1    0    0    0    0 -0.00000000000E+00 -0.00000000000E+00  0.11368683772E-12  0.17120000000E+03  0.17120000000E+03 0.  0.
         13    1    1    2    0    0  0.15754018364E+03  0.26182193982E+02  0.21947955084E+03  0.27143268253E+03  0.10566000000E+00 0.  1.
        994    1    1    2    0    0 -0.32471098486E+03 -0.15389695602E+02  0.10651566329E+04  0.11267396146E+04  0.17120000000E+03 0.  0.
        998    1    1    2    0    0  0.16717080122E+03 -0.10792498381E+02  0.21536381249E+03  0.27302770287E+03  0.10000000000E+02 0.  1.
</event>
<event>
 5    1  0.5781797E-010  0.3879206E+03  0.7957747E-01  0.3417379E+00
         13   -1    0    0    0    0  0.00000000000E+00  0.00000000000E+00  0.14999999963E+04  0.15000000000E+04  0.10566000000E+00 0. -1.
        994   -1    0    0    0    0 -0.00000000000E+00 -0.00000000000E+00  0.11368683772E-12  0.17120000000E+03  0.17120000000E+03 0.  0.
         13    1    1    2    0    0 -0.58775334295E+01 -0.13381615092E+03  0.80324791769E+03  0.81433932490E+03  0.10566000000E+00 0. -1.
        994    1    1    2    0    0  0.13166338075E+02  0.23022917806E+03  0.19828901350E+03  0.34900830902E+03  0.17120000000E+03 0.  0.
        998    1    1    2    0    0 -0.72888046458E+01 -0.96413027137E+02  0.49846306509E+03  0.50785236608E+03  0.10000000000E+02 0.  0.
</event>
<event>
 5    1  0.5781797E-010  0.3830730E+03  0.7957747E-01  0.3437886E+00
         13   -1    0    0    0    0  0.00000000000E+00  0.00000000000E+00  0.14999999963E+04  0.15000000000E+04  0.10566000000E+00 0. -1.
        994   -1    0    0    0    0 -0.00000000000E+00 -0.00000000000E+00  0.11368683772E-12  0.17120000000E+03  0.17120000000E+03 0.  0.
         13    1    1    2    0    0 -0.42607431303E+00  0.12859397682E+02  0.21408945929E+02  0.24977985865E+02  0.10566000000E+00 0. -1.
        994    1    1    2    0    0 -0.35375531800E+02 -0.12176010345E+03  0.57750535653E+02  0.22072950734E+03  0.17120000000E+03 0.  0.
        998    1    1    2    0    0  0.35801606113E+02  0.10890070577E+03  0.14208405147E+04  0.14254925068E+04  0.10000000000E+02 0. -1.
</event>
<event>
 5    1  0.5781797E-010  0.3853440E+03  0.7957747E-01  0.3428215E+00
         13   -1    0    0    0    0  0.00000000000E+00  0.00000000000E+00  0.14999999963E+04  0.15000000000E+04  0.10566000000E+00 0. -1.
        994   -1    0    0    0    0 -0.00000000000E+00 -0.00000000000E+00  0.11368683772E-12  0.17120000000E+03  0.17120000000E+03 0.  0.
         13    1    1    2    0    0  0.43971548472E+02 -0.20315285959E+03  0.10244445009E+04  0.10453186729E+04  0.10566000000E+00 0. -1.
        994    1    1    2    0    0 -0.40996645952E+02  0.26437347928E+03  0.28959210227E+03  0.42982215767E+03  0.17120000000E+03 0.  0.
        998    1    1    2    0    0 -0.29749025196E+01 -0.61220619689E+02  0.18596339312E+03  0.19605916939E+03  0.10000000000E+02 0. -1.
</event>
<event>
 5    1  0.5781797E-010  0.3809093E+03  0.7957747E-01  0.3447209E+00
         13   -1    0    0    0    0  0.00000000000E+00  0.00000000000E+00  0.14999999963E+04  0.15000000000E+04  0.10566000000E+00 0. -1.
        994   -1    0    0    0    0 -0.00000000000E+00 -0.00000000000E+00  0.11368683772E-12  0.17120000000E+03  0.17120000000E+03 0.  0.
         13    1    1    2    0    0 -0.60126580278E+01 -0.11529087963E+03  0.24220726759E+03  0.26831420131E+03  0.10566000000E+00 0. -1.
        994    1    1    2    0    0  0.41924644155E+02  0.30352003396E+03  0.43978864116E+03  0.56267715050E+03  0.17120000000E+03 0.  0.
        998    1    1    2    0    0 -0.35911986128E+02 -0.18822915433E+03  0.81800408753E+03  0.84020864819E+03  0.10000000000E+02 0. -1.
</event>
<event>
 5    1  0.5781797E-010  0.3731731E+03  0.7957747E-01  0.3481434E+00
         13   -1    0    0    0    0  0.00000000000E+00  0.00000000000E+00  0.14999999963E+04  0.15000000000E+04  0.10566000000E+00 0. -1.
        994   -1    0    0    0    0 -0.00000000000E+00 -0.00000000000E+00  0.11368683772E-12  0.17120000000E+03  0.17120000000E+03 0.  0.
         13    1    1    2    0    0  0.24871857823E+02 -0.19816090972E+02  0.11906698656E+03  0.12324059893E+03  0.10566000000E+00 0. -1.
        994    1    1    2    0    0  0.50222773894E+02 -0.11310750259E+03  0.61964432620E+02  0.22014691701E+03  0.17120000000E+03 0.  0.
        998    1    1    2    0    0 -0.75094631717E+02  0.13292359356E+03  0.13189685771E+04  0.13278124841E+04  0.10000000000E+02 0. -1.
</event>
<event>
 5    1  0.5781797E-010  0.3869444E+03  0.7957747E-01  0.3421467E+00
         13   -1    0    0    0    0  0.00000000000E+00  0.00000000000E+00  0.14999999963E+04  0.15000000000E+04  0.10566000000E+00 0.  1.
        994   -1    0    0    0    0 -0.00000000000E+00 -0.00000000000E+00  0.11368683772E-12  0.17120000000E+03  0.17120000000E+03 0.  0.
         13    1    1    2    0    0 -0.73491469009E+02 -0.28276367560E+03  0.10190574363E+04  0.10601105423E+04  0.10566000000E+00 0.  1.
        994    1    1    2    0    0  0.76018210168E+02  0.29661800123E+03  0.41742374098E+03  0.54526418043E+03  0.17120000000E+03 0.  0.
        998    1    1    2    0    0 -0.25267411588E+01 -0.13854325638E+02  0.63518818992E+02  0.65825277256E+02  0.10000000000E+02 0.  0.
</event>
<event>
 5    1  0.5781797E-010  0.3869001E+03  0.7957747E-01  0.3421654E+00
         13   -1    0    0    0    0  0.00000000000E+00  0.00000000000E+00  0.14999999963E+04  0.15000000000E+04  0.10566000000E+00 0.  1.
        994   -1    0    0    0    0 -0.00000000000E+00 -0.00000000000E+00  0.11368683772E-12  0.17120000000E+03  0.17120000000E+03 0.  0.
         13    1    1    2    0    0  0.55115320469E+02  0.19681536550E+03  0.10910346825E+04  0.11100138181E+04  0.10566000000E+00 0.  1.
        994    1    1    2    0    0 -0.51170089007E+02 -0.23748404646E+03  0.22578058333E+03  0.37323365623E+03  0.17120000000E+03 0.  0.
        998    1    1    2    0    0 -0.39452314615E+01  0.40668680961E+02  0.18318473040E+03  0.18795252569E+03  0.10000000000E+02 0.  1.
</event>
<event>
 5    1  0.5781797E-010  0.3874698E+03  0.7957747E-01  0.3419265E+00
         13   -1    0    0    0    0  0.00000000000E+00  0.00000000000E+00  0.14999999963E+04  0.15000000000E+04  0.10566000000E+00 0. -1.
        994   -1    0    0    0    0 -0.00000000000E+00 -0.00000000000E+00  0.11368683772E-12  0.17120000000E+03  0.17120000000E+03 0.  0.
         13    1    1    2    0    0 -0.28887084446E+03  0.71084292259E+02  0.64267900668E+03  0.70819182301E+03  0.10566000000E+00 0. -1.
        994    1    1    2    0    0  0.33812490007E+03 -0.76449472207E+02  0.73095342491E+03  0.82690708018E+03  0.17120000000E+03 0.  0.
        998    1    1    2    0    0 -0.49254055614E+02  0.53651799484E+01  0.12636756469E+03  0.13610109682E+03  0.10000000000E+02 0.  0.
</event>
<event>
 5    1  0.5781797E-010  0.3835361E+03  0.7957747E-01  0.3435905E+00
         13   -1    0    0    0    0  0.00000000000E+00  0.00000000000E+00  0.14999999963E+04  0.15000000000E+04  0.10566000000E+00 0.  1.
        994   -1    0    0    0    0 -0.00000000000E+00 -0.00000000000E+00  0.11368683772E-12  0.17120000000E+03  0.17120000000E+03 0.  0.
         13    1    1    2    0    0  0.18467738585E+03 -0.20282116486E+03  0.11221441050E+04  0.11551837799E+04  0.10566000000E+00 0.  1.
        994    1    1    2    0    0 -0.17982597511E+03  0.21605495450E+03  0.33417607226E+03  0.46904180193E+03  0.17120000000E+03 0.  0.
        998    1    1    2    0    0 -0.48514107325E+01 -0.13233789638E+02  0.43679819041E+02  0.46974418206E+02  0.10000000000E+02 0.  1.
</event>
<event>
 5    1  0.5781797E-010  0.3867921E+03  0.7957747E-01  0.3422107E+00
         13   -1    0    0    0    0  0.00000000000E+00  0.00000000000E+00  0.14999999963E+04  0.15000000000E+04  0.10566000000E+00 0.  1.
        994   -1    0    0    0    0 -0.00000000000E+00 -0.00000000000E+00  0.11368683772E-12  0.17120000000E+03  0.17120000000E+03 0.  0.
         13    1    1    2    0    0  0.12283869223E+03  0.48542914617E+02  0.65445971311E+03  0.66765506522E+03  0.10566000000E+00 0.  1.
        994    1    1    2    0    0 -0.22181557196E+03 -0.13285531374E+03  0.26306627745E+03  0.40665217162E+03  0.17120000000E+03 0.  0.
        998    1    1    2    0    0  0.98976879737E+02  0.84312399124E+02  0.58247400572E+03  0.59689276315E+03  0.10000000000E+02 0.  1.
</event>
<event>
 5    1  0.7414135E-010  0.3853241E+03  0.7957747E-01  0.3428299E+00
         13   -1    0    0    0    0  0.00000000000E+00  0.00000000000E+00  0.14999999963E+04  0.15000000000E+04  0.10566000000E+00 0. -1.
        994   -1    0    0    0    0 -0.00000000000E+00 -0.00000000000E+00  0.11368683772E-12  0.17120000000E+03  0.17120000000E+03 0.  0.
         13    1    1    2    0    0 -0.10521359145E+02 -0.22484058402E+01  0.49498872647E+02  0.50654751845E+02  0.10566000000E+00 0. -1.
        994    1    1    2    0    0 -0.19041489047E+02 -0.46122339055E+02  0.96921025382E+01  0.17858674452E+03  0.17120000000E+03 0.  0.
        998    1    1    2    0    0  0.29562848192E+02  0.48370744895E+02  0.14408090211E+04  0.14419585036E+04  0.10000000000E+02 0. -1.
</event>
<event>
 5    1  0.5781797E-010  0.3835933E+03  0.7957747E-01  0.3435660E+00
         13   -1    0    0    0    0  0.00000000000E+00  0.00000000000E+00  0.14999999963E+04  0.15000000000E+04  0.10566000000E+00 0.  1.
        994   -1    0    0    0    0 -0.00000000000E+00 -0.00000000000E+00  0.11368683772E-12  0.17120000000E+03  0.17120000000E+03 0.  0.
         13    1    1    2    0    0 -0.68114027908E+02  0.61186595165E+02  0.46681435495E+03  0.47570891665E+03  0.10566000000E+00 0.  1.
        994    1    1    2    0    0  0.10338600857E+03 -0.12477537906E+03  0.94536905335E+02  0.25397682662E+03  0.17120000000E+03 0.  0.
        998    1    1    2    0    0 -0.35271980666E+02  0.63588783892E+02  0.93864873599E+03  0.94151425673E+03  0.10000000000E+02 0.  1.
</event>
<event>
 5    1  0.5781797E-010  0.3825894E+03  0.7957747E-01  0.3439960E+00
         13   -1    0    0    0    0  0.00000000000E+00  0.00000000000E+00  0.14999999963E+04  0.15000000000E+04  0.10566000000E+00 0. -1.
        994   -1    0    0    0    0 -0.00000000000E+00 -0.00000000000E+00  0.11368683772E-12  0.17120000000E+03  0.17120000000E+03 0.  0.
         13    1    1    2    0    0  0.65424867576E+01  0.78876027724E+01  0.11815591057E+02  0.15640900438E+02  0.10566000000E+00 0. -1.
        994    1    1    2    0    0 -0.74478639071E+02 -0.12253899581E+03  0.74276533513E+02  0.23534935012E+03  0.17120000000E+03 0.  0.
        998    1    1    2    0    0  0.67936152313E+02  0.11465139304E+03  0.14139078717E+04  0.14202097494E+04  0.10000000000E+02 0. -1.
</event>
<event>
 5    1  0.5781797E-010  0.3881550E+03  0.7957747E-01  0.3416401E+00
         13   -1    0    0    0    0  0.00000000000E+00  0.00000000000E+00  0.14999999963E+04  0.15000000000E+04  0.10566000000E+00 0.  1.
        994   -1    0    0    0    0 -0.00000000000E+00 -0.00000000000E+00  0.11368683772E-12  0.17120000000E+03  0.17120000000E+03 0.  0.
         13    1    1    2    0    0  0.12730591430E+03 -0.49773318331E+02  0.53976881546E+03  0.55680747512E+03  0.10566000000E+00 0.  1.
        994    1    1    2    0    0 -0.27359540269E+03  0.10489643166E+03  0.36286396959E+03  0.49682734041E+03  0.17120000000E+03 0.  0.
        998    1    1    2    0    0  0.14628948839E+03 -0.55123113333E+02  0.59736721122E+03  0.61756518448E+03  0.10000000000E+02 0.  0.
</event>
<event>
 5    1  0.5781797E-010  0.3857927E+03  0.7957747E-01  0.3426317E+00
         13   -1    0    0    0    0  0.00000000000E+00  0.00000000000E+00  0.14999999963E+04  0.15000000000E+04  0.10566000000E+00 0.  1.
        994   -1    0    0    0    0 -0.00000000000E+00 -0.00000000000E+00  0.11368683772E-12  0.17120000000E+03  0.17120000000E+03 0.  0.
         13    1    1    2    0    0 -0.15131004294E+02 -0.22569104946E+02  0.15533145361E+03  0.15769015008E+03  0.10566000000E+00 0.  1.
        994    1    1    2    0    0  0.13397811195E+03  0.36038575555E+02  0.67147719050E+02  0.23036312549E+03  0.17120000000E+03 0.  0.
        998    1    1    2    0    0 -0.11884710766E+03 -0.13469470609E+02  0.12775208236E+04  0.12831467244E+04  0.10000000000E+02 0.  1.
</event>
<event>
 5    1  0.5781797E-010  0.3873183E+03  0.7957747E-01  0.3419899E+00
         13   -1    0    0    0    0  0.00000000000E+00  0.00000000000E+00  0.14999999963E+04  0.15000000000E+04  0.10566000000E+00 0. -1.
        994   -1    0    0    0    0 -0.00000000000E+00 -0.00000000000E+00  0.11368683772E-12  0.17120000000E+03  0.17120000000E+03 0.  0.
         13    1    1    2    0    0 -0.10617784818E+03  0.68603017827E+01  0.60146341337E+03  0.61080197116E+03  0.10566000000E+00 0. -1.
        994    1    1    2    0    0  0.20227552857E+03 -0.33447407231E+02  0.15231691116E+03  0.30748008055E+03  0.17120000000E+03 0.  0.
        998    1    1    2    0    0 -0.96097680389E+02  0.26587105448E+02  0.74621967175E+03  0.75291794829E+03  0.10000000000E+02 0.  1.
</event>
<event>
 5    1  0.5781797E-010  0.3758959E+03  0.7957747E-01  0.3469226E+00
         13   -1    0    0    0    0  0.00000000000E+00  0.00000000000E+00  0.14999999963E+04  0.15000000000E+04  0.10566000000E+00 0. -1.
        994   -1    0    0    0    0 -0.00000000000E+00 -0.00000000000E+00  0.11368683772E-12  0.17120000000E+03  0.17120000000E+03 0.  0.
         13    1    1    2    0    0  0.19050085198E+02  0.77212961097E+01  0.42983156579E+02  0.47645430769E+02  0.10566000000E+00 0. -1.
        994    1    1    2    0    0  0.95496455767E+02  0.11495616405E+01  0.37784803285E+02  0.19964474928E+03  0.17120000000E+03 0.  0.
        998    1    1    2    0    0 -0.11454654097E+03 -0.88708577502E+01  0.14192320364E+04  0.14239098200E+04  0.10000000000E+02 0. -1.
</event>
<event>
 5    1  0.5781797E-010  0.3785394E+03  0.7957747E-01  0.3457543E+00
         13   -1    0    0    0    0  0.00000000000E+00  0.00000000000E+00  0.14999999963E+04  0.15000000000E+04  0.10566000000E+00 0.  1.
        994   -1    0    0    0    0 -0.00000000000E+00 -0.00000000000E+00  0.11368683772E-12  0.17120000000E+03  0.17120000000E+03 0.  0.
         13    1    1    2    0    0  0.34417083300E+02 -0.30590728299E+01  0.90043168924E+02  0.96445201972E+02  0.10566000000E+00 0.  1.
        994    1    1    2    0    0 -0.10363734844E+03 -0.11925283817E+03  0.93895254316E+02  0.25117264617E+03  0.17120000000E+03 0.  0.
        998    1    1    2    0    0  0.69220265143E+02  0.12231191100E+03  0.13160615730E+04  0.13235821519E+04  0.10000000000E+02 0.  1.
</event>
<event>
 5    1  0.5781797E-010  0.3824020E+03  0.7957747E-01  0.3440766E+00
         13   -1    0    0    0    0  0.00000000000E+00  0.00000000000E+00  0.14999999963E+04  0.15000000000E+04  0.10566000000E+00 0.  1.
        994   -1    0    0    0    0 -0.00000000000E+00 -0.00000000000E+00  0.11368683772E-12  0.17120000000E+03  0.17120000000E+03 0.  0.
         13    1    1    2    0    0  0.34595204729E+01 -0.15573033710E+02  0.71259616247E+02  0.73023501235E+02  0.10566000000E+00 0.  1.
        994    1    1    2    0    0  0.33806715267E+02 -0.76557774293E+02  0.26513303397E+02  0.19239641904E+03  0.17120000000E+03 0.  0.
        998    1    1    2    0    0 -0.37266235740E+02  0.92130808003E+02  0.14022270766E+04  0.14057800797E+04  0.10000000000E+02 0.  1.
</event>
