<event>
 5    1  0.1072898E-008  0.3836439E+03  0.7957747E-01  0.3435444E+00
         13   -1    0    0    0    0  0.00000000000E+00  0.00000000000E+00  0.14999999963E+04  0.15000000000E+04  0.10566000000E+00 0.  1.
        994   -1    0    0    0    0 -0.00000000000E+00 -0.00000000000E+00  0.11368683772E-12  0.17120000000E+03  0.17120000000E+03 0.  0.
         13    1    1    2    0    0 -0.69871947388E+00  0.16025759301E+02  0.57127149810E+02  0.59336629324E+02  0.10566000000E+00 0.  1.
        994    1    1    2    0    0  0.92479751656E+01 -0.36395980015E+01  0.26312339115E+01  0.17150841119E+03  0.17120000000E+03 0.  0.
        998    1    1    2    0    0 -0.85492556918E+01 -0.12386161299E+02  0.14402416126E+04  0.14403549595E+04  0.10000000000E+02 0.  1.
</event>
<event>
 5    1  0.1072898E-008  0.3808481E+03  0.7957747E-01  0.3447474E+00
         13   -1    0    0    0    0  0.00000000000E+00  0.00000000000E+00  0.14999999963E+04  0.15000000000E+04  0.10566000000E+00 0.  1.
        994   -1    0    0    0    0 -0.00000000000E+00 -0.00000000000E+00  0.11368683772E-12  0.17120000000E+03  0.17120000000E+03 0.  0.
         13    1    1    2    0    0  0.94710287393E+01 -0.12041047175E+02  0.29222128689E+02  0.32994411218E+02  0.10566000000E+00 0.  1.
        994    1    1    2    0    0 -0.10800177779E+02  0.18356952343E+02  0.52192812752E+01  0.17259867449E+03  0.17120000000E+03 0.  0.
        998    1    1    2    0    0  0.13291490393E+01 -0.63159051681E+01  0.14655585863E+04  0.14656069143E+04  0.10000000000E+02 0.  1.
</event>
<event>
 5    1  0.1072898E-008  0.3858991E+03  0.7957747E-01  0.3425868E+00
         13   -1    0    0    0    0  0.00000000000E+00  0.00000000000E+00  0.14999999963E+04  0.15000000000E+04  0.10566000000E+00 0.  1.
        994   -1    0    0    0    0 -0.00000000000E+00 -0.00000000000E+00  0.11368683772E-12  0.17120000000E+03  0.17120000000E+03 0.  0.
         13    1    1    2    0    0  0.11025526503E+02 -0.52593057488E+01  0.60113213768E+02  0.61341928280E+02  0.10566000000E+00 0.  1.
        994    1    1    2    0    0 -0.15060848832E+02  0.61951723810E+01  0.20545398955E+01  0.17198508791E+03  0.17120000000E+03 0.  0.
        998    1    1    2    0    0  0.40353223293E+01 -0.93586663216E+00  0.14378322426E+04  0.14378729838E+04  0.10000000000E+02 0.  1.
</event>
<event>
 5    1  0.1072898E-008  0.3848838E+03  0.7957747E-01  0.3430165E+00
         13   -1    0    0    0    0  0.00000000000E+00  0.00000000000E+00  0.14999999963E+04  0.15000000000E+04  0.10566000000E+00 0. -1.
        994   -1    0    0    0    0 -0.00000000000E+00 -0.00000000000E+00  0.11368683772E-12  0.17120000000E+03  0.17120000000E+03 0.  0.
         13    1    1    2    0    0 -0.18573115977E+02  0.29626871979E+01  0.11126547460E+03  0.11284394160E+03  0.10566000000E+00 0. -1.
        994    1    1    2    0    0  0.70917995888E+01  0.12810025110E+02  0.23934544478E+01  0.17184166837E+03  0.17120000000E+03 0.  0.
        998    1    1    2    0    0  0.11481316388E+02 -0.15772712308E+02  0.13863410672E+04  0.13865143900E+04  0.10000000000E+02 0. -1.
</event>
<event>
 5    1  0.1072898E-008  0.3306265E+03  0.7957747E-01  0.3699042E+00
         13   -1    0    0    0    0  0.00000000000E+00  0.00000000000E+00  0.14999999963E+04  0.15000000000E+04  0.10566000000E+00 0.  1.
        994   -1    0    0    0    0 -0.00000000000E+00 -0.00000000000E+00  0.11368683772E-12  0.17120000000E+03  0.17120000000E+03 0.  0.
         13    1    1    2    0    0 -0.17123212904E+03  0.10176885647E+02  0.10189734322E+04  0.10333106395E+04  0.10566000000E+00 0.  1.
        994    1    1    2    0    0  0.98939615964E+02 -0.17059702146E+02  0.55481891640E+02  0.20607707622E+03  0.17120000000E+03 0.  0.
        998    1    1    2    0    0  0.72292513075E+02  0.68828164986E+01  0.42554467248E+03  0.43181228432E+03  0.10000000000E+02 0.  1.
</event>
<event>
 5    1  0.1072898E-008  0.3768602E+03  0.7957747E-01  0.3464945E+00
         13   -1    0    0    0    0  0.00000000000E+00  0.00000000000E+00  0.14999999963E+04  0.15000000000E+04  0.10566000000E+00 0.  1.
        994   -1    0    0    0    0 -0.00000000000E+00 -0.00000000000E+00  0.11368683772E-12  0.17120000000E+03  0.17120000000E+03 0.  0.
         13    1    1    2    0    0 -0.89426007879E+01 -0.15324245787E+02  0.24911578487E+02  0.30584318278E+02  0.10566000000E+00 0.  1.
        994    1    1    2    0    0  0.90286192666E+01  0.12157237610E+02  0.65015494550E+01  0.17199135018E+03  0.17120000000E+03 0.  0.
        998    1    1    2    0    0 -0.86018478740E-01  0.31670081763E+01  0.14685868683E+04  0.14686243315E+04  0.10000000000E+02 0.  1.
</event>
<event>
 5    1  0.1072898E-008  0.3755831E+03  0.7957747E-01  0.3470619E+00
         13   -1    0    0    0    0  0.00000000000E+00  0.00000000000E+00  0.14999999963E+04  0.15000000000E+04  0.10566000000E+00 0. -1.
        994   -1    0    0    0    0 -0.00000000000E+00 -0.00000000000E+00  0.11368683772E-12  0.17120000000E+03  0.17120000000E+03 0.  0.
         13    1    1    2    0    0  0.15027151831E+02  0.87979969372E+01  0.20439423775E+02  0.26851466451E+02  0.10566000000E+00 0. -1.
        994    1    1    2    0    0 -0.19105040996E+02 -0.14782957917E+02  0.83617925760E+01  0.17309794341E+03  0.17120000000E+03 0.  0.
        998    1    1    2    0    0  0.40778891649E+01  0.59849609799E+01  0.14711987799E+04  0.14712505901E+04  0.10000000000E+02 0. -1.
</event>
<event>
 5    1  0.1072898E-008  0.4087147E+03  0.7957747E-01  0.3334928E+00
         13   -1    0    0    0    0  0.00000000000E+00  0.00000000000E+00  0.14999999963E+04  0.15000000000E+04  0.10566000000E+00 0. -1.
        994   -1    0    0    0    0 -0.00000000000E+00 -0.00000000000E+00  0.11368683772E-12  0.17120000000E+03  0.17120000000E+03 0.  0.
         13    1    1    2    0    0 -0.81606997009E+01 -0.60096396750E+02  0.39834729768E+02  0.72560256213E+02  0.10566000000E+00 0. -1.
        994    1    1    2    0    0  0.20308655231E+02  0.82431748800E+02  0.63005307115E+02  0.20121268204E+03  0.17120000000E+03 0.  0.
        998    1    1    2    0    0 -0.12147955530E+02 -0.22335352050E+02  0.13971599594E+04  0.13974270618E+04  0.10000000000E+02 0. -1.
</event>
<event>
 5    1  0.1072898E-008  0.3700447E+03  0.7957747E-01  0.3495686E+00
         13   -1    0    0    0    0  0.00000000000E+00  0.00000000000E+00  0.14999999963E+04  0.15000000000E+04  0.10566000000E+00 0.  1.
        994   -1    0    0    0    0 -0.00000000000E+00 -0.00000000000E+00  0.11368683772E-12  0.17120000000E+03  0.17120000000E+03 0.  0.
         13    1    1    2    0    0 -0.81439267924E+01 -0.16151196831E+02  0.13681872078E+02  0.22680156310E+02  0.10566000000E+00 0.  1.
        994    1    1    2    0    0  0.80241650230E+01  0.91509371138E+01  0.97579755004E+01  0.17190923466E+03  0.17120000000E+03 0.  0.
        998    1    1    2    0    0  0.11976176943E+00  0.70002597171E+01  0.14765601487E+04  0.14766106090E+04  0.10000000000E+02 0.  1.
</event>
<event>
 5    1  0.1072898E-008  0.3727856E+03  0.7957747E-01  0.3483186E+00
         13   -1    0    0    0    0  0.00000000000E+00  0.00000000000E+00  0.14999999963E+04  0.15000000000E+04  0.10566000000E+00 0.  1.
        994   -1    0    0    0    0 -0.00000000000E+00 -0.00000000000E+00  0.11368683772E-12  0.17120000000E+03  0.17120000000E+03 0.  0.
         13    1    1    2    0    0 -0.58660916243E+02 -0.10299978359E+03  0.59956326340E+03  0.61116787915E+03  0.10566000000E+00 0.  1.
        994    1    1    2    0    0  0.32284748904E+02  0.54176545579E+02  0.26597257428E+02  0.18437531615E+03  0.17120000000E+03 0.  0.
        998    1    1    2    0    0  0.26376167339E+02  0.48823238009E+02  0.87383947545E+03  0.87565680471E+03  0.10000000000E+02 0. -1.
</event>
<event>
 5    1  0.1072898E-008  0.3774753E+03  0.7957747E-01  0.3462226E+00
         13   -1    0    0    0    0  0.00000000000E+00  0.00000000000E+00  0.14999999963E+04  0.15000000000E+04  0.10566000000E+00 0. -1.
        994   -1    0    0    0    0 -0.00000000000E+00 -0.00000000000E+00  0.11368683772E-12  0.17120000000E+03  0.17120000000E+03 0.  0.
         13    1    1    2    0    0 -0.11792020846E+02 -0.13473644934E+02  0.27132669096E+02  0.32508210652E+02  0.10566000000E+00 0. -1.
        994    1    1    2    0    0  0.11002458606E+02  0.11086002380E+02  0.62358514613E+01  0.17202406630E+03  0.17120000000E+03 0.  0.
        998    1    1    2    0    0  0.78956224032E+00  0.23876425543E+01  0.14666314757E+04  0.14666677230E+04  0.10000000000E+02 0. -1.
</event>
<event>
 5    1  0.1072898E-008  0.4230903E+03  0.7957747E-01  0.3282621E+00
         13   -1    0    0    0    0  0.00000000000E+00  0.00000000000E+00  0.14999999963E+04  0.15000000000E+04  0.10566000000E+00 0.  1.
        994   -1    0    0    0    0 -0.00000000000E+00 -0.00000000000E+00  0.11368683772E-12  0.17120000000E+03  0.17120000000E+03 0.  0.
         13    1    1    2    0    0 -0.26330106031E+02  0.64178325560E+02  0.42267963163E+02  0.81232529379E+02  0.10566000000E+00 0.  1.
        994    1    1    2    0    0  0.23665720379E+02 -0.58671967220E+02  0.59910499107E+02  0.19209678280E+03  0.17120000000E+03 0.  0.
        998    1    1    2    0    0  0.26643856522E+01 -0.55063583406E+01  0.13978215340E+04  0.13978706878E+04  0.10000000000E+02 0.  1.
</event>
<event>
 5    1  0.1072898E-008  0.3776852E+03  0.7957747E-01  0.3461300E+00
         13   -1    0    0    0    0  0.00000000000E+00  0.00000000000E+00  0.14999999963E+04  0.15000000000E+04  0.10566000000E+00 0.  1.
        994   -1    0    0    0    0 -0.00000000000E+00 -0.00000000000E+00  0.11368683772E-12  0.17120000000E+03  0.17120000000E+03 0.  0.
         13    1    1    2    0    0 -0.68709209110E+02 -0.47937234190E+02  0.42268307215E+03  0.43090593461E+03  0.10566000000E+00 0.  1.
        994    1    1    2    0    0  0.84927893337E+02  0.42796159501E+02  0.36406059603E+02  0.19919613327E+03  0.17120000000E+03 0.  0.
        998    1    1    2    0    0 -0.16218684227E+02  0.51410746895E+01  0.10409108645E+04  0.10410979321E+04  0.10000000000E+02 0.  1.
</event>
<event>
 5    1  0.1072898E-008  0.3783402E+03  0.7957747E-01  0.3458417E+00
         13   -1    0    0    0    0  0.00000000000E+00  0.00000000000E+00  0.14999999963E+04  0.15000000000E+04  0.10566000000E+00 0.  1.
        994   -1    0    0    0    0 -0.00000000000E+00 -0.00000000000E+00  0.11368683772E-12  0.17120000000E+03  0.17120000000E+03 0.  0.
         13    1    1    2    0    0  0.21382398147E+02 -0.25486963866E+02  0.10148390423E+03  0.10679787573E+03  0.10566000000E+00 0.  1.
        994    1    1    2    0    0 -0.20020362643E+02  0.30436458018E+02  0.94474608398E+01  0.17528801275E+03  0.17120000000E+03 0.  0.
        998    1    1    2    0    0 -0.13620355043E+01 -0.49494941516E+01  0.13890686312E+04  0.13891141115E+04  0.10000000000E+02 0.  1.
</event>
<event>
 5    1  0.1072898E-008  0.3826062E+03  0.7957747E-01  0.3439888E+00
         13   -1    0    0    0    0  0.00000000000E+00  0.00000000000E+00  0.14999999963E+04  0.15000000000E+04  0.10566000000E+00 0.  1.
        994   -1    0    0    0    0 -0.00000000000E+00 -0.00000000000E+00  0.11368683772E-12  0.17120000000E+03  0.17120000000E+03 0.  0.
         13    1    1    2    0    0 -0.12121233393E+02  0.18005800600E+02  0.86193684771E+02  0.88884732169E+02  0.10566000000E+00 0.  1.
        994    1    1    2    0    0  0.78974592230E+01 -0.20830236434E+01  0.30444124035E+01  0.17142175269E+03  0.17120000000E+03 0.  0.
        998    1    1    2    0    0  0.42237741700E+01 -0.15922776957E+02  0.14107618991E+04  0.14108935151E+04  0.10000000000E+02 0.  1.
</event>
<event>
 5    1  0.1072898E-008  0.3851748E+03  0.7957747E-01  0.3428931E+00
         13   -1    0    0    0    0  0.00000000000E+00  0.00000000000E+00  0.14999999963E+04  0.15000000000E+04  0.10566000000E+00 0.  1.
        994   -1    0    0    0    0 -0.00000000000E+00 -0.00000000000E+00  0.11368683772E-12  0.17120000000E+03  0.17120000000E+03 0.  0.
         13    1    1    2    0    0 -0.18109073444E+02 -0.21163578707E+01  0.10374354375E+03  0.10533352527E+03  0.10566000000E+00 0.  1.
        994    1    1    2    0    0  0.15221177146E+02  0.12903146731E+02  0.28531899909E+01  0.17238258648E+03  0.17120000000E+03 0.  0.
        998    1    1    2    0    0  0.28878962976E+01 -0.10786788861E+02  0.13934032625E+04  0.13934838882E+04  0.10000000000E+02 0.  1.
</event>
<event>
 5    1  0.1072898E-008  0.3744892E+03  0.7957747E-01  0.3475510E+00
         13   -1    0    0    0    0  0.00000000000E+00  0.00000000000E+00  0.14999999963E+04  0.15000000000E+04  0.10566000000E+00 0. -1.
        994   -1    0    0    0    0 -0.00000000000E+00 -0.00000000000E+00  0.11368683772E-12  0.17120000000E+03  0.17120000000E+03 0.  0.
         13    1    1    2    0    0  0.15893464955E+01 -0.15429779695E+02  0.14112821981E+02  0.20971099924E+02  0.10566000000E+00 0. -1.
        994    1    1    2    0    0 -0.36800221071E+01  0.15908308144E+02  0.78496148077E+01  0.17215595628E+03  0.17120000000E+03 0.  0.
        998    1    1    2    0    0  0.20906756115E+01 -0.47852844936E+00  0.14780375595E+04  0.14780729438E+04  0.10000000000E+02 0. -1.
</event>
<event>
 5    1  0.1072898E-008  0.3811004E+03  0.7957747E-01  0.3446381E+00
         13   -1    0    0    0    0  0.00000000000E+00  0.00000000000E+00  0.14999999963E+04  0.15000000000E+04  0.10566000000E+00 0.  1.
        994   -1    0    0    0    0 -0.00000000000E+00 -0.00000000000E+00  0.11368683772E-12  0.17120000000E+03  0.17120000000E+03 0.  0.
         13    1    1    2    0    0 -0.87959904068E+01 -0.32693975793E+02  0.15776077218E+03  0.16135283668E+03  0.10566000000E+00 0.  1.
        994    1    1    2    0    0  0.14377135059E+02  0.17967930630E+02  0.53445236393E+01  0.17282231475E+03  0.17120000000E+03 0.  0.
        998    1    1    2    0    0 -0.55811446519E+01  0.14726045162E+02  0.13368947005E+04  0.13370248486E+04  0.10000000000E+02 0.  1.
</event>
<event>
 5    1  0.1072898E-008  0.3753364E+03  0.7957747E-01  0.3471720E+00
         13   -1    0    0    0    0  0.00000000000E+00  0.00000000000E+00  0.14999999963E+04  0.15000000000E+04  0.10566000000E+00 0.  1.
        994   -1    0    0    0    0 -0.00000000000E+00 -0.00000000000E+00  0.11368683772E-12  0.17120000000E+03  0.17120000000E+03 0.  0.
         13    1    1    2    0    0  0.29478925476E+02 -0.14051240044E+03  0.44234432418E+03  0.46506048426E+03  0.10566000000E+00 0.  1.
        994    1    1    2    0    0 -0.72120143190E+02  0.14691335133E+03  0.11650116273E+03  0.26394470779E+03  0.17120000000E+03 0.  0.
        998    1    1    2    0    0  0.42641217714E+02 -0.64009508945E+01  0.94115450937E+03  0.94219480795E+03  0.10000000000E+02 0. -1.
</event>
<event>
 5    1  0.1072898E-008  0.3829522E+03  0.7957747E-01  0.3438404E+00
         13   -1    0    0    0    0  0.00000000000E+00  0.00000000000E+00  0.14999999963E+04  0.15000000000E+04  0.10566000000E+00 0.  1.
        994   -1    0    0    0    0 -0.00000000000E+00 -0.00000000000E+00  0.11368683772E-12  0.17120000000E+03  0.17120000000E+03 0.  0.
         13    1    1    2    0    0 -0.12618605535E+02 -0.28961918490E+02  0.17243929176E+03  0.17530927652E+03  0.10566000000E+00 0.  1.
        994    1    1    2    0    0 -0.18207116130E+01  0.32578887300E+02  0.61830835172E+01  0.17439142585E+03  0.17120000000E+03 0.  0.
        998    1    1    2    0    0  0.14439317148E+02 -0.36169688095E+01  0.13213776210E+04  0.13214992976E+04  0.10000000000E+02 0.  1.
</event>
<event>
 5    1  0.1072898E-008  0.3712888E+03  0.7957747E-01  0.3489989E+00
         13   -1    0    0    0    0  0.00000000000E+00  0.00000000000E+00  0.14999999963E+04  0.15000000000E+04  0.10566000000E+00 0. -1.
        994   -1    0    0    0    0 -0.00000000000E+00 -0.00000000000E+00  0.11368683772E-12  0.17120000000E+03  0.17120000000E+03 0.  0.
         13    1    1    2    0    0 -0.54514860801E+02 -0.24812728807E+02  0.25533045338E+03  0.26226168829E+03  0.10566000000E+00 0. -1.
        994    1    1    2    0    0  0.41271082129E+01 -0.68604326372E+01  0.88176582556E+01  0.17161378049E+03  0.17120000000E+03 0.  0.
        998    1    1    2    0    0  0.50387752589E+02  0.31673161444E+02  0.12358518846E+04  0.12373245312E+04  0.10000000000E+02 0. -1.
</event>
<event>
 5    1  0.1072898E-008  0.3747391E+03  0.7957747E-01  0.3474390E+00
         13   -1    0    0    0    0  0.00000000000E+00  0.00000000000E+00  0.14999999963E+04  0.15000000000E+04  0.10566000000E+00 0.  1.
        994   -1    0    0    0    0 -0.00000000000E+00 -0.00000000000E+00  0.11368683772E-12  0.17120000000E+03  0.17120000000E+03 0.  0.
         13    1    1    2    0    0 -0.77532460314E+02  0.25014625650E+01  0.30034267936E+03  0.31019876841E+03  0.10566000000E+00 0.  1.
        994    1    1    2    0    0  0.97593563123E+02 -0.21887477270E+01  0.39958286948E+02  0.20108555114E+03  0.17120000000E+03 0.  0.
        998    1    1    2    0    0 -0.20061102809E+02 -0.31271483807E+00  0.11596990300E+04  0.11599156805E+04  0.10000000000E+02 0.  1.
</event>
<event>
 5    1  0.1072898E-008  0.3792153E+03  0.7957747E-01  0.3454582E+00
         13   -1    0    0    0    0  0.00000000000E+00  0.00000000000E+00  0.14999999963E+04  0.15000000000E+04  0.10566000000E+00 0.  1.
        994   -1    0    0    0    0 -0.00000000000E+00 -0.00000000000E+00  0.11368683772E-12  0.17120000000E+03  0.17120000000E+03 0.  0.
         13    1    1    2    0    0 -0.31146404339E+02 -0.21112680760E+02  0.16473175735E+03  0.16897457453E+03  0.10566000000E+00 0.  1.
        994    1    1    2    0    0 -0.22594034919E+01  0.26375600809E+02  0.68820551590E+01  0.17337121995E+03  0.17120000000E+03 0.  0.
        998    1    1    2    0    0  0.33405807831E+02 -0.52629200483E+01  0.13283861838E+04  0.13288542055E+04  0.10000000000E+02 0.  1.
</event>
<event>
 5    1  0.1072898E-008  0.2486253E+03  0.7957747E-01  0.4348411E+00
         13   -1    0    0    0    0  0.00000000000E+00  0.00000000000E+00  0.14999999963E+04  0.15000000000E+04  0.10566000000E+00 0. -1.
        994   -1    0    0    0    0 -0.00000000000E+00 -0.00000000000E+00  0.11368683772E-12  0.17120000000E+03  0.17120000000E+03 0.  0.
         13    1    1    2    0    0  0.19179743007E+03  0.13739024183E+02  0.50351383520E+03  0.53898164011E+03  0.10566000000E+00 0. -1.
        994    1    1    2    0    0 -0.48522108871E+02  0.50875954843E+02  0.78857861300E+02  0.20117345779E+03  0.17120000000E+03 0.  0.
        998    1    1    2    0    0 -0.14327532120E+03 -0.64614979026E+02  0.91762829978E+03  0.93104490210E+03  0.10000000000E+02 0. -1.
</event>
<event>
 5    1  0.1072898E-008  0.3710840E+03  0.7957747E-01  0.3490924E+00
         13   -1    0    0    0    0  0.00000000000E+00  0.00000000000E+00  0.14999999963E+04  0.15000000000E+04  0.10566000000E+00 0. -1.
        994   -1    0    0    0    0 -0.00000000000E+00 -0.00000000000E+00  0.11368683772E-12  0.17120000000E+03  0.17120000000E+03 0.  0.
         13    1    1    2    0    0 -0.32834291983E+02 -0.46309413513E+02  0.22831907202E+03  0.23527061508E+03  0.10566000000E+00 0. -1.
        994    1    1    2    0    0  0.10984201447E+01 -0.66245314133E+01  0.88588997165E+01  0.17156051716E+03  0.17120000000E+03 0.  0.
        998    1    1    2    0    0  0.31735871838E+02  0.52933944927E+02  0.12628220245E+04  0.12643688678E+04  0.10000000000E+02 0. -1.
</event>
<event>
 5    1  0.1072898E-008  0.3750921E+03  0.7957747E-01  0.3472811E+00
         13   -1    0    0    0    0  0.00000000000E+00  0.00000000000E+00  0.14999999963E+04  0.15000000000E+04  0.10566000000E+00 0.  1.
        994   -1    0    0    0    0 -0.00000000000E+00 -0.00000000000E+00  0.11368683772E-12  0.17120000000E+03  0.17120000000E+03 0.  0.
         13    1    1    2    0    0 -0.49630334340E+01  0.15075100318E+02  0.16009021373E+02  0.22543076095E+02  0.10566000000E+00 0.  1.
        994    1    1    2    0    0  0.63036631207E+01 -0.12445814289E+02  0.72931208841E+01  0.17192226172E+03  0.17120000000E+03 0.  0.
        998    1    1    2    0    0 -0.13406296867E+01 -0.26292860283E+01  0.14766978540E+04  0.14767346622E+04  0.10000000000E+02 0.  1.
</event>
<event>
 5    1  0.1072898E-008  0.3600536E+03  0.7957747E-01  0.3542890E+00
         13   -1    0    0    0    0  0.00000000000E+00  0.00000000000E+00  0.14999999963E+04  0.15000000000E+04  0.10566000000E+00 0.  1.
        994   -1    0    0    0    0 -0.00000000000E+00 -0.00000000000E+00  0.11368683772E-12  0.17120000000E+03  0.17120000000E+03 0.  0.
         13    1    1    2    0    0 -0.15145995714E+03  0.13852890165E+03  0.12183558885E+04  0.12355247700E+04  0.10566000000E+00 0.  1.
        994    1    1    2    0    0  0.12530050257E+03 -0.93907902463E+02  0.11121197544E+03  0.25728671472E+03  0.17120000000E+03 0.  0.
        998    1    1    2    0    0  0.26159454577E+02 -0.44620999187E+02  0.17043213236E+03  0.17838851525E+03  0.10000000000E+02 0. -1.
</event>
<event>
 5    1  0.1072898E-008  0.3825733E+03  0.7957747E-01  0.3440030E+00
         13   -1    0    0    0    0  0.00000000000E+00  0.00000000000E+00  0.14999999963E+04  0.15000000000E+04  0.10566000000E+00 0.  1.
        994   -1    0    0    0    0 -0.00000000000E+00 -0.00000000000E+00  0.11368683772E-12  0.17120000000E+03  0.17120000000E+03 0.  0.
         13    1    1    2    0    0 -0.67674495133E+01 -0.83515311898E+01  0.18869827690E+02  0.21716998117E+02  0.10566000000E+00 0.  1.
        994    1    1    2    0    0  0.43450828717E+01  0.14805650980E+02  0.36293408528E+01  0.17193225166E+03  0.17120000000E+03 0.  0.
        998    1    1    2    0    0  0.24223666416E+01 -0.64541197901E+01  0.14775008277E+04  0.14775507502E+04  0.10000000000E+02 0.  1.
</event>
<event>
 5    1  0.1072898E-008  0.3752513E+03  0.7957747E-01  0.3472100E+00
         13   -1    0    0    0    0  0.00000000000E+00  0.00000000000E+00  0.14999999963E+04  0.15000000000E+04  0.10566000000E+00 0. -1.
        994   -1    0    0    0    0 -0.00000000000E+00 -0.00000000000E+00  0.11368683772E-12  0.17120000000E+03  0.17120000000E+03 0.  0.
         13    1    1    2    0    0  0.74792828512E+02  0.57970319249E+01  0.30741304410E+03  0.31643382187E+03  0.10566000000E+00 0. -1.
        994    1    1    2    0    0 -0.87164113859E+02 -0.66087259556E+01  0.32961300247E+02  0.19503113935E+03  0.17120000000E+03 0.  0.
        998    1    1    2    0    0  0.12371285347E+02  0.81169403079E+00  0.11596256519E+04  0.11597350388E+04  0.10000000000E+02 0. -1.
</event>
<event>
 5    1  0.1072898E-008  0.3795620E+03  0.7957747E-01  0.3453068E+00
         13   -1    0    0    0    0  0.00000000000E+00  0.00000000000E+00  0.14999999963E+04  0.15000000000E+04  0.10566000000E+00 0. -1.
        994   -1    0    0    0    0 -0.00000000000E+00 -0.00000000000E+00  0.11368683772E-12  0.17120000000E+03  0.17120000000E+03 0.  0.
         13    1    1    2    0    0 -0.10716828785E+02 -0.27261585789E+02  0.11860353755E+03  0.12216732281E+03  0.10566000000E+00 0. -1.
        994    1    1    2    0    0 -0.12196154664E+02 -0.14392988566E+02  0.55468024371E+01  0.17232559684E+03  0.17120000000E+03 0.  0.
        998    1    1    2    0    0  0.22912983449E+02  0.41654574355E+02  0.13758496563E+04  0.13767070803E+04  0.10000000000E+02 0. -1.
</event>
<event>
 5    1  0.1072898E-008  0.3780714E+03  0.7957747E-01  0.3459599E+00
         13   -1    0    0    0    0  0.00000000000E+00  0.00000000000E+00  0.14999999963E+04  0.15000000000E+04  0.10566000000E+00 0. -1.
        994   -1    0    0    0    0 -0.00000000000E+00 -0.00000000000E+00  0.11368683772E-12  0.17120000000E+03  0.17120000000E+03 0.  0.
         13    1    1    2    0    0 -0.39751969292E+02 -0.24870169011E+02  0.60549423716E+02  0.76583211252E+02  0.10566000000E+00 0. -1.
        994    1    1    2    0    0  0.53517502875E+02  0.38019015937E+02  0.30945912159E+02  0.18594799855E+03  0.17120000000E+03 0.  0.
        998    1    1    2    0    0 -0.13765533583E+02 -0.13148846926E+02  0.14085046604E+04  0.14086687902E+04  0.10000000000E+02 0. -1.
</event>
<event>
 5    1  0.1072898E-008  0.3687845E+03  0.7957747E-01  0.3501496E+00
         13   -1    0    0    0    0  0.00000000000E+00  0.00000000000E+00  0.14999999963E+04  0.15000000000E+04  0.10566000000E+00 0. -1.
        994   -1    0    0    0    0 -0.00000000000E+00 -0.00000000000E+00  0.11368683772E-12  0.17120000000E+03  0.17120000000E+03 0.  0.
         13    1    1    2    0    0 -0.27958348310E+02 -0.61736585945E+02  0.24232678181E+03  0.25162542724E+03  0.10566000000E+00 0. -1.
        994    1    1    2    0    0  0.24216826691E+02  0.13830618133E+02  0.13009757707E+02  0.17394376818E+03  0.17120000000E+03 0.  0.
        998    1    1    2    0    0  0.37415216186E+01  0.47905967812E+02  0.12446634568E+04  0.12456308046E+04  0.10000000000E+02 0. -1.
</event>
<event>
 5    1  0.1072898E-008  0.3859988E+03  0.7957747E-01  0.3425447E+00
         13   -1    0    0    0    0  0.00000000000E+00  0.00000000000E+00  0.14999999963E+04  0.15000000000E+04  0.10566000000E+00 0.  1.
        994   -1    0    0    0    0 -0.00000000000E+00 -0.00000000000E+00  0.11368683772E-12  0.17120000000E+03  0.17120000000E+03 0.  0.
         13    1    1    2    0    0  0.10460159235E+02  0.35224467560E+01  0.54218900915E+02  0.55331030560E+02  0.10566000000E+00 0.  1.
        994    1    1    2    0    0 -0.10687710365E+02  0.73999764044E+01  0.16892080538E+01  0.17170113636E+03  0.17120000000E+03 0.  0.
        998    1    1    2    0    0  0.22755112963E+00 -0.10922423160E+02  0.14440918873E+04  0.14441678331E+04  0.10000000000E+02 0.  1.
</event>
<event>
 5    1  0.1072898E-008  0.3815919E+03  0.7957747E-01  0.3444256E+00
         13   -1    0    0    0    0  0.00000000000E+00  0.00000000000E+00  0.14999999963E+04  0.15000000000E+04  0.10566000000E+00 0. -1.
        994   -1    0    0    0    0 -0.00000000000E+00 -0.00000000000E+00  0.11368683772E-12  0.17120000000E+03  0.17120000000E+03 0.  0.
         13    1    1    2    0    0  0.33322174528E+02  0.23053748500E+02  0.23447630872E+03  0.23795166138E+03  0.10566000000E+00 0. -1.
        994    1    1    2    0    0 -0.25654836047E+02 -0.12816382245E+02  0.60714783004E+01  0.17369148832E+03  0.17120000000E+03 0.  0.
        998    1    1    2    0    0 -0.76673384802E+01 -0.10237366254E+02  0.12594522093E+04  0.12595568503E+04  0.10000000000E+02 0. -1.
</event>
<event>
 5    1  0.1072898E-008  0.3845813E+03  0.7957747E-01  0.3431450E+00
         13   -1    0    0    0    0  0.00000000000E+00  0.00000000000E+00  0.14999999963E+04  0.15000000000E+04  0.10566000000E+00 0. -1.
        994   -1    0    0    0    0 -0.00000000000E+00 -0.00000000000E+00  0.11368683772E-12  0.17120000000E+03  0.17120000000E+03 0.  0.
         13    1    1    2    0    0 -0.11440606126E+02 -0.10884193326E+02  0.68103233995E+02  0.69910047758E+02  0.10566000000E+00 0. -1.
        994    1    1    2    0    0  0.47721894045E+01  0.83573739070E+01  0.21432452366E+01  0.17148368141E+03  0.17120000000E+03 0.  0.
        998    1    1    2    0    0  0.66684167216E+01  0.25268194191E+01  0.14297535170E+04  0.14298062708E+04  0.10000000000E+02 0. -1.
</event>
<event>
 5    1  0.1072898E-008  0.3786006E+03  0.7957747E-01  0.3457275E+00
         13   -1    0    0    0    0  0.00000000000E+00  0.00000000000E+00  0.14999999963E+04  0.15000000000E+04  0.10566000000E+00 0. -1.
        994   -1    0    0    0    0 -0.00000000000E+00 -0.00000000000E+00  0.11368683772E-12  0.17120000000E+03  0.17120000000E+03 0.  0.
         13    1    1    2    0    0  0.31152612943E+02  0.31163795272E+02  0.19522334177E+03  0.20013453416E+03  0.10566000000E+00 0. -1.
        994    1    1    2    0    0 -0.41817026703E+02  0.32304120558E+00  0.10736917556E+02  0.17656015824E+03  0.17120000000E+03 0.  0.
        998    1    1    2    0    0  0.10664413760E+02 -0.31486836478E+02  0.12940397370E+04  0.12945053076E+04  0.10000000000E+02 0. -1.
</event>
<event>
 5    1  0.1072898E-008  0.3799658E+03  0.7957747E-01  0.3451308E+00
         13   -1    0    0    0    0  0.00000000000E+00  0.00000000000E+00  0.14999999963E+04  0.15000000000E+04  0.10566000000E+00 0. -1.
        994   -1    0    0    0    0 -0.00000000000E+00 -0.00000000000E+00  0.11368683772E-12  0.17120000000E+03  0.17120000000E+03 0.  0.
         13    1    1    2    0    0  0.44624091571E+02 -0.28555455102E+02  0.24302026233E+03  0.24872792893E+03  0.10566000000E+00 0. -1.
        994    1    1    2    0    0 -0.51232528880E+02  0.54405873779E+02  0.23053740738E+02  0.18821712483E+03  0.17120000000E+03 0.  0.
        998    1    1    2    0    0  0.66084373083E+01 -0.25850418678E+02  0.12339259932E+04  0.12342549462E+04  0.10000000000E+02 0. -1.
</event>
<event>
 5    1  0.1072898E-008  0.4049644E+03  0.7957747E-01  0.3349176E+00
         13   -1    0    0    0    0  0.00000000000E+00  0.00000000000E+00  0.14999999963E+04  0.15000000000E+04  0.10566000000E+00 0.  1.
        994   -1    0    0    0    0 -0.00000000000E+00 -0.00000000000E+00  0.11368683772E-12  0.17120000000E+03  0.17120000000E+03 0.  0.
         13    1    1    2    0    0 -0.15271793703E+03  0.31729590112E+02  0.29944421871E+03  0.33763350909E+03  0.10566000000E+00 0.  1.
        994    1    1    2    0    0  0.14068033033E+03 -0.68390992721E+02  0.13716519900E+03  0.26942905382E+03  0.17120000000E+03 0.  0.
        998    1    1    2    0    0  0.12037606693E+02  0.36661402609E+02  0.10633905786E+04  0.10641374371E+04  0.10000000000E+02 0.  1.
</event>
<event>
 5    1  0.1072898E-008  0.3836216E+03  0.7957747E-01  0.3435539E+00
         13   -1    0    0    0    0  0.00000000000E+00  0.00000000000E+00  0.14999999963E+04  0.15000000000E+04  0.10566000000E+00 0.  1.
        994   -1    0    0    0    0 -0.00000000000E+00 -0.00000000000E+00  0.11368683772E-12  0.17120000000E+03  0.17120000000E+03 0.  0.
         13    1    1    2    0    0  0.24536812419E+01  0.14323712314E+02  0.44574857415E+02  0.46884094997E+02  0.10566000000E+00 0.  1.
        994    1    1    2    0    0 -0.38616899204E+01 -0.11178211317E+02  0.27782268583E+01  0.17163048564E+03  0.17120000000E+03 0.  0.
        998    1    1    2    0    0  0.14080086785E+01 -0.31455009973E+01  0.14526469120E+04  0.14526854194E+04  0.10000000000E+02 0.  1.
</event>
<event>
 5    1  0.1072898E-008  0.3779353E+03  0.7957747E-01  0.3460198E+00
         13   -1    0    0    0    0  0.00000000000E+00  0.00000000000E+00  0.14999999963E+04  0.15000000000E+04  0.10566000000E+00 0.  1.
        994   -1    0    0    0    0 -0.00000000000E+00 -0.00000000000E+00  0.11368683772E-12  0.17120000000E+03  0.17120000000E+03 0.  0.
         13    1    1    2    0    0  0.10484184792E+02 -0.18408358042E+02  0.41888081751E+02  0.46940476493E+02  0.10566000000E+00 0.  1.
        994    1    1    2    0    0  0.47636896379E+01  0.13796110222E+02  0.58963593754E+01  0.17192216975E+03  0.17120000000E+03 0.  0.
        998    1    1    2    0    0 -0.15247874430E+02  0.46122478206E+01  0.14522155552E+04  0.14523373538E+04  0.10000000000E+02 0.  1.
</event>
<event>
 5    1  0.1072898E-008  0.3835298E+03  0.7957747E-01  0.3435931E+00
         13   -1    0    0    0    0  0.00000000000E+00  0.00000000000E+00  0.14999999963E+04  0.15000000000E+04  0.10566000000E+00 0.  1.
        994   -1    0    0    0    0 -0.00000000000E+00 -0.00000000000E+00  0.11368683772E-12  0.17120000000E+03  0.17120000000E+03 0.  0.
         13    1    1    2    0    0 -0.23651096416E+01  0.22887691160E+02  0.12114402347E+03  0.12330987688E+03  0.10566000000E+00 0.  1.
        994    1    1    2    0    0 -0.81966267495E+01 -0.39157706152E+01  0.26345325124E+01  0.17146107054E+03  0.17120000000E+03 0.  0.
        998    1    1    2    0    0  0.10561736391E+02 -0.18971920545E+02  0.13762214403E+04  0.13764290526E+04  0.10000000000E+02 0.  1.
</event>
<event>
 5    1  0.1072898E-008  0.3772284E+03  0.7957747E-01  0.3463316E+00
         13   -1    0    0    0    0  0.00000000000E+00  0.00000000000E+00  0.14999999963E+04  0.15000000000E+04  0.10566000000E+00 0.  1.
        994   -1    0    0    0    0 -0.00000000000E+00 -0.00000000000E+00  0.11368683772E-12  0.17120000000E+03  0.17120000000E+03 0.  0.
         13    1    1    2    0    0 -0.47012774771E+02  0.23924880051E+02  0.25464561154E+03  0.26005191696E+03  0.10566000000E+00 0.  1.
        994    1    1    2    0    0  0.30685478263E+02 -0.54575268420E+00  0.87231868805E+01  0.17414772583E+03  0.17120000000E+03 0.  0.
        998    1    1    2    0    0  0.16327296508E+02 -0.23379127367E+02  0.12366311979E+04  0.12370003572E+04  0.10000000000E+02 0.  1.
</event>
<event>
 5    1  0.1072898E-008  0.3850535E+03  0.7957747E-01  0.3429445E+00
         13   -1    0    0    0    0  0.00000000000E+00  0.00000000000E+00  0.14999999963E+04  0.15000000000E+04  0.10566000000E+00 0. -1.
        994   -1    0    0    0    0 -0.00000000000E+00 -0.00000000000E+00  0.11368683772E-12  0.17120000000E+03  0.17120000000E+03 0.  0.
         13    1    1    2    0    0  0.76659350946E+01  0.76836222209E+01  0.37655949373E+02  0.39189109438E+02  0.10566000000E+00 0. -1.
        994    1    1    2    0    0  0.63524117248E+01 -0.86746171357E+01  0.19837710764E+01  0.17154876119E+03  0.17120000000E+03 0.  0.
        998    1    1    2    0    0 -0.14018346819E+02  0.99099491478E+00  0.14603602758E+04  0.14604621294E+04  0.10000000000E+02 0. -1.
</event>
<event>
 5    1  0.1807156E-008  0.3844652E+03  0.7957747E-01  0.3431944E+00
         13   -1    0    0    0    0  0.00000000000E+00  0.00000000000E+00  0.14999999963E+04  0.15000000000E+04  0.10566000000E+00 0.  1.
        994   -1    0    0    0    0 -0.00000000000E+00 -0.00000000000E+00  0.11368683772E-12  0.17120000000E+03  0.17120000000E+03 0.  0.
         13    1    1    2    0    0 -0.88477094892E+01  0.72856910455E+01  0.33668851915E+02  0.35566360659E+02  0.10566000000E+00 0.  1.
        994    1    1    2    0    0  0.85449634829E+01 -0.80396950701E+01  0.23495205706E+01  0.17161763704E+03  0.17120000000E+03 0.  0.
        998    1    1    2    0    0  0.30274600631E+00  0.75400402452E+00  0.14639816238E+04  0.14640160023E+04  0.10000000000E+02 0.  1.
</event>
<event>
 5    1  0.1072898E-008  0.3684509E+03  0.7957747E-01  0.3503041E+00
         13   -1    0    0    0    0  0.00000000000E+00  0.00000000000E+00  0.14999999963E+04  0.15000000000E+04  0.10566000000E+00 0. -1.
        994   -1    0    0    0    0 -0.00000000000E+00 -0.00000000000E+00  0.11368683772E-12  0.17120000000E+03  0.17120000000E+03 0.  0.
         13    1    1    2    0    0  0.38493245807E+02  0.51147707170E+01  0.68809900002E+02  0.79010786318E+02  0.10566000000E+00 0. -1.
        994    1    1    2    0    0 -0.34546388562E+02 -0.43499835278E+00  0.14283838830E+02  0.17523444364E+03  0.17120000000E+03 0.  0.
        998    1    1    2    0    0 -0.39468572446E+01 -0.46797723642E+01  0.14169062574E+04  0.14169547700E+04  0.10000000000E+02 0. -1.
</event>
<event>
 5    1  0.1072898E-008  0.3827661E+03  0.7957747E-01  0.3439202E+00
         13   -1    0    0    0    0  0.00000000000E+00  0.00000000000E+00  0.14999999963E+04  0.15000000000E+04  0.10566000000E+00 0. -1.
        994   -1    0    0    0    0 -0.00000000000E+00 -0.00000000000E+00  0.11368683772E-12  0.17120000000E+03  0.17120000000E+03 0.  0.
         13    1    1    2    0    0 -0.25690571339E+02 -0.74011213502E+01  0.10722135213E+03  0.11050435091E+03  0.10566000000E+00 0. -1.
        994    1    1    2    0    0  0.43627907446E+02  0.16994689532E+02  0.10039535954E+02  0.17777076830E+03  0.17120000000E+03 0.  0.
        998    1    1    2    0    0 -0.17937336106E+02 -0.95935681822E+01  0.13827391082E+04  0.13829248808E+04  0.10000000000E+02 0. -1.
</event>
<event>
 5    1  0.1072898E-008  0.3816738E+03  0.7957747E-01  0.3443903E+00
         13   -1    0    0    0    0  0.00000000000E+00  0.00000000000E+00  0.14999999963E+04  0.15000000000E+04  0.10566000000E+00 0.  1.
        994   -1    0    0    0    0 -0.00000000000E+00 -0.00000000000E+00  0.11368683772E-12  0.17120000000E+03  0.17120000000E+03 0.  0.
         13    1    1    2    0    0  0.95734196541E+01 -0.88711893813E+01  0.26882459455E+02  0.29883543218E+02  0.10566000000E+00 0.  1.
        994    1    1    2    0    0  0.39467620446E+02  0.15135080696E+02  0.92536300518E+01  0.17658378578E+03  0.17120000000E+03 0.  0.
        998    1    1    2    0    0 -0.49041040100E+02 -0.62638913148E+01  0.14638639068E+04  0.14647326710E+04  0.10000000000E+02 0.  1.
</event>
<event>
 5    1  0.1072898E-008  0.3770298E+03  0.7957747E-01  0.3464194E+00
         13   -1    0    0    0    0  0.00000000000E+00  0.00000000000E+00  0.14999999963E+04  0.15000000000E+04  0.10566000000E+00 0. -1.
        994   -1    0    0    0    0 -0.00000000000E+00 -0.00000000000E+00  0.11368683772E-12  0.17120000000E+03  0.17120000000E+03 0.  0.
         13    1    1    2    0    0 -0.17813023989E+02 -0.48800947640E+01  0.27582138588E+02  0.33194949641E+02  0.10566000000E+00 0. -1.
        994    1    1    2    0    0  0.17961172966E+02 -0.11334543664E+01  0.67342738420E+01  0.17227500950E+03  0.17120000000E+03 0.  0.
        998    1    1    2    0    0 -0.14814897671E+00  0.60135491304E+01  0.14656835838E+04  0.14657300409E+04  0.10000000000E+02 0. -1.
</event>
<event>
 5    1  0.1072898E-008  0.3833393E+03  0.7957747E-01  0.3436746E+00
         13   -1    0    0    0    0  0.00000000000E+00  0.00000000000E+00  0.14999999963E+04  0.15000000000E+04  0.10566000000E+00 0.  1.
        994   -1    0    0    0    0 -0.00000000000E+00 -0.00000000000E+00  0.11368683772E-12  0.17120000000E+03  0.17120000000E+03 0.  0.
         13    1    1    2    0    0 -0.19139395865E+02  0.13965387953E+02  0.10941923292E+03  0.11195502772E+03  0.10566000000E+00 0.  1.
        994    1    1    2    0    0  0.14419081899E+02 -0.14389733887E+02  0.38301826940E+01  0.17245023822E+03  0.17120000000E+03 0.  0.
        998    1    1    2    0    0  0.47203139665E+01  0.42434593408E+00  0.13867505807E+04  0.13867947341E+04  0.10000000000E+02 0.  1.
</event>
<event>
 5    1  0.1072898E-008  0.3839284E+03  0.7957747E-01  0.3434230E+00
         13   -1    0    0    0    0  0.00000000000E+00  0.00000000000E+00  0.14999999963E+04  0.15000000000E+04  0.10566000000E+00 0. -1.
        994   -1    0    0    0    0 -0.00000000000E+00 -0.00000000000E+00  0.11368683772E-12  0.17120000000E+03  0.17120000000E+03 0.  0.
         13    1    1    2    0    0 -0.24161420137E+02 -0.90305218577E+01  0.14167982527E+03  0.14400871016E+03  0.10566000000E+00 0. -1.
        994    1    1    2    0    0  0.23332950027E+02  0.98023518636E+01  0.42797370580E+01  0.17311345646E+03  0.17120000000E+03 0.  0.
        998    1    1    2    0    0  0.82847011034E+00 -0.77183000586E+00  0.13540404339E+04  0.13540778334E+04  0.10000000000E+02 0. -1.
</event>
<event>
 5    1  0.1072898E-008  0.3735701E+03  0.7957747E-01  0.3479643E+00
         13   -1    0    0    0    0  0.00000000000E+00  0.00000000000E+00  0.14999999963E+04  0.15000000000E+04  0.10566000000E+00 0. -1.
        994   -1    0    0    0    0 -0.00000000000E+00 -0.00000000000E+00  0.11368683772E-12  0.17120000000E+03  0.17120000000E+03 0.  0.
         13    1    1    2    0    0  0.23446566690E+02  0.92541668095E+02  0.31704014158E+03  0.33110144119E+03  0.10566000000E+00 0. -1.
        994    1    1    2    0    0 -0.80843471930E+02 -0.58578187348E+02  0.49020523593E+02  0.20415563357E+03  0.17120000000E+03 0.  0.
        998    1    1    2    0    0  0.57396905240E+02 -0.33963480747E+02  0.11339393311E+04  0.11359429252E+04  0.10000000000E+02 0. -1.
</event>
<event>
 5    1  0.1072898E-008  0.3762806E+03  0.7957747E-01  0.3467515E+00
         13   -1    0    0    0    0  0.00000000000E+00  0.00000000000E+00  0.14999999963E+04  0.15000000000E+04  0.10566000000E+00 0.  1.
        994   -1    0    0    0    0 -0.00000000000E+00 -0.00000000000E+00  0.11368683772E-12  0.17120000000E+03  0.17120000000E+03 0.  0.
         13    1    1    2    0    0  0.12076140422E+02  0.60229905708E+01  0.12308952882E+02  0.18265570563E+02  0.10566000000E+00 0.  1.
        994    1    1    2    0    0 -0.13379404666E+02 -0.59218009416E+01  0.67474721640E+01  0.17195651944E+03  0.17120000000E+03 0.  0.
        998    1    1    2    0    0  0.13032642431E+01 -0.10118962914E+00  0.14809435712E+04  0.14809779100E+04  0.10000000000E+02 0.  1.
</event>
<event>
 5    1  0.1072898E-008  0.3531237E+03  0.7957747E-01  0.3577238E+00
         13   -1    0    0    0    0  0.00000000000E+00  0.00000000000E+00  0.14999999963E+04  0.15000000000E+04  0.10566000000E+00 0.  1.
        994   -1    0    0    0    0 -0.00000000000E+00 -0.00000000000E+00  0.11368683772E-12  0.17120000000E+03  0.17120000000E+03 0.  0.
         13    1    1    2    0    0  0.21639311498E+03  0.64845894513E+02  0.10620093760E+04  0.10857692647E+04  0.10566000000E+00 0.  1.
        994    1    1    2    0    0 -0.17969292532E+03 -0.70784850571E+02  0.15758519707E+03  0.30239473676E+03  0.17120000000E+03 0.  0.
        998    1    1    2    0    0 -0.36700189655E+02  0.59389560580E+01  0.28040542322E+03  0.28303599858E+03  0.10000000000E+02 0.  1.
</event>
<event>
 5    1  0.1072898E-008  0.3800573E+03  0.7957747E-01  0.3450909E+00
         13   -1    0    0    0    0  0.00000000000E+00  0.00000000000E+00  0.14999999963E+04  0.15000000000E+04  0.10566000000E+00 0.  1.
        994   -1    0    0    0    0 -0.00000000000E+00 -0.00000000000E+00  0.11368683772E-12  0.17120000000E+03  0.17120000000E+03 0.  0.
         13    1    1    2    0    0  0.14431479133E+02  0.22869327201E+02  0.82819422372E+02  0.87122566552E+02  0.10566000000E+00 0.  1.
        994    1    1    2    0    0 -0.14202679856E+02 -0.25103382353E+02  0.68896349045E+01  0.17374925321E+03  0.17120000000E+03 0.  0.
        998    1    1    2    0    0 -0.22879927665E+00  0.22340551517E+01  0.14102909390E+04  0.14103281802E+04  0.10000000000E+02 0.  1.
</event>
<event>
 5    1  0.1072898E-008  0.3744323E+03  0.7957747E-01  0.3475766E+00
         13   -1    0    0    0    0  0.00000000000E+00  0.00000000000E+00  0.14999999963E+04  0.15000000000E+04  0.10566000000E+00 0.  1.
        994   -1    0    0    0    0 -0.00000000000E+00 -0.00000000000E+00  0.11368683772E-12  0.17120000000E+03  0.17120000000E+03 0.  0.
         13    1    1    2    0    0  0.85363358249E+01 -0.75069347483E+01  0.60290564933E+01  0.12867936310E+02  0.10566000000E+00 0.  1.
        994    1    1    2    0    0 -0.93346049062E+01  0.63493477360E+01  0.74047062982E+01  0.17173153100E+03  0.17120000000E+03 0.  0.
        998    1    1    2    0    0  0.79826908126E+00  0.11575870123E+01  0.14865662335E+04  0.14866005327E+04  0.10000000000E+02 0.  1.
</event>
<event>
 5    1  0.1072898E-008  0.3814492E+03  0.7957747E-01  0.3444872E+00
         13   -1    0    0    0    0  0.00000000000E+00  0.00000000000E+00  0.14999999963E+04  0.15000000000E+04  0.10566000000E+00 0.  1.
        994   -1    0    0    0    0 -0.00000000000E+00 -0.00000000000E+00  0.11368683772E-12  0.17120000000E+03  0.17120000000E+03 0.  0.
         13    1    1    2    0    0  0.23633688426E+00 -0.15567788759E+02  0.32988280647E+02  0.36478071852E+02  0.10566000000E+00 0.  1.
        994    1    1    2    0    0 -0.23983612275E+01  0.22290476661E+02  0.50773662012E+01  0.17273632257E+03  0.17120000000E+03 0.  0.
        998    1    1    2    0    0  0.21620243432E+01 -0.67226879022E+01  0.14619343494E+04  0.14619856056E+04  0.10000000000E+02 0.  1.
</event>
<event>
 5    1  0.1072898E-008  0.3843502E+03  0.7957747E-01  0.3432433E+00
         13   -1    0    0    0    0  0.00000000000E+00  0.00000000000E+00  0.14999999963E+04  0.15000000000E+04  0.10566000000E+00 0.  1.
        994   -1    0    0    0    0 -0.00000000000E+00 -0.00000000000E+00  0.11368683772E-12  0.17120000000E+03  0.17120000000E+03 0.  0.
         13    1    1    2    0    0  0.15078939945E+02  0.38970750372E+01  0.64393793039E+02  0.66250534863E+02  0.10566000000E+00 0.  1.
        994    1    1    2    0    0 -0.13087224217E+01 -0.77918164938E+01  0.21588633795E+01  0.17139581631E+03  0.17120000000E+03 0.  0.
        998    1    1    2    0    0 -0.13770217524E+02  0.38947414566E+01  0.14334473399E+04  0.14335536488E+04  0.10000000000E+02 0.  1.
</event>
<event>
 5    1  0.1072898E-008  0.3805275E+03  0.7957747E-01  0.3448865E+00
         13   -1    0    0    0    0  0.00000000000E+00  0.00000000000E+00  0.14999999963E+04  0.15000000000E+04  0.10566000000E+00 0.  1.
        994   -1    0    0    0    0 -0.00000000000E+00 -0.00000000000E+00  0.11368683772E-12  0.17120000000E+03  0.17120000000E+03 0.  0.
         13    1    1    2    0    0  0.24743275593E+02 -0.34536792527E+02  0.24541042459E+03  0.24906085077E+03  0.10566000000E+00 0.  1.
        994    1    1    2    0    0  0.13745111284E+02  0.34011675104E+02  0.83709866314E+01  0.17528615332E+03  0.17120000000E+03 0.  0.
        998    1    1    2    0    0 -0.38488386878E+02  0.52511742346E+00  0.12462185851E+04  0.12468529959E+04  0.10000000000E+02 0.  1.
</event>
<event>
 5    1  0.1072898E-008  0.3845427E+03  0.7957747E-01  0.3431614E+00
         13   -1    0    0    0    0  0.00000000000E+00  0.00000000000E+00  0.14999999963E+04  0.15000000000E+04  0.10566000000E+00 0.  1.
        994   -1    0    0    0    0 -0.00000000000E+00 -0.00000000000E+00  0.11368683772E-12  0.17120000000E+03  0.17120000000E+03 0.  0.
         13    1    1    2    0    0 -0.15891155285E+02 -0.27771880731E+01  0.65650784766E+02  0.67603833429E+02  0.10566000000E+00 0.  1.
        994    1    1    2    0    0  0.19273268600E+02  0.12203563970E+02  0.35731270952E+01  0.17275008855E+03  0.17120000000E+03 0.  0.
        998    1    1    2    0    0 -0.33821133150E+01 -0.94263758966E+01  0.14307760844E+04  0.14308460780E+04  0.10000000000E+02 0.  1.
</event>
<event>
 5    1  0.1072898E-008  0.3802062E+03  0.7957747E-01  0.3450261E+00
         13   -1    0    0    0    0  0.00000000000E+00  0.00000000000E+00  0.14999999963E+04  0.15000000000E+04  0.10566000000E+00 0.  1.
        994   -1    0    0    0    0 -0.00000000000E+00 -0.00000000000E+00  0.11368683772E-12  0.17120000000E+03  0.17120000000E+03 0.  0.
         13    1    1    2    0    0  0.59401829035E+01  0.86059875288E+01  0.11749117641E+02  0.15729008985E+02  0.10566000000E+00 0.  1.
        994    1    1    2    0    0 -0.65980397626E+01 -0.72053003039E+01  0.43480475433E+01  0.17153365850E+03  0.17120000000E+03 0.  0.
        998    1    1    2    0    0  0.65785685910E+00 -0.14006872249E+01  0.14839028311E+04  0.14839373325E+04  0.10000000000E+02 0.  1.
</event>
<event>
 5    1  0.1072898E-008  0.3840332E+03  0.7957747E-01  0.3433783E+00
         13   -1    0    0    0    0  0.00000000000E+00  0.00000000000E+00  0.14999999963E+04  0.15000000000E+04  0.10566000000E+00 0. -1.
        994   -1    0    0    0    0 -0.00000000000E+00 -0.00000000000E+00  0.11368683772E-12  0.17120000000E+03  0.17120000000E+03 0.  0.
         13    1    1    2    0    0 -0.73881015135E+01 -0.16107428320E+02  0.72467918646E+02  0.74603241806E+02  0.10566000000E+00 0. -1.
        994    1    1    2    0    0  0.83887657924E+01  0.12575801963E+02  0.28651409665E+01  0.17188999744E+03  0.17120000000E+03 0.  0.
        998    1    1    2    0    0 -0.10006642789E+01  0.35316263570E+01  0.14246669367E+04  0.14247067608E+04  0.10000000000E+02 0. -1.
</event>
<event>
 5    1  0.1072898E-008  0.3770876E+03  0.7957747E-01  0.3463938E+00
         13   -1    0    0    0    0  0.00000000000E+00  0.00000000000E+00  0.14999999963E+04  0.15000000000E+04  0.10566000000E+00 0. -1.
        994   -1    0    0    0    0 -0.00000000000E+00 -0.00000000000E+00  0.11368683772E-12  0.17120000000E+03  0.17120000000E+03 0.  0.
         13    1    1    2    0    0  0.39585716410E+01 -0.14510700504E+02  0.17607623510E+02  0.23157510407E+02  0.10566000000E+00 0. -1.
        994    1    1    2    0    0 -0.72239806037E+00  0.14074943165E+02  0.62812894204E+01  0.17189392218E+03  0.17120000000E+03 0.  0.
        998    1    1    2    0    0 -0.32361735807E+01  0.43575733913E+00  0.14761110833E+04  0.14761485674E+04  0.10000000000E+02 0. -1.
</event>
<event>
 5    1  0.1072898E-008  0.3738898E+03  0.7957747E-01  0.3478203E+00
         13   -1    0    0    0    0  0.00000000000E+00  0.00000000000E+00  0.14999999963E+04  0.15000000000E+04  0.10566000000E+00 0.  1.
        994   -1    0    0    0    0 -0.00000000000E+00 -0.00000000000E+00  0.11368683772E-12  0.17120000000E+03  0.17120000000E+03 0.  0.
         13    1    1    2    0    0 -0.38810230135E+02  0.57831628959E+02  0.17685098246E+03  0.19007107205E+03  0.10566000000E+00 0.  1.
        994    1    1    2    0    0  0.36417882600E+02 -0.35279306929E+02  0.22179046576E+02  0.17992287730E+03  0.17120000000E+03 0.  0.
        998    1    1    2    0    0  0.23923475350E+01 -0.22552322029E+02  0.13009699672E+04  0.13012060506E+04  0.10000000000E+02 0.  1.
</event>
<event>
 5    1  0.1072898E-008  0.3691640E+03  0.7957747E-01  0.3499742E+00
         13   -1    0    0    0    0  0.00000000000E+00  0.00000000000E+00  0.14999999963E+04  0.15000000000E+04  0.10566000000E+00 0.  1.
        994   -1    0    0    0    0 -0.00000000000E+00 -0.00000000000E+00  0.11368683772E-12  0.17120000000E+03  0.17120000000E+03 0.  0.
         13    1    1    2    0    0  0.89319028376E+02 -0.24142099790E+02  0.34142757043E+03  0.35374217563E+03  0.10566000000E+00 0.  1.
        994    1    1    2    0    0 -0.82348776575E+02  0.41555359842E+02  0.39818754244E+02  0.19850224715E+03  0.17120000000E+03 0.  0.
        998    1    1    2    0    0 -0.69702518010E+01 -0.17413260052E+02  0.11187536716E+04  0.11189555772E+04  0.10000000000E+02 0.  1.
</event>
<event>
 5    1  0.1072898E-008  0.3715515E+03  0.7957747E-01  0.3488791E+00
         13   -1    0    0    0    0  0.00000000000E+00  0.00000000000E+00  0.14999999963E+04  0.15000000000E+04  0.10566000000E+00 0. -1.
        994   -1    0    0    0    0 -0.00000000000E+00 -0.00000000000E+00  0.11368683772E-12  0.17120000000E+03  0.17120000000E+03 0.  0.
         13    1    1    2    0    0  0.26419941814E+02  0.25369113776E+02  0.76070593485E+02  0.84429566009E+02  0.10566000000E+00 0. -1.
        994    1    1    2    0    0 -0.16140900458E+02 -0.17625275289E+02  0.10427249953E+02  0.17317432413E+03  0.17120000000E+03 0.  0.
        998    1    1    2    0    0 -0.10279041356E+02 -0.77438384862E+01  0.14135021528E+04  0.14135961099E+04  0.10000000000E+02 0. -1.
</event>
<event>
 5    1  0.1072898E-008  0.3835026E+03  0.7957747E-01  0.3436048E+00
         13   -1    0    0    0    0  0.00000000000E+00  0.00000000000E+00  0.14999999963E+04  0.15000000000E+04  0.10566000000E+00 0.  1.
        994   -1    0    0    0    0 -0.00000000000E+00 -0.00000000000E+00  0.11368683772E-12  0.17120000000E+03  0.17120000000E+03 0.  0.
         13    1    1    2    0    0  0.16845958392E+02 -0.13366564113E+02  0.99760323783E+02  0.10205187267E+03  0.10566000000E+00 0.  1.
        994    1    1    2    0    0 -0.22040207367E+02 -0.12485119769E+02  0.44987048911E+01  0.17312229002E+03  0.17120000000E+03 0.  0.
        998    1    1    2    0    0  0.51942489747E+01  0.25851683882E+02  0.13957409676E+04  0.13960258373E+04  0.10000000000E+02 0.  1.
</event>
<event>
 5    1  0.1072898E-008  0.3794307E+03  0.7957747E-01  0.3453641E+00
         13   -1    0    0    0    0  0.00000000000E+00  0.00000000000E+00  0.14999999963E+04  0.15000000000E+04  0.10566000000E+00 0.  1.
        994   -1    0    0    0    0 -0.00000000000E+00 -0.00000000000E+00  0.11368683772E-12  0.17120000000E+03  0.17120000000E+03 0.  0.
         13    1    1    2    0    0  0.50296109276E+01  0.10617634236E+02  0.13445060066E+02  0.17855305852E+02  0.10566000000E+00 0.  1.
        994    1    1    2    0    0 -0.31979735359E+01 -0.15966728157E+02  0.53094105529E+01  0.17205462296E+03  0.17120000000E+03 0.  0.
        998    1    1    2    0    0 -0.18316373917E+01  0.53490939209E+01  0.14812455257E+04  0.14812900712E+04  0.10000000000E+02 0.  1.
</event>
<event>
 5    1  0.1072898E-008  0.3858378E+03  0.7957747E-01  0.3426127E+00
         13   -1    0    0    0    0  0.00000000000E+00  0.00000000000E+00  0.14999999963E+04  0.15000000000E+04  0.10566000000E+00 0. -1.
        994   -1    0    0    0    0 -0.00000000000E+00 -0.00000000000E+00  0.11368683772E-12  0.17120000000E+03  0.17120000000E+03 0.  0.
         13    1    1    2    0    0 -0.40907780391E+01  0.10143996463E+02  0.46452577168E+02  0.47723036563E+02  0.10566000000E+00 0. -1.
        994    1    1    2    0    0  0.10362230828E+02 -0.15654253689E+02  0.23714703169E+01  0.17224254805E+03  0.17120000000E+03 0.  0.
        998    1    1    2    0    0 -0.62714527894E+01  0.55102572260E+01  0.14511759488E+04  0.14512344154E+04  0.10000000000E+02 0. -1.
</event>
<event>
 5    1  0.1072898E-008  0.3814948E+03  0.7957747E-01  0.3444676E+00
         13   -1    0    0    0    0  0.00000000000E+00  0.00000000000E+00  0.14999999963E+04  0.15000000000E+04  0.10566000000E+00 0. -1.
        994   -1    0    0    0    0 -0.00000000000E+00 -0.00000000000E+00  0.11368683772E-12  0.17120000000E+03  0.17120000000E+03 0.  0.
         13    1    1    2    0    0 -0.24247162206E+02  0.19231414685E+02  0.18125630421E+03  0.18387939299E+03  0.10566000000E+00 0. -1.
        994    1    1    2    0    0 -0.89185360381E+01  0.10269773556E+02  0.39961455303E+01  0.17178596483E+03  0.17120000000E+03 0.  0.
        998    1    1    2    0    0  0.33165698244E+02 -0.29501188242E+02  0.13147475465E+04  0.13155346422E+04  0.10000000000E+02 0. -1.
</event>
<event>
 5    1  0.1579640E-008  0.3865155E+03  0.7957747E-01  0.3423270E+00
         13   -1    0    0    0    0  0.00000000000E+00  0.00000000000E+00  0.14999999963E+04  0.15000000000E+04  0.10566000000E+00 0.  1.
        994   -1    0    0    0    0 -0.00000000000E+00 -0.00000000000E+00  0.11368683772E-12  0.17120000000E+03  0.17120000000E+03 0.  0.
         13    1    1    2    0    0 -0.41209110713E+01 -0.95988867007E+01  0.60800318234E+02  0.61691250557E+02  0.10566000000E+00 0.  1.
        994    1    1    2    0    0  0.87495168633E+01  0.94873578970E+01  0.14248421584E+01  0.17169168349E+03  0.17120000000E+03 0.  0.
        998    1    1    2    0    0 -0.46286057920E+01  0.11152880373E+00  0.14377748359E+04  0.14378170660E+04  0.10000000000E+02 0.  1.
</event>
<event>
 5    1  0.1072898E-008  0.3790534E+03  0.7957747E-01  0.3455291E+00
         13   -1    0    0    0    0  0.00000000000E+00  0.00000000000E+00  0.14999999963E+04  0.15000000000E+04  0.10566000000E+00 0.  1.
        994   -1    0    0    0    0 -0.00000000000E+00 -0.00000000000E+00  0.11368683772E-12  0.17120000000E+03  0.17120000000E+03 0.  0.
         13    1    1    2    0    0 -0.16428123612E+02  0.12546406993E+02  0.43250870421E+02  0.47936880687E+02  0.10566000000E+00 0.  1.
        994    1    1    2    0    0  0.23471206464E+02 -0.60960575012E+01  0.65862596663E+01  0.17303432684E+03  0.17120000000E+03 0.  0.
        998    1    1    2    0    0 -0.70430828517E+01 -0.64503494918E+01  0.14501628662E+04  0.14502287925E+04  0.10000000000E+02 0.  1.
</event>
<event>
 5    1  0.1072898E-008  0.3808343E+03  0.7957747E-01  0.3447534E+00
         13   -1    0    0    0    0  0.00000000000E+00  0.00000000000E+00  0.14999999963E+04  0.15000000000E+04  0.10566000000E+00 0. -1.
        994   -1    0    0    0    0 -0.00000000000E+00 -0.00000000000E+00  0.11368683772E-12  0.17120000000E+03  0.17120000000E+03 0.  0.
         13    1    1    2    0    0  0.14195798703E+02  0.13526122320E+02  0.49845380574E+02  0.53563511969E+02  0.10566000000E+00 0. -1.
        994    1    1    2    0    0 -0.13946839428E+02 -0.82805638157E+01  0.45901340627E+01  0.17202787971E+03  0.17120000000E+03 0.  0.
        998    1    1    2    0    0 -0.24895927504E+00 -0.52455585043E+01  0.14455644816E+04  0.14456086083E+04  0.10000000000E+02 0. -1.
</event>
<event>
 5    1  0.1072898E-008  0.3775199E+03  0.7957747E-01  0.3462029E+00
         13   -1    0    0    0    0  0.00000000000E+00  0.00000000000E+00  0.14999999963E+04  0.15000000000E+04  0.10566000000E+00 0. -1.
        994   -1    0    0    0    0 -0.00000000000E+00 -0.00000000000E+00  0.11368683772E-12  0.17120000000E+03  0.17120000000E+03 0.  0.
         13    1    1    2    0    0 -0.25402799060E+02  0.24637248822E+02  0.11234556685E+03  0.11778723948E+03  0.10566000000E+00 0. -1.
        994    1    1    2    0    0  0.12682103096E+02 -0.22615650617E+02  0.76597160840E+01  0.17332170851E+03  0.17120000000E+03 0.  0.
        998    1    1    2    0    0  0.12720695964E+02 -0.20215982053E+01  0.13799947133E+04  0.13800910520E+04  0.10000000000E+02 0. -1.
</event>
<event>
 5    1  0.1072898E-008  0.3764234E+03  0.7957747E-01  0.3466881E+00
         13   -1    0    0    0    0  0.00000000000E+00  0.00000000000E+00  0.14999999963E+04  0.15000000000E+04  0.10566000000E+00 0. -1.
        994   -1    0    0    0    0 -0.00000000000E+00 -0.00000000000E+00  0.11368683772E-12  0.17120000000E+03  0.17120000000E+03 0.  0.
         13    1    1    2    0    0  0.22167227878E+02  0.76705792475E+02  0.22961556251E+03  0.24310179412E+03  0.10566000000E+00 0. -1.
        994    1    1    2    0    0 -0.15271081810E+02 -0.33818510736E+02  0.19317066752E+02  0.17623701846E+03  0.17120000000E+03 0.  0.
        998    1    1    2    0    0 -0.68961460681E+01 -0.42887281739E+02  0.12510673670E+04  0.12518611874E+04  0.10000000000E+02 0. -1.
</event>
<event>
 5    1  0.1072898E-008  0.3854134E+03  0.7957747E-01  0.3427921E+00
         13   -1    0    0    0    0  0.00000000000E+00  0.00000000000E+00  0.14999999963E+04  0.15000000000E+04  0.10566000000E+00 0. -1.
        994   -1    0    0    0    0 -0.00000000000E+00 -0.00000000000E+00  0.11368683772E-12  0.17120000000E+03  0.17120000000E+03 0.  0.
         13    1    1    2    0    0  0.15594263395E+02  0.39102219943E+01  0.90279038358E+02  0.91699437390E+02  0.10566000000E+00 0. -1.
        994    1    1    2    0    0 -0.72934448995E+01 -0.20345484061E+02  0.29607217010E+01  0.17258429515E+03  0.17120000000E+03 0.  0.
        998    1    1    2    0    0 -0.83008184953E+01  0.16435262067E+02  0.14067602362E+04  0.14069162675E+04  0.10000000000E+02 0. -1.
</event>
<event>
 5    1  0.1072898E-008  0.3844501E+03  0.7957747E-01  0.3432008E+00
         13   -1    0    0    0    0  0.00000000000E+00  0.00000000000E+00  0.14999999963E+04  0.15000000000E+04  0.10566000000E+00 0. -1.
        994   -1    0    0    0    0 -0.00000000000E+00 -0.00000000000E+00  0.11368683772E-12  0.17120000000E+03  0.17120000000E+03 0.  0.
         13    1    1    2    0    0 -0.17048859047E+02  0.87403079910E+01  0.87922914366E+02  0.89986146786E+02  0.10566000000E+00 0. -1.
        994    1    1    2    0    0  0.22223342395E+02 -0.12624302838E+02  0.40585186629E+01  0.17314491486E+03  0.17120000000E+03 0.  0.
        998    1    1    2    0    0 -0.51744833475E+01  0.38839948469E+01  0.14080185632E+04  0.14080689384E+04  0.10000000000E+02 0. -1.
</event>
<event>
 5    1  0.1072898E-008  0.3829862E+03  0.7957747E-01  0.3438258E+00
         13   -1    0    0    0    0  0.00000000000E+00  0.00000000000E+00  0.14999999963E+04  0.15000000000E+04  0.10566000000E+00 0. -1.
        994   -1    0    0    0    0 -0.00000000000E+00 -0.00000000000E+00  0.11368683772E-12  0.17120000000E+03  0.17120000000E+03 0.  0.
         13    1    1    2    0    0 -0.30697021909E+02  0.14653735277E+02  0.18562622094E+03  0.18871710091E+03  0.10566000000E+00 0. -1.
        994    1    1    2    0    0  0.34428523642E+02 -0.19268843188E+02  0.78031964960E+01  0.17586057385E+03  0.17120000000E+03 0.  0.
        998    1    1    2    0    0 -0.37315017328E+01  0.46151079102E+01  0.13065705788E+04  0.13066223252E+04  0.10000000000E+02 0. -1.
</event>
<event>
 5    1  0.1072898E-008  0.3848244E+03  0.7957747E-01  0.3430417E+00
         13   -1    0    0    0    0  0.00000000000E+00  0.00000000000E+00  0.14999999963E+04  0.15000000000E+04  0.10566000000E+00 0. -1.
        994   -1    0    0    0    0 -0.00000000000E+00 -0.00000000000E+00  0.11368683772E-12  0.17120000000E+03  0.17120000000E+03 0.  0.
         13    1    1    2    0    0 -0.68671926037E+00  0.15414193478E+02  0.92277990037E+02  0.93559112615E+02  0.10566000000E+00 0. -1.
        994    1    1    2    0    0  0.19412157568E+02  0.26947726291E+02  0.53552530213E+01  0.17447386781E+03  0.17120000000E+03 0.  0.
        998    1    1    2    0    0 -0.18725438308E+02 -0.42361919768E+02  0.14023667532E+04  0.14031670196E+04  0.10000000000E+02 0. -1.
</event>
<event>
 5    1  0.1072898E-008  0.3720740E+03  0.7957747E-01  0.3486413E+00
         13   -1    0    0    0    0  0.00000000000E+00  0.00000000000E+00  0.14999999963E+04  0.15000000000E+04  0.10566000000E+00 0. -1.
        994   -1    0    0    0    0 -0.00000000000E+00 -0.00000000000E+00  0.11368683772E-12  0.17120000000E+03  0.17120000000E+03 0.  0.
         13    1    1    2    0    0 -0.95613184529E+01  0.85701202253E+02  0.27019679279E+03  0.28362375231E+03  0.10566000000E+00 0. -1.
        994    1    1    2    0    0  0.46277003928E+02 -0.12826846706E+03  0.75000764862E+02  0.23136316791E+03  0.17120000000E+03 0.  0.
        998    1    1    2    0    0 -0.36715685475E+02  0.42567264807E+02  0.11548024386E+04  0.11562130798E+04  0.10000000000E+02 0. -1.
</event>
<event>
 5    1  0.1072898E-008  0.3789291E+03  0.7957747E-01  0.3455835E+00
         13   -1    0    0    0    0  0.00000000000E+00  0.00000000000E+00  0.14999999963E+04  0.15000000000E+04  0.10566000000E+00 0.  1.
        994   -1    0    0    0    0 -0.00000000000E+00 -0.00000000000E+00  0.11368683772E-12  0.17120000000E+03  0.17120000000E+03 0.  0.
         13    1    1    2    0    0 -0.34004310776E+02  0.12379223124E+02  0.12676752986E+03  0.13183154443E+03  0.10566000000E+00 0.  1.
        994    1    1    2    0    0  0.32249748463E+02 -0.21917457893E+02  0.97923642767E+01  0.17585719102E+03  0.17120000000E+03 0.  0.
        998    1    1    2    0    0  0.17545623137E+01  0.95382347688E+01  0.13634401021E+04  0.13635112645E+04  0.10000000000E+02 0.  1.
</event>
<event>
 5    1  0.1072898E-008  0.3850764E+03  0.7957747E-01  0.3429348E+00
         13   -1    0    0    0    0  0.00000000000E+00  0.00000000000E+00  0.14999999963E+04  0.15000000000E+04  0.10566000000E+00 0. -1.
        994   -1    0    0    0    0 -0.00000000000E+00 -0.00000000000E+00  0.11368683772E-12  0.17120000000E+03  0.17120000000E+03 0.  0.
         13    1    1    2    0    0  0.14657365330E+02  0.42604191152E+01  0.75206738385E+02  0.76740173260E+02  0.10566000000E+00 0. -1.
        994    1    1    2    0    0 -0.38159900656E+01 -0.92775099877E+01  0.19231550005E+01  0.17150443871E+03  0.17120000000E+03 0.  0.
        998    1    1    2    0    0 -0.10841375265E+02  0.50170908725E+01  0.14228701029E+04  0.14229553880E+04  0.10000000000E+02 0. -1.
</event>
<event>
 5    1  0.1072898E-008  0.4038451E+03  0.7957747E-01  0.3353480E+00
         13   -1    0    0    0    0  0.00000000000E+00  0.00000000000E+00  0.14999999963E+04  0.15000000000E+04  0.10566000000E+00 0.  1.
        994   -1    0    0    0    0 -0.00000000000E+00 -0.00000000000E+00  0.11368683772E-12  0.17120000000E+03  0.17120000000E+03 0.  0.
         13    1    1    2    0    0 -0.80516633767E+02 -0.65757952989E+01  0.10313044367E+03  0.13100407998E+03  0.10566000000E+00 0.  1.
        994    1    1    2    0    0  0.46894509878E+02 -0.72822761707E+01  0.39106334983E+02  0.18190896635E+03  0.17120000000E+03 0.  0.
        998    1    1    2    0    0  0.33622123889E+02  0.13858071470E+02  0.13577632176E+04  0.13582869537E+04  0.10000000000E+02 0.  1.
</event>
<event>
 5    1  0.1072898E-008  0.3801483E+03  0.7957747E-01  0.3450513E+00
         13   -1    0    0    0    0  0.00000000000E+00  0.00000000000E+00  0.14999999963E+04  0.15000000000E+04  0.10566000000E+00 0. -1.
        994   -1    0    0    0    0 -0.00000000000E+00 -0.00000000000E+00  0.11368683772E-12  0.17120000000E+03  0.17120000000E+03 0.  0.
         13    1    1    2    0    0  0.13245728715E+02  0.28096303340E+01  0.20896750781E+02  0.24900375681E+02  0.10566000000E+00 0. -1.
        994    1    1    2    0    0 -0.98698173040E+01 -0.25057536664E+00  0.43840899277E+01  0.17154048014E+03  0.17120000000E+03 0.  0.
        998    1    1    2    0    0 -0.33759114109E+01 -0.25590549674E+01  0.14747191556E+04  0.14747591442E+04  0.10000000000E+02 0. -1.
</event>
<event>
 5    1  0.1072898E-008  0.3848956E+03  0.7957747E-01  0.3430115E+00
         13   -1    0    0    0    0  0.00000000000E+00  0.00000000000E+00  0.14999999963E+04  0.15000000000E+04  0.10566000000E+00 0.  1.
        994   -1    0    0    0    0 -0.00000000000E+00 -0.00000000000E+00  0.11368683772E-12  0.17120000000E+03  0.17120000000E+03 0.  0.
         13    1    1    2    0    0 -0.26840956408E+01 -0.10693721865E+02  0.36146237273E+02  0.37790497348E+02  0.10566000000E+00 0.  1.
        994    1    1    2    0    0 -0.93333353941E+00  0.65973697744E+01  0.18280339959E+01  0.17133936532E+03  0.17120000000E+03 0.  0.
        998    1    1    2    0    0  0.36174291802E+01  0.40963520903E+01  0.14620257250E+04  0.14620701373E+04  0.10000000000E+02 0.  1.
</event>
<event>
 5    1  0.1072898E-008  0.3704316E+03  0.7957747E-01  0.3493910E+00
         13   -1    0    0    0    0  0.00000000000E+00  0.00000000000E+00  0.14999999963E+04  0.15000000000E+04  0.10566000000E+00 0.  1.
        994   -1    0    0    0    0 -0.00000000000E+00 -0.00000000000E+00  0.11368683772E-12  0.17120000000E+03  0.17120000000E+03 0.  0.
         13    1    1    2    0    0 -0.14372261157E+02  0.10153834675E+02  0.13546244349E+02  0.22207524612E+02  0.10566000000E+00 0.  1.
        994    1    1    2    0    0 -0.34380291176E+01 -0.40667131974E+01  0.91415916207E+01  0.17152657782E+03  0.17120000000E+03 0.  0.
        998    1    1    2    0    0  0.17810290275E+02 -0.60871214778E+01  0.14773121603E+04  0.14774658976E+04  0.10000000000E+02 0.  1.
</event>
<event>
 5    1  0.1072898E-008  0.3848668E+03  0.7957747E-01  0.3430237E+00
         13   -1    0    0    0    0  0.00000000000E+00  0.00000000000E+00  0.14999999963E+04  0.15000000000E+04  0.10566000000E+00 0.  1.
        994   -1    0    0    0    0 -0.00000000000E+00 -0.00000000000E+00  0.11368683772E-12  0.17120000000E+03  0.17120000000E+03 0.  0.
         13    1    1    2    0    0 -0.70137916590E+01  0.12868504511E+02  0.65841551304E+02  0.67453040880E+02  0.10566000000E+00 0.  1.
        994    1    1    2    0    0  0.23877943621E+02  0.84193837572E+01  0.38082129424E+01  0.17310397078E+03  0.17120000000E+03 0.  0.
        998    1    1    2    0    0 -0.16864151962E+02 -0.21287888269E+02  0.14303502320E+04  0.14306429883E+04  0.10000000000E+02 0.  1.
</event>
<event>
 5    1  0.1072898E-008  0.3685669E+03  0.7957747E-01  0.3502503E+00
         13   -1    0    0    0    0  0.00000000000E+00  0.00000000000E+00  0.14999999963E+04  0.15000000000E+04  0.10566000000E+00 0.  1.
        994   -1    0    0    0    0 -0.00000000000E+00 -0.00000000000E+00  0.11368683772E-12  0.17120000000E+03  0.17120000000E+03 0.  0.
         13    1    1    2    0    0  0.32761894489E+02  0.59252110298E+02  0.20225664484E+03  0.21328833970E+03  0.10566000000E+00 0.  1.
        994    1    1    2    0    0 -0.30271175304E+02 -0.53549714441E+02  0.23286235500E+02  0.18340012196E+03  0.17120000000E+03 0.  0.
        998    1    1    2    0    0 -0.24907191851E+01 -0.57023958575E+01  0.12744571159E+04  0.12745115383E+04  0.10000000000E+02 0.  1.
</event>
<event>
 5    1  0.1072898E-008  0.3818493E+03  0.7957747E-01  0.3443145E+00
         13   -1    0    0    0    0  0.00000000000E+00  0.00000000000E+00  0.14999999963E+04  0.15000000000E+04  0.10566000000E+00 0.  1.
        994   -1    0    0    0    0 -0.00000000000E+00 -0.00000000000E+00  0.11368683772E-12  0.17120000000E+03  0.17120000000E+03 0.  0.
         13    1    1    2    0    0  0.11398958947E+01  0.23421833421E+02  0.91893958788E+02  0.94838770918E+02  0.10566000000E+00 0.  1.
        994    1    1    2    0    0 -0.68220721943E+01  0.76870434274E-01  0.33571924770E+01  0.17136877580E+03  0.17120000000E+03 0.  0.
        998    1    1    2    0    0  0.56821762996E+01 -0.23498703856E+02  0.14047488450E+04  0.14049924533E+04  0.10000000000E+02 0.  1.
</event>
<event>
 5    1  0.1072898E-008  0.3812452E+03  0.7957747E-01  0.3445755E+00
         13   -1    0    0    0    0  0.00000000000E+00  0.00000000000E+00  0.14999999963E+04  0.15000000000E+04  0.10566000000E+00 0.  1.
        994   -1    0    0    0    0 -0.00000000000E+00 -0.00000000000E+00  0.11368683772E-12  0.17120000000E+03  0.17120000000E+03 0.  0.
         13    1    1    2    0    0 -0.31056448873E+02 -0.47636475621E+00  0.13174340095E+03  0.13535532792E+03  0.10566000000E+00 0.  1.
        994    1    1    2    0    0  0.24213155179E+02 -0.79243974315E+01  0.56698125585E+01  0.17317811563E+03  0.17120000000E+03 0.  0.
        998    1    1    2    0    0  0.68432936941E+01  0.84007621877E+01  0.13625867828E+04  0.13626665564E+04  0.10000000000E+02 0.  1.
</event>
<event>
 5    1  0.1072898E-008  0.3829423E+03  0.7957747E-01  0.3438446E+00
         13   -1    0    0    0    0  0.00000000000E+00  0.00000000000E+00  0.14999999963E+04  0.15000000000E+04  0.10566000000E+00 0.  1.
        994   -1    0    0    0    0 -0.00000000000E+00 -0.00000000000E+00  0.11368683772E-12  0.17120000000E+03  0.17120000000E+03 0.  0.
         13    1    1    2    0    0  0.10809482374E+02 -0.20186339455E+02  0.65945306078E+01  0.23829230113E+02  0.10566000000E+00 0.  1.
        994    1    1    2    0    0 -0.11633025772E+02  0.23483701590E+02  0.20472618503E+02  0.17440005630E+03  0.17120000000E+03 0.  0.
        998    1    1    2    0    0  0.82354339763E+00 -0.32973621343E+01  0.14729328472E+04  0.14729707136E+04  0.10000000000E+02 0.  1.
</event>
<event>
 5    1  0.1072898E-008  0.3202795E+03  0.7957747E-01  0.3761097E+00
         13   -1    0    0    0    0  0.00000000000E+00  0.00000000000E+00  0.14999999963E+04  0.15000000000E+04  0.10566000000E+00 0.  1.
        994   -1    0    0    0    0 -0.00000000000E+00 -0.00000000000E+00  0.11368683772E-12  0.17120000000E+03  0.17120000000E+03 0.  0.
         13    1    1    2    0    0 -0.12845588762E+03 -0.14746819209E+03  0.85835516373E+03  0.88035298660E+03  0.10566000000E+00 0.  1.
        994    1    1    2    0    0  0.11757175507E+03  0.93452844081E+02  0.10412125096E+03  0.25041411015E+03  0.17120000000E+03 0.  0.
        998    1    1    2    0    0  0.10884132552E+02  0.54015348013E+02  0.53752358158E+03  0.54043290325E+03  0.10000000000E+02 0. -1.
</event>
<event>
 5    1  0.1072898E-008  0.3747466E+03  0.7957747E-01  0.3474357E+00
         13   -1    0    0    0    0  0.00000000000E+00  0.00000000000E+00  0.14999999963E+04  0.15000000000E+04  0.10566000000E+00 0.  1.
        994   -1    0    0    0    0 -0.00000000000E+00 -0.00000000000E+00  0.11368683772E-12  0.17120000000E+03  0.17120000000E+03 0.  0.
         13    1    1    2    0    0  0.30074930074E+02 -0.57421639639E+02  0.26048694456E+03  0.26843100709E+03  0.10566000000E+00 0.  1.
        994    1    1    2    0    0 -0.16260103594E+02  0.60837549835E+02  0.20422222166E+02  0.18355409447E+03  0.17120000000E+03 0.  0.
        998    1    1    2    0    0 -0.13814826481E+02 -0.34159101965E+01  0.12190908296E+04  0.12192148984E+04  0.10000000000E+02 0.  1.
</event>
<event>
 5    1  0.1072898E-008  0.3826878E+03  0.7957747E-01  0.3439538E+00
         13   -1    0    0    0    0  0.00000000000E+00  0.00000000000E+00  0.14999999963E+04  0.15000000000E+04  0.10566000000E+00 0. -1.
        994   -1    0    0    0    0 -0.00000000000E+00 -0.00000000000E+00  0.11368683772E-12  0.17120000000E+03  0.17120000000E+03 0.  0.
         13    1    1    2    0    0 -0.20363963833E+02  0.32133749539E+01  0.79880854436E+02  0.82498356778E+02  0.10566000000E+00 0. -1.
        994    1    1    2    0    0  0.40500384029E+01  0.64304032106E+01  0.29738761266E+01  0.17139438974E+03  0.17120000000E+03 0.  0.
        998    1    1    2    0    0  0.16313925430E+02 -0.96437781645E+01  0.14171452657E+04  0.14173072535E+04  0.10000000000E+02 0. -1.
</event>
<event>
 5    1  0.1072898E-008  0.3823316E+03  0.7957747E-01  0.3441068E+00
         13   -1    0    0    0    0  0.00000000000E+00  0.00000000000E+00  0.14999999963E+04  0.15000000000E+04  0.10566000000E+00 0.  1.
        994   -1    0    0    0    0 -0.00000000000E+00 -0.00000000000E+00  0.11368683772E-12  0.17120000000E+03  0.17120000000E+03 0.  0.
         13    1    1    2    0    0  0.19472907932E+02 -0.60576091008E+01  0.69792914234E+02  0.72711421473E+02  0.10566000000E+00 0.  1.
        994    1    1    2    0    0 -0.12354467850E+02 -0.67733764958E+00  0.34687787140E+01  0.17168157760E+03  0.17120000000E+03 0.  0.
        998    1    1    2    0    0 -0.71184400821E+01  0.67349467504E+01  0.14267383033E+04  0.14268070009E+04  0.10000000000E+02 0.  1.
</event>
<event>
 5    1  0.1072898E-008  0.3847985E+03  0.7957747E-01  0.3430527E+00
         13   -1    0    0    0    0  0.00000000000E+00  0.00000000000E+00  0.14999999963E+04  0.15000000000E+04  0.10566000000E+00 0. -1.
        994   -1    0    0    0    0 -0.00000000000E+00 -0.00000000000E+00  0.11368683772E-12  0.17120000000E+03  0.17120000000E+03 0.  0.
         13    1    1    2    0    0  0.12212259049E+02 -0.17448727309E+01  0.43814383812E+02  0.45518076022E+02  0.10566000000E+00 0. -1.
        994    1    1    2    0    0 -0.81714489618E+01  0.60942189074E+00  0.19512196815E+01  0.17140709213E+03  0.17120000000E+03 0.  0.
        998    1    1    2    0    0 -0.40408100870E+01  0.11354508402E+01  0.14542343928E+04  0.14542748319E+04  0.10000000000E+02 0. -1.
</event>
<event>
 5    1  0.1072898E-008  0.3853364E+03  0.7957747E-01  0.3428247E+00
         13   -1    0    0    0    0  0.00000000000E+00  0.00000000000E+00  0.14999999963E+04  0.15000000000E+04  0.10566000000E+00 0. -1.
        994   -1    0    0    0    0 -0.00000000000E+00 -0.00000000000E+00  0.11368683772E-12  0.17120000000E+03  0.17120000000E+03 0.  0.
         13    1    1    2    0    0  0.10181865869E+02  0.12735144422E+02  0.87887954412E+02  0.89387683664E+02  0.10566000000E+00 0. -1.
        994    1    1    2    0    0 -0.67766859449E+01 -0.14167713295E+02  0.22739076031E+01  0.17193387749E+03  0.17120000000E+03 0.  0.
        998    1    1    2    0    0 -0.34051799245E+01  0.14325688723E+01  0.14098381343E+04  0.14098784388E+04  0.10000000000E+02 0. -1.
</event>
<event>
 5    1  0.1072898E-008  0.3797312E+03  0.7957747E-01  0.3452330E+00
         13   -1    0    0    0    0  0.00000000000E+00  0.00000000000E+00  0.14999999963E+04  0.15000000000E+04  0.10566000000E+00 0. -1.
        994   -1    0    0    0    0 -0.00000000000E+00 -0.00000000000E+00  0.11368683772E-12  0.17120000000E+03  0.17120000000E+03 0.  0.
         13    1    1    2    0    0  0.66319161829E+01  0.41811749218E+02  0.17854082088E+03  0.18349125475E+03  0.10566000000E+00 0. -1.
        994    1    1    2    0    0 -0.98713872817E+01 -0.46743029573E+02  0.11943541266E+02  0.17814163825E+03  0.17120000000E+03 0.  0.
        998    1    1    2    0    0  0.32394710988E+01  0.49312803552E+01  0.13095156341E+04  0.13095671070E+04  0.10000000000E+02 0. -1.
</event>
<event>
 5    1  0.1072898E-008  0.3806880E+03  0.7957747E-01  0.3448168E+00
         13   -1    0    0    0    0  0.00000000000E+00  0.00000000000E+00  0.14999999963E+04  0.15000000000E+04  0.10566000000E+00 0.  1.
        994   -1    0    0    0    0 -0.00000000000E+00 -0.00000000000E+00  0.11368683772E-12  0.17120000000E+03  0.17120000000E+03 0.  0.
         13    1    1    2    0    0  0.63915462944E+01 -0.14956293633E+02  0.33015021285E+02  0.36804148920E+02  0.10566000000E+00 0.  1.
        994    1    1    2    0    0 -0.10115683083E+02  0.12238159841E+02  0.46275414254E+01  0.17199695852E+03  0.17120000000E+03 0.  0.
        998    1    1    2    0    0  0.37241367889E+01  0.27181337920E+01  0.14623574336E+04  0.14623988926E+04  0.10000000000E+02 0.  1.
</event>
<event>
 5    1  0.1072898E-008  0.3704837E+03  0.7957747E-01  0.3493671E+00
         13   -1    0    0    0    0  0.00000000000E+00  0.00000000000E+00  0.14999999963E+04  0.15000000000E+04  0.10566000000E+00 0. -1.
        994   -1    0    0    0    0 -0.00000000000E+00 -0.00000000000E+00  0.11368683772E-12  0.17120000000E+03  0.17120000000E+03 0.  0.
         13    1    1    2    0    0 -0.85674527805E+02  0.47403620694E+02  0.36359043264E+03  0.37654381131E+03  0.10566000000E+00 0. -1.
        994    1    1    2    0    0  0.94199836872E+02 -0.53551060796E+02  0.50709668347E+02  0.20885936858E+03  0.17120000000E+03 0.  0.
        998    1    1    2    0    0 -0.85253090671E+01  0.61474401017E+01  0.10856998953E+04  0.10857968201E+04  0.10000000000E+02 0. -1.
</event>
<event>
 5    1  0.1072898E-008  0.3842743E+03  0.7957747E-01  0.3432756E+00
         13   -1    0    0    0    0  0.00000000000E+00  0.00000000000E+00  0.14999999963E+04  0.15000000000E+04  0.10566000000E+00 0.  1.
        994   -1    0    0    0    0 -0.00000000000E+00 -0.00000000000E+00  0.11368683772E-12  0.17120000000E+03  0.17120000000E+03 0.  0.
         13    1    1    2    0    0  0.10598765754E+02 -0.34630488589E+01  0.27919837293E+02  0.30064181702E+02  0.10566000000E+00 0.  1.
        994    1    1    2    0    0 -0.28970219050E+02  0.14721961497E+02  0.54796885804E+01  0.17434298589E+03  0.17120000000E+03 0.  0.
        998    1    1    2    0    0  0.18371453295E+02 -0.11258912638E+02  0.14666004704E+04  0.14667928324E+04  0.10000000000E+02 0.  1.
</event>
<event>
 5    1  0.1072898E-008  0.3801423E+03  0.7957747E-01  0.3450539E+00
         13   -1    0    0    0    0  0.00000000000E+00  0.00000000000E+00  0.14999999963E+04  0.15000000000E+04  0.10566000000E+00 0. -1.
        994   -1    0    0    0    0 -0.00000000000E+00 -0.00000000000E+00  0.11368683772E-12  0.17120000000E+03  0.17120000000E+03 0.  0.
         13    1    1    2    0    0  0.11504727289E+02  0.16205035178E+02  0.44547702070E+02  0.48779819996E+02  0.10566000000E+00 0. -1.
        994    1    1    2    0    0 -0.22137902791E+02 -0.19299224202E+02  0.69487514956E+01  0.17383978814E+03  0.17120000000E+03 0.  0.
        998    1    1    2    0    0  0.10633175502E+02  0.30941890241E+01  0.14485035427E+04  0.14485803919E+04  0.10000000000E+02 0. -1.
</event>
<event>
 5    1  0.1072898E-008  0.3847444E+03  0.7957747E-01  0.3430757E+00
         13   -1    0    0    0    0  0.00000000000E+00  0.00000000000E+00  0.14999999963E+04  0.15000000000E+04  0.10566000000E+00 0.  1.
        994   -1    0    0    0    0 -0.00000000000E+00 -0.00000000000E+00  0.11368683772E-12  0.17120000000E+03  0.17120000000E+03 0.  0.
         13    1    1    2    0    0  0.20396110538E+02 -0.18929617693E+02  0.15740955302E+03  0.15985027462E+03  0.10566000000E+00 0.  1.
        994    1    1    2    0    0 -0.31559535737E+02  0.45649751054E+02  0.11960770861E+02  0.18036741420E+03  0.17120000000E+03 0.  0.
        998    1    1    2    0    0  0.11163425199E+02 -0.26720133361E+02  0.13306296724E+04  0.13309823112E+04  0.10000000000E+02 0.  1.
</event>
<event>
 5    1  0.1072898E-008  0.3792970E+03  0.7957747E-01  0.3454225E+00
         13   -1    0    0    0    0  0.00000000000E+00  0.00000000000E+00  0.14999999963E+04  0.15000000000E+04  0.10566000000E+00 0. -1.
        994   -1    0    0    0    0 -0.00000000000E+00 -0.00000000000E+00  0.11368683772E-12  0.17120000000E+03  0.17120000000E+03 0.  0.
         13    1    1    2    0    0 -0.23497392543E+02 -0.24477088203E+02  0.12298455535E+03  0.12757925898E+03  0.10566000000E+00 0. -1.
        994    1    1    2    0    0  0.13568163800E+02  0.22599619865E+02  0.68200931596E+01  0.17335164135E+03  0.17120000000E+03 0.  0.
        998    1    1    2    0    0  0.99292287433E+01  0.18774683384E+01  0.13701953478E+04  0.13702690997E+04  0.10000000000E+02 0. -1.
</event>
<event>
 5    1  0.1072898E-008  0.3796858E+03  0.7957747E-01  0.3452528E+00
         13   -1    0    0    0    0  0.00000000000E+00  0.00000000000E+00  0.14999999963E+04  0.15000000000E+04  0.10566000000E+00 0. -1.
        994   -1    0    0    0    0 -0.00000000000E+00 -0.00000000000E+00  0.11368683772E-12  0.17120000000E+03  0.17120000000E+03 0.  0.
         13    1    1    2    0    0 -0.12351061138E+02 -0.57203768036E+01  0.19515860978E+02  0.23793936533E+02  0.10566000000E+00 0. -1.
        994    1    1    2    0    0  0.13692703332E+02  0.54623414198E+01  0.50194326586E+01  0.17190684106E+03  0.17120000000E+03 0.  0.
        998    1    1    2    0    0 -0.13416421938E+01  0.25803538374E+00  0.14754647026E+04  0.14754992224E+04  0.10000000000E+02 0. -1.
</event>
<event>
 5    1  0.1072898E-008  0.3764232E+03  0.7957747E-01  0.3466882E+00
         13   -1    0    0    0    0  0.00000000000E+00  0.00000000000E+00  0.14999999963E+04  0.15000000000E+04  0.10566000000E+00 0.  1.
        994   -1    0    0    0    0 -0.00000000000E+00 -0.00000000000E+00  0.11368683772E-12  0.17120000000E+03  0.17120000000E+03 0.  0.
         13    1    1    2    0    0  0.13148074706E+02  0.11538974065E+02  0.22646177266E+02  0.28616084633E+02  0.10566000000E+00 0.  1.
        994    1    1    2    0    0 -0.28963160760E+02  0.40027682473E+00  0.87932795940E+01  0.17385564894E+03  0.17120000000E+03 0.  0.
        998    1    1    2    0    0  0.15815086054E+02 -0.11939250890E+02  0.14685605394E+04  0.14687282664E+04  0.10000000000E+02 0.  1.
</event>
<event>
 5    1  0.1072898E-008  0.3848318E+03  0.7957747E-01  0.3430386E+00
         13   -1    0    0    0    0  0.00000000000E+00  0.00000000000E+00  0.14999999963E+04  0.15000000000E+04  0.10566000000E+00 0. -1.
        994   -1    0    0    0    0 -0.00000000000E+00 -0.00000000000E+00  0.11368683772E-12  0.17120000000E+03  0.17120000000E+03 0.  0.
         13    1    1    2    0    0 -0.19988942766E+02 -0.10230013997E+02  0.12643060416E+03  0.12840918913E+03  0.10566000000E+00 0. -1.
        994    1    1    2    0    0  0.24445304357E+02  0.22397003207E+02  0.53389151538E+01  0.17446243915E+03  0.17120000000E+03 0.  0.
        998    1    1    2    0    0 -0.44563615905E+01 -0.12166989210E+02  0.13682304770E+04  0.13683283717E+04  0.10000000000E+02 0. -1.
</event>
<event>
 5    1  0.1072898E-008  0.3842405E+03  0.7957747E-01  0.3432900E+00
         13   -1    0    0    0    0  0.00000000000E+00  0.00000000000E+00  0.14999999963E+04  0.15000000000E+04  0.10566000000E+00 0. -1.
        994   -1    0    0    0    0 -0.00000000000E+00 -0.00000000000E+00  0.11368683772E-12  0.17120000000E+03  0.17120000000E+03 0.  0.
         13    1    1    2    0    0 -0.16905232527E+02 -0.16270133772E+02  0.13645993732E+03  0.13846237682E+03  0.10566000000E+00 0. -1.
        994    1    1    2    0    0  0.13778744631E+02  0.68047401563E+01  0.27866077772E+01  0.17191091727E+03  0.17120000000E+03 0.  0.
        998    1    1    2    0    0  0.31264878957E+01  0.94653936154E+01  0.13607534512E+04  0.13608267059E+04  0.10000000000E+02 0. -1.
</event>
<event>
 5    1  0.1072898E-008  0.3797136E+03  0.7957747E-01  0.3452406E+00
         13   -1    0    0    0    0  0.00000000000E+00  0.00000000000E+00  0.14999999963E+04  0.15000000000E+04  0.10566000000E+00 0. -1.
        994   -1    0    0    0    0 -0.00000000000E+00 -0.00000000000E+00  0.11368683772E-12  0.17120000000E+03  0.17120000000E+03 0.  0.
         13    1    1    2    0    0 -0.26804207520E+02 -0.12542333877E+02  0.10734736769E+03  0.11135189354E+03  0.10566000000E+00 0. -1.
        994    1    1    2    0    0  0.10751331213E+02 -0.80559370311E+01  0.48819344264E+01  0.17179569997E+03  0.17120000000E+03 0.  0.
        998    1    1    2    0    0  0.16052876307E+02  0.20598270909E+02  0.13877706942E+04  0.13880524065E+04  0.10000000000E+02 0. -1.
</event>
<event>
 5    1  0.1072898E-008  0.3734813E+03  0.7957747E-01  0.3480043E+00
         13   -1    0    0    0    0  0.00000000000E+00  0.00000000000E+00  0.14999999963E+04  0.15000000000E+04  0.10566000000E+00 0. -1.
        994   -1    0    0    0    0 -0.00000000000E+00 -0.00000000000E+00  0.11368683772E-12  0.17120000000E+03  0.17120000000E+03 0.  0.
         13    1    1    2    0    0 -0.29940879356E+02  0.27942073701E+02  0.10488276856E+03  0.11259494679E+03  0.10566000000E+00 0. -1.
        994    1    1    2    0    0  0.38887935173E+02 -0.11458791339E+02  0.13097114301E+02  0.17642151174E+03  0.17120000000E+03 0.  0.
        998    1    1    2    0    0 -0.89470558170E+01 -0.16483282362E+02  0.13820201134E+04  0.13821835415E+04  0.10000000000E+02 0. -1.
</event>
<event>
 5    1  0.1072898E-008  0.3794430E+03  0.7957747E-01  0.3453587E+00
         13   -1    0    0    0    0  0.00000000000E+00  0.00000000000E+00  0.14999999963E+04  0.15000000000E+04  0.10566000000E+00 0. -1.
        994   -1    0    0    0    0 -0.00000000000E+00 -0.00000000000E+00  0.11368683772E-12  0.17120000000E+03  0.17120000000E+03 0.  0.
         13    1    1    2    0    0 -0.24365760406E+02  0.57434901575E+00  0.62517370186E+02  0.67100319642E+02  0.10566000000E+00 0. -1.
        994    1    1    2    0    0  0.27656210377E+02 -0.33205256220E+01  0.70174543054E+01  0.17359313502E+03  0.17120000000E+03 0.  0.
        998    1    1    2    0    0 -0.32904499711E+01  0.27461766062E+01  0.14304651718E+04  0.14305065453E+04  0.10000000000E+02 0. -1.
</event>
<event>
 5    1  0.1072898E-008  0.3690884E+03  0.7957747E-01  0.3500091E+00
         13   -1    0    0    0    0  0.00000000000E+00  0.00000000000E+00  0.14999999963E+04  0.15000000000E+04  0.10566000000E+00 0. -1.
        994   -1    0    0    0    0 -0.00000000000E+00 -0.00000000000E+00  0.11368683772E-12  0.17120000000E+03  0.17120000000E+03 0.  0.
         13    1    1    2    0    0  0.46287259058E+02  0.35331299276E+02  0.14572971750E+03  0.15693302006E+03  0.10566000000E+00 0. -1.
        994    1    1    2    0    0 -0.44705572210E+02 -0.32804230175E+02  0.21250452554E+02  0.18120631180E+03  0.17120000000E+03 0.  0.
        998    1    1    2    0    0 -0.15816868481E+01 -0.25270691010E+01  0.13330198262E+04  0.13330606681E+04  0.10000000000E+02 0.  0.
</event>
<event>
 5    1  0.1072898E-008  0.3782689E+03  0.7957747E-01  0.3458731E+00
         13   -1    0    0    0    0  0.00000000000E+00  0.00000000000E+00  0.14999999963E+04  0.15000000000E+04  0.10566000000E+00 0.  1.
        994   -1    0    0    0    0 -0.00000000000E+00 -0.00000000000E+00  0.11368683772E-12  0.17120000000E+03  0.17120000000E+03 0.  0.
         13    1    1    2    0    0  0.51117347488E+01 -0.70102680322E+02  0.18286068589E+03  0.19590445944E+03  0.10566000000E+00 0.  1.
        994    1    1    2    0    0  0.80678915798E-01  0.53714532779E+01  0.15483709223E+02  0.17198268596E+03  0.17120000000E+03 0.  0.
        998    1    1    2    0    0 -0.51924136646E+01  0.64731227044E+02  0.13016556012E+04  0.13033128546E+04  0.10000000000E+02 0.  1.
</event>
<event>
 5    1  0.1072898E-008  0.3872467E+03  0.7957747E-01  0.3420199E+00
         13   -1    0    0    0    0  0.00000000000E+00  0.00000000000E+00  0.14999999963E+04  0.15000000000E+04  0.10566000000E+00 0.  1.
        994   -1    0    0    0    0 -0.00000000000E+00 -0.00000000000E+00  0.11368683772E-12  0.17120000000E+03  0.17120000000E+03 0.  0.
         13    1    1    2    0    0  0.88955061665E+02  0.90545591767E+02  0.30789124707E+03  0.33302933560E+03  0.10566000000E+00 0.  1.
        994    1    1    2    0    0 -0.81059638062E+02 -0.92916046583E+02  0.79464419302E+02  0.22545086066E+03  0.17120000000E+03 0.  0.
        998    1    1    2    0    0 -0.78954236034E+01  0.23704548162E+01  0.11126443299E+04  0.11127198037E+04  0.10000000000E+02 0.  1.
</event>
<event>
 5    1  0.1072898E-008  0.3816747E+03  0.7957747E-01  0.3443899E+00
         13   -1    0    0    0    0  0.00000000000E+00  0.00000000000E+00  0.14999999963E+04  0.15000000000E+04  0.10566000000E+00 0.  1.
        994   -1    0    0    0    0 -0.00000000000E+00 -0.00000000000E+00  0.11368683772E-12  0.17120000000E+03  0.17120000000E+03 0.  0.
         13    1    1    2    0    0 -0.13780387484E+02 -0.82080959023E+01  0.38510896445E+02  0.41717768715E+02  0.10566000000E+00 0.  1.
        994    1    1    2    0    0  0.13645173852E+02 -0.10199258682E+02  0.42555642941E+01  0.17209812746E+03  0.17120000000E+03 0.  0.
        998    1    1    2    0    0  0.13521363155E+00  0.18407354585E+02  0.14572335355E+04  0.14573841038E+04  0.10000000000E+02 0.  1.
</event>
<event>
 5    1  0.1072898E-008  0.3848210E+03  0.7957747E-01  0.3430432E+00
         13   -1    0    0    0    0  0.00000000000E+00  0.00000000000E+00  0.14999999963E+04  0.15000000000E+04  0.10566000000E+00 0.  1.
        994   -1    0    0    0    0 -0.00000000000E+00 -0.00000000000E+00  0.11368683772E-12  0.17120000000E+03  0.17120000000E+03 0.  0.
         13    1    1    2    0    0 -0.78463861063E+00  0.10725565361E+02  0.32794160712E+02  0.34512628861E+02  0.10566000000E+00 0.  1.
        994    1    1    2    0    0 -0.39746674973E+01 -0.11529485823E+02  0.22085708288E+01  0.17164802594E+03  0.17120000000E+03 0.  0.
        998    1    1    2    0    0  0.47593061079E+01  0.80392046202E+00  0.14649972647E+04  0.14650393452E+04  0.10000000000E+02 0.  1.
</event>
<event>
 5    1  0.1072898E-008  0.3854872E+03  0.7957747E-01  0.3427609E+00
         13   -1    0    0    0    0  0.00000000000E+00  0.00000000000E+00  0.14999999963E+04  0.15000000000E+04  0.10566000000E+00 0. -1.
        994   -1    0    0    0    0 -0.00000000000E+00 -0.00000000000E+00  0.11368683772E-12  0.17120000000E+03  0.17120000000E+03 0.  0.
         13    1    1    2    0    0 -0.48486082559E+01 -0.14677165720E+02  0.88114732297E+02  0.89460300734E+02  0.10566000000E+00 0. -1.
        994    1    1    2    0    0  0.21986985581E+01  0.73405003354E+01  0.15812865222E+01  0.17137869671E+03  0.17120000000E+03 0.  0.
        998    1    1    2    0    0  0.26499096978E+01  0.73366653842E+01  0.14103039775E+04  0.14103610026E+04  0.10000000000E+02 0. -1.
</event>
<event>
 5    1  0.1072898E-008  0.3778180E+03  0.7957747E-01  0.3460715E+00
         13   -1    0    0    0    0  0.00000000000E+00  0.00000000000E+00  0.14999999963E+04  0.15000000000E+04  0.10566000000E+00 0.  1.
        994   -1    0    0    0    0 -0.00000000000E+00 -0.00000000000E+00  0.11368683772E-12  0.17120000000E+03  0.17120000000E+03 0.  0.
         13    1    1    2    0    0 -0.19202588949E+01  0.12662875679E+02  0.13153922774E+02  0.18359538748E+02  0.10566000000E+00 0.  1.
        994    1    1    2    0    0  0.17356722098E+01 -0.15453291811E+02  0.60533546598E+01  0.17201133651E+03  0.17120000000E+03 0.  0.
        998    1    1    2    0    0  0.18458668509E+00  0.27904161329E+01  0.14807927188E+04  0.14808291247E+04  0.10000000000E+02 0.  1.
</event>
<event>
 5    1  0.1128635E-008  0.3861323E+03  0.7957747E-01  0.3424884E+00
         13   -1    0    0    0    0  0.00000000000E+00  0.00000000000E+00  0.14999999963E+04  0.15000000000E+04  0.10566000000E+00 0.  1.
        994   -1    0    0    0    0 -0.00000000000E+00 -0.00000000000E+00  0.11368683772E-12  0.17120000000E+03  0.17120000000E+03 0.  0.
         13    1    1    2    0    0 -0.34727803776E+01  0.11621012014E+02  0.69582178834E+02  0.70631429967E+02  0.10566000000E+00 0.  1.
        994    1    1    2    0    0  0.97066818453E+01 -0.59366130758E+01  0.14933287864E+01  0.17158418656E+03  0.17120000000E+03 0.  0.
        998    1    1    2    0    0 -0.62339014677E+01 -0.56843989377E+01  0.14289244887E+04  0.14289843835E+04  0.10000000000E+02 0.  1.
</event>
<event>
 5    1  0.1240217E-008  0.3857592E+03  0.7957747E-01  0.3426459E+00
         13   -1    0    0    0    0  0.00000000000E+00  0.00000000000E+00  0.14999999963E+04  0.15000000000E+04  0.10566000000E+00 0.  1.
        994   -1    0    0    0    0 -0.00000000000E+00 -0.00000000000E+00  0.11368683772E-12  0.17120000000E+03  0.17120000000E+03 0.  0.
         13    1    1    2    0    0 -0.62736554402E+01 -0.15143498250E+02  0.99132917250E+02  0.10047900646E+03  0.10566000000E+00 0.  1.
        994    1    1    2    0    0  0.50126342119E+01  0.19876274228E+02  0.26333621031E+01  0.17244293948E+03  0.17120000000E+03 0.  0.
        998    1    1    2    0    0  0.12610212283E+01 -0.47327759781E+01  0.13982337169E+04  0.13982780541E+04  0.10000000000E+02 0.  1.
</event>
<event>
 5    1  0.1072898E-008  0.3826541E+03  0.7957747E-01  0.3439683E+00
         13   -1    0    0    0    0  0.00000000000E+00  0.00000000000E+00  0.14999999963E+04  0.15000000000E+04  0.10566000000E+00 0.  1.
        994   -1    0    0    0    0 -0.00000000000E+00 -0.00000000000E+00  0.11368683772E-12  0.17120000000E+03  0.17120000000E+03 0.  0.
         13    1    1    2    0    0 -0.20160927440E+02  0.17114775109E+02  0.12129362171E+03  0.12414319294E+03  0.10566000000E+00 0.  1.
        994    1    1    2    0    0  0.15131294528E+02 -0.12127590871E+02  0.40464281597E+01  0.17234224124E+03  0.17120000000E+03 0.  0.
        998    1    1    2    0    0  0.50296329116E+01 -0.49871842387E+01  0.13746599464E+04  0.13747145658E+04  0.10000000000E+02 0.  1.
</event>
<event>
 5    1  0.1072898E-008  0.3848833E+03  0.7957747E-01  0.3430167E+00
         13   -1    0    0    0    0  0.00000000000E+00  0.00000000000E+00  0.14999999963E+04  0.15000000000E+04  0.10566000000E+00 0.  1.
        994   -1    0    0    0    0 -0.00000000000E+00 -0.00000000000E+00  0.11368683772E-12  0.17120000000E+03  0.17120000000E+03 0.  0.
         13    1    1    2    0    0  0.53005781433E+01  0.14945536078E+02  0.73541612289E+02  0.75231941882E+02  0.10566000000E+00 0.  1.
        994    1    1    2    0    0  0.84449413599E+00 -0.13300603719E+02  0.22726425752E+01  0.17173300246E+03  0.17120000000E+03 0.  0.
        998    1    1    2    0    0 -0.61450722793E+01 -0.16449323591E+01  0.14241857414E+04  0.14242350557E+04  0.10000000000E+02 0.  1.
</event>
<event>
 5    1  0.1072898E-008  0.3796438E+03  0.7957747E-01  0.3452711E+00
         13   -1    0    0    0    0  0.00000000000E+00  0.00000000000E+00  0.14999999963E+04  0.15000000000E+04  0.10566000000E+00 0.  1.
        994   -1    0    0    0    0 -0.00000000000E+00 -0.00000000000E+00  0.11368683772E-12  0.17120000000E+03  0.17120000000E+03 0.  0.
         13    1    1    2    0    0  0.61276323946E+01  0.51732288370E+02  0.25312559811E+03  0.25843056538E+03  0.10566000000E+00 0.  1.
        994    1    1    2    0    0 -0.12784518040E+02 -0.55232971024E+02  0.15146354274E+02  0.18097783576E+03  0.17120000000E+03 0.  0.
        998    1    1    2    0    0  0.66568856450E+01  0.35006826537E+01  0.12317280439E+04  0.12317915989E+04  0.10000000000E+02 0.  1.
</event>
<event>
 5    1  0.1072898E-008  0.3825999E+03  0.7957747E-01  0.3439916E+00
         13   -1    0    0    0    0  0.00000000000E+00  0.00000000000E+00  0.14999999963E+04  0.15000000000E+04  0.10566000000E+00 0. -1.
        994   -1    0    0    0    0 -0.00000000000E+00 -0.00000000000E+00  0.11368683772E-12  0.17120000000E+03  0.17120000000E+03 0.  0.
         13    1    1    2    0    0 -0.22366168983E+01  0.23258167733E+02  0.11313799699E+03  0.11552559174E+03  0.10566000000E+00 0. -1.
        994    1    1    2    0    0 -0.35794803005E+01  0.10339563959E+02  0.32233604451E+01  0.17157957138E+03  0.17120000000E+03 0.  0.
        998    1    1    2    0    0  0.58160971989E+01 -0.33597731692E+02  0.13836386388E+04  0.13840948369E+04  0.10000000000E+02 0. -1.
</event>
<event>
 5    1  0.1072898E-008  0.3687808E+03  0.7957747E-01  0.3501513E+00
         13   -1    0    0    0    0  0.00000000000E+00  0.00000000000E+00  0.14999999963E+04  0.15000000000E+04  0.10566000000E+00 0.  1.
        994   -1    0    0    0    0 -0.00000000000E+00 -0.00000000000E+00  0.11368683772E-12  0.17120000000E+03  0.17120000000E+03 0.  0.
         13    1    1    2    0    0 -0.16751377213E+02  0.38666085072E+02  0.85388425575E+02  0.95220109008E+02  0.10566000000E+00 0.  1.
        994    1    1    2    0    0  0.10192756529E+02 -0.27474291123E+02  0.12895269135E+02  0.17416789866E+03  0.17120000000E+03 0.  0.
        998    1    1    2    0    0  0.65586206839E+01 -0.11191793949E+02  0.14017163016E+04  0.14018119923E+04  0.10000000000E+02 0.  1.
</event>
<event>
 5    1  0.1578438E-008  0.3861280E+03  0.7957747E-01  0.3424902E+00
         13   -1    0    0    0    0  0.00000000000E+00  0.00000000000E+00  0.14999999963E+04  0.15000000000E+04  0.10566000000E+00 0.  1.
        994   -1    0    0    0    0 -0.00000000000E+00 -0.00000000000E+00  0.11368683772E-12  0.17120000000E+03  0.17120000000E+03 0.  0.
         13    1    1    2    0    0  0.45608562924E+01 -0.92632869842E+01  0.49100762574E+02  0.50174754062E+02  0.10566000000E+00 0.  1.
        994    1    1    2    0    0 -0.74118742997E+01  0.86626964969E+01  0.14971335724E+01  0.17158572085E+03  0.17120000000E+03 0.  0.
        998    1    1    2    0    0  0.28510180073E+01  0.60059048728E+00  0.14494021001E+04  0.14494395251E+04  0.10000000000E+02 0.  1.
</event>
<event>
 5    1  0.1072898E-008  0.3832451E+03  0.7957747E-01  0.3437149E+00
         13   -1    0    0    0    0  0.00000000000E+00  0.00000000000E+00  0.14999999963E+04  0.15000000000E+04  0.10566000000E+00 0. -1.
        994   -1    0    0    0    0 -0.00000000000E+00 -0.00000000000E+00  0.11368683772E-12  0.17120000000E+03  0.17120000000E+03 0.  0.
         13    1    1    2    0    0 -0.72152560483E+01 -0.18949587635E+02  0.88000733700E+02  0.90306628146E+02  0.10566000000E+00 0. -1.
        994    1    1    2    0    0 -0.89761068256E+01  0.36496609548E+01  0.28145231539E+01  0.17149709053E+03  0.17120000000E+03 0.  0.
        998    1    1    2    0    0  0.16191362874E+02  0.15299926681E+02  0.14091847394E+04  0.14093962813E+04  0.10000000000E+02 0. -1.
</event>
<event>
 5    1  0.1072898E-008  0.3789472E+03  0.7957747E-01  0.3455755E+00
         13   -1    0    0    0    0  0.00000000000E+00  0.00000000000E+00  0.14999999963E+04  0.15000000000E+04  0.10566000000E+00 0.  1.
        994   -1    0    0    0    0 -0.00000000000E+00 -0.00000000000E+00  0.11368683772E-12  0.17120000000E+03  0.17120000000E+03 0.  0.
         13    1    1    2    0    0 -0.10013124954E+02  0.21740777527E+02  0.59512407608E+02  0.64145630422E+02  0.10566000000E+00 0.  1.
        994    1    1    2    0    0  0.33079960790E+00 -0.17478590071E+02  0.56913922539E+01  0.17218432706E+03  0.17120000000E+03 0.  0.
        998    1    1    2    0    0  0.96823253460E+01 -0.42621874566E+01  0.14347961964E+04  0.14348700425E+04  0.10000000000E+02 0.  1.
</event>
<event>
 5    1  0.1072898E-008  0.3844109E+03  0.7957747E-01  0.3432175E+00
         13   -1    0    0    0    0  0.00000000000E+00  0.00000000000E+00  0.14999999963E+04  0.15000000000E+04  0.10566000000E+00 0. -1.
        994   -1    0    0    0    0 -0.00000000000E+00 -0.00000000000E+00  0.11368683772E-12  0.17120000000E+03  0.17120000000E+03 0.  0.
         13    1    1    2    0    0 -0.58474044120E+01 -0.14131938592E+02  0.60448926144E+02  0.62353730143E+02  0.10566000000E+00 0. -1.
        994    1    1    2    0    0  0.91939670262E+01  0.74124382984E+01  0.23825906758E+01  0.17162339587E+03  0.17120000000E+03 0.  0.
        998    1    1    2    0    0 -0.33465626142E+01  0.67195002933E+01  0.14371684795E+04  0.14372228740E+04  0.10000000000E+02 0. -1.
</event>
<event>
 5    1  0.1072898E-008  0.3728045E+03  0.7957747E-01  0.3483101E+00
         13   -1    0    0    0    0  0.00000000000E+00  0.00000000000E+00  0.14999999963E+04  0.15000000000E+04  0.10566000000E+00 0.  1.
        994   -1    0    0    0    0 -0.00000000000E+00 -0.00000000000E+00  0.11368683772E-12  0.17120000000E+03  0.17120000000E+03 0.  0.
         13    1    1    2    0    0  0.91035770640E+02  0.18510118506E+02  0.29694462769E+03  0.31113704232E+03  0.10566000000E+00 0.  1.
        994    1    1    2    0    0 -0.77898639624E+02 -0.16689387132E+02  0.35189953814E+02  0.19207942771E+03  0.17120000000E+03 0.  0.
        998    1    1    2    0    0 -0.13137131016E+02 -0.18207313732E+01  0.11678654148E+04  0.11679835300E+04  0.10000000000E+02 0.  1.
</event>
<event>
 5    1  0.1072898E-008  0.3832419E+03  0.7957747E-01  0.3437163E+00
         13   -1    0    0    0    0  0.00000000000E+00  0.00000000000E+00  0.14999999963E+04  0.15000000000E+04  0.10566000000E+00 0. -1.
        994   -1    0    0    0    0 -0.00000000000E+00 -0.00000000000E+00  0.11368683772E-12  0.17120000000E+03  0.17120000000E+03 0.  0.
         13    1    1    2    0    0 -0.50169426553E+01 -0.13499987258E+02  0.38739064417E+02  0.41329718672E+02  0.10566000000E+00 0. -1.
        994    1    1    2    0    0  0.50332189627E+01  0.20880360433E+02  0.40328351448E+01  0.17258918420E+03  0.17120000000E+03 0.  0.
        998    1    1    2    0    0 -0.16276307433E-01 -0.73803731747E+01  0.14572280967E+04  0.14572810971E+04  0.10000000000E+02 0. -1.
</event>
<event>
 5    1  0.1072898E-008  0.3835568E+03  0.7957747E-01  0.3435816E+00
         13   -1    0    0    0    0  0.00000000000E+00  0.00000000000E+00  0.14999999963E+04  0.15000000000E+04  0.10566000000E+00 0. -1.
        994   -1    0    0    0    0 -0.00000000000E+00 -0.00000000000E+00  0.11368683772E-12  0.17120000000E+03  0.17120000000E+03 0.  0.
         13    1    1    2    0    0 -0.10678552466E+02 -0.42795518460E+01  0.28038203717E+02  0.30306733220E+02  0.10566000000E+00 0. -1.
        994    1    1    2    0    0 -0.62110340559E+00  0.68441682456E+01  0.25044133439E+01  0.17135618021E+03  0.17120000000E+03 0.  0.
        998    1    1    2    0    0  0.11299655871E+02 -0.25646163996E+01  0.14694573792E+04  0.14695370866E+04  0.10000000000E+02 0. -1.
</event>
<event>
 5    1  0.1072898E-008  0.3850457E+03  0.7957747E-01  0.3429478E+00
         13   -1    0    0    0    0  0.00000000000E+00  0.00000000000E+00  0.14999999963E+04  0.15000000000E+04  0.10566000000E+00 0.  1.
        994   -1    0    0    0    0 -0.00000000000E+00 -0.00000000000E+00  0.11368683772E-12  0.17120000000E+03  0.17120000000E+03 0.  0.
         13    1    1    2    0    0  0.19057565304E+01 -0.14738265041E+02  0.69407783723E+02  0.70980983155E+02  0.10566000000E+00 0.  1.
        994    1    1    2    0    0  0.57835570161E+01  0.91933783622E+01  0.19954392065E+01  0.17155579126E+03  0.17120000000E+03 0.  0.
        998    1    1    2    0    0 -0.76893135465E+01  0.55448866793E+01  0.14285967733E+04  0.14286632256E+04  0.10000000000E+02 0.  1.
</event>
<event>
 5    1  0.1072898E-008  0.3810618E+03  0.7957747E-01  0.3446548E+00
         13   -1    0    0    0    0  0.00000000000E+00  0.00000000000E+00  0.14999999963E+04  0.15000000000E+04  0.10566000000E+00 0. -1.
        994   -1    0    0    0    0 -0.00000000000E+00 -0.00000000000E+00  0.11368683772E-12  0.17120000000E+03  0.17120000000E+03 0.  0.
         13    1    1    2    0    0  0.33045738528E+02  0.75278798636E+01  0.16500121771E+03  0.16844614219E+03  0.10566000000E+00 0. -1.
        994    1    1    2    0    0 -0.14976171316E+02  0.18260465772E+01  0.43567545229E+01  0.17191870597E+03  0.17120000000E+03 0.  0.
        998    1    1    2    0    0 -0.18069567212E+02 -0.93539264407E+01  0.13306420240E+04  0.13308351518E+04  0.10000000000E+02 0. -1.
</event>
<event>
 5    1  0.1072898E-008  0.3851298E+03  0.7957747E-01  0.3429122E+00
         13   -1    0    0    0    0  0.00000000000E+00  0.00000000000E+00  0.14999999963E+04  0.15000000000E+04  0.10566000000E+00 0. -1.
        994   -1    0    0    0    0 -0.00000000000E+00 -0.00000000000E+00  0.11368683772E-12  0.17120000000E+03  0.17120000000E+03 0.  0.
         13    1    1    2    0    0  0.21237303036E+01  0.11749825239E+02  0.45629851534E+02  0.47166334801E+02  0.10566000000E+00 0. -1.
        994    1    1    2    0    0  0.78317278771E+00 -0.77913710451E+01  0.17673060367E+01  0.17138810400E+03  0.17120000000E+03 0.  0.
        998    1    1    2    0    0 -0.29069030913E+01 -0.39584541938E+01  0.14526028387E+04  0.14526455612E+04  0.10000000000E+02 0. -1.
</event>
<event>
 5    1  0.1072898E-008  0.3815082E+03  0.7957747E-01  0.3444617E+00
         13   -1    0    0    0    0  0.00000000000E+00  0.00000000000E+00  0.14999999963E+04  0.15000000000E+04  0.10566000000E+00 0. -1.
        994   -1    0    0    0    0 -0.00000000000E+00 -0.00000000000E+00  0.11368683772E-12  0.17120000000E+03  0.17120000000E+03 0.  0.
         13    1    1    2    0    0 -0.24292819710E+02 -0.99329022360E+00  0.88682648450E+02  0.91955157631E+02  0.10566000000E+00 0. -1.
        994    1    1    2    0    0  0.10201028182E+02  0.46277406521E+01  0.37912136036E+01  0.17160795512E+03  0.17120000000E+03 0.  0.
        998    1    1    2    0    0  0.14091791528E+02 -0.36344504285E+01  0.14075261342E+04  0.14076368872E+04  0.10000000000E+02 0. -1.
</event>
<event>
 5    1  0.1072898E-008  0.3714403E+03  0.7957747E-01  0.3489298E+00
         13   -1    0    0    0    0  0.00000000000E+00  0.00000000000E+00  0.14999999963E+04  0.15000000000E+04  0.10566000000E+00 0. -1.
        994   -1    0    0    0    0 -0.00000000000E+00 -0.00000000000E+00  0.11368683772E-12  0.17120000000E+03  0.17120000000E+03 0.  0.
         13    1    1    2    0    0  0.36573496115E+02  0.50610298319E+02  0.29828753575E+03  0.30475315923E+03  0.10566000000E+00 0. -1.
        994    1    1    2    0    0 -0.19527940236E+01  0.52819850246E+01  0.86273049494E+01  0.17150971740E+03  0.17120000000E+03 0.  0.
        998    1    1    2    0    0 -0.34620702092E+02 -0.55892283344E+02  0.11930851556E+04  0.11949371234E+04  0.10000000000E+02 0. -1.
</event>
<event>
 5    1  0.1072898E-008  0.3738862E+03  0.7957747E-01  0.3478219E+00
         13   -1    0    0    0    0  0.00000000000E+00  0.00000000000E+00  0.14999999963E+04  0.15000000000E+04  0.10566000000E+00 0. -1.
        994   -1    0    0    0    0 -0.00000000000E+00 -0.00000000000E+00  0.11368683772E-12  0.17120000000E+03  0.17120000000E+03 0.  0.
         13    1    1    2    0    0 -0.23684659065E+02 -0.15801311624E+02  0.25334906108E+02  0.38111850593E+02  0.10566000000E+00 0. -1.
        994    1    1    2    0    0  0.21387263261E+02  0.19312520570E+02  0.15957336654E+02  0.17434008453E+03  0.17120000000E+03 0.  0.
        998    1    1    2    0    0  0.22973958046E+01 -0.35112089455E+01  0.14587077535E+04  0.14587480649E+04  0.10000000000E+02 0. -1.
</event>
<event>
 5    1  0.1072898E-008  0.3834394E+03  0.7957747E-01  0.3436318E+00
         13   -1    0    0    0    0  0.00000000000E+00  0.00000000000E+00  0.14999999963E+04  0.15000000000E+04  0.10566000000E+00 0. -1.
        994   -1    0    0    0    0 -0.00000000000E+00 -0.00000000000E+00  0.11368683772E-12  0.17120000000E+03  0.17120000000E+03 0.  0.
         13    1    1    2    0    0 -0.25113461166E+02  0.17430067098E+02  0.16962840743E+03  0.17236096119E+03  0.10566000000E+00 0. -1.
        994    1    1    2    0    0  0.26611005481E+02 -0.20645512350E+02  0.61655413221E+01  0.17459048282E+03  0.17120000000E+03 0.  0.
        998    1    1    2    0    0 -0.14975443154E+01  0.32154452522E+01  0.13242060475E+04  0.13242485560E+04  0.10000000000E+02 0. -1.
</event>
<event>
 5    1  0.1072898E-008  0.3796363E+03  0.7957747E-01  0.3452744E+00
         13   -1    0    0    0    0  0.00000000000E+00  0.00000000000E+00  0.14999999963E+04  0.15000000000E+04  0.10566000000E+00 0.  1.
        994   -1    0    0    0    0 -0.00000000000E+00 -0.00000000000E+00  0.11368683772E-12  0.17120000000E+03  0.17120000000E+03 0.  0.
         13    1    1    2    0    0  0.13143121870E+02  0.32369165337E+01  0.19035695903E+02  0.23357828745E+02  0.10566000000E+00 0.  1.
        994    1    1    2    0    0 -0.14632816639E+02 -0.10887974627E+02  0.54310769022E+01  0.17225447428E+03  0.17120000000E+03 0.  0.
        998    1    1    2    0    0  0.14896947692E+01  0.76510580933E+01  0.14755332235E+04  0.14755876970E+04  0.10000000000E+02 0.  1.
</event>
<event>
 5    1  0.1072898E-008  0.3814772E+03  0.7957747E-01  0.3444752E+00
         13   -1    0    0    0    0  0.00000000000E+00  0.00000000000E+00  0.14999999963E+04  0.15000000000E+04  0.10566000000E+00 0. -1.
        994   -1    0    0    0    0 -0.00000000000E+00 -0.00000000000E+00  0.11368683772E-12  0.17120000000E+03  0.17120000000E+03 0.  0.
         13    1    1    2    0    0  0.84509658112E+01 -0.25255463169E+02  0.11859221212E+03  0.12154579870E+03  0.10566000000E+00 0. -1.
        994    1    1    2    0    0  0.57803949921E+00 -0.56936122465E+01  0.34983058994E+01  0.17133134417E+03  0.17120000000E+03 0.  0.
        998    1    1    2    0    0 -0.90290053104E+01  0.30949075416E+02  0.13779094783E+04  0.13783228571E+04  0.10000000000E+02 0. -1.
</event>
<event>
 5    1  0.1072898E-008  0.3754247E+03  0.7957747E-01  0.3471325E+00
         13   -1    0    0    0    0  0.00000000000E+00  0.00000000000E+00  0.14999999963E+04  0.15000000000E+04  0.10566000000E+00 0. -1.
        994   -1    0    0    0    0 -0.00000000000E+00 -0.00000000000E+00  0.11368683772E-12  0.17120000000E+03  0.17120000000E+03 0.  0.
         13    1    1    2    0    0 -0.12630280397E+03  0.92573581685E+02  0.81273626567E+03  0.82768503370E+03  0.10566000000E+00 0. -1.
        994    1    1    2    0    0  0.13479294592E+03 -0.77824352457E+02  0.93710257214E+02  0.24963337199E+03  0.17120000000E+03 0.  0.
        998    1    1    2    0    0 -0.84901419587E+01 -0.14749229228E+02  0.59355347340E+03  0.59388159431E+03  0.10000000000E+02 0.  1.
</event>
<event>
 5    1  0.1072898E-008  0.3846349E+03  0.7957747E-01  0.3431222E+00
         13   -1    0    0    0    0  0.00000000000E+00  0.00000000000E+00  0.14999999963E+04  0.15000000000E+04  0.10566000000E+00 0. -1.
        994   -1    0    0    0    0 -0.00000000000E+00 -0.00000000000E+00  0.11368683772E-12  0.17120000000E+03  0.17120000000E+03 0.  0.
         13    1    1    2    0    0 -0.22411848989E+02 -0.48755771251E+01  0.13043568253E+03  0.13243693091E+03  0.10566000000E+00 0. -1.
        994    1    1    2    0    0  0.25687196388E+02  0.76523064844E+01  0.41804339277E+01  0.17333581823E+03  0.17120000000E+03 0.  0.
        998    1    1    2    0    0 -0.32753473988E+01 -0.27767293594E+01  0.13653838798E+04  0.13654272509E+04  0.10000000000E+02 0. -1.
</event>
<event>
 5    1  0.1072898E-008  0.3851041E+03  0.7957747E-01  0.3429231E+00
         13   -1    0    0    0    0  0.00000000000E+00  0.00000000000E+00  0.14999999963E+04  0.15000000000E+04  0.10566000000E+00 0. -1.
        994   -1    0    0    0    0 -0.00000000000E+00 -0.00000000000E+00  0.11368683772E-12  0.17120000000E+03  0.17120000000E+03 0.  0.
         13    1    1    2    0    0 -0.14799156686E+02 -0.13703252130E+01  0.71470833982E+02  0.72999891122E+02  0.10566000000E+00 0. -1.
        994    1    1    2    0    0  0.66398234177E+01  0.22050111852E+01  0.17393987529E+01  0.17135172843E+03  0.17120000000E+03 0.  0.
        998    1    1    2    0    0  0.81593332684E+01 -0.83468597214E+00  0.14267897635E+04  0.14268483804E+04  0.10000000000E+02 0. -1.
</event>
<event>
 5    1  0.1072898E-008  0.3691854E+03  0.7957747E-01  0.3499643E+00
         13   -1    0    0    0    0  0.00000000000E+00  0.00000000000E+00  0.14999999963E+04  0.15000000000E+04  0.10566000000E+00 0.  1.
        994   -1    0    0    0    0 -0.00000000000E+00 -0.00000000000E+00  0.11368683772E-12  0.17120000000E+03  0.17120000000E+03 0.  0.
         13    1    1    2    0    0  0.93087926571E+01  0.54372879865E+02  0.16764039666E+03  0.17648336307E+03  0.10566000000E+00 0.  1.
        994    1    1    2    0    0  0.99464318196E+01  0.20132468727E+01  0.10867822949E+02  0.17184450601E+03  0.17120000000E+03 0.  0.
        998    1    1    2    0    0 -0.19255224477E+02 -0.56386126738E+02  0.13214917767E+04  0.13228721309E+04  0.10000000000E+02 0.  1.
</event>
<event>
 5    1  0.1072898E-008  0.3853875E+03  0.7957747E-01  0.3428031E+00
         13   -1    0    0    0    0  0.00000000000E+00  0.00000000000E+00  0.14999999963E+04  0.15000000000E+04  0.10566000000E+00 0. -1.
        994   -1    0    0    0    0 -0.00000000000E+00 -0.00000000000E+00  0.11368683772E-12  0.17120000000E+03  0.17120000000E+03 0.  0.
         13    1    1    2    0    0 -0.26650183259E+01 -0.14422865697E+02  0.72784102760E+02  0.74247277096E+02  0.10566000000E+00 0. -1.
        994    1    1    2    0    0  0.13574553464E+01  0.14048790505E+02  0.20924707073E+01  0.17179356691E+03  0.17120000000E+03 0.  0.
        998    1    1    2    0    0  0.13075629795E+01  0.37407519260E+00  0.14251234228E+04  0.14251591560E+04  0.10000000000E+02 0. -1.
</event>
<event>
 5    1  0.1072898E-008  0.3829009E+03  0.7957747E-01  0.3438624E+00
         13   -1    0    0    0    0  0.00000000000E+00  0.00000000000E+00  0.14999999963E+04  0.15000000000E+04  0.10566000000E+00 0. -1.
        994   -1    0    0    0    0 -0.00000000000E+00 -0.00000000000E+00  0.11368683772E-12  0.17120000000E+03  0.17120000000E+03 0.  0.
         13    1    1    2    0    0  0.20646828187E+02  0.31905873298E+01  0.81593897025E+02  0.84226163142E+02  0.10566000000E+00 0. -1.
        994    1    1    2    0    0 -0.97851909413E+01 -0.12190685175E+02  0.34854339507E+01  0.17194752402E+03  0.17120000000E+03 0.  0.
        998    1    1    2    0    0 -0.10861637246E+02  0.90000978456E+01  0.14149206653E+04  0.14150263128E+04  0.10000000000E+02 0. -1.
</event>
<event>
 5    1  0.1072898E-008  0.3695662E+03  0.7957747E-01  0.3497887E+00
         13   -1    0    0    0    0  0.00000000000E+00  0.00000000000E+00  0.14999999963E+04  0.15000000000E+04  0.10566000000E+00 0.  1.
        994   -1    0    0    0    0 -0.00000000000E+00 -0.00000000000E+00  0.11368683772E-12  0.17120000000E+03  0.17120000000E+03 0.  0.
         13    1    1    2    0    0  0.29274450454E+02 -0.58765975632E+02  0.23027758858E+03  0.23945398787E+03  0.10566000000E+00 0.  1.
        994    1    1    2    0    0 -0.54655167962E+01  0.92164761885E+01  0.11110486718E+02  0.17189443918E+03  0.17120000000E+03 0.  0.
        998    1    1    2    0    0 -0.23808933658E+02  0.49549499444E+02  0.12586119210E+04  0.12598515729E+04  0.10000000000E+02 0.  1.
</event>
<event>
 5    1  0.1072898E-008  0.3817735E+03  0.7957747E-01  0.3443472E+00
         13   -1    0    0    0    0  0.00000000000E+00  0.00000000000E+00  0.14999999963E+04  0.15000000000E+04  0.10566000000E+00 0.  1.
        994   -1    0    0    0    0 -0.00000000000E+00 -0.00000000000E+00  0.11368683772E-12  0.17120000000E+03  0.17120000000E+03 0.  0.
         13    1    1    2    0    0  0.44670142335E+02 -0.10942416052E+02  0.19159433288E+03  0.19703694486E+03  0.10566000000E+00 0.  1.
        994    1    1    2    0    0 -0.90610960370E+02  0.43766709913E+02  0.37658004287E+02  0.20212233009E+03  0.17120000000E+03 0.  0.
        998    1    1    2    0    0  0.45940818034E+02 -0.32824293861E+02  0.12707476591E+04  0.12720407250E+04  0.10000000000E+02 0.  1.
</event>
<event>
 5    1  0.1072898E-008  0.3755196E+03  0.7957747E-01  0.3470902E+00
         13   -1    0    0    0    0  0.00000000000E+00  0.00000000000E+00  0.14999999963E+04  0.15000000000E+04  0.10566000000E+00 0. -1.
        994   -1    0    0    0    0 -0.00000000000E+00 -0.00000000000E+00  0.11368683772E-12  0.17120000000E+03  0.17120000000E+03 0.  0.
         13    1    1    2    0    0 -0.56187561893E+02  0.22374802864E+02  0.23953731520E+03  0.24705426621E+03  0.10566000000E+00 0. -1.
        994    1    1    2    0    0  0.55022606063E+02 -0.24249255594E+02  0.18780870493E+02  0.18242169463E+03  0.17120000000E+03 0.  0.
        998    1    1    2    0    0  0.11649558306E+01  0.18744527292E+01  0.12416818106E+04  0.12417240392E+04  0.10000000000E+02 0.  0.
</event>
<event>
 5    1  0.1072898E-008  0.3720736E+03  0.7957747E-01  0.3486415E+00
         13   -1    0    0    0    0  0.00000000000E+00  0.00000000000E+00  0.14999999963E+04  0.15000000000E+04  0.10566000000E+00 0.  1.
        994   -1    0    0    0    0 -0.00000000000E+00 -0.00000000000E+00  0.11368683772E-12  0.17120000000E+03  0.17120000000E+03 0.  0.
         13    1    1    2    0    0  0.63637430801E+02 -0.18552599353E+02  0.38351283601E+03  0.38919921389E+03  0.10566000000E+00 0.  1.
        994    1    1    2    0    0  0.67618238150E+02  0.39407771111E+02  0.33934989901E+02  0.19127525217E+03  0.17120000000E+03 0.  0.
        998    1    1    2    0    0 -0.13125566895E+03 -0.20855171758E+02  0.10825521704E+04  0.10907255339E+04  0.10000000000E+02 0.  1.
</event>
<event>
 5    1  0.1072898E-008  0.3835245E+03  0.7957747E-01  0.3435954E+00
         13   -1    0    0    0    0  0.00000000000E+00  0.00000000000E+00  0.14999999963E+04  0.15000000000E+04  0.10566000000E+00 0.  1.
        994   -1    0    0    0    0 -0.00000000000E+00 -0.00000000000E+00  0.11368683772E-12  0.17120000000E+03  0.17120000000E+03 0.  0.
         13    1    1    2    0    0 -0.15067370229E+01  0.10621993211E+02  0.23543921298E+02  0.25873236952E+02  0.10566000000E+00 0.  1.
        994    1    1    2    0    0  0.10170777844E+01 -0.73718895090E+01  0.25474963271E+01  0.17138059674E+03  0.17120000000E+03 0.  0.
        998    1    1    2    0    0  0.48965923850E+00 -0.32501037021E+01  0.14739085787E+04  0.14739461663E+04  0.10000000000E+02 0.  1.
</event>
<event>
 5    1  0.1072898E-008  0.3793510E+03  0.7957747E-01  0.3453989E+00
         13   -1    0    0    0    0  0.00000000000E+00  0.00000000000E+00  0.14999999963E+04  0.15000000000E+04  0.10566000000E+00 0. -1.
        994   -1    0    0    0    0 -0.00000000000E+00 -0.00000000000E+00  0.11368683772E-12  0.17120000000E+03  0.17120000000E+03 0.  0.
         13    1    1    2    0    0 -0.10338565716E+02 -0.23456783582E+01  0.10320123739E+02  0.14795413683E+02  0.10566000000E+00 0. -1.
        994    1    1    2    0    0  0.16826160782E+02  0.14746082513E+02  0.61398795857E+01  0.17276488288E+03  0.17120000000E+03 0.  0.
        998    1    1    2    0    0 -0.64875950658E+01 -0.12400404155E+02  0.14835399930E+04  0.14836397034E+04  0.10000000000E+02 0. -1.
</event>
<event>
 5    1  0.1072898E-008  0.3855259E+03  0.7957747E-01  0.3427445E+00
         13   -1    0    0    0    0  0.00000000000E+00  0.00000000000E+00  0.14999999963E+04  0.15000000000E+04  0.10566000000E+00 0.  1.
        994   -1    0    0    0    0 -0.00000000000E+00 -0.00000000000E+00  0.11368683772E-12  0.17120000000E+03  0.17120000000E+03 0.  0.
         13    1    1    2    0    0  0.12734644641E+02 -0.97847480110E+01  0.96161304189E+02  0.97493179532E+02  0.10566000000E+00 0.  1.
        994    1    1    2    0    0 -0.61252905236E+01  0.59556395386E+01  0.16089189836E+01  0.17142058641E+03  0.17120000000E+03 0.  0.
        998    1    1    2    0    0 -0.66093541172E+01  0.38291084724E+01  0.14022297731E+04  0.14022862341E+04  0.10000000000E+02 0.  1.
</event>
<event>
 5    1  0.1106278E-008  0.3852328E+03  0.7957747E-01  0.3428685E+00
         13   -1    0    0    0    0  0.00000000000E+00  0.00000000000E+00  0.14999999963E+04  0.15000000000E+04  0.10566000000E+00 0. -1.
        994   -1    0    0    0    0 -0.00000000000E+00 -0.00000000000E+00  0.11368683772E-12  0.17120000000E+03  0.17120000000E+03 0.  0.
         13    1    1    2    0    0  0.11885937811E+02 -0.69222998614E+01  0.60437976560E+02  0.61983497221E+02  0.10566000000E+00 0. -1.
        994    1    1    2    0    0 -0.12801193512E+02  0.72197965465E+01  0.22246978783E+01  0.17184407263E+03  0.17120000000E+03 0.  0.
        998    1    1    2    0    0  0.91525570124E+00 -0.29749668503E+00  0.14373373218E+04  0.14373724301E+04  0.10000000000E+02 0. -1.
</event>
<event>
 5    1  0.1072898E-008  0.3715793E+03  0.7957747E-01  0.3488664E+00
         13   -1    0    0    0    0  0.00000000000E+00  0.00000000000E+00  0.14999999963E+04  0.15000000000E+04  0.10566000000E+00 0. -1.
        994   -1    0    0    0    0 -0.00000000000E+00 -0.00000000000E+00  0.11368683772E-12  0.17120000000E+03  0.17120000000E+03 0.  0.
         13    1    1    2    0    0 -0.35938927283E+02 -0.68068412985E+02  0.21485050972E+03  0.22822284730E+03  0.10566000000E+00 0. -1.
        994    1    1    2    0    0  0.46968800146E+02  0.59888063962E+02  0.32428814819E+02  0.19014130646E+03  0.17120000000E+03 0.  0.
        998    1    1    2    0    0 -0.11029872863E+02  0.81803490235E+01  0.12527206717E+04  0.12528358462E+04  0.10000000000E+02 0. -1.
</event>
<event>
 5    1  0.1072898E-008  0.3783508E+03  0.7957747E-01  0.3458371E+00
         13   -1    0    0    0    0  0.00000000000E+00  0.00000000000E+00  0.14999999963E+04  0.15000000000E+04  0.10566000000E+00 0.  1.
        994   -1    0    0    0    0 -0.00000000000E+00 -0.00000000000E+00  0.11368683772E-12  0.17120000000E+03  0.17120000000E+03 0.  0.
         13    1    1    2    0    0 -0.16059886766E+01  0.53780907784E+02  0.84870279694E+02  0.10048851069E+03  0.10566000000E+00 0.  1.
        994    1    1    2    0    0 -0.79162422169E+01 -0.50234836458E+02  0.24798280079E+02  0.18030696154E+03  0.17120000000E+03 0.  0.
        998    1    1    2    0    0  0.95222308935E+01 -0.35460713257E+01  0.13903314365E+04  0.13904045278E+04  0.10000000000E+02 0.  1.
</event>
<event>
 5    1  0.1072898E-008  0.3854468E+03  0.7957747E-01  0.3427779E+00
         13   -1    0    0    0    0  0.00000000000E+00  0.00000000000E+00  0.14999999963E+04  0.15000000000E+04  0.10566000000E+00 0. -1.
        994   -1    0    0    0    0 -0.00000000000E+00 -0.00000000000E+00  0.11368683772E-12  0.17120000000E+03  0.17120000000E+03 0.  0.
         13    1    1    2    0    0 -0.11168297636E+02 -0.11088706637E+02  0.87837259273E+02  0.89236122549E+02  0.10566000000E+00 0. -1.
        994    1    1    2    0    0  0.91751932869E+01  0.62328702724E+01  0.18126025055E+01  0.17156852384E+03  0.17120000000E+03 0.  0.
        998    1    1    2    0    0  0.19931043493E+01  0.48558363642E+01  0.14103501345E+04  0.14103953536E+04  0.10000000000E+02 0. -1.
</event>
<event>
 5    1  0.1072898E-008  0.3839248E+03  0.7957747E-01  0.3434245E+00
         13   -1    0    0    0    0  0.00000000000E+00  0.00000000000E+00  0.14999999963E+04  0.15000000000E+04  0.10566000000E+00 0.  1.
        994   -1    0    0    0    0 -0.00000000000E+00 -0.00000000000E+00  0.11368683772E-12  0.17120000000E+03  0.17120000000E+03 0.  0.
         13    1    1    2    0    0  0.11770004082E+01 -0.20269641288E+02  0.90077760564E+02  0.92337737681E+02  0.10566000000E+00 0.  1.
        994    1    1    2    0    0 -0.75415781944E+01  0.20300775215E+02  0.37141972301E+01  0.17260426454E+03  0.17120000000E+03 0.  0.
        998    1    1    2    0    0  0.63645777862E+01 -0.31133927227E-01  0.14062080385E+04  0.14062579978E+04  0.10000000000E+02 0.  1.
</event>
<event>
 5    1  0.1072898E-008  0.3837343E+03  0.7957747E-01  0.3435058E+00
         13   -1    0    0    0    0  0.00000000000E+00  0.00000000000E+00  0.14999999963E+04  0.15000000000E+04  0.10566000000E+00 0.  1.
        994   -1    0    0    0    0 -0.00000000000E+00 -0.00000000000E+00  0.11368683772E-12  0.17120000000E+03  0.17120000000E+03 0.  0.
         13    1    1    2    0    0 -0.10049139278E+02 -0.19295355819E+01  0.22481714017E+02  0.24701152543E+02  0.10566000000E+00 0.  1.
        994    1    1    2    0    0  0.51206388335E+01  0.69111321214E+01  0.25042095788E+01  0.17143423157E+03  0.17120000000E+03 0.  0.
        998    1    1    2    0    0  0.49285004444E+01 -0.49815965395E+01  0.14750140727E+04  0.14750646159E+04  0.10000000000E+02 0.  1.
</event>
<event>
 5    1  0.1072898E-008  0.3774059E+03  0.7957747E-01  0.3462532E+00
         13   -1    0    0    0    0  0.00000000000E+00  0.00000000000E+00  0.14999999963E+04  0.15000000000E+04  0.10566000000E+00 0.  1.
        994   -1    0    0    0    0 -0.00000000000E+00 -0.00000000000E+00  0.11368683772E-12  0.17120000000E+03  0.17120000000E+03 0.  0.
         13    1    1    2    0    0  0.28573755779E+02  0.14941881077E+01  0.72304859176E+02  0.77760503740E+02  0.10566000000E+00 0.  1.
        994    1    1    2    0    0 -0.22153276801E+02  0.21455842438E+02  0.86621279194E+01  0.17417116095E+03  0.17120000000E+03 0.  0.
        998    1    1    2    0    0 -0.64204789784E+01 -0.22950030546E+02  0.14190330092E+04  0.14192683353E+04  0.10000000000E+02 0.  1.
</event>
<event>
 5    1  0.1072898E-008  0.3844402E+03  0.7957747E-01  0.3432050E+00
         13   -1    0    0    0    0  0.00000000000E+00  0.00000000000E+00  0.14999999963E+04  0.15000000000E+04  0.10566000000E+00 0. -1.
        994   -1    0    0    0    0 -0.00000000000E+00 -0.00000000000E+00  0.11368683772E-12  0.17120000000E+03  0.17120000000E+03 0.  0.
         13    1    1    2    0    0  0.18053697497E+02  0.25569092736E+01  0.91894468570E+02  0.93686062443E+02  0.10566000000E+00 0. -1.
        994    1    1    2    0    0 -0.19345609267E+01 -0.14813727758E+02  0.26439724018E+01  0.17187093892E+03  0.17120000000E+03 0.  0.
        998    1    1    2    0    0 -0.16119136571E+02  0.12256818484E+02  0.14054615553E+04  0.14056429986E+04  0.10000000000E+02 0. -1.
</event>
<event>
 5    1  0.1072898E-008  0.3849571E+03  0.7957747E-01  0.3429854E+00
         13   -1    0    0    0    0  0.00000000000E+00  0.00000000000E+00  0.14999999963E+04  0.15000000000E+04  0.10566000000E+00 0.  1.
        994   -1    0    0    0    0 -0.00000000000E+00 -0.00000000000E+00  0.11368683772E-12  0.17120000000E+03  0.17120000000E+03 0.  0.
         13    1    1    2    0    0  0.25526527214E+01 -0.13496406962E+02  0.58300327411E+02  0.59896647461E+02  0.10566000000E+00 0.  1.
        994    1    1    2    0    0 -0.33032896237E+01  0.50787597688E+01  0.17721724963E+01  0.17131633348E+03  0.17120000000E+03 0.  0.
        998    1    1    2    0    0  0.75063690228E+00  0.84176471933E+01  0.14399274964E+04  0.14399870191E+04  0.10000000000E+02 0.  1.
</event>
<event>
 5    1  0.1072898E-008  0.3856248E+03  0.7957747E-01  0.3427027E+00
         13   -1    0    0    0    0  0.00000000000E+00  0.00000000000E+00  0.14999999963E+04  0.15000000000E+04  0.10566000000E+00 0.  1.
        994   -1    0    0    0    0 -0.00000000000E+00 -0.00000000000E+00  0.11368683772E-12  0.17120000000E+03  0.17120000000E+03 0.  0.
         13    1    1    2    0    0  0.14519429478E+02 -0.50307723029E+01  0.89819082455E+02  0.91124098017E+02  0.10566000000E+00 0.  1.
        994    1    1    2    0    0 -0.93833646494E+01  0.40291149457E+01  0.16625775694E+01  0.17151234785E+03  0.17120000000E+03 0.  0.
        998    1    1    2    0    0 -0.51360648281E+01  0.10016573572E+01  0.14085183363E+04  0.14085635541E+04  0.10000000000E+02 0.  1.
</event>
<event>
 5    1  0.1072898E-008  0.3808446E+03  0.7957747E-01  0.3447489E+00
         13   -1    0    0    0    0  0.00000000000E+00  0.00000000000E+00  0.14999999963E+04  0.15000000000E+04  0.10566000000E+00 0.  1.
        994   -1    0    0    0    0 -0.00000000000E+00 -0.00000000000E+00  0.11368683772E-12  0.17120000000E+03  0.17120000000E+03 0.  0.
         13    1    1    2    0    0 -0.65335363040E+01  0.15698670164E+02  0.38555104448E+02  0.42138374252E+02  0.10566000000E+00 0.  1.
        994    1    1    2    0    0 -0.11477694818E+02 -0.94032187676E+01  0.44416764422E+01  0.17189917536E+03  0.17120000000E+03 0.  0.
        998    1    1    2    0    0  0.18011231122E+02 -0.62954513961E+01  0.14570032154E+04  0.14571624504E+04  0.10000000000E+02 0.  1.
</event>
<event>
 5    1  0.1072898E-008  0.3821424E+03  0.7957747E-01  0.3441883E+00
         13   -1    0    0    0    0  0.00000000000E+00  0.00000000000E+00  0.14999999963E+04  0.15000000000E+04  0.10566000000E+00 0.  1.
        994   -1    0    0    0    0 -0.00000000000E+00 -0.00000000000E+00  0.11368683772E-12  0.17120000000E+03  0.17120000000E+03 0.  0.
         13    1    1    2    0    0 -0.11455112633E+03  0.45893572673E+02  0.50952141295E+03  0.52425209773E+03  0.10566000000E+00 0.  1.
        994    1    1    2    0    0  0.43912900290E+02 -0.25408019086E+02  0.26969889282E+02  0.18058439903E+03  0.17120000000E+03 0.  0.
        998    1    1    2    0    0  0.70638226043E+02 -0.20485553587E+02  0.96350869405E+03  0.96636350324E+03  0.10000000000E+02 0.  1.
</event>
<event>
 5    1  0.1072898E-008  0.3825143E+03  0.7957747E-01  0.3440283E+00
         13   -1    0    0    0    0  0.00000000000E+00  0.00000000000E+00  0.14999999963E+04  0.15000000000E+04  0.10566000000E+00 0.  1.
        994   -1    0    0    0    0 -0.00000000000E+00 -0.00000000000E+00  0.11368683772E-12  0.17120000000E+03  0.17120000000E+03 0.  0.
         13    1    1    2    0    0 -0.15554260314E+02 -0.79436801830E+01  0.50172949657E+02  0.53126011614E+02  0.10566000000E+00 0.  1.
        994    1    1    2    0    0  0.95017799425E+01  0.27397335072E+02  0.56621990592E+01  0.17373082136E+03  0.17120000000E+03 0.  0.
        998    1    1    2    0    0  0.60524803711E+01 -0.19453654889E+02  0.14441648476E+04  0.14443431670E+04  0.10000000000E+02 0.  1.
</event>
<event>
 5    1  0.1072898E-008  0.3852783E+03  0.7957747E-01  0.3428493E+00
         13   -1    0    0    0    0  0.00000000000E+00  0.00000000000E+00  0.14999999963E+04  0.15000000000E+04  0.10566000000E+00 0.  1.
        994   -1    0    0    0    0 -0.00000000000E+00 -0.00000000000E+00  0.11368683772E-12  0.17120000000E+03  0.17120000000E+03 0.  0.
         13    1    1    2    0    0 -0.58624844878E+00  0.15836857006E+02  0.90416627742E+02  0.91795029622E+02  0.10566000000E+00 0.  1.
        994    1    1    2    0    0 -0.48397145652E+01 -0.17835309735E+01  0.15794557085E+01  0.17128496285E+03  0.17120000000E+03 0.  0.
        998    1    1    2    0    0  0.54259630140E+01 -0.14053326033E+02  0.14080039128E+04  0.14081200075E+04  0.10000000000E+02 0.  1.
</event>
<event>
 5    1  0.1090725E-008  0.3839266E+03  0.7957747E-01  0.3434237E+00
         13   -1    0    0    0    0  0.00000000000E+00  0.00000000000E+00  0.14999999963E+04  0.15000000000E+04  0.10566000000E+00 0.  1.
        994   -1    0    0    0    0 -0.00000000000E+00 -0.00000000000E+00  0.11368683772E-12  0.17120000000E+03  0.17120000000E+03 0.  0.
         13    1    1    2    0    0  0.48682978462E+01 -0.12953987485E+02  0.42377941110E+02  0.44580345136E+02  0.10566000000E+00 0.  1.
        994    1    1    2    0    0 -0.64902684883E+01  0.14821372369E+02  0.30284347302E+01  0.17198955806E+03  0.17120000000E+03 0.  0.
        998    1    1    2    0    0  0.16219706421E+01 -0.18673848838E+01  0.14545936204E+04  0.14546300968E+04  0.10000000000E+02 0.  1.
</event>
<event>
 5    1  0.1072898E-008  0.3843588E+03  0.7957747E-01  0.3432396E+00
         13   -1    0    0    0    0  0.00000000000E+00  0.00000000000E+00  0.14999999963E+04  0.15000000000E+04  0.10566000000E+00 0.  1.
        994   -1    0    0    0    0 -0.00000000000E+00 -0.00000000000E+00  0.11368683772E-12  0.17120000000E+03  0.17120000000E+03 0.  0.
         13    1    1    2    0    0 -0.15570503703E+02  0.63335958710E+01  0.75398763514E+02  0.77249852594E+02  0.10566000000E+00 0.  1.
        994    1    1    2    0    0  0.59142131312E+01  0.36535022721E+01  0.21081140255E+01  0.17135404909E+03  0.17120000000E+03 0.  0.
        998    1    1    2    0    0  0.96562905718E+01 -0.99870981431E+01  0.14224931187E+04  0.14225960983E+04  0.10000000000E+02 0.  1.
</event>
<event>
 5    1  0.1072898E-008  0.3854422E+03  0.7957747E-01  0.3427799E+00
         13   -1    0    0    0    0  0.00000000000E+00  0.00000000000E+00  0.14999999963E+04  0.15000000000E+04  0.10566000000E+00 0.  1.
        994   -1    0    0    0    0 -0.00000000000E+00 -0.00000000000E+00  0.11368683772E-12  0.17120000000E+03  0.17120000000E+03 0.  0.
         13    1    1    2    0    0 -0.36308301910E+01 -0.10693141245E+02  0.45987793174E+02  0.47354139023E+02  0.10566000000E+00 0.  1.
        994    1    1    2    0    0  0.19147497351E+01  0.47763479597E+01  0.14976954399E+01  0.17128386631E+03  0.17120000000E+03 0.  0.
        998    1    1    2    0    0  0.17160804559E+01  0.59167932856E+01  0.14525145077E+04  0.14525619947E+04  0.10000000000E+02 0.  1.
</event>
<event>
 5    1  0.1072898E-008  0.3777045E+03  0.7957747E-01  0.3461215E+00
         13   -1    0    0    0    0  0.00000000000E+00  0.00000000000E+00  0.14999999963E+04  0.15000000000E+04  0.10566000000E+00 0.  1.
        994   -1    0    0    0    0 -0.00000000000E+00 -0.00000000000E+00  0.11368683772E-12  0.17120000000E+03  0.17120000000E+03 0.  0.
         13    1    1    2    0    0  0.15674728928E+02  0.90507616031E+01  0.28099310626E+02  0.33424479566E+02  0.10566000000E+00 0.  1.
        994    1    1    2    0    0 -0.18318792932E+02 -0.95276135197E+01  0.67338801104E+01  0.17257212618E+03  0.17120000000E+03 0.  0.
        998    1    1    2    0    0  0.26440640033E+01  0.47685191655E+00  0.14651668055E+04  0.14652033943E+04  0.10000000000E+02 0.  1.
</event>
<event>
 5    1  0.1072898E-008  0.3857175E+03  0.7957747E-01  0.3426635E+00
         13   -1    0    0    0    0  0.00000000000E+00  0.00000000000E+00  0.14999999963E+04  0.15000000000E+04  0.10566000000E+00 0. -1.
        994   -1    0    0    0    0 -0.00000000000E+00 -0.00000000000E+00  0.11368683772E-12  0.17120000000E+03  0.17120000000E+03 0.  0.
         13    1    1    2    0    0 -0.35989078333E+01  0.10634811636E+02  0.49040819719E+02  0.50309686133E+02  0.10566000000E+00 0. -1.
        994    1    1    2    0    0  0.10950934948E+02 -0.70250382375E+01  0.18299260447E+01  0.17170341513E+03  0.17120000000E+03 0.  0.
        998    1    1    2    0    0 -0.73520271151E+01 -0.36097733983E+01  0.14491292505E+04  0.14491868987E+04  0.10000000000E+02 0. -1.
</event>
<event>
 5    1  0.1072898E-008  0.3809673E+03  0.7957747E-01  0.3446957E+00
         13   -1    0    0    0    0  0.00000000000E+00  0.00000000000E+00  0.14999999963E+04  0.15000000000E+04  0.10566000000E+00 0.  1.
        994   -1    0    0    0    0 -0.00000000000E+00 -0.00000000000E+00  0.11368683772E-12  0.17120000000E+03  0.17120000000E+03 0.  0.
         13    1    1    2    0    0  0.15717739126E+02  0.10763681417E+02  0.46090690530E+02  0.49872508243E+02  0.10566000000E+00 0.  1.
        994    1    1    2    0    0 -0.26798505074E+02 -0.62571397272E+01  0.61732925164E+01  0.17350752494E+03  0.17120000000E+03 0.  0.
        998    1    1    2    0    0  0.11080765948E+02 -0.45065416902E+01  0.14477360132E+04  0.14478199668E+04  0.10000000000E+02 0.  1.
</event>
<event>
 5    1  0.1072898E-008  0.3734579E+03  0.7957747E-01  0.3480149E+00
         13   -1    0    0    0    0  0.00000000000E+00  0.00000000000E+00  0.14999999963E+04  0.15000000000E+04  0.10566000000E+00 0. -1.
        994   -1    0    0    0    0 -0.00000000000E+00 -0.00000000000E+00  0.11368683772E-12  0.17120000000E+03  0.17120000000E+03 0.  0.
         13    1    1    2    0    0  0.91988466164E+02  0.50901211415E+02  0.62777935557E+03  0.63652159560E+03  0.10566000000E+00 0. -1.
        994    1    1    2    0    0 -0.74539261530E+02 -0.22457094747E+02  0.28472985859E+02  0.19021191744E+03  0.17120000000E+03 0.  0.
        998    1    1    2    0    0 -0.17449204634E+02 -0.28444116668E+02  0.84374765485E+03  0.84446648695E+03  0.10000000000E+02 0. -1.
</event>
<event>
 5    1  0.1072898E-008  0.3690609E+03  0.7957747E-01  0.3500218E+00
         13   -1    0    0    0    0  0.00000000000E+00  0.00000000000E+00  0.14999999963E+04  0.15000000000E+04  0.10566000000E+00 0. -1.
        994   -1    0    0    0    0 -0.00000000000E+00 -0.00000000000E+00  0.11368683772E-12  0.17120000000E+03  0.17120000000E+03 0.  0.
         13    1    1    2    0    0 -0.12137900441E+02 -0.66558524755E+01  0.52304670199E+01  0.14798579275E+02  0.10566000000E+00 0. -1.
        994    1    1    2    0    0  0.23660149809E+02 -0.46413662415E+01  0.11779983123E+02  0.17329037184E+03  0.17120000000E+03 0.  0.
        998    1    1    2    0    0 -0.11522249368E+02  0.11297218717E+02  0.14829895461E+04  0.14831110489E+04  0.10000000000E+02 0. -1.
</event>
<event>
 5    1  0.1072898E-008  0.3813915E+03  0.7957747E-01  0.3445122E+00
         13   -1    0    0    0    0  0.00000000000E+00  0.00000000000E+00  0.14999999963E+04  0.15000000000E+04  0.10566000000E+00 0. -1.
        994   -1    0    0    0    0 -0.00000000000E+00 -0.00000000000E+00  0.11368683772E-12  0.17120000000E+03  0.17120000000E+03 0.  0.
         13    1    1    2    0    0  0.20046949826E+02  0.35733344425E+01  0.57393880195E+02  0.60899241081E+02  0.10566000000E+00 0. -1.
        994    1    1    2    0    0 -0.19677172215E+02 -0.59366385783E+01  0.48393520084E+01  0.17249722929E+03  0.17120000000E+03 0.  0.
        998    1    1    2    0    0 -0.36977761030E+00  0.23633041357E+01  0.14377667641E+04  0.14378035296E+04  0.10000000000E+02 0. -1.
</event>
<event>
 5    1  0.1072898E-008  0.3782925E+03  0.7957747E-01  0.3458627E+00
         13   -1    0    0    0    0  0.00000000000E+00  0.00000000000E+00  0.14999999963E+04  0.15000000000E+04  0.10566000000E+00 0. -1.
        994   -1    0    0    0    0 -0.00000000000E+00 -0.00000000000E+00  0.11368683772E-12  0.17120000000E+03  0.17120000000E+03 0.  0.
         13    1    1    2    0    0  0.17302381237E+02  0.24770884012E+02  0.10017852785E+03  0.10463612042E+03  0.10566000000E+00 0. -1.
        994    1    1    2    0    0 -0.96144074948E+01  0.12363240634E+02  0.58226040342E+01  0.17201345665E+03  0.17120000000E+03 0.  0.
        998    1    1    2    0    0 -0.76879737422E+01 -0.37134124645E+02  0.13939988644E+04  0.13945504229E+04  0.10000000000E+02 0. -1.
</event>
<event>
 5    1  0.1072898E-008  0.3764898E+03  0.7957747E-01  0.3466586E+00
         13   -1    0    0    0    0  0.00000000000E+00  0.00000000000E+00  0.14999999963E+04  0.15000000000E+04  0.10566000000E+00 0. -1.
        994   -1    0    0    0    0 -0.00000000000E+00 -0.00000000000E+00  0.11368683772E-12  0.17120000000E+03  0.17120000000E+03 0.  0.
         13    1    1    2    0    0 -0.15504590670E+02 -0.30831717166E+02  0.99515796811E+02  0.10532992022E+03  0.10566000000E+00 0. -1.
        994    1    1    2    0    0 -0.15777568793E+02  0.29511237649E+02  0.97125515606E+01  0.17471009840E+03  0.17120000000E+03 0.  0.
        998    1    1    2    0    0  0.31282159463E+02  0.13204795167E+01  0.13907716479E+04  0.13911599814E+04  0.10000000000E+02 0. -1.
</event>
<event>
 5    1  0.1072898E-008  0.2365436E+03  0.7957747E-01  0.4488066E+00
         13   -1    0    0    0    0  0.00000000000E+00  0.00000000000E+00  0.14999999963E+04  0.15000000000E+04  0.10566000000E+00 0. -1.
        994   -1    0    0    0    0 -0.00000000000E+00 -0.00000000000E+00  0.11368683772E-12  0.17120000000E+03  0.17120000000E+03 0.  0.
         13    1    1    2    0    0 -0.16007084951E+03  0.96565984452E+02  0.23058922620E+03  0.29684856176E+03  0.10566000000E+00 0. -1.
        994    1    1    2    0    0  0.10209668094E+03 -0.74298423986E+02  0.16779235220E+03  0.27093855673E+03  0.17120000000E+03 0.  0.
        998    1    1    2    0    0  0.57974168567E+02 -0.22267560466E+02  0.11016184179E+04  0.11034128815E+04  0.10000000000E+02 0. -1.
</event>
<event>
 5    1  0.1072898E-008  0.3840838E+03  0.7957747E-01  0.3433567E+00
         13   -1    0    0    0    0  0.00000000000E+00  0.00000000000E+00  0.14999999963E+04  0.15000000000E+04  0.10566000000E+00 0.  1.
        994   -1    0    0    0    0 -0.00000000000E+00 -0.00000000000E+00  0.11368683772E-12  0.17120000000E+03  0.17120000000E+03 0.  0.
         13    1    1    2    0    0 -0.18845923835E+02 -0.17309292848E+02  0.15453260244E+03  0.15663689490E+03  0.10566000000E+00 0.  1.
        994    1    1    2    0    0 -0.11439959684E+01  0.27489835874E+02  0.45866330141E+01  0.17345742130E+03  0.17120000000E+03 0.  0.
        998    1    1    2    0    0  0.19989919803E+02 -0.10180543026E+02  0.13408807608E+04  0.13411056838E+04  0.10000000000E+02 0.  1.
</event>
<event>
 5    1  0.1072898E-008  0.3829747E+03  0.7957747E-01  0.3438307E+00
         13   -1    0    0    0    0  0.00000000000E+00  0.00000000000E+00  0.14999999963E+04  0.15000000000E+04  0.10566000000E+00 0. -1.
        994   -1    0    0    0    0 -0.00000000000E+00 -0.00000000000E+00  0.11368683772E-12  0.17120000000E+03  0.17120000000E+03 0.  0.
         13    1    1    2    0    0 -0.14170398821E+02 -0.95043590612E+01  0.53784051051E+02  0.56425777402E+02  0.10566000000E+00 0. -1.
        994    1    1    2    0    0  0.10860426870E+02  0.80885694161E+01  0.32462620032E+01  0.17176539827E+03  0.17120000000E+03 0.  0.
        998    1    1    2    0    0  0.33099719504E+01  0.14157896451E+01  0.14429696832E+04  0.14430088243E+04  0.10000000000E+02 0. -1.
</event>
<event>
 5    1  0.1072898E-008  0.3745493E+03  0.7957747E-01  0.3475241E+00
         13   -1    0    0    0    0  0.00000000000E+00  0.00000000000E+00  0.14999999963E+04  0.15000000000E+04  0.10566000000E+00 0. -1.
        994   -1    0    0    0    0 -0.00000000000E+00 -0.00000000000E+00  0.11368683772E-12  0.17120000000E+03  0.17120000000E+03 0.  0.
         13    1    1    2    0    0  0.79303953792E+02 -0.73606158982E+02  0.61039119465E+03  0.61990677154E+03  0.10566000000E+00 0. -1.
        994    1    1    2    0    0 -0.31780464795E+02  0.91202859407E+01  0.17258361316E+02  0.17521549188E+03  0.17120000000E+03 0.  0.
        998    1    1    2    0    0 -0.47523488997E+02  0.64485873041E+02  0.87235044031E+03  0.87607773659E+03  0.10000000000E+02 0. -1.
</event>
<event>
 5    1  0.1072898E-008  0.3235645E+03  0.7957747E-01  0.3740941E+00
         13   -1    0    0    0    0  0.00000000000E+00  0.00000000000E+00  0.14999999963E+04  0.15000000000E+04  0.10566000000E+00 0.  1.
        994   -1    0    0    0    0 -0.00000000000E+00 -0.00000000000E+00  0.11368683772E-12  0.17120000000E+03  0.17120000000E+03 0.  0.
         13    1    1    2    0    0 -0.17585307592E+03 -0.20538334809E+03  0.65966180475E+03  0.71292379101E+03  0.10566000000E+00 0.  1.
        994    1    1    2    0    0  0.15380943763E+03  0.18190451739E+03  0.30974408106E+03  0.42661157076E+03  0.17120000000E+03 0.  0.
        998    1    1    2    0    0  0.22043638287E+02  0.23478830695E+02  0.53059411047E+03  0.53166463823E+03  0.10000000000E+02 0.  1.
</event>
<event>
 5    1  0.1072898E-008  0.3859075E+03  0.7957747E-01  0.3425833E+00
         13   -1    0    0    0    0  0.00000000000E+00  0.00000000000E+00  0.14999999963E+04  0.15000000000E+04  0.10566000000E+00 0. -1.
        994   -1    0    0    0    0 -0.00000000000E+00 -0.00000000000E+00  0.11368683772E-12  0.17120000000E+03  0.17120000000E+03 0.  0.
         13    1    1    2    0    0 -0.93267074565E+01  0.88844969329E+01  0.69531706522E+02  0.70714857942E+02  0.10566000000E+00 0. -1.
        994    1    1    2    0    0  0.84479556694E+01 -0.75020060777E+01  0.15989280840E+01  0.17157984911E+03  0.17120000000E+03 0.  0.
        998    1    1    2    0    0  0.87875178710E+00 -0.13824908552E+01  0.14288693617E+04  0.14289052929E+04  0.10000000000E+02 0. -1.
</event>
<event>
 5    1  0.1072898E-008  0.3729263E+03  0.7957747E-01  0.3482549E+00
         13   -1    0    0    0    0  0.00000000000E+00  0.00000000000E+00  0.14999999963E+04  0.15000000000E+04  0.10566000000E+00 0.  1.
        994   -1    0    0    0    0 -0.00000000000E+00 -0.00000000000E+00  0.11368683772E-12  0.17120000000E+03  0.17120000000E+03 0.  0.
         13    1    1    2    0    0 -0.43121091025E+02  0.67476352239E+02  0.32704370286E+03  0.33670473912E+03  0.10566000000E+00 0.  1.
        994    1    1    2    0    0 -0.45299866760E+00 -0.76805768603E+01  0.12703729161E+02  0.17184301325E+03  0.17120000000E+03 0.  0.
        998    1    1    2    0    0  0.43574089693E+02 -0.59795775379E+02  0.11602525643E+04  0.11626522476E+04  0.10000000000E+02 0.  1.
</event>
<event>
 5    1  0.1072898E-008  0.3706858E+03  0.7957747E-01  0.3492745E+00
         13   -1    0    0    0    0  0.00000000000E+00  0.00000000000E+00  0.14999999963E+04  0.15000000000E+04  0.10566000000E+00 0. -1.
        994   -1    0    0    0    0 -0.00000000000E+00 -0.00000000000E+00  0.11368683772E-12  0.17120000000E+03  0.17120000000E+03 0.  0.
         13    1    1    2    0    0 -0.10766728717E+02  0.17600080773E+02  0.23204576704E+02  0.31050746118E+02  0.10566000000E+00 0. -1.
        994    1    1    2    0    0 -0.39673277225E+02  0.32734562152E+02  0.18092643143E+02  0.17967276984E+03  0.17120000000E+03 0.  0.
        998    1    1    2    0    0  0.50440005942E+02 -0.50334642924E+02  0.14587027764E+04  0.14604764840E+04  0.10000000000E+02 0. -1.
</event>
<event>
 5    1  0.1072898E-008  0.3754344E+03  0.7957747E-01  0.3471282E+00
         13   -1    0    0    0    0  0.00000000000E+00  0.00000000000E+00  0.14999999963E+04  0.15000000000E+04  0.10566000000E+00 0.  1.
        994   -1    0    0    0    0 -0.00000000000E+00 -0.00000000000E+00  0.11368683772E-12  0.17120000000E+03  0.17120000000E+03 0.  0.
         13    1    1    2    0    0  0.28928088256E+02 -0.51979694608E+02  0.25275770699E+03  0.25966361422E+03  0.10566000000E+00 0.  1.
        994    1    1    2    0    0 -0.36075607360E+02  0.31536584942E+02  0.14289164392E+02  0.17835253252E+03  0.17120000000E+03 0.  0.
        998    1    1    2    0    0  0.71475191042E+01  0.20443109666E+02  0.12329531249E+04  0.12331838533E+04  0.10000000000E+02 0.  1.
</event>
<event>
 5    1  0.1072898E-008  0.3856346E+03  0.7957747E-01  0.3426985E+00
         13   -1    0    0    0    0  0.00000000000E+00  0.00000000000E+00  0.14999999963E+04  0.15000000000E+04  0.10566000000E+00 0.  1.
        994   -1    0    0    0    0 -0.00000000000E+00 -0.00000000000E+00  0.11368683772E-12  0.17120000000E+03  0.17120000000E+03 0.  0.
         13    1    1    2    0    0  0.13126056306E+02  0.31820491114E+01  0.73780182003E+02  0.75006301142E+02  0.10566000000E+00 0.  1.
        994    1    1    2    0    0  0.16559873500E+01 -0.14995229883E+02  0.20627343609E+01  0.17187581007E+03  0.17120000000E+03 0.  0.
        998    1    1    2    0    0 -0.14782043656E+02  0.11813180771E+02  0.14241570799E+04  0.14243178888E+04  0.10000000000E+02 0.  1.
</event>
<event>
 5    1  0.1072898E-008  0.3792621E+03  0.7957747E-01  0.3454378E+00
         13   -1    0    0    0    0  0.00000000000E+00  0.00000000000E+00  0.14999999963E+04  0.15000000000E+04  0.10566000000E+00 0.  1.
        994   -1    0    0    0    0 -0.00000000000E+00 -0.00000000000E+00  0.11368683772E-12  0.17120000000E+03  0.17120000000E+03 0.  0.
         13    1    1    2    0    0  0.77960281670E+01 -0.42474072220E+02  0.19591996682E+03  0.20062270418E+03  0.10566000000E+00 0.  1.
        994    1    1    2    0    0 -0.18988720678E+02  0.28978288089E+02  0.85389662492E+01  0.17487900571E+03  0.17120000000E+03 0.  0.
        998    1    1    2    0    0  0.11192692511E+02  0.13495784131E+02  0.12955410632E+04  0.12956982901E+04  0.10000000000E+02 0.  1.
</event>
<event>
 5    1  0.1072898E-008  0.3753879E+03  0.7957747E-01  0.3471490E+00
         13   -1    0    0    0    0  0.00000000000E+00  0.00000000000E+00  0.14999999963E+04  0.15000000000E+04  0.10566000000E+00 0.  1.
        994   -1    0    0    0    0 -0.00000000000E+00 -0.00000000000E+00  0.11368683772E-12  0.17120000000E+03  0.17120000000E+03 0.  0.
         13    1    1    2    0    0 -0.50557329328E+02 -0.32248854237E+02  0.17187624417E+03  0.18203704739E+03  0.10566000000E+00 0.  1.
        994    1    1    2    0    0 -0.65462752711E+01 -0.55897475606E+02  0.25190518965E+02  0.18196533666E+03  0.17120000000E+03 0.  0.
        998    1    1    2    0    0  0.57103604599E+02  0.88146329843E+02  0.13029332331E+04  0.13071976160E+04  0.10000000000E+02 0.  1.
</event>
<event>
 5    1  0.1072898E-008  0.3764256E+03  0.7957747E-01  0.3466872E+00
         13   -1    0    0    0    0  0.00000000000E+00  0.00000000000E+00  0.14999999963E+04  0.15000000000E+04  0.10566000000E+00 0.  1.
        994   -1    0    0    0    0 -0.00000000000E+00 -0.00000000000E+00  0.11368683772E-12  0.17120000000E+03  0.17120000000E+03 0.  0.
         13    1    1    2    0    0 -0.11643230327E+02  0.46897611723E+02  0.19699600726E+03  0.20283586674E+03  0.10566000000E+00 0.  1.
        994    1    1    2    0    0  0.10953324189E+02 -0.23836105107E+02  0.82799018188E+01  0.17339588228E+03  0.17120000000E+03 0.  0.
        998    1    1    2    0    0  0.68990613842E+00 -0.23061506616E+02  0.12947240872E+04  0.12949682510E+04  0.10000000000E+02 0.  1.
</event>
<event>
 5    1  0.1072898E-008  0.3718077E+03  0.7957747E-01  0.3487624E+00
         13   -1    0    0    0    0  0.00000000000E+00  0.00000000000E+00  0.14999999963E+04  0.15000000000E+04  0.10566000000E+00 0. -1.
        994   -1    0    0    0    0 -0.00000000000E+00 -0.00000000000E+00  0.11368683772E-12  0.17120000000E+03  0.17120000000E+03 0.  0.
         13    1    1    2    0    0 -0.27521895621E+02 -0.45991014242E+02  0.17098468750E+03  0.17918817665E+03  0.10566000000E+00 0. -1.
        994    1    1    2    0    0  0.10033363745E+02  0.29300173967E+02  0.11630291170E+02  0.17436706184E+03  0.17120000000E+03 0.  0.
        998    1    1    2    0    0  0.17488531875E+02  0.16690840275E+02  0.13173850176E+04  0.13176447615E+04  0.10000000000E+02 0. -1.
</event>
<event>
 5    1  0.1072898E-008  0.3850142E+03  0.7957747E-01  0.3429612E+00
         13   -1    0    0    0    0  0.00000000000E+00  0.00000000000E+00  0.14999999963E+04  0.15000000000E+04  0.10566000000E+00 0.  1.
        994   -1    0    0    0    0 -0.00000000000E+00 -0.00000000000E+00  0.11368683772E-12  0.17120000000E+03  0.17120000000E+03 0.  0.
         13    1    1    2    0    0  0.87141124732E+01 -0.11434184445E+02  0.63989715282E+02  0.65584839376E+02  0.10566000000E+00 0.  1.
        994    1    1    2    0    0 -0.27850168182E+01  0.88731859531E+01  0.19075514399E+01  0.17146302371E+03  0.17120000000E+03 0.  0.
        998    1    1    2    0    0 -0.59290956550E+01  0.25609984922E+01  0.14341027296E+04  0.14341521369E+04  0.10000000000E+02 0.  1.
</event>
<event>
 5    1  0.1072898E-008  0.3798380E+03  0.7957747E-01  0.3451864E+00
         13   -1    0    0    0    0  0.00000000000E+00  0.00000000000E+00  0.14999999963E+04  0.15000000000E+04  0.10566000000E+00 0. -1.
        994   -1    0    0    0    0 -0.00000000000E+00 -0.00000000000E+00  0.11368683772E-12  0.17120000000E+03  0.17120000000E+03 0.  0.
         13    1    1    2    0    0  0.13307467921E+02 -0.40241734738E+02  0.19398933319E+03  0.19856575352E+03  0.10566000000E+00 0. -1.
        994    1    1    2    0    0 -0.10085982960E+01  0.38555286872E+02  0.92063543782E+01  0.17573196743E+03  0.17120000000E+03 0.  0.
        998    1    1    2    0    0 -0.12298869625E+02  0.16864478658E+01  0.12968043087E+04  0.12969022790E+04  0.10000000000E+02 0. -1.
</event>
<event>
 5    1  0.1072898E-008  0.3797734E+03  0.7957747E-01  0.3452146E+00
         13   -1    0    0    0    0  0.00000000000E+00  0.00000000000E+00  0.14999999963E+04  0.15000000000E+04  0.10566000000E+00 0. -1.
        994   -1    0    0    0    0 -0.00000000000E+00 -0.00000000000E+00  0.11368683772E-12  0.17120000000E+03  0.17120000000E+03 0.  0.
         13    1    1    2    0    0 -0.19097139883E+02  0.34018738958E+02  0.17733663587E+03  0.18157717075E+03  0.10566000000E+00 0. -1.
        994    1    1    2    0    0  0.15856164729E+02 -0.17494442247E+02  0.61148007524E+01  0.17292861029E+03  0.17120000000E+03 0.  0.
        998    1    1    2    0    0  0.32409751541E+01 -0.16524296711E+02  0.13165485597E+04  0.13166942190E+04  0.10000000000E+02 0. -1.
</event>
<event>
 5    1  0.1072898E-008  0.3702192E+03  0.7957747E-01  0.3494884E+00
         13   -1    0    0    0    0  0.00000000000E+00  0.00000000000E+00  0.14999999963E+04  0.15000000000E+04  0.10566000000E+00 0. -1.
        994   -1    0    0    0    0 -0.00000000000E+00 -0.00000000000E+00  0.11368683772E-12  0.17120000000E+03  0.17120000000E+03 0.  0.
         13    1    1    2    0    0  0.22799812885E+02  0.11971534288E+02  0.31695406454E+02  0.40838205827E+02  0.10566000000E+00 0. -1.
        994    1    1    2    0    0 -0.23009147383E+02 -0.15333507054E+02  0.11800552964E+02  0.17381953386E+03  0.17120000000E+03 0.  0.
        998    1    1    2    0    0  0.20933449794E+00  0.33619727660E+01  0.14565040369E+04  0.14565422603E+04  0.10000000000E+02 0. -1.
</event>
<event>
 5    1  0.1072898E-008  0.3817142E+03  0.7957747E-01  0.3443728E+00
         13   -1    0    0    0    0  0.00000000000E+00  0.00000000000E+00  0.14999999963E+04  0.15000000000E+04  0.10566000000E+00 0.  1.
        994   -1    0    0    0    0 -0.00000000000E+00 -0.00000000000E+00  0.11368683772E-12  0.17120000000E+03  0.17120000000E+03 0.  0.
         13    1    1    2    0    0 -0.55435021168E+00 -0.27201769107E+02  0.12077021576E+03  0.12379701016E+03  0.10566000000E+00 0.  1.
        994    1    1    2    0    0 -0.54308007633E+01  0.48785895424E+01  0.34474937602E+01  0.17139025482E+03  0.17120000000E+03 0.  0.
        998    1    1    2    0    0  0.59851509749E+01  0.22323179565E+02  0.13757822868E+04  0.13760127350E+04  0.10000000000E+02 0.  1.
</event>
<event>
 5    1  0.1072898E-008  0.3862860E+03  0.7957747E-01  0.3424236E+00
         13   -1    0    0    0    0  0.00000000000E+00  0.00000000000E+00  0.14999999963E+04  0.15000000000E+04  0.10566000000E+00 0.  1.
        994   -1    0    0    0    0 -0.00000000000E+00 -0.00000000000E+00  0.11368683772E-12  0.17120000000E+03  0.17120000000E+03 0.  0.
         13    1    1    2    0    0  0.12803619371E+01 -0.10459411768E+02  0.51986205808E+02  0.53043523446E+02  0.10566000000E+00 0.  1.
        994    1    1    2    0    0 -0.10646300821E+02  0.18717275773E+02  0.25130228070E+01  0.17256719102E+03  0.17120000000E+03 0.  0.
        998    1    1    2    0    0  0.93659388841E+01 -0.82578640055E+01  0.14455007677E+04  0.14455892855E+04  0.10000000000E+02 0.  1.
</event>
<event>
 5    1  0.1072898E-008  0.3549701E+03  0.7957747E-01  0.3567952E+00
         13   -1    0    0    0    0  0.00000000000E+00  0.00000000000E+00  0.14999999963E+04  0.15000000000E+04  0.10566000000E+00 0. -1.
        994   -1    0    0    0    0 -0.00000000000E+00 -0.00000000000E+00  0.11368683772E-12  0.17120000000E+03  0.17120000000E+03 0.  0.
         13    1    1    2    0    0 -0.23270294360E+03 -0.67851745566E+02  0.10634697685E+04  0.10907440025E+04  0.10566000000E+00 0. -1.
        994    1    1    2    0    0  0.19963688263E+03  0.40736502056E+02  0.18258136578E+03  0.32273788534E+03  0.17120000000E+03 0.  0.
        998    1    1    2    0    0  0.33066060970E+02  0.27115243510E+02  0.25394886197E+03  0.25771811212E+03  0.10000000000E+02 0.  1.
</event>
<event>
 5    1  0.1072898E-008  0.3808680E+03  0.7957747E-01  0.3447388E+00
         13   -1    0    0    0    0  0.00000000000E+00  0.00000000000E+00  0.14999999963E+04  0.15000000000E+04  0.10566000000E+00 0. -1.
        994   -1    0    0    0    0 -0.00000000000E+00 -0.00000000000E+00  0.11368683772E-12  0.17120000000E+03  0.17120000000E+03 0.  0.
         13    1    1    2    0    0  0.19042326006E+02  0.29341692553E+02  0.14231070217E+03  0.14654655307E+03  0.10566000000E+00 0. -1.
        994    1    1    2    0    0 -0.18523105023E+02 -0.39651209325E+02  0.10106570670E+02  0.17699408632E+03  0.17120000000E+03 0.  0.
        998    1    1    2    0    0 -0.51922098247E+00  0.10309516772E+02  0.13475827234E+04  0.13476593606E+04  0.10000000000E+02 0. -1.
</event>
<event>
 5    1  0.1072898E-008  0.3796831E+03  0.7957747E-01  0.3452539E+00
         13   -1    0    0    0    0  0.00000000000E+00  0.00000000000E+00  0.14999999963E+04  0.15000000000E+04  0.10566000000E+00 0. -1.
        994   -1    0    0    0    0 -0.00000000000E+00 -0.00000000000E+00  0.11368683772E-12  0.17120000000E+03  0.17120000000E+03 0.  0.
         13    1    1    2    0    0  0.42103387451E+02 -0.30786330654E+02  0.28091909261E+03  0.28572021480E+03  0.10566000000E+00 0. -1.
        994    1    1    2    0    0 -0.40291652851E+02  0.18073875150E+02  0.10846765813E+02  0.17713603411E+03  0.17120000000E+03 0.  0.
        998    1    1    2    0    0 -0.18117346001E+01  0.12712455504E+02  0.12082341379E+04  0.12083437511E+04  0.10000000000E+02 0. -1.
</event>
<event>
 5    1  0.1072898E-008  0.3819279E+03  0.7957747E-01  0.3442807E+00
         13   -1    0    0    0    0  0.00000000000E+00  0.00000000000E+00  0.14999999963E+04  0.15000000000E+04  0.10566000000E+00 0. -1.
        994   -1    0    0    0    0 -0.00000000000E+00 -0.00000000000E+00  0.11368683772E-12  0.17120000000E+03  0.17120000000E+03 0.  0.
         13    1    1    2    0    0  0.21553469292E+02 -0.17994428717E+02  0.13390164750E+03  0.13681379269E+03  0.10566000000E+00 0. -1.
        994    1    1    2    0    0  0.71108987484E+00  0.89015875346E+01  0.34280479349E+01  0.17146700972E+03  0.17120000000E+03 0.  0.
        998    1    1    2    0    0 -0.22264559167E+02  0.90928411825E+01  0.13626703008E+04  0.13629191976E+04  0.10000000000E+02 0. -1.
</event>
<event>
 5    1  0.1072898E-008  0.3816873E+03  0.7957747E-01  0.3443844E+00
         13   -1    0    0    0    0  0.00000000000E+00  0.00000000000E+00  0.14999999963E+04  0.15000000000E+04  0.10566000000E+00 0.  1.
        994   -1    0    0    0    0 -0.00000000000E+00 -0.00000000000E+00  0.11368683772E-12  0.17120000000E+03  0.17120000000E+03 0.  0.
         13    1    1    2    0    0  0.29007824828E+02 -0.32543095890E+02  0.24003101870E+03  0.24395779982E+03  0.10566000000E+00 0.  1.
        994    1    1    2    0    0 -0.27867021223E+02  0.36491676798E+02  0.10324224036E+02  0.17755067713E+03  0.17120000000E+03 0.  0.
        998    1    1    2    0    0 -0.11408036055E+01 -0.39485809081E+01  0.12496447535E+04  0.12496915231E+04  0.10000000000E+02 0.  1.
</event>
<event>
 5    1  0.1072898E-008  0.3797613E+03  0.7957747E-01  0.3452198E+00
         13   -1    0    0    0    0  0.00000000000E+00  0.00000000000E+00  0.14999999963E+04  0.15000000000E+04  0.10566000000E+00 0.  1.
        994   -1    0    0    0    0 -0.00000000000E+00 -0.00000000000E+00  0.11368683772E-12  0.17120000000E+03  0.17120000000E+03 0.  0.
         13    1    1    2    0    0  0.12762400267E+02  0.21948345639E+02  0.68410232627E+02  0.72969718576E+02  0.10566000000E+00 0.  1.
        994    1    1    2    0    0 -0.11541606561E+02 -0.34150877465E+02  0.86134471490E+01  0.17516598581E+03  0.17120000000E+03 0.  0.
        998    1    1    2    0    0 -0.12207937054E+01  0.12202531826E+02  0.14229763165E+04  0.14230642956E+04  0.10000000000E+02 0.  1.
</event>
<event>
 5    1  0.1072898E-008  0.3857139E+03  0.7957747E-01  0.3426650E+00
         13   -1    0    0    0    0  0.00000000000E+00  0.00000000000E+00  0.14999999963E+04  0.15000000000E+04  0.10566000000E+00 0.  1.
        994   -1    0    0    0    0 -0.00000000000E+00 -0.00000000000E+00  0.11368683772E-12  0.17120000000E+03  0.17120000000E+03 0.  0.
         13    1    1    2    0    0  0.96994161866E+01  0.58386670960E+01  0.47639337423E+02  0.48966175489E+02  0.10566000000E+00 0.  1.
        994    1    1    2    0    0 -0.17796027670E+02 -0.44562911727E+01  0.23811753499E+01  0.17219659441E+03  0.17120000000E+03 0.  0.
        998    1    1    2    0    0  0.80966114835E+01 -0.13823759233E+01  0.14499794835E+04  0.14500372301E+04  0.10000000000E+02 0.  1.
</event>
<event>
 5    1  0.1072898E-008  0.3706073E+03  0.7957747E-01  0.3493105E+00
         13   -1    0    0    0    0  0.00000000000E+00  0.00000000000E+00  0.14999999963E+04  0.15000000000E+04  0.10566000000E+00 0.  1.
        994   -1    0    0    0    0 -0.00000000000E+00 -0.00000000000E+00  0.11368683772E-12  0.17120000000E+03  0.17120000000E+03 0.  0.
         13    1    1    2    0    0 -0.14410861937E+02  0.20148540227E+02  0.31299386184E+02  0.39916154055E+02  0.10566000000E+00 0.  1.
        994    1    1    2    0    0  0.17950956894E+02  0.27299673261E+01  0.10090382458E+02  0.17245563312E+03  0.17120000000E+03 0.  0.
        998    1    1    2    0    0 -0.35400949569E+01 -0.22878507553E+02  0.14586102276E+04  0.14588282128E+04  0.10000000000E+02 0.  1.
</event>
<event>
 5    1  0.1072898E-008  0.3777521E+03  0.7957747E-01  0.3461005E+00
         13   -1    0    0    0    0  0.00000000000E+00  0.00000000000E+00  0.14999999963E+04  0.15000000000E+04  0.10566000000E+00 0. -1.
        994   -1    0    0    0    0 -0.00000000000E+00 -0.00000000000E+00  0.11368683772E-12  0.17120000000E+03  0.17120000000E+03 0.  0.
         13    1    1    2    0    0 -0.58778877893E+01 -0.31602142962E+02  0.10386281876E+03  0.10872323252E+03  0.10566000000E+00 0. -1.
        994    1    1    2    0    0  0.51894935398E+01  0.24323926029E+01  0.53828552497E+01  0.17138046128E+03  0.17120000000E+03 0.  0.
        998    1    1    2    0    0  0.68839424949E+00  0.29169750359E+02  0.13907543223E+04  0.13910963062E+04  0.10000000000E+02 0. -1.
</event>
<event>
 5    1  0.1072898E-008  0.3809402E+03  0.7957747E-01  0.3447075E+00
         13   -1    0    0    0    0  0.00000000000E+00  0.00000000000E+00  0.14999999963E+04  0.15000000000E+04  0.10566000000E+00 0.  1.
        994   -1    0    0    0    0 -0.00000000000E+00 -0.00000000000E+00  0.11368683772E-12  0.17120000000E+03  0.17120000000E+03 0.  0.
         13    1    1    2    0    0 -0.21765900656E+02  0.17747202683E+02  0.95741768401E+02  0.99775823800E+02  0.10566000000E+00 0.  1.
        994    1    1    2    0    0 -0.12067338757E+01 -0.63971993248E+02  0.17424873539E+02  0.18359449432E+03  0.17120000000E+03 0.  0.
        998    1    1    2    0    0  0.22972634532E+02  0.46224790566E+02  0.13868333543E+04  0.13878296819E+04  0.10000000000E+02 0.  1.
</event>
<event>
 5    1  0.1072898E-008  0.3768714E+03  0.7957747E-01  0.3464895E+00
         13   -1    0    0    0    0  0.00000000000E+00  0.00000000000E+00  0.14999999963E+04  0.15000000000E+04  0.10566000000E+00 0.  1.
        994   -1    0    0    0    0 -0.00000000000E+00 -0.00000000000E+00  0.11368683772E-12  0.17120000000E+03  0.17120000000E+03 0.  0.
         13    1    1    2    0    0 -0.10228105894E+02 -0.89832745700E+01  0.13321835227E+02  0.19047200057E+02  0.10566000000E+00 0.  1.
        994    1    1    2    0    0  0.50350146499E+01  0.25666803026E+02  0.80352480862E+01  0.17337283917E+03  0.17120000000E+03 0.  0.
        998    1    1    2    0    0  0.51930912443E+01 -0.16683528456E+02  0.14786429130E+04  0.14787799608E+04  0.10000000000E+02 0.  1.
</event>
<event>
 5    1  0.1072898E-008  0.3761529E+03  0.7957747E-01  0.3468083E+00
         13   -1    0    0    0    0  0.00000000000E+00  0.00000000000E+00  0.14999999963E+04  0.15000000000E+04  0.10566000000E+00 0. -1.
        994   -1    0    0    0    0 -0.00000000000E+00 -0.00000000000E+00  0.11368683772E-12  0.17120000000E+03  0.17120000000E+03 0.  0.
         13    1    1    2    0    0  0.61988772345E+02 -0.15056461120E+00  0.25132185382E+03  0.25885385054E+03  0.10566000000E+00 0. -1.
        994    1    1    2    0    0 -0.67771849191E+02 -0.65078447571E+01  0.21948372166E+02  0.18554392102E+03  0.17120000000E+03 0.  0.
        998    1    1    2    0    0  0.57830768458E+01  0.66584093683E+01  0.12267297703E+04  0.12268022284E+04  0.10000000000E+02 0. -1.
</event>
<event>
 5    1  0.1072898E-008  0.3850179E+03  0.7957747E-01  0.3429596E+00
         13   -1    0    0    0    0  0.00000000000E+00  0.00000000000E+00  0.14999999963E+04  0.15000000000E+04  0.10566000000E+00 0.  1.
        994   -1    0    0    0    0 -0.00000000000E+00 -0.00000000000E+00  0.11368683772E-12  0.17120000000E+03  0.17120000000E+03 0.  0.
         13    1    1    2    0    0  0.48176906464E+01  0.12274641685E+02  0.51845960131E+02  0.53496651462E+02  0.10566000000E+00 0.  1.
        994    1    1    2    0    0 -0.38193799315E+01 -0.14256146074E+02  0.23378697700E+01  0.17185089758E+03  0.17120000000E+03 0.  0.
        998    1    1    2    0    0 -0.99831071498E+00  0.19815043887E+01  0.14458161664E+04  0.14458524510E+04  0.10000000000E+02 0.  1.
</event>
<event>
 5    1  0.1072898E-008  0.3862774E+03  0.7957747E-01  0.3424273E+00
         13   -1    0    0    0    0  0.00000000000E+00  0.00000000000E+00  0.14999999963E+04  0.15000000000E+04  0.10566000000E+00 0. -1.
        994   -1    0    0    0    0 -0.00000000000E+00 -0.00000000000E+00  0.11368683772E-12  0.17120000000E+03  0.17120000000E+03 0.  0.
         13    1    1    2    0    0  0.31927060754E+02  0.16023902976E+02  0.24008715798E+02  0.43041053348E+02  0.10566000000E+00 0. -1.
        994    1    1    2    0    0  0.44599925190E+01 -0.68192598454E+02  0.37354669990E+02  0.18808225165E+03  0.17120000000E+03 0.  0.
        998    1    1    2    0    0 -0.36387053273E+02  0.52168695477E+02  0.14386366105E+04  0.14400766950E+04  0.10000000000E+02 0. -1.
</event>
<event>
 5    1  0.1072898E-008  0.3831073E+03  0.7957747E-01  0.3437739E+00
         13   -1    0    0    0    0  0.00000000000E+00  0.00000000000E+00  0.14999999963E+04  0.15000000000E+04  0.10566000000E+00 0.  1.
        994   -1    0    0    0    0 -0.00000000000E+00 -0.00000000000E+00  0.11368683772E-12  0.17120000000E+03  0.17120000000E+03 0.  0.
         13    1    1    2    0    0 -0.74677762145E+01  0.24159511548E+02  0.13414967414E+03  0.13651225555E+03  0.10566000000E+00 0.  1.
        994    1    1    2    0    0  0.33588821475E+01 -0.35329499754E+01  0.26513956061E+01  0.17128991133E+03  0.17120000000E+03 0.  0.
        998    1    1    2    0    0  0.41088940670E+01 -0.20626561573E+02  0.13631989265E+04  0.13633978331E+04  0.10000000000E+02 0.  1.
</event>
<event>
 5    1  0.1072898E-008  0.3836475E+03  0.7957747E-01  0.3435429E+00
         13   -1    0    0    0    0  0.00000000000E+00  0.00000000000E+00  0.14999999963E+04  0.15000000000E+04  0.10566000000E+00 0.  1.
        994   -1    0    0    0    0 -0.00000000000E+00 -0.00000000000E+00  0.11368683772E-12  0.17120000000E+03  0.17120000000E+03 0.  0.
         13    1    1    2    0    0  0.19563096337E+02 -0.14216260620E+02  0.13358377596E+03  0.13575512207E+03  0.10566000000E+00 0.  1.
        994    1    1    2    0    0 -0.51538335497E+01  0.60058862087E+01  0.25100263512E+01  0.17140120449E+03  0.17120000000E+03 0.  0.
        998    1    1    2    0    0 -0.14409262787E+02  0.82103744116E+01  0.13639061940E+04  0.13640436734E+04  0.10000000000E+02 0.  1.
</event>
<event>
 5    1  0.1072898E-008  0.2707224E+03  0.7957747E-01  0.4130091E+00
         13   -1    0    0    0    0  0.00000000000E+00  0.00000000000E+00  0.14999999963E+04  0.15000000000E+04  0.10566000000E+00 0.  1.
        994   -1    0    0    0    0 -0.00000000000E+00 -0.00000000000E+00  0.11368683772E-12  0.17120000000E+03  0.17120000000E+03 0.  0.
         13    1    1    2    0    0 -0.11161813092E+02 -0.17969638077E+03  0.42904658099E+03  0.46529168825E+03  0.10566000000E+00 0.  1.
        994    1    1    2    0    0  0.10409688250E+02  0.17853987157E+03  0.15973638666E+03  0.29463536884E+03  0.17120000000E+03 0.  0.
        998    1    1    2    0    0  0.75212484182E+00  0.11565091971E+01  0.91121702863E+03  0.91127294291E+03  0.10000000000E+02 0.  0.
</event>
<event>
 5    1  0.1809239E-008  0.3860246E+03  0.7957747E-01  0.3425338E+00
         13   -1    0    0    0    0  0.00000000000E+00  0.00000000000E+00  0.14999999963E+04  0.15000000000E+04  0.10566000000E+00 0. -1.
        994   -1    0    0    0    0 -0.00000000000E+00 -0.00000000000E+00  0.11368683772E-12  0.17120000000E+03  0.17120000000E+03 0.  0.
         13    1    1    2    0    0 -0.11013713643E+02  0.60401881528E+01  0.68295554380E+02  0.69441195794E+02  0.10566000000E+00 0. -1.
        994    1    1    2    0    0  0.12221048612E+02 -0.60584815820E+01  0.17323875665E+01  0.17175127480E+03  0.17120000000E+03 0.  0.
        998    1    1    2    0    0 -0.12073349689E+01  0.18293429174E-01  0.14299720543E+04  0.14300075294E+04  0.10000000000E+02 0.  0.
</event>
<event>
 5    1  0.1072898E-008  0.3778398E+03  0.7957747E-01  0.3460619E+00
         13   -1    0    0    0    0  0.00000000000E+00  0.00000000000E+00  0.14999999963E+04  0.15000000000E+04  0.10566000000E+00 0.  1.
        994   -1    0    0    0    0 -0.00000000000E+00 -0.00000000000E+00  0.11368683772E-12  0.17120000000E+03  0.17120000000E+03 0.  0.
         13    1    1    2    0    0 -0.60540527730E+01 -0.17766868672E+02  0.33297083854E+02  0.38223293089E+02  0.10566000000E+00 0.  1.
        994    1    1    2    0    0 -0.71141452462E+01 -0.30900469093E+01  0.54301992898E+01  0.17146161820E+03  0.17120000000E+03 0.  0.
        998    1    1    2    0    0  0.13168198019E+02  0.20856915582E+02  0.14612727131E+04  0.14615150887E+04  0.10000000000E+02 0.  1.
</event>
<event>
 5    1  0.1072898E-008  0.3788866E+03  0.7957747E-01  0.3456021E+00
         13   -1    0    0    0    0  0.00000000000E+00  0.00000000000E+00  0.14999999963E+04  0.15000000000E+04  0.10566000000E+00 0. -1.
        994   -1    0    0    0    0 -0.00000000000E+00 -0.00000000000E+00  0.11368683772E-12  0.17120000000E+03  0.17120000000E+03 0.  0.
         13    1    1    2    0    0  0.14612423350E+01  0.25561557163E+02  0.68644513064E+02  0.73263966393E+02  0.10566000000E+00 0. -1.
        994    1    1    2    0    0  0.55792139097E+01 -0.14498201139E+02  0.55063429691E+01  0.17199152676E+03  0.17120000000E+03 0.  0.
        998    1    1    2    0    0 -0.70404562446E+01 -0.11063356025E+02  0.14258491402E+04  0.14259445068E+04  0.10000000000E+02 0. -1.
</event>
<event>
 5    1  0.1072898E-008  0.3851004E+03  0.7957747E-01  0.3429246E+00
         13   -1    0    0    0    0  0.00000000000E+00  0.00000000000E+00  0.14999999963E+04  0.15000000000E+04  0.10566000000E+00 0. -1.
        994   -1    0    0    0    0 -0.00000000000E+00 -0.00000000000E+00  0.11368683772E-12  0.17120000000E+03  0.17120000000E+03 0.  0.
         13    1    1    2    0    0 -0.12975421251E+02  0.38937874742E+01  0.54789214380E+02  0.56439279885E+02  0.10566000000E+00 0. -1.
        994    1    1    2    0    0  0.25854317378E+02  0.17738187763E+02  0.48189550851E+01  0.17411419058E+03  0.17120000000E+03 0.  0.
        998    1    1    2    0    0 -0.12878896128E+02 -0.21631975237E+02  0.14403918268E+04  0.14406465295E+04  0.10000000000E+02 0. -1.
</event>
<event>
 5    1  0.1072898E-008  0.3762312E+03  0.7957747E-01  0.3467735E+00
         13   -1    0    0    0    0  0.00000000000E+00  0.00000000000E+00  0.14999999963E+04  0.15000000000E+04  0.10566000000E+00 0.  1.
        994   -1    0    0    0    0 -0.00000000000E+00 -0.00000000000E+00  0.11368683772E-12  0.17120000000E+03  0.17120000000E+03 0.  0.
         13    1    1    2    0    0 -0.10078304110E+02 -0.21372469336E+02  0.13234553483E+02  0.27083560128E+02  0.10566000000E+00 0.  1.
        994    1    1    2    0    0  0.10973477241E+02  0.20936526706E+02  0.16271844524E+02  0.17358850272E+03  0.17120000000E+03 0.  0.
        998    1    1    2    0    0 -0.89517313079E+00  0.43594263000E+00  0.14704935983E+04  0.14705279371E+04  0.10000000000E+02 0.  1.
</event>
<event>
 5    1  0.1072898E-008  0.3828880E+03  0.7957747E-01  0.3438679E+00
         13   -1    0    0    0    0  0.00000000000E+00  0.00000000000E+00  0.14999999963E+04  0.15000000000E+04  0.10566000000E+00 0.  1.
        994   -1    0    0    0    0 -0.00000000000E+00 -0.00000000000E+00  0.11368683772E-12  0.17120000000E+03  0.17120000000E+03 0.  0.
         13    1    1    2    0    0  0.13210719544E+02  0.43268733697E+01  0.34028729938E+02  0.36758816211E+02  0.10566000000E+00 0.  1.
        994    1    1    2    0    0 -0.24301837437E+02  0.16374715764E+02  0.55309920715E+01  0.17377785386E+03  0.17120000000E+03 0.  0.
        998    1    1    2    0    0  0.11091117893E+02 -0.20701589133E+02  0.14604402743E+04  0.14606633299E+04  0.10000000000E+02 0.  1.
</event>
<event>
 5    1  0.1072898E-008  0.3836355E+03  0.7957747E-01  0.3435480E+00
         13   -1    0    0    0    0  0.00000000000E+00  0.00000000000E+00  0.14999999963E+04  0.15000000000E+04  0.10566000000E+00 0. -1.
        994   -1    0    0    0    0 -0.00000000000E+00 -0.00000000000E+00  0.11368683772E-12  0.17120000000E+03  0.17120000000E+03 0.  0.
         13    1    1    2    0    0 -0.65419872238E+01 -0.12043747852E+02  0.38397357172E+02  0.40770303665E+02  0.10566000000E+00 0. -1.
        994    1    1    2    0    0  0.45238612340E+01  0.19306566641E+02  0.36090705775E+01  0.17238234894E+03  0.17120000000E+03 0.  0.
        998    1    1    2    0    0  0.20181259898E+01 -0.72628187899E+01  0.14579935685E+04  0.14580473474E+04  0.10000000000E+02 0. -1.
</event>
<event>
 5    1  0.1072898E-008  0.3791562E+03  0.7957747E-01  0.3454841E+00
         13   -1    0    0    0    0  0.00000000000E+00  0.00000000000E+00  0.14999999963E+04  0.15000000000E+04  0.10566000000E+00 0. -1.
        994   -1    0    0    0    0 -0.00000000000E+00 -0.00000000000E+00  0.11368683772E-12  0.17120000000E+03  0.17120000000E+03 0.  0.
         13    1    1    2    0    0  0.44356624558E+02  0.38196838151E+02  0.26941484675E+03  0.27570070621E+03  0.10566000000E+00 0. -1.
        994    1    1    2    0    0 -0.70019181159E+02 -0.33996305536E+02  0.25144789750E+02  0.18973701529E+03  0.17120000000E+03 0.  0.
        998    1    1    2    0    0  0.25662556601E+02 -0.42005326154E+01  0.12054403598E+04  0.12057622785E+04  0.10000000000E+02 0. -1.
</event>
<event>
 5    1  0.1379101E-008  0.3801480E+03  0.7957747E-01  0.3450514E+00
         13   -1    0    0    0    0  0.00000000000E+00  0.00000000000E+00  0.14999999963E+04  0.15000000000E+04  0.10566000000E+00 0. -1.
        994   -1    0    0    0    0 -0.00000000000E+00 -0.00000000000E+00  0.11368683772E-12  0.17120000000E+03  0.17120000000E+03 0.  0.
         13    1    1    2    0    0  0.52659828590E+01 -0.11730195827E+02  0.18470840374E+02  0.22505803202E+02  0.10566000000E+00 0. -1.
        994    1    1    2    0    0 -0.45228205551E+01  0.12291768648E+02  0.46318431382E+01  0.17176273593E+03  0.17120000000E+03 0.  0.
        998    1    1    2    0    0 -0.74316230386E+00 -0.56157282167E+00  0.14768973128E+04  0.14769314609E+04  0.10000000000E+02 0. -1.
</event>
<event>
 5    1  0.1072898E-008  0.3749613E+03  0.7957747E-01  0.3473396E+00
         13   -1    0    0    0    0  0.00000000000E+00  0.00000000000E+00  0.14999999963E+04  0.15000000000E+04  0.10566000000E+00 0. -1.
        994   -1    0    0    0    0 -0.00000000000E+00 -0.00000000000E+00  0.11368683772E-12  0.17120000000E+03  0.17120000000E+03 0.  0.
         13    1    1    2    0    0 -0.69499030442E+02  0.31109743967E+02  0.35684062799E+03  0.36487419250E+03  0.10566000000E+00 0. -1.
        994    1    1    2    0    0  0.63813821690E+02 -0.20274556778E+02  0.22096052357E+02  0.18515111942E+03  0.17120000000E+03 0.  0.
        998    1    1    2    0    0  0.56852087523E+01 -0.10835187188E+02  0.11210633159E+04  0.11211746881E+04  0.10000000000E+02 0. -1.
</event>
<event>
 5    1  0.1072898E-008  0.3825304E+03  0.7957747E-01  0.3440214E+00
         13   -1    0    0    0    0  0.00000000000E+00  0.00000000000E+00  0.14999999963E+04  0.15000000000E+04  0.10566000000E+00 0.  1.
        994   -1    0    0    0    0 -0.00000000000E+00 -0.00000000000E+00  0.11368683772E-12  0.17120000000E+03  0.17120000000E+03 0.  0.
         13    1    1    2    0    0 -0.15371972571E+02 -0.95861731539E+01  0.53824504406E+02  0.56791554786E+02  0.10566000000E+00 0.  1.
        994    1    1    2    0    0  0.24212847002E+02  0.36264257366E+01  0.48509528929E+01  0.17300978200E+03  0.17120000000E+03 0.  0.
        998    1    1    2    0    0 -0.88408744312E+01  0.59597474174E+01  0.14413245390E+04  0.14413986632E+04  0.10000000000E+02 0.  1.
</event>
<event>
 5    1  0.1072898E-008  0.3830876E+03  0.7957747E-01  0.3437824E+00
         13   -1    0    0    0    0  0.00000000000E+00  0.00000000000E+00  0.14999999963E+04  0.15000000000E+04  0.10566000000E+00 0. -1.
        994   -1    0    0    0    0 -0.00000000000E+00 -0.00000000000E+00  0.11368683772E-12  0.17120000000E+03  0.17120000000E+03 0.  0.
         13    1    1    2    0    0 -0.22359961415E+01  0.11770664956E+02  0.26341076736E+02  0.28938066969E+02  0.10566000000E+00 0. -1.
        994    1    1    2    0    0  0.56577440502E+01 -0.13524828501E+02  0.32941656603E+01  0.17185814668E+03  0.17120000000E+03 0.  0.
        998    1    1    2    0    0 -0.34217479087E+01  0.17541635446E+01  0.14703647539E+04  0.14704037863E+04  0.10000000000E+02 0. -1.
</event>
<event>
 5    1  0.1072898E-008  0.3931657E+03  0.7957747E-01  0.3395762E+00
         13   -1    0    0    0    0  0.00000000000E+00  0.00000000000E+00  0.14999999963E+04  0.15000000000E+04  0.10566000000E+00 0.  1.
        994   -1    0    0    0    0 -0.00000000000E+00 -0.00000000000E+00  0.11368683772E-12  0.17120000000E+03  0.17120000000E+03 0.  0.
         13    1    1    2    0    0  0.60800092172E+02  0.36842794193E+01  0.70239407419E+02  0.92972096037E+02  0.10566000000E+00 0.  1.
        994    1    1    2    0    0 -0.43813069061E+02 -0.27299641205E+01  0.31131175666E+02  0.17945926508E+03  0.17120000000E+03 0.  0.
        998    1    1    2    0    0 -0.16987023110E+02 -0.95431529879E+00  0.13986294132E+04  0.13987686389E+04  0.10000000000E+02 0.  1.
</event>
<event>
 5    1  0.1072898E-008  0.3842721E+03  0.7957747E-01  0.3432765E+00
         13   -1    0    0    0    0  0.00000000000E+00  0.00000000000E+00  0.14999999963E+04  0.15000000000E+04  0.10566000000E+00 0.  1.
        994   -1    0    0    0    0 -0.00000000000E+00 -0.00000000000E+00  0.11368683772E-12  0.17120000000E+03  0.17120000000E+03 0.  0.
         13    1    1    2    0    0 -0.85370450129E+01 -0.66848925072E+01  0.28222976062E+02  0.30234359051E+02  0.10566000000E+00 0.  1.
        994    1    1    2    0    0  0.11547435970E+02  0.84586495110E+01  0.26676355907E+01  0.17181806747E+03  0.17120000000E+03 0.  0.
        998    1    1    2    0    0 -0.30103909571E+01 -0.17737570037E+01  0.14691093846E+04  0.14691475735E+04  0.10000000000E+02 0.  1.
</event>
<event>
 5    1  0.1072898E-008  0.3688589E+03  0.7957747E-01  0.3501152E+00
         13   -1    0    0    0    0  0.00000000000E+00  0.00000000000E+00  0.14999999963E+04  0.15000000000E+04  0.10566000000E+00 0.  1.
        994   -1    0    0    0    0 -0.00000000000E+00 -0.00000000000E+00  0.11368683772E-12  0.17120000000E+03  0.17120000000E+03 0.  0.
         13    1    1    2    0    0 -0.46997653188E+02  0.93039008548E+01  0.12189859914E+03  0.13097565275E+03  0.10566000000E+00 0.  1.
        994    1    1    2    0    0  0.90036101486E+01 -0.91409381002E+01  0.10438401109E+02  0.17199715685E+03  0.17120000000E+03 0.  0.
        998    1    1    2    0    0  0.37994043039E+02 -0.16296275462E+00  0.13676629960E+04  0.13682271904E+04  0.10000000000E+02 0.  1.
</event>
<event>
 5    1  0.1072898E-008  0.3831277E+03  0.7957747E-01  0.3437652E+00
         13   -1    0    0    0    0  0.00000000000E+00  0.00000000000E+00  0.14999999963E+04  0.15000000000E+04  0.10566000000E+00 0. -1.
        994   -1    0    0    0    0 -0.00000000000E+00 -0.00000000000E+00  0.11368683772E-12  0.17120000000E+03  0.17120000000E+03 0.  0.
         13    1    1    2    0    0 -0.31656905509E+02  0.63125465494E+01  0.19233484857E+03  0.19502490366E+03  0.10566000000E+00 0. -1.
        994    1    1    2    0    0  0.24320533998E+02 -0.43477770516E+01  0.45848046496E+01  0.17303425087E+03  0.17120000000E+03 0.  0.
        998    1    1    2    0    0  0.73363715107E+01 -0.19647694978E+01  0.13030803431E+04  0.13031408455E+04  0.10000000000E+02 0. -1.
</event>
<event>
 5    1  0.1072898E-008  0.4003499E+03  0.7957747E-01  0.3367071E+00
         13   -1    0    0    0    0  0.00000000000E+00  0.00000000000E+00  0.14999999963E+04  0.15000000000E+04  0.10566000000E+00 0. -1.
        994   -1    0    0    0    0 -0.00000000000E+00 -0.00000000000E+00  0.11368683772E-12  0.17120000000E+03  0.17120000000E+03 0.  0.
         13    1    1    2    0    0 -0.13313164532E+02  0.50142556643E+02  0.35107868677E+02  0.62642556969E+02  0.10566000000E+00 0. -1.
        994    1    1    2    0    0  0.19468154147E+02 -0.66638682401E+02  0.47139408864E+02  0.19066013450E+03  0.17120000000E+03 0.  0.
        998    1    1    2    0    0 -0.61549896159E+01  0.16496125758E+02  0.14177527187E+04  0.14178973085E+04  0.10000000000E+02 0. -1.
</event>
<event>
 5    1  0.1072898E-008  0.3835901E+03  0.7957747E-01  0.3435674E+00
         13   -1    0    0    0    0  0.00000000000E+00  0.00000000000E+00  0.14999999963E+04  0.15000000000E+04  0.10566000000E+00 0.  1.
        994   -1    0    0    0    0 -0.00000000000E+00 -0.00000000000E+00  0.11368683772E-12  0.17120000000E+03  0.17120000000E+03 0.  0.
         13    1    1    2    0    0 -0.11174310760E+02 -0.75796963591E+01  0.38110338812E+02  0.40431746268E+02  0.10566000000E+00 0.  1.
        994    1    1    2    0    0  0.74140344299E+01  0.88634235726E+01  0.27730201336E+01  0.17161193963E+03  0.17120000000E+03 0.  0.
        998    1    1    2    0    0  0.37602763299E+01 -0.12837272135E+01  0.14591166373E+04  0.14591563141E+04  0.10000000000E+02 0.  1.
</event>
<event>
 5    1  0.1072898E-008  0.3852626E+03  0.7957747E-01  0.3428559E+00
         13   -1    0    0    0    0  0.00000000000E+00  0.00000000000E+00  0.14999999963E+04  0.15000000000E+04  0.10566000000E+00 0. -1.
        994   -1    0    0    0    0 -0.00000000000E+00 -0.00000000000E+00  0.11368683772E-12  0.17120000000E+03  0.17120000000E+03 0.  0.
         13    1    1    2    0    0  0.29657328855E+01  0.16693605615E+02  0.86280730727E+02  0.87930925725E+02  0.10566000000E+00 0. -1.
        994    1    1    2    0    0 -0.29357882974E+00 -0.25794186130E+02  0.36893656771E+01  0.17317181539E+03  0.17120000000E+03 0.  0.
        998    1    1    2    0    0 -0.26721540557E+01  0.91005805150E+01  0.14100298999E+04  0.14100972589E+04  0.10000000000E+02 0. -1.
</event>
<event>
 5    1  0.1072898E-008  0.3848324E+03  0.7957747E-01  0.3430383E+00
         13   -1    0    0    0    0  0.00000000000E+00  0.00000000000E+00  0.14999999963E+04  0.15000000000E+04  0.10566000000E+00 0.  1.
        994   -1    0    0    0    0 -0.00000000000E+00 -0.00000000000E+00  0.11368683772E-12  0.17120000000E+03  0.17120000000E+03 0.  0.
         13    1    1    2    0    0 -0.91980100333E+01  0.90305094701E+01  0.48340505201E+02  0.50029682159E+02  0.10566000000E+00 0.  1.
        994    1    1    2    0    0  0.64244781538E+01 -0.57752345287E+01  0.19589786971E+01  0.17142900820E+03  0.17120000000E+03 0.  0.
        998    1    1    2    0    0  0.27735318795E+01 -0.32552749414E+01  0.14497005124E+04  0.14497413096E+04  0.10000000000E+02 0.  1.
</event>
<event>
 5    1  0.1072898E-008  0.4026771E+03  0.7957747E-01  0.3357995E+00
         13   -1    0    0    0    0  0.00000000000E+00  0.00000000000E+00  0.14999999963E+04  0.15000000000E+04  0.10566000000E+00 0. -1.
        994   -1    0    0    0    0 -0.00000000000E+00 -0.00000000000E+00  0.11368683772E-12  0.17120000000E+03  0.17120000000E+03 0.  0.
         13    1    1    2    0    0  0.46013048955E+02  0.61788432163E+02  0.86043745756E+02  0.11549263341E+03  0.10566000000E+00 0. -1.
        994    1    1    2    0    0 -0.62323335366E+02 -0.52173239432E+02  0.56045613308E+02  0.19762792266E+03  0.17120000000E+03 0.  0.
        998    1    1    2    0    0  0.16310286412E+02 -0.96151927316E+01  0.13579106372E+04  0.13580794439E+04  0.10000000000E+02 0. -1.
</event>
<event>
 5    1  0.1072898E-008  0.3860088E+03  0.7957747E-01  0.3425405E+00
         13   -1    0    0    0    0  0.00000000000E+00  0.00000000000E+00  0.14999999963E+04  0.15000000000E+04  0.10566000000E+00 0.  1.
        994   -1    0    0    0    0 -0.00000000000E+00 -0.00000000000E+00  0.11368683772E-12  0.17120000000E+03  0.17120000000E+03 0.  0.
         13    1    1    2    0    0  0.32200780433E+01 -0.10084833508E+02  0.51527699220E+02  0.52604065627E+02  0.10566000000E+00 0.  1.
        994    1    1    2    0    0 -0.86255326048E+01  0.68896983922E+00  0.13755667429E+01  0.17142405513E+03  0.17120000000E+03 0.  0.
        998    1    1    2    0    0  0.54054545615E+01  0.93958636683E+01  0.14470967303E+04  0.14471718792E+04  0.10000000000E+02 0.  1.
</event>
<event>
 5    1  0.1072898E-008  0.3831995E+03  0.7957747E-01  0.3437344E+00
         13   -1    0    0    0    0  0.00000000000E+00  0.00000000000E+00  0.14999999963E+04  0.15000000000E+04  0.10566000000E+00 0.  1.
        994   -1    0    0    0    0 -0.00000000000E+00 -0.00000000000E+00  0.11368683772E-12  0.17120000000E+03  0.17120000000E+03 0.  0.
         13    1    1    2    0    0  0.97162301693E+01 -0.14257337530E+02  0.63644398942E+02  0.65941621780E+02  0.10566000000E+00 0.  1.
        994    1    1    2    0    0  0.14846274715E+00 -0.71032278811E+01  0.26936758824E+01  0.17136853205E+03  0.17120000000E+03 0.  0.
        998    1    1    2    0    0 -0.98646929165E+01  0.21360565412E+02  0.14336619215E+04  0.14338898462E+04  0.10000000000E+02 0.  1.
</event>
<event>
 5    1  0.1072898E-008  0.3815327E+03  0.7957747E-01  0.3444512E+00
         13   -1    0    0    0    0  0.00000000000E+00  0.00000000000E+00  0.14999999963E+04  0.15000000000E+04  0.10566000000E+00 0. -1.
        994   -1    0    0    0    0 -0.00000000000E+00 -0.00000000000E+00  0.11368683772E-12  0.17120000000E+03  0.17120000000E+03 0.  0.
         13    1    1    2    0    0 -0.16451618330E+02 -0.20458503154E+02  0.12601021600E+03  0.12871593451E+03  0.10566000000E+00 0. -1.
        994    1    1    2    0    0  0.42468441033E+01 -0.24778409805E+02  0.54663627047E+01  0.17312228741E+03  0.17120000000E+03 0.  0.
        998    1    1    2    0    0  0.12204774226E+02  0.45236912959E+02  0.13685234176E+04  0.13693617781E+04  0.10000000000E+02 0. -1.
</event>
<event>
 5    1  0.1072898E-008  0.3732784E+03  0.7957747E-01  0.3480958E+00
         13   -1    0    0    0    0  0.00000000000E+00  0.00000000000E+00  0.14999999963E+04  0.15000000000E+04  0.10566000000E+00 0.  1.
        994   -1    0    0    0    0 -0.00000000000E+00 -0.00000000000E+00  0.11368683772E-12  0.17120000000E+03  0.17120000000E+03 0.  0.
         13    1    1    2    0    0 -0.96883085846E+02  0.90248059048E+02  0.42920082891E+03  0.44915966781E+03  0.10566000000E+00 0.  1.
        994    1    1    2    0    0  0.11148745962E+03 -0.90747381236E+02  0.89846957268E+02  0.24092832250E+03  0.17120000000E+03 0.  0.
        998    1    1    2    0    0 -0.14604373771E+02  0.49932218759E+00  0.98095221010E+03  0.98111200969E+03  0.10000000000E+02 0.  1.
</event>
<event>
 5    1  0.1072898E-008  0.3796795E+03  0.7957747E-01  0.3452555E+00
         13   -1    0    0    0    0  0.00000000000E+00  0.00000000000E+00  0.14999999963E+04  0.15000000000E+04  0.10566000000E+00 0. -1.
        994   -1    0    0    0    0 -0.00000000000E+00 -0.00000000000E+00  0.11368683772E-12  0.17120000000E+03  0.17120000000E+03 0.  0.
         13    1    1    2    0    0  0.32562855980E+02  0.38750307079E+02  0.28885622997E+03  0.29325732496E+03  0.10566000000E+00 0. -1.
        994    1    1    2    0    0 -0.23701708321E+02 -0.21703197841E+02  0.77589519270E+01  0.17436295796E+03  0.17120000000E+03 0.  0.
        998    1    1    2    0    0 -0.88611476595E+01 -0.17047109238E+02  0.12033848144E+04  0.12035797171E+04  0.10000000000E+02 0.  1.
</event>
<event>
 5    1  0.1072898E-008  0.3737571E+03  0.7957747E-01  0.3478800E+00
         13   -1    0    0    0    0  0.00000000000E+00  0.00000000000E+00  0.14999999963E+04  0.15000000000E+04  0.10566000000E+00 0. -1.
        994   -1    0    0    0    0 -0.00000000000E+00 -0.00000000000E+00  0.11368683772E-12  0.17120000000E+03  0.17120000000E+03 0.  0.
         13    1    1    2    0    0  0.21491414992E+01 -0.98250551780E+01  0.34777407276E+01  0.10642197284E+02  0.10566000000E+00 0. -1.
        994    1    1    2    0    0 -0.76367540266E+00  0.10217965568E+02  0.76768129338E+01  0.17167808095E+03  0.17120000000E+03 0.  0.
        998    1    1    2    0    0 -0.13854660966E+01 -0.39291039047E+00  0.14888454426E+04  0.14888797218E+04  0.10000000000E+02 0. -1.
</event>
<event>
 5    1  0.1072898E-008  0.3791171E+03  0.7957747E-01  0.3455012E+00
         13   -1    0    0    0    0  0.00000000000E+00  0.00000000000E+00  0.14999999963E+04  0.15000000000E+04  0.10566000000E+00 0. -1.
        994   -1    0    0    0    0 -0.00000000000E+00 -0.00000000000E+00  0.11368683772E-12  0.17120000000E+03  0.17120000000E+03 0.  0.
         13    1    1    2    0    0 -0.19160965085E+02 -0.57189667821E-01  0.37150105539E+02  0.41800566494E+02  0.10566000000E+00 0. -1.
        994    1    1    2    0    0  0.22208157032E+02  0.33542309351E+01  0.62726003368E+01  0.17278089773E+03  0.17120000000E+03 0.  0.
        998    1    1    2    0    0 -0.30471919470E+01 -0.32970412673E+01  0.14565772904E+04  0.14566185358E+04  0.10000000000E+02 0. -1.
</event>
<event>
 5    1  0.1072898E-008  0.3759099E+03  0.7957747E-01  0.3469163E+00
         13   -1    0    0    0    0  0.00000000000E+00  0.00000000000E+00  0.14999999963E+04  0.15000000000E+04  0.10566000000E+00 0.  1.
        994   -1    0    0    0    0 -0.00000000000E+00 -0.00000000000E+00  0.11368683772E-12  0.17120000000E+03  0.17120000000E+03 0.  0.
         13    1    1    2    0    0  0.91321045925E+02  0.90598285510E+02  0.74676585073E+03  0.75776436295E+03  0.10566000000E+00 0.  1.
        994    1    1    2    0    0 -0.87768623927E+02 -0.79995593471E+02  0.55608500223E+02  0.21564872274E+03  0.17120000000E+03 0.  0.
        998    1    1    2    0    0 -0.35524219985E+01 -0.10602692039E+02  0.69762564532E+03  0.69778691432E+03  0.10000000000E+02 0. -1.
</event>
<event>
 5    1  0.1072898E-008  0.3813032E+03  0.7957747E-01  0.3445504E+00
         13   -1    0    0    0    0  0.00000000000E+00  0.00000000000E+00  0.14999999963E+04  0.15000000000E+04  0.10566000000E+00 0.  1.
        994   -1    0    0    0    0 -0.00000000000E+00 -0.00000000000E+00  0.11368683772E-12  0.17120000000E+03  0.17120000000E+03 0.  0.
         13    1    1    2    0    0  0.42531012445E+01 -0.24320735892E+02  0.88429356935E+02  0.91811488369E+02  0.10566000000E+00 0.  1.
        994    1    1    2    0    0  0.69043210056E+00  0.11380741304E+02  0.39095828803E+01  0.17162378276E+03  0.17120000000E+03 0.  0.
        998    1    1    2    0    0 -0.49435333451E+01  0.12939994588E+02  0.14076610565E+04  0.14077647289E+04  0.10000000000E+02 0.  1.
</event>
<event>
 5    1  0.1072898E-008  0.3707876E+03  0.7957747E-01  0.3492279E+00
         13   -1    0    0    0    0  0.00000000000E+00  0.00000000000E+00  0.14999999963E+04  0.15000000000E+04  0.10566000000E+00 0. -1.
        994   -1    0    0    0    0 -0.00000000000E+00 -0.00000000000E+00  0.11368683772E-12  0.17120000000E+03  0.17120000000E+03 0.  0.
         13    1    1    2    0    0  0.57705407378E+02  0.11669552870E+02  0.17082784239E+03  0.18068828242E+03  0.10566000000E+00 0. -1.
        994    1    1    2    0    0 -0.58916847560E+02 -0.99174917460E+01  0.21269210813E+02  0.18256881140E+03  0.17120000000E+03 0.  0.
        998    1    1    2    0    0  0.12114401822E+01 -0.17520611243E+01  0.13079029431E+04  0.13079429062E+04  0.10000000000E+02 0. -1.
</event>
<event>
 5    1  0.1072898E-008  0.3689877E+03  0.7957747E-01  0.3500556E+00
         13   -1    0    0    0    0  0.00000000000E+00  0.00000000000E+00  0.14999999963E+04  0.15000000000E+04  0.10566000000E+00 0.  1.
        994   -1    0    0    0    0 -0.00000000000E+00 -0.00000000000E+00  0.11368683772E-12  0.17120000000E+03  0.17120000000E+03 0.  0.
         13    1    1    2    0    0  0.99173866742E+02  0.60427163661E+02  0.52217456965E+03  0.53493288393E+03  0.10566000000E+00 0.  1.
        994    1    1    2    0    0 -0.85397442060E+02 -0.36248697265E+02  0.41019094102E+02  0.19899421410E+03  0.17120000000E+03 0.  0.
        998    1    1    2    0    0 -0.13776424682E+02 -0.24178466396E+02  0.93680633252E+03  0.93727290197E+03  0.10000000000E+02 0.  1.
</event>
<event>
 5    1  0.1072898E-008  0.3808462E+03  0.7957747E-01  0.3447482E+00
         13   -1    0    0    0    0  0.00000000000E+00  0.00000000000E+00  0.14999999963E+04  0.15000000000E+04  0.10566000000E+00 0. -1.
        994   -1    0    0    0    0 -0.00000000000E+00 -0.00000000000E+00  0.11368683772E-12  0.17120000000E+03  0.17120000000E+03 0.  0.
         13    1    1    2    0    0 -0.83443777322E+01  0.25378336780E+02  0.91754393202E+02  0.95564472757E+02  0.10566000000E+00 0. -1.
        994    1    1    2    0    0  0.82150768042E+01 -0.21700170113E+02  0.55034114490E+01  0.17285286346E+03  0.17120000000E+03 0.  0.
        998    1    1    2    0    0  0.12930092802E+00 -0.36781666671E+01  0.14027421916E+04  0.14027826638E+04  0.10000000000E+02 0. -1.
</event>
<event>
 5    1  0.1072898E-008  0.3854054E+03  0.7957747E-01  0.3427954E+00
         13   -1    0    0    0    0  0.00000000000E+00  0.00000000000E+00  0.14999999963E+04  0.15000000000E+04  0.10566000000E+00 0.  1.
        994   -1    0    0    0    0 -0.00000000000E+00 -0.00000000000E+00  0.11368683772E-12  0.17120000000E+03  0.17120000000E+03 0.  0.
         13    1    1    2    0    0  0.80596281491E+01 -0.66287310193E+01  0.36498657293E+02  0.37961306999E+02  0.10566000000E+00 0.  1.
        994    1    1    2    0    0 -0.11298349234E+02  0.11062037933E+02  0.22505582083E+01  0.17194338135E+03  0.17120000000E+03 0.  0.
        998    1    1    2    0    0  0.32387210847E+01 -0.44333069140E+01  0.14612507808E+04  0.14612953116E+04  0.10000000000E+02 0.  1.
</event>
<event>
 5    1  0.1072898E-008  0.3855835E+03  0.7957747E-01  0.3427201E+00
         13   -1    0    0    0    0  0.00000000000E+00  0.00000000000E+00  0.14999999963E+04  0.15000000000E+04  0.10566000000E+00 0. -1.
        994   -1    0    0    0    0 -0.00000000000E+00 -0.00000000000E+00  0.11368683772E-12  0.17120000000E+03  0.17120000000E+03 0.  0.
         13    1    1    2    0    0 -0.37132152838E+01  0.94695213794E+01  0.38589202581E+02  0.39907361761E+02  0.10566000000E+00 0. -1.
        994    1    1    2    0    0  0.50258045134E+00 -0.79365643035E+01  0.15483355641E+01  0.17139159543E+03  0.17120000000E+03 0.  0.
        998    1    1    2    0    0  0.32106348325E+01 -0.15329570759E+01  0.14598624581E+04  0.14599010428E+04  0.10000000000E+02 0. -1.
</event>
<event>
 5    1  0.1072898E-008  0.3855739E+03  0.7957747E-01  0.3427242E+00
         13   -1    0    0    0    0  0.00000000000E+00  0.00000000000E+00  0.14999999963E+04  0.15000000000E+04  0.10566000000E+00 0.  1.
        994   -1    0    0    0    0 -0.00000000000E+00 -0.00000000000E+00  0.11368683772E-12  0.17120000000E+03  0.17120000000E+03 0.  0.
         13    1    1    2    0    0 -0.73446926986E+01  0.10577705366E+02  0.61576345939E+02  0.62908583714E+02  0.10566000000E+00 0.  1.
        994    1    1    2    0    0  0.49443203656E+00 -0.11347893877E+02  0.17690890195E+01  0.17158551464E+03  0.17120000000E+03 0.  0.
        998    1    1    2    0    0  0.68502606620E+01  0.77018851012E+00  0.14366545613E+04  0.14367059016E+04  0.10000000000E+02 0.  1.
</event>
<event>
 5    1  0.1072898E-008  0.3705962E+03  0.7957747E-01  0.3493155E+00
         13   -1    0    0    0    0  0.00000000000E+00  0.00000000000E+00  0.14999999963E+04  0.15000000000E+04  0.10566000000E+00 0. -1.
        994   -1    0    0    0    0 -0.00000000000E+00 -0.00000000000E+00  0.11368683772E-12  0.17120000000E+03  0.17120000000E+03 0.  0.
         13    1    1    2    0    0  0.15668969320E+01  0.63138192385E+02  0.28454377649E+03  0.29146879491E+03  0.10566000000E+00 0. -1.
        994    1    1    2    0    0 -0.51572260333E+01  0.21029340153E+01  0.90648121490E+01  0.17153026010E+03  0.17120000000E+03 0.  0.
        998    1    1    2    0    0  0.35903291014E+01 -0.65241126400E+02  0.12063914076E+04  0.12082009450E+04  0.10000000000E+02 0. -1.
</event>
<event>
 5    1  0.1072898E-008  0.3858274E+03  0.7957747E-01  0.3426171E+00
         13   -1    0    0    0    0  0.00000000000E+00  0.00000000000E+00  0.14999999963E+04  0.15000000000E+04  0.10566000000E+00 0. -1.
        994   -1    0    0    0    0 -0.00000000000E+00 -0.00000000000E+00  0.11368683772E-12  0.17120000000E+03  0.17120000000E+03 0.  0.
         13    1    1    2    0    0  0.11874937638E+02 -0.60777877501E+01  0.74042830181E+02  0.75235001914E+02  0.10566000000E+00 0. -1.
        994    1    1    2    0    0 -0.74893653633E+01  0.29784960849E+01  0.14330001613E+01  0.17139561115E+03  0.17120000000E+03 0.  0.
        998    1    1    2    0    0 -0.43855722747E+01  0.30992916652E+01  0.14245241659E+04  0.14245693869E+04  0.10000000000E+02 0. -1.
</event>
<event>
 5    1  0.1072898E-008  0.3802112E+03  0.7957747E-01  0.3450240E+00
         13   -1    0    0    0    0  0.00000000000E+00  0.00000000000E+00  0.14999999963E+04  0.15000000000E+04  0.10566000000E+00 0. -1.
        994   -1    0    0    0    0 -0.00000000000E+00 -0.00000000000E+00  0.11368683772E-12  0.17120000000E+03  0.17120000000E+03 0.  0.
         13    1    1    2    0    0 -0.16058541621E+02 -0.16295350067E+02  0.61592400360E+02  0.65704262715E+02  0.10566000000E+00 0. -1.
        994    1    1    2    0    0  0.16802611593E+02  0.14507077194E+02  0.56745057001E+01  0.17272643996E+03  0.17120000000E+03 0.  0.
        998    1    1    2    0    0 -0.74406997249E+00  0.17882728731E+01  0.14327330902E+04  0.14327692973E+04  0.10000000000E+02 0.  0.
</event>
<event>
 5    1  0.1072898E-008  0.3861259E+03  0.7957747E-01  0.3424911E+00
         13   -1    0    0    0    0  0.00000000000E+00  0.00000000000E+00  0.14999999963E+04  0.15000000000E+04  0.10566000000E+00 0. -1.
        994   -1    0    0    0    0 -0.00000000000E+00 -0.00000000000E+00  0.11368683772E-12  0.17120000000E+03  0.17120000000E+03 0.  0.
         13    1    1    2    0    0 -0.96681109010E+01  0.93915401967E+01  0.75954774794E+02  0.77141508759E+02  0.10566000000E+00 0. -1.
        994    1    1    2    0    0  0.22601054271E+02 -0.11081404676E+02  0.31510548151E+01  0.17306927610E+03  0.17120000000E+03 0.  0.
        998    1    1    2    0    0 -0.12932943370E+02  0.16898644790E+01  0.14208941667E+04  0.14209892151E+04  0.10000000000E+02 0. -1.
</event>
<event>
 5    1  0.1072898E-008  0.3750749E+03  0.7957747E-01  0.3472888E+00
         13   -1    0    0    0    0  0.00000000000E+00  0.00000000000E+00  0.14999999963E+04  0.15000000000E+04  0.10566000000E+00 0.  1.
        994   -1    0    0    0    0 -0.00000000000E+00 -0.00000000000E+00  0.11368683772E-12  0.17120000000E+03  0.17120000000E+03 0.  0.
         13    1    1    2    0    0 -0.31748646947E+02 -0.22018520695E+02  0.10676578165E+03  0.11354177703E+03  0.10566000000E+00 0.  1.
        994    1    1    2    0    0  0.22466561144E+02  0.21141575552E+02  0.98813003058E+01  0.17423774758E+03  0.17120000000E+03 0.  0.
        998    1    1    2    0    0  0.92820858028E+01  0.87694514347E+00  0.13833529143E+04  0.13834204754E+04  0.10000000000E+02 0.  1.
</event>
<event>
 5    1  0.1072898E-008  0.3742180E+03  0.7957747E-01  0.3476728E+00
         13   -1    0    0    0    0  0.00000000000E+00  0.00000000000E+00  0.14999999963E+04  0.15000000000E+04  0.10566000000E+00 0.  1.
        994   -1    0    0    0    0 -0.00000000000E+00 -0.00000000000E+00  0.11368683772E-12  0.17120000000E+03  0.17120000000E+03 0.  0.
         13    1    1    2    0    0 -0.32667835721E+02 -0.28311552493E+02  0.13750703086E+03  0.14414203480E+03  0.10566000000E+00 0.  1.
        994    1    1    2    0    0  0.17085307691E+02  0.10015834771E+01  0.80797801703E+01  0.17224294980E+03  0.17120000000E+03 0.  0.
        998    1    1    2    0    0  0.15582528029E+02  0.27309969016E+02  0.13544131852E+04  0.13548150154E+04  0.10000000000E+02 0.  1.
</event>
<event>
 5    1  0.1072898E-008  0.3849705E+03  0.7957747E-01  0.3429797E+00
         13   -1    0    0    0    0  0.00000000000E+00  0.00000000000E+00  0.14999999963E+04  0.15000000000E+04  0.10566000000E+00 0.  1.
        994   -1    0    0    0    0 -0.00000000000E+00 -0.00000000000E+00  0.11368683772E-12  0.17120000000E+03  0.17120000000E+03 0.  0.
         13    1    1    2    0    0  0.16120062660E+02 -0.11984756210E+02  0.12113563260E+03  0.12278983448E+03  0.10566000000E+00 0.  1.
        994    1    1    2    0    0 -0.12074785845E+02  0.73511491046E+01  0.23023430205E+01  0.17179808098E+03  0.17120000000E+03 0.  0.
        998    1    1    2    0    0 -0.40452768148E+01  0.46336071052E+01  0.13765620207E+04  0.13766120845E+04  0.10000000000E+02 0.  1.
</event>
<event>
 5    1  0.1072898E-008  0.3859388E+03  0.7957747E-01  0.3425700E+00
         13   -1    0    0    0    0  0.00000000000E+00  0.00000000000E+00  0.14999999963E+04  0.15000000000E+04  0.10566000000E+00 0. -1.
        994   -1    0    0    0    0 -0.00000000000E+00 -0.00000000000E+00  0.11368683772E-12  0.17120000000E+03  0.17120000000E+03 0.  0.
         13    1    1    2    0    0 -0.10372573978E+02 -0.41801566780E+01  0.58246504662E+02  0.59310458354E+02  0.10566000000E+00 0. -1.
        994    1    1    2    0    0  0.28383625450E+00 -0.69625979046E+01  0.13239605691E+01  0.17134687393E+03  0.17120000000E+03 0.  0.
        998    1    1    2    0    0  0.10088737723E+02  0.11142754583E+02  0.14404295310E+04  0.14405426677E+04  0.10000000000E+02 0. -1.
</event>
<event>
 5    1  0.1072898E-008  0.3861664E+03  0.7957747E-01  0.3424740E+00
         13   -1    0    0    0    0  0.00000000000E+00  0.00000000000E+00  0.14999999963E+04  0.15000000000E+04  0.10566000000E+00 0.  1.
        994   -1    0    0    0    0 -0.00000000000E+00 -0.00000000000E+00  0.11368683772E-12  0.17120000000E+03  0.17120000000E+03 0.  0.
         13    1    1    2    0    0 -0.85260753630E+01  0.65571664907E+01  0.58753533622E+02  0.59730053328E+02  0.10566000000E+00 0.  1.
        994    1    1    2    0    0 -0.54329723606E+01 -0.78454494661E+01  0.13505591502E+01  0.17147108291E+03  0.17120000000E+03 0.  0.
        998    1    1    2    0    0  0.13959047724E+02  0.12882829754E+01  0.14398959035E+04  0.14399988638E+04  0.10000000000E+02 0.  1.
</event>
<event>
 5    1  0.1072898E-008  0.3794171E+03  0.7957747E-01  0.3453701E+00
         13   -1    0    0    0    0  0.00000000000E+00  0.00000000000E+00  0.14999999963E+04  0.15000000000E+04  0.10566000000E+00 0. -1.
        994   -1    0    0    0    0 -0.00000000000E+00 -0.00000000000E+00  0.11368683772E-12  0.17120000000E+03  0.17120000000E+03 0.  0.
         13    1    1    2    0    0 -0.14874513464E+02 -0.12121123204E+02  0.40012487399E+02  0.44375478481E+02  0.10566000000E+00 0. -1.
        994    1    1    2    0    0  0.10151511788E+02  0.59648185048E+01  0.48921625116E+01  0.17167412591E+03  0.17120000000E+03 0.  0.
        998    1    1    2    0    0  0.47230016763E+01  0.61563046995E+01  0.14550953464E+04  0.14551503956E+04  0.10000000000E+02 0. -1.
</event>
<event>
 5    1  0.1072898E-008  0.3856937E+03  0.7957747E-01  0.3426735E+00
         13   -1    0    0    0    0  0.00000000000E+00  0.00000000000E+00  0.14999999963E+04  0.15000000000E+04  0.10566000000E+00 0. -1.
        994   -1    0    0    0    0 -0.00000000000E+00 -0.00000000000E+00  0.11368683772E-12  0.17120000000E+03  0.17120000000E+03 0.  0.
         13    1    1    2    0    0 -0.68345078592E+01  0.93155560248E+01  0.57001089743E+02  0.58160342826E+02  0.10566000000E+00 0. -1.
        994    1    1    2    0    0  0.22698713484E+01  0.79052896232E+01  0.15081053260E+01  0.17140408485E+03  0.17120000000E+03 0.  0.
        998    1    1    2    0    0  0.45646365108E+01 -0.17220845648E+02  0.14414908012E+04  0.14416355723E+04  0.10000000000E+02 0. -1.
</event>
<event>
 5    1  0.1072898E-008  0.3831619E+03  0.7957747E-01  0.3437506E+00
         13   -1    0    0    0    0  0.00000000000E+00  0.00000000000E+00  0.14999999963E+04  0.15000000000E+04  0.10566000000E+00 0.  1.
        994   -1    0    0    0    0 -0.00000000000E+00 -0.00000000000E+00  0.11368683772E-12  0.17120000000E+03  0.17120000000E+03 0.  0.
         13    1    1    2    0    0  0.11095653680E+02 -0.93799207055E+01  0.41543911664E+02  0.44011409923E+02  0.10566000000E+00 0.  1.
        994    1    1    2    0    0 -0.29278611482E+01  0.39665603673E+01  0.26259158312E+01  0.17129110136E+03  0.17120000000E+03 0.  0.
        998    1    1    2    0    0 -0.81677925316E+01  0.54133603382E+01  0.14558301688E+04  0.14558974887E+04  0.10000000000E+02 0.  1.
</event>
<event>
 5    1  0.1072898E-008  0.3793335E+03  0.7957747E-01  0.3454066E+00
         13   -1    0    0    0    0  0.00000000000E+00  0.00000000000E+00  0.14999999963E+04  0.15000000000E+04  0.10566000000E+00 0.  1.
        994   -1    0    0    0    0 -0.00000000000E+00 -0.00000000000E+00  0.11368683772E-12  0.17120000000E+03  0.17120000000E+03 0.  0.
         13    1    1    2    0    0  0.11246833495E+02 -0.32659235609E+02  0.14246621110E+03  0.14659382458E+03  0.10566000000E+00 0.  1.
        994    1    1    2    0    0 -0.11574815894E+02  0.42121003068E+01  0.49784409721E+01  0.17171471407E+03  0.17120000000E+03 0.  0.
        998    1    1    2    0    0  0.32798239887E+00  0.28447135302E+02  0.13525553442E+04  0.13528914614E+04  0.10000000000E+02 0.  1.
</event>
<event>
 5    1  0.1072898E-008  0.3841234E+03  0.7957747E-01  0.3433398E+00
         13   -1    0    0    0    0  0.00000000000E+00  0.00000000000E+00  0.14999999963E+04  0.15000000000E+04  0.10566000000E+00 0. -1.
        994   -1    0    0    0    0 -0.00000000000E+00 -0.00000000000E+00  0.11368683772E-12  0.17120000000E+03  0.17120000000E+03 0.  0.
         13    1    1    2    0    0 -0.13187521555E+01  0.12858007602E+02  0.39602101563E+02  0.41658193419E+02  0.10566000000E+00 0. -1.
        994    1    1    2    0    0  0.15674059843E+01 -0.10583502236E+02  0.24435644369E+01  0.17155138673E+03  0.17120000000E+03 0.  0.
        998    1    1    2    0    0 -0.24865382879E+00 -0.22745053653E+01  0.14579543303E+04  0.14579904199E+04  0.10000000000E+02 0. -1.
</event>
<event>
 5    1  0.1072898E-008  0.3749336E+03  0.7957747E-01  0.3473520E+00
         13   -1    0    0    0    0  0.00000000000E+00  0.00000000000E+00  0.14999999963E+04  0.15000000000E+04  0.10566000000E+00 0. -1.
        994   -1    0    0    0    0 -0.00000000000E+00 -0.00000000000E+00  0.11368683772E-12  0.17120000000E+03  0.17120000000E+03 0.  0.
         13    1    1    2    0    0 -0.81342475428E+02  0.32644088565E+01  0.41071718963E+03  0.41870738672E+03  0.10566000000E+00 0. -1.
        994    1    1    2    0    0  0.66788660715E+02  0.28177518402E+01  0.22061130774E+02  0.18510753204E+03  0.17120000000E+03 0.  0.
        998    1    1    2    0    0  0.14553814714E+02 -0.60821606967E+01  0.10672216759E+04  0.10673850812E+04  0.10000000000E+02 0. -1.
</event>
<event>
 5    1  0.1072898E-008  0.3833393E+03  0.7957747E-01  0.3436746E+00
         13   -1    0    0    0    0  0.00000000000E+00  0.00000000000E+00  0.14999999963E+04  0.15000000000E+04  0.10566000000E+00 0.  1.
        994   -1    0    0    0    0 -0.00000000000E+00 -0.00000000000E+00  0.11368683772E-12  0.17120000000E+03  0.17120000000E+03 0.  0.
         13    1    1    2    0    0 -0.53678674681E+01  0.21800469928E+02  0.10708657986E+03  0.10941490411E+03  0.10566000000E+00 0.  1.
        994    1    1    2    0    0  0.54142776561E+01 -0.55244164098E+01  0.26547731305E+01  0.17139521989E+03  0.17120000000E+03 0.  0.
        998    1    1    2    0    0 -0.46410187947E-01 -0.16276053518E+02  0.13902586433E+04  0.13903898760E+04  0.10000000000E+02 0.  0.
</event>
<event>
 5    1  0.1072898E-008  0.3807168E+03  0.7957747E-01  0.3448043E+00
         13   -1    0    0    0    0  0.00000000000E+00  0.00000000000E+00  0.14999999963E+04  0.15000000000E+04  0.10566000000E+00 0. -1.
        994   -1    0    0    0    0 -0.00000000000E+00 -0.00000000000E+00  0.11368683772E-12  0.17120000000E+03  0.17120000000E+03 0.  0.
         13    1    1    2    0    0  0.26959727249E+02 -0.14669996159E+02  0.16892425274E+03  0.17168998226E+03  0.10566000000E+00 0. -1.
        994    1    1    2    0    0  0.16930194669E+02 -0.18538786720E+02  0.58766905995E+01  0.17313085686E+03  0.17120000000E+03 0.  0.
        998    1    1    2    0    0 -0.43889921918E+02  0.33208782879E+02  0.13251990529E+04  0.13263791609E+04  0.10000000000E+02 0. -1.
</event>
<event>
 5    1  0.1072898E-008  0.3826620E+03  0.7957747E-01  0.3439649E+00
         13   -1    0    0    0    0  0.00000000000E+00  0.00000000000E+00  0.14999999963E+04  0.15000000000E+04  0.10566000000E+00 0. -1.
        994   -1    0    0    0    0 -0.00000000000E+00 -0.00000000000E+00  0.11368683772E-12  0.17120000000E+03  0.17120000000E+03 0.  0.
         13    1    1    2    0    0 -0.37089103761E+01 -0.19622860088E+02  0.79781059674E+02  0.82242575963E+02  0.10566000000E+00 0. -1.
        994    1    1    2    0    0 -0.37763281544E+02 -0.11808247562E+01  0.75401043319E+01  0.17548148892E+03  0.17120000000E+03 0.  0.
        998    1    1    2    0    0  0.41472191920E+02  0.20803684845E+02  0.14126788323E+04  0.14134759351E+04  0.10000000000E+02 0. -1.
</event>
<event>
 5    1  0.1072898E-008  0.3824437E+03  0.7957747E-01  0.3440586E+00
         13   -1    0    0    0    0  0.00000000000E+00  0.00000000000E+00  0.14999999963E+04  0.15000000000E+04  0.10566000000E+00 0. -1.
        994   -1    0    0    0    0 -0.00000000000E+00 -0.00000000000E+00  0.11368683772E-12  0.17120000000E+03  0.17120000000E+03 0.  0.
         13    1    1    2    0    0 -0.24258378349E+02 -0.16564931869E+02  0.16146910678E+03  0.16411931482E+03  0.10566000000E+00 0. -1.
        994    1    1    2    0    0  0.39807852212E+01  0.48162297168E+01  0.30340972392E+01  0.17134085463E+03  0.17120000000E+03 0.  0.
        998    1    1    2    0    0  0.20277593128E+02  0.11748702152E+02  0.13354967923E+04  0.13357398305E+04  0.10000000000E+02 0. -1.
</event>
<event>
 5    1  0.1072898E-008  0.3852829E+03  0.7957747E-01  0.3428473E+00
         13   -1    0    0    0    0  0.00000000000E+00  0.00000000000E+00  0.14999999963E+04  0.15000000000E+04  0.10566000000E+00 0. -1.
        994   -1    0    0    0    0 -0.00000000000E+00 -0.00000000000E+00  0.11368683772E-12  0.17120000000E+03  0.17120000000E+03 0.  0.
         13    1    1    2    0    0  0.55983912874E+01 -0.12044559243E+02  0.60159235131E+02  0.61608101155E+02  0.10566000000E+00 0. -1.
        994    1    1    2    0    0 -0.42994041678E+01  0.54300761744E+01  0.16473876078E+01  0.17134796319E+03  0.17120000000E+03 0.  0.
        998    1    1    2    0    0 -0.12989871196E+01  0.66144830683E+01  0.14381933735E+04  0.14382439357E+04  0.10000000000E+02 0. -1.
</event>
<event>
 5    1  0.1072898E-008  0.3740634E+03  0.7957747E-01  0.3477422E+00
         13   -1    0    0    0    0  0.00000000000E+00  0.00000000000E+00  0.14999999963E+04  0.15000000000E+04  0.10566000000E+00 0.  1.
        994   -1    0    0    0    0 -0.00000000000E+00 -0.00000000000E+00  0.11368683772E-12  0.17120000000E+03  0.17120000000E+03 0.  0.
         13    1    1    2    0    0  0.21643705320E+02 -0.61597553753E+02  0.24611153871E+03  0.25462444749E+03  0.10566000000E+00 0.  1.
        994    1    1    2    0    0 -0.21194923015E+02  0.62646372011E+02  0.22224714389E+02  0.18487068620E+03  0.17120000000E+03 0.  0.
        998    1    1    2    0    0 -0.44878230487E+00 -0.10488182585E+01  0.12316637432E+04  0.12317048663E+04  0.10000000000E+02 0.  1.
</event>
<event>
 5    1  0.1072898E-008  0.3842288E+03  0.7957747E-01  0.3432950E+00
         13   -1    0    0    0    0  0.00000000000E+00  0.00000000000E+00  0.14999999963E+04  0.15000000000E+04  0.10566000000E+00 0.  1.
        994   -1    0    0    0    0 -0.00000000000E+00 -0.00000000000E+00  0.11368683772E-12  0.17120000000E+03  0.17120000000E+03 0.  0.
         13    1    1    2    0    0  0.12398967542E+02  0.15716841387E+02  0.98569316717E+02  0.10058168253E+03  0.10566000000E+00 0.  1.
        994    1    1    2    0    0 -0.27979681213E+01 -0.15084627869E+02  0.27898967219E+01  0.17190869131E+03  0.17120000000E+03 0.  0.
        998    1    1    2    0    0 -0.96009994208E+01 -0.63221351882E+00  0.13986407828E+04  0.13987096262E+04  0.10000000000E+02 0.  1.
</event>
<event>
 5    1  0.1072898E-008  0.3840483E+03  0.7957747E-01  0.3433719E+00
         13   -1    0    0    0    0  0.00000000000E+00  0.00000000000E+00  0.14999999963E+04  0.15000000000E+04  0.10566000000E+00 0.  1.
        994   -1    0    0    0    0 -0.00000000000E+00 -0.00000000000E+00  0.11368683772E-12  0.17120000000E+03  0.17120000000E+03 0.  0.
         13    1    1    2    0    0  0.15926022721E+02 -0.16310197703E+02  0.13152597686E+03  0.13348690761E+03  0.10566000000E+00 0.  1.
        994    1    1    2    0    0 -0.28212301133E+01  0.54788876690E+01  0.22286761624E+01  0.17132537625E+03  0.17120000000E+03 0.  0.
        998    1    1    2    0    0 -0.13104792608E+02  0.10831310034E+02  0.13662453433E+04  0.13663877161E+04  0.10000000000E+02 0.  0.
</event>
<event>
 5    1  0.1072898E-008  0.3823898E+03  0.7957747E-01  0.3440819E+00
         13   -1    0    0    0    0  0.00000000000E+00  0.00000000000E+00  0.14999999963E+04  0.15000000000E+04  0.10566000000E+00 0.  1.
        994   -1    0    0    0    0 -0.00000000000E+00 -0.00000000000E+00  0.11368683772E-12  0.17120000000E+03  0.17120000000E+03 0.  0.
         13    1    1    2    0    0  0.34904481294E+02 -0.15716436725E+02  0.22740968755E+03  0.23060899018E+03  0.10566000000E+00 0.  1.
        994    1    1    2    0    0 -0.31244574700E+02  0.85912834074E+01  0.64221390533E+01  0.17435801521E+03  0.17120000000E+03 0.  0.
        998    1    1    2    0    0 -0.36599065942E+01  0.71251533172E+01  0.12661681697E+04  0.12662329946E+04  0.10000000000E+02 0.  1.
</event>
<event>
 5    1  0.1072898E-008  0.3766885E+03  0.7957747E-01  0.3465705E+00
         13   -1    0    0    0    0  0.00000000000E+00  0.00000000000E+00  0.14999999963E+04  0.15000000000E+04  0.10566000000E+00 0.  1.
        994   -1    0    0    0    0 -0.00000000000E+00 -0.00000000000E+00  0.11368683772E-12  0.17120000000E+03  0.17120000000E+03 0.  0.
         13    1    1    2    0    0 -0.31218958387E+02  0.17379133765E+02  0.10782382686E+03  0.11358981669E+03  0.10566000000E+00 0.  1.
        994    1    1    2    0    0  0.17767203294E+02 -0.12251843493E+02  0.73900715858E+01  0.17271315624E+03  0.17120000000E+03 0.  0.
        998    1    1    2    0    0  0.13451755094E+02 -0.51272902723E+01  0.13847860978E+04  0.13848970271E+04  0.10000000000E+02 0.  1.
</event>
<event>
 5    1  0.1072898E-008  0.3854912E+03  0.7957747E-01  0.3427592E+00
         13   -1    0    0    0    0  0.00000000000E+00  0.00000000000E+00  0.14999999963E+04  0.15000000000E+04  0.10566000000E+00 0. -1.
        994   -1    0    0    0    0 -0.00000000000E+00 -0.00000000000E+00  0.11368683772E-12  0.17120000000E+03  0.17120000000E+03 0.  0.
         13    1    1    2    0    0 -0.46969482302E+01  0.93954079346E+01  0.42745790942E+02  0.44017596711E+02  0.10566000000E+00 0. -1.
        994    1    1    2    0    0  0.31359894013E-01  0.56865690516E+01  0.14926686009E+01  0.17130092268E+03  0.17120000000E+03 0.  0.
        998    1    1    2    0    0  0.46655883362E+01 -0.15081976986E+02  0.14557615367E+04  0.14558814806E+04  0.10000000000E+02 0. -1.
</event>
<event>
 5    1  0.1072898E-008  0.3826210E+03  0.7957747E-01  0.3439825E+00
         13   -1    0    0    0    0  0.00000000000E+00  0.00000000000E+00  0.14999999963E+04  0.15000000000E+04  0.10566000000E+00 0.  1.
        994   -1    0    0    0    0 -0.00000000000E+00 -0.00000000000E+00  0.11368683772E-12  0.17120000000E+03  0.17120000000E+03 0.  0.
         13    1    1    2    0    0  0.93997665720E+01 -0.17616395765E+02  0.31255957963E+01  0.20210727955E+02  0.10566000000E+00 0.  1.
        994    1    1    2    0    0 -0.11905619226E+02  0.24795455433E+02  0.20547247403E+02  0.17460867033E+03  0.17120000000E+03 0.  0.
        998    1    1    2    0    0  0.25058526544E+01 -0.71790596680E+01  0.14763271531E+04  0.14763806017E+04  0.10000000000E+02 0.  1.
</event>
<event>
 5    1  0.1072898E-008  0.3761461E+03  0.7957747E-01  0.3468113E+00
         13   -1    0    0    0    0  0.00000000000E+00  0.00000000000E+00  0.14999999963E+04  0.15000000000E+04  0.10566000000E+00 0.  1.
        994   -1    0    0    0    0 -0.00000000000E+00 -0.00000000000E+00  0.11368683772E-12  0.17120000000E+03  0.17120000000E+03 0.  0.
         13    1    1    2    0    0 -0.24640278573E+02 -0.22151305052E+02  0.97538182521E+02  0.10301228984E+03  0.10566000000E+00 0.  1.
        994    1    1    2    0    0 -0.15370804717E+02  0.12348944585E+02  0.74088444744E+01  0.17249083757E+03  0.17120000000E+03 0.  0.
        998    1    1    2    0    0  0.40011083290E+02  0.98023604668E+01  0.13950529693E+04  0.13956968726E+04  0.10000000000E+02 0.  1.
</event>
<event>
 5    1  0.1072898E-008  0.3724567E+03  0.7957747E-01  0.3484676E+00
         13   -1    0    0    0    0  0.00000000000E+00  0.00000000000E+00  0.14999999963E+04  0.15000000000E+04  0.10566000000E+00 0. -1.
        994   -1    0    0    0    0 -0.00000000000E+00 -0.00000000000E+00  0.11368683772E-12  0.17120000000E+03  0.17120000000E+03 0.  0.
         13    1    1    2    0    0 -0.77282646264E+01  0.11958159548E+02  0.94364918083E+01  0.17081633283E+02  0.10566000000E+00 0. -1.
        994    1    1    2    0    0 -0.55269809241E+01  0.35677287063E+01  0.81389805511E+01  0.17151955927E+03  0.17120000000E+03 0.  0.
        998    1    1    2    0    0  0.13255245551E+02 -0.15525888254E+02  0.14824245239E+04  0.14825988075E+04  0.10000000000E+02 0. -1.
</event>
<event>
 5    1  0.1072898E-008  0.3755486E+03  0.7957747E-01  0.3470773E+00
         13   -1    0    0    0    0  0.00000000000E+00  0.00000000000E+00  0.14999999963E+04  0.15000000000E+04  0.10566000000E+00 0.  1.
        994   -1    0    0    0    0 -0.00000000000E+00 -0.00000000000E+00  0.11368683772E-12  0.17120000000E+03  0.17120000000E+03 0.  0.
         13    1    1    2    0    0  0.73438121211E+02 -0.35718629430E+02  0.38520402821E+03  0.39376532688E+03  0.10566000000E+00 0.  1.
        994    1    1    2    0    0 -0.71550598693E+02  0.38712553157E+02  0.29193919426E+02  0.19178079903E+03  0.17120000000E+03 0.  0.
        998    1    1    2    0    0 -0.18875225178E+01 -0.29939237277E+01  0.10856020486E+04  0.10856538741E+04  0.10000000000E+02 0.  1.
</event>
<event>
 5    1  0.1072898E-008  0.3846678E+03  0.7957747E-01  0.3431082E+00
         13   -1    0    0    0    0  0.00000000000E+00  0.00000000000E+00  0.14999999963E+04  0.15000000000E+04  0.10566000000E+00 0. -1.
        994   -1    0    0    0    0 -0.00000000000E+00 -0.00000000000E+00  0.11368683772E-12  0.17120000000E+03  0.17120000000E+03 0.  0.
         13    1    1    2    0    0  0.65731230088E+01  0.96288997389E+01  0.41324900316E+02  0.42938097378E+02  0.10566000000E+00 0. -1.
        994    1    1    2    0    0 -0.24326488298E+01  0.15288638618E+02  0.25845448531E+01  0.17191794590E+03  0.17120000000E+03 0.  0.
        998    1    1    2    0    0 -0.41404741790E+01 -0.24917538356E+02  0.14560905511E+04  0.14563439567E+04  0.10000000000E+02 0. -1.
</event>
<event>
 5    1  0.1072898E-008  0.3757073E+03  0.7957747E-01  0.3470065E+00
         13   -1    0    0    0    0  0.00000000000E+00  0.00000000000E+00  0.14999999963E+04  0.15000000000E+04  0.10566000000E+00 0.  1.
        994   -1    0    0    0    0 -0.00000000000E+00 -0.00000000000E+00  0.11368683772E-12  0.17120000000E+03  0.17120000000E+03 0.  0.
         13    1    1    2    0    0  0.97300347354E+02  0.93086779407E+01  0.34076965388E+03  0.35451089864E+03  0.10566000000E+00 0.  1.
        994    1    1    2    0    0 -0.53949061207E+02 -0.25338720583E+02  0.26773383103E+02  0.18324520733E+03  0.17120000000E+03 0.  0.
        998    1    1    2    0    0 -0.43351286147E+02  0.16030042642E+02  0.11324569593E+04  0.11334438940E+04  0.10000000000E+02 0.  1.
</event>
<event>
 5    1  0.1072898E-008  0.3858462E+03  0.7957747E-01  0.3426091E+00
         13   -1    0    0    0    0  0.00000000000E+00  0.00000000000E+00  0.14999999963E+04  0.15000000000E+04  0.10566000000E+00 0. -1.
        994   -1    0    0    0    0 -0.00000000000E+00 -0.00000000000E+00  0.11368683772E-12  0.17120000000E+03  0.17120000000E+03 0.  0.
         13    1    1    2    0    0  0.72222590693E+01 -0.84764823253E+01  0.55161982909E+02  0.56274926043E+02  0.10566000000E+00 0. -1.
        994    1    1    2    0    0 -0.41340301475E+01 -0.61103485329E+01  0.13890943657E+01  0.17136451251E+03  0.17120000000E+03 0.  0.
        998    1    1    2    0    0 -0.30882289218E+01  0.14586830858E+02  0.14434489190E+04  0.14435605614E+04  0.10000000000E+02 0. -1.
</event>
<event>
 5    1  0.1072898E-008  0.3726188E+03  0.7957747E-01  0.3483941E+00
         13   -1    0    0    0    0  0.00000000000E+00  0.00000000000E+00  0.14999999963E+04  0.15000000000E+04  0.10566000000E+00 0. -1.
        994   -1    0    0    0    0 -0.00000000000E+00 -0.00000000000E+00  0.11368683772E-12  0.17120000000E+03  0.17120000000E+03 0.  0.
         13    1    1    2    0    0 -0.20082206162E+02  0.42486657841E+01  0.23393656325E+02  0.31122668355E+02  0.10566000000E+00 0. -1.
        994    1    1    2    0    0  0.11065383578E+02 -0.99101268363E+01  0.86631296438E+01  0.17206145165E+03  0.17120000000E+03 0.  0.
        998    1    1    2    0    0  0.90168225836E+01  0.56614610523E+01  0.14679432103E+04  0.14680158800E+04  0.10000000000E+02 0. -1.
</event>
<event>
 5    1  0.1072898E-008  0.3817745E+03  0.7957747E-01  0.3443468E+00
         13   -1    0    0    0    0  0.00000000000E+00  0.00000000000E+00  0.14999999963E+04  0.15000000000E+04  0.10566000000E+00 0. -1.
        994   -1    0    0    0    0 -0.00000000000E+00 -0.00000000000E+00  0.11368683772E-12  0.17120000000E+03  0.17120000000E+03 0.  0.
         13    1    1    2    0    0  0.85467137663E+01 -0.95856635520E+01  0.24646564759E+02  0.27792005692E+02  0.10566000000E+00 0. -1.
        994    1    1    2    0    0 -0.98287423955E+01 -0.47793414329E+01  0.36371198463E+01  0.17158704765E+03  0.17120000000E+03 0.  0.
        998    1    1    2    0    0  0.12820286292E+01  0.14365004985E+02  0.14717163117E+04  0.14718209467E+04  0.10000000000E+02 0. -1.
</event>
<event>
 5    1  0.1072898E-008  0.3828605E+03  0.7957747E-01  0.3438797E+00
         13   -1    0    0    0    0  0.00000000000E+00  0.00000000000E+00  0.14999999963E+04  0.15000000000E+04  0.10566000000E+00 0.  1.
        994   -1    0    0    0    0 -0.00000000000E+00 -0.00000000000E+00  0.11368683772E-12  0.17120000000E+03  0.17120000000E+03 0.  0.
         13    1    1    2    0    0  0.21259599981E+01 -0.11096671292E+02  0.23032198767E+02  0.25654418017E+02  0.10566000000E+00 0.  1.
        994    1    1    2    0    0 -0.90112953050E+01  0.15356508732E+01  0.29728711385E+01  0.17146964638E+03  0.17120000000E+03 0.  0.
        998    1    1    2    0    0  0.68853353069E+01  0.95610204191E+01  0.14739949264E+04  0.14740759356E+04  0.10000000000E+02 0.  1.
</event>
<event>
 5    1  0.1072898E-008  0.3826648E+03  0.7957747E-01  0.3439637E+00
         13   -1    0    0    0    0  0.00000000000E+00  0.00000000000E+00  0.14999999963E+04  0.15000000000E+04  0.10566000000E+00 0. -1.
        994   -1    0    0    0    0 -0.00000000000E+00 -0.00000000000E+00  0.11368683772E-12  0.17120000000E+03  0.17120000000E+03 0.  0.
         13    1    1    2    0    0 -0.11290640424E+02  0.14906019227E+02  0.67252017672E+02  0.69803388280E+02  0.10566000000E+00 0. -1.
        994    1    1    2    0    0 -0.19099650295E+00  0.58271805534E+01  0.29066421423E+01  0.17132390692E+03  0.17120000000E+03 0.  0.
        998    1    1    2    0    0  0.11481636927E+02 -0.20733199780E+02  0.14298413365E+04  0.14300727048E+04  0.10000000000E+02 0. -1.
</event>
<event>
 5    1  0.1072898E-008  0.3817307E+03  0.7957747E-01  0.3443657E+00
         13   -1    0    0    0    0  0.00000000000E+00  0.00000000000E+00  0.14999999963E+04  0.15000000000E+04  0.10566000000E+00 0. -1.
        994   -1    0    0    0    0 -0.00000000000E+00 -0.00000000000E+00  0.11368683772E-12  0.17120000000E+03  0.17120000000E+03 0.  0.
         13    1    1    2    0    0  0.42085592899E+00  0.10671298795E+02  0.15963234018E+02  0.19206502598E+02  0.10566000000E+00 0. -1.
        994    1    1    2    0    0  0.48144060345E+01 -0.11857934496E+02  0.38066640253E+01  0.17171988763E+03  0.17120000000E+03 0.  0.
        998    1    1    2    0    0 -0.52352619635E+01  0.11866357013E+01  0.14802300982E+04  0.14802736098E+04  0.10000000000E+02 0. -1.
</event>
<event>
 5    1  0.1072898E-008  0.3712859E+03  0.7957747E-01  0.3490002E+00
         13   -1    0    0    0    0  0.00000000000E+00  0.00000000000E+00  0.14999999963E+04  0.15000000000E+04  0.10566000000E+00 0. -1.
        994   -1    0    0    0    0 -0.00000000000E+00 -0.00000000000E+00  0.11368683772E-12  0.17120000000E+03  0.17120000000E+03 0.  0.
         13    1    1    2    0    0 -0.14350133342E+02 -0.11896837586E+02  0.16992799250E+02  0.25223549748E+02  0.10566000000E+00 0. -1.
        994    1    1    2    0    0 -0.46366575155E+01  0.54785297092E+01  0.87758557586E+01  0.17157496474E+03  0.17120000000E+03 0.  0.
        998    1    1    2    0    0  0.18986790857E+02  0.64183078770E+01  0.14742313413E+04  0.14744014855E+04  0.10000000000E+02 0. -1.
</event>
<event>
 5    1  0.1072898E-008  0.3788788E+03  0.7957747E-01  0.3456055E+00
         13   -1    0    0    0    0  0.00000000000E+00  0.00000000000E+00  0.14999999963E+04  0.15000000000E+04  0.10566000000E+00 0.  1.
        994   -1    0    0    0    0 -0.00000000000E+00 -0.00000000000E+00  0.11368683772E-12  0.17120000000E+03  0.17120000000E+03 0.  0.
         13    1    1    2    0    0  0.21679287832E+02 -0.17987146242E+02  0.87084883018E+02  0.91527684146E+02  0.10566000000E+00 0.  1.
        994    1    1    2    0    0 -0.53049538249E+01  0.33798867878E+01  0.48329388278E+01  0.17138367328E+03  0.17120000000E+03 0.  0.
        998    1    1    2    0    0 -0.16374334007E+02  0.14607259454E+02  0.14080821744E+04  0.14082886426E+04  0.10000000000E+02 0.  1.
</event>
<event>
 5    1  0.1072898E-008  0.3767764E+03  0.7957747E-01  0.3465316E+00
         13   -1    0    0    0    0  0.00000000000E+00  0.00000000000E+00  0.14999999963E+04  0.15000000000E+04  0.10566000000E+00 0. -1.
        994   -1    0    0    0    0 -0.00000000000E+00 -0.00000000000E+00  0.11368683772E-12  0.17120000000E+03  0.17120000000E+03 0.  0.
         13    1    1    2    0    0 -0.17531946759E+02 -0.29782643016E+01  0.27770766612E+02  0.32976747227E+02  0.10566000000E+00 0. -1.
        994    1    1    2    0    0 -0.24979217190E+02 -0.14374399054E+02  0.85809305634E+01  0.17382076116E+03  0.17120000000E+03 0.  0.
        998    1    1    2    0    0  0.42511163949E+02  0.17352663356E+02  0.14636482991E+04  0.14644024916E+04  0.10000000000E+02 0. -1.
</event>
<event>
 5    1  0.1072898E-008  0.3820300E+03  0.7957747E-01  0.3442367E+00
         13   -1    0    0    0    0  0.00000000000E+00  0.00000000000E+00  0.14999999963E+04  0.15000000000E+04  0.10566000000E+00 0.  1.
        994   -1    0    0    0    0 -0.00000000000E+00 -0.00000000000E+00  0.11368683772E-12  0.17120000000E+03  0.17120000000E+03 0.  0.
         13    1    1    2    0    0 -0.75571614842E+01 -0.11652086293E+02  0.29469887784E+02  0.32578631873E+02  0.10566000000E+00 0.  1.
        994    1    1    2    0    0  0.38312773375E+01  0.13255787422E+02  0.37444064454E+01  0.17179596959E+03  0.17120000000E+03 0.  0.
        998    1    1    2    0    0  0.37258841467E+01 -0.16037011293E+01  0.14667857020E+04  0.14668253985E+04  0.10000000000E+02 0.  1.
</event>
<event>
 5    1  0.1072898E-008  0.3757715E+03  0.7957747E-01  0.3469780E+00
         13   -1    0    0    0    0  0.00000000000E+00  0.00000000000E+00  0.14999999963E+04  0.15000000000E+04  0.10566000000E+00 0. -1.
        994   -1    0    0    0    0 -0.00000000000E+00 -0.00000000000E+00  0.11368683772E-12  0.17120000000E+03  0.17120000000E+03 0.  0.
         13    1    1    2    0    0 -0.36904104724E+01  0.39085581595E+02  0.13850925161E+03  0.14396571037E+03  0.10566000000E+00 0. -1.
        994    1    1    2    0    0 -0.77234133061E+01  0.28921575363E+01  0.65137294711E+01  0.17152225617E+03  0.17120000000E+03 0.  0.
        998    1    1    2    0    0  0.11413823779E+02 -0.41977739131E+02  0.13549770152E+04  0.13557120335E+04  0.10000000000E+02 0. -1.
</event>
<event>
 5    1  0.1072898E-008  0.3796436E+03  0.7957747E-01  0.3452712E+00
         13   -1    0    0    0    0  0.00000000000E+00  0.00000000000E+00  0.14999999963E+04  0.15000000000E+04  0.10566000000E+00 0. -1.
        994   -1    0    0    0    0 -0.00000000000E+00 -0.00000000000E+00  0.11368683772E-12  0.17120000000E+03  0.17120000000E+03 0.  0.
         13    1    1    2    0    0  0.16218914829E+02  0.72416517257E+01  0.35634725794E+02  0.39816322839E+02  0.10566000000E+00 0. -1.
        994    1    1    2    0    0 -0.59541686490E+01  0.22787751258E+00  0.44320166054E+01  0.17136098396E+03  0.17120000000E+03 0.  0.
        998    1    1    2    0    0 -0.10264746180E+02 -0.74695292383E+01  0.14599332539E+04  0.14600226932E+04  0.10000000000E+02 0. -1.
</event>
<event>
 5    1  0.1072898E-008  0.3769963E+03  0.7957747E-01  0.3464343E+00
         13   -1    0    0    0    0  0.00000000000E+00  0.00000000000E+00  0.14999999963E+04  0.15000000000E+04  0.10566000000E+00 0. -1.
        994   -1    0    0    0    0 -0.00000000000E+00 -0.00000000000E+00  0.11368683772E-12  0.17120000000E+03  0.17120000000E+03 0.  0.
         13    1    1    2    0    0  0.12039371789E+03  0.12711044219E+02  0.63728219243E+03  0.64867929048E+03  0.10566000000E+00 0. -1.
        994    1    1    2    0    0 -0.12916418817E+03 -0.29079333821E+01  0.64269472823E+02  0.22390142635E+03  0.17120000000E+03 0.  0.
        998    1    1    2    0    0  0.87704702884E+01 -0.98031108372E+01  0.79844833103E+03  0.79861928317E+03  0.10000000000E+02 0. -1.
</event>
<event>
 5    1  0.1072898E-008  0.3796278E+03  0.7957747E-01  0.3452781E+00
         13   -1    0    0    0    0  0.00000000000E+00  0.00000000000E+00  0.14999999963E+04  0.15000000000E+04  0.10566000000E+00 0. -1.
        994   -1    0    0    0    0 -0.00000000000E+00 -0.00000000000E+00  0.11368683772E-12  0.17120000000E+03  0.17120000000E+03 0.  0.
         13    1    1    2    0    0 -0.25988924584E+02  0.12737278099E+02  0.10774722953E+03  0.11156674724E+03  0.10566000000E+00 0. -1.
        994    1    1    2    0    0 -0.85763088849E+01 -0.57902888948E+01  0.46796533275E+01  0.17157627946E+03  0.17120000000E+03 0.  0.
        998    1    1    2    0    0  0.34565233469E+02 -0.69469892041E+01  0.13875731134E+04  0.13880569733E+04  0.10000000000E+02 0. -1.
</event>
<event>
 5    1  0.1072898E-008  0.3803471E+03  0.7957747E-01  0.3449649E+00
         13   -1    0    0    0    0  0.00000000000E+00  0.00000000000E+00  0.14999999963E+04  0.15000000000E+04  0.10566000000E+00 0. -1.
        994   -1    0    0    0    0 -0.00000000000E+00 -0.00000000000E+00  0.11368683772E-12  0.17120000000E+03  0.17120000000E+03 0.  0.
         13    1    1    2    0    0 -0.21995144982E+01  0.11213821583E+02  0.14877340388E+02  0.18759906172E+02  0.10566000000E+00 0. -1.
        994    1    1    2    0    0  0.22888854692E+01 -0.58797794955E+01  0.40909994460E+01  0.17136506960E+03  0.17120000000E+03 0.  0.
        998    1    1    2    0    0 -0.89370970950E-01 -0.53340420873E+01  0.14810316564E+04  0.14810750242E+04  0.10000000000E+02 0. -1.
</event>
<event>
 5    1  0.1072898E-008  0.4061331E+03  0.7957747E-01  0.3344708E+00
         13   -1    0    0    0    0  0.00000000000E+00  0.00000000000E+00  0.14999999963E+04  0.15000000000E+04  0.10566000000E+00 0. -1.
        994   -1    0    0    0    0 -0.00000000000E+00 -0.00000000000E+00  0.11368683772E-12  0.17120000000E+03  0.17120000000E+03 0.  0.
         13    1    1    2    0    0 -0.17028061695E+02  0.74247900502E+01 -0.83629600887E+01  0.20372350327E+02  0.10566000000E+00 0. -1.
        994    1    1    2    0    0  0.17929504180E+02 -0.53470515025E+01  0.32905708541E+02  0.17533477617E+03  0.17120000000E+03 0.  0.
        998    1    1    2    0    0 -0.90144248523E+00 -0.20777385476E+01  0.14754572478E+04  0.14754928735E+04  0.10000000000E+02 0. -1.
</event>
<event>
 5    1  0.1072898E-008  0.3803884E+03  0.7957747E-01  0.3449469E+00
         13   -1    0    0    0    0  0.00000000000E+00  0.00000000000E+00  0.14999999963E+04  0.15000000000E+04  0.10566000000E+00 0.  1.
        994   -1    0    0    0    0 -0.00000000000E+00 -0.00000000000E+00  0.11368683772E-12  0.17120000000E+03  0.17120000000E+03 0.  0.
         13    1    1    2    0    0  0.45491173142E+00 -0.12677538376E+02  0.18751512132E+02  0.22639728250E+02  0.10566000000E+00 0.  1.
        994    1    1    2    0    0 -0.27892106792E+01  0.97106300740E+01  0.42781010855E+01  0.17155121154E+03  0.17120000000E+03 0.  0.
        998    1    1    2    0    0  0.23342989477E+01  0.29669083021E+01  0.14769703831E+04  0.14770090602E+04  0.10000000000E+02 0.  1.
</event>
<event>
 5    1  0.1072898E-008  0.3805842E+03  0.7957747E-01  0.3448619E+00
         13   -1    0    0    0    0  0.00000000000E+00  0.00000000000E+00  0.14999999963E+04  0.15000000000E+04  0.10566000000E+00 0. -1.
        994   -1    0    0    0    0 -0.00000000000E+00 -0.00000000000E+00  0.11368683772E-12  0.17120000000E+03  0.17120000000E+03 0.  0.
         13    1    1    2    0    0  0.19438565659E+02 -0.26309535044E+01  0.52599277008E+02  0.56137998335E+02  0.10566000000E+00 0. -1.
        994    1    1    2    0    0  0.52179204861E+01 -0.98846382109E+01  0.42554886919E+01  0.17161725423E+03  0.17120000000E+03 0.  0.
        998    1    1    2    0    0 -0.24656486146E+02  0.12515591715E+02  0.14431452306E+04  0.14434447474E+04  0.10000000000E+02 0. -1.
</event>
<event>
 5    1  0.1168594E-008  0.3849694E+03  0.7957747E-01  0.3429802E+00
         13   -1    0    0    0    0  0.00000000000E+00  0.00000000000E+00  0.14999999963E+04  0.15000000000E+04  0.10566000000E+00 0.  1.
        994   -1    0    0    0    0 -0.00000000000E+00 -0.00000000000E+00  0.11368683772E-12  0.17120000000E+03  0.17120000000E+03 0.  0.
         13    1    1    2    0    0  0.13625158896E+02 -0.10403617330E+02  0.81569177878E+02  0.83351197665E+02  0.10566000000E+00 0.  1.
        994    1    1    2    0    0 -0.36942203047E+02 -0.67388824835E+01  0.62970387032E+01  0.17538309953E+03  0.17120000000E+03 0.  0.
        998    1    1    2    0    0  0.23317044151E+02  0.17142499813E+02  0.14121337797E+04  0.14124657028E+04  0.10000000000E+02 0.  1.
</event>
<event>
 5    1  0.1072898E-008  0.3816529E+03  0.7957747E-01  0.3443993E+00
         13   -1    0    0    0    0  0.00000000000E+00  0.00000000000E+00  0.14999999963E+04  0.15000000000E+04  0.10566000000E+00 0. -1.
        994   -1    0    0    0    0 -0.00000000000E+00 -0.00000000000E+00  0.11368683772E-12  0.17120000000E+03  0.17120000000E+03 0.  0.
         13    1    1    2    0    0  0.41100555327E+02 -0.14008310597E+03  0.42532158474E+03  0.44967876738E+03  0.10566000000E+00 0. -1.
        994    1    1    2    0    0 -0.30608591592E+02  0.13973210692E+03  0.96227989783E+02  0.24296339971E+03  0.17120000000E+03 0.  0.
        998    1    1    2    0    0 -0.10491963735E+02  0.35099905242E+00  0.97845042176E+03  0.97855783291E+03  0.10000000000E+02 0.  0.
</event>
<event>
 5    1  0.1072898E-008  0.3858105E+03  0.7957747E-01  0.3426242E+00
         13   -1    0    0    0    0  0.00000000000E+00  0.00000000000E+00  0.14999999963E+04  0.15000000000E+04  0.10566000000E+00 0. -1.
        994   -1    0    0    0    0 -0.00000000000E+00 -0.00000000000E+00  0.11368683772E-12  0.17120000000E+03  0.17120000000E+03 0.  0.
         13    1    1    2    0    0 -0.15336526906E+01 -0.10858587959E+02  0.47452253139E+02  0.48703064739E+02  0.10566000000E+00 0. -1.
        994    1    1    2    0    0 -0.50218416781E+01  0.14723998639E+02  0.20225045906E+01  0.17191726369E+03  0.17120000000E+03 0.  0.
        998    1    1    2    0    0  0.65554943687E+01 -0.38654106804E+01  0.14505252385E+04  0.14505796716E+04  0.10000000000E+02 0. -1.
</event>
<event>
 5    1  0.1072898E-008  0.3730004E+03  0.7957747E-01  0.3482214E+00
         13   -1    0    0    0    0  0.00000000000E+00  0.00000000000E+00  0.14999999963E+04  0.15000000000E+04  0.10566000000E+00 0.  1.
        994   -1    0    0    0    0 -0.00000000000E+00 -0.00000000000E+00  0.11368683772E-12  0.17120000000E+03  0.17120000000E+03 0.  0.
         13    1    1    2    0    0  0.76941807678E+02  0.17545392995E+03  0.82518207678E+03  0.84713021095E+03  0.10566000000E+00 0.  1.
        994    1    1    2    0    0 -0.64753527277E+02 -0.18377492941E+03  0.15136132766E+03  0.30030973259E+03  0.17120000000E+03 0.  0.
        998    1    1    2    0    0 -0.12188280401E+02  0.83209994585E+01  0.52345659183E+03  0.52376005646E+03  0.10000000000E+02 0.  1.
</event>
<event>
 5    1  0.1072898E-008  0.3692507E+03  0.7957747E-01  0.3499342E+00
         13   -1    0    0    0    0  0.00000000000E+00  0.00000000000E+00  0.14999999963E+04  0.15000000000E+04  0.10566000000E+00 0.  1.
        994   -1    0    0    0    0 -0.00000000000E+00 -0.00000000000E+00  0.11368683772E-12  0.17120000000E+03  0.17120000000E+03 0.  0.
         13    1    1    2    0    0 -0.10662942828E+03 -0.13653216718E+03  0.79275011649E+03  0.81145771671E+03  0.10566000000E+00 0.  1.
        994    1    1    2    0    0  0.95941638269E+02  0.12673799774E+03  0.10313290655E+03  0.25536866378E+03  0.17120000000E+03 0.  0.
        998    1    1    2    0    0  0.10687790010E+02  0.97941694395E+01  0.60411697324E+03  0.60437361951E+03  0.10000000000E+02 0.  0.
</event>
<event>
 5    1  0.1072898E-008  0.3852196E+03  0.7957747E-01  0.3428742E+00
         13   -1    0    0    0    0  0.00000000000E+00  0.00000000000E+00  0.14999999963E+04  0.15000000000E+04  0.10566000000E+00 0. -1.
        994   -1    0    0    0    0 -0.00000000000E+00 -0.00000000000E+00  0.11368683772E-12  0.17120000000E+03  0.17120000000E+03 0.  0.
         13    1    1    2    0    0  0.61469030119E+01 -0.11414059506E+02  0.57335876346E+02  0.58783322902E+02  0.10566000000E+00 0. -1.
        994    1    1    2    0    0 -0.50284096350E+01  0.61215492119E+00  0.16055050033E+01  0.17128244885E+03  0.17120000000E+03 0.  0.
        998    1    1    2    0    0 -0.11184933769E+01  0.10801904585E+02  0.14410586149E+04  0.14411342282E+04  0.10000000000E+02 0. -1.
</event>
<event>
 5    1  0.1072898E-008  0.3731500E+03  0.7957747E-01  0.3481538E+00
         13   -1    0    0    0    0  0.00000000000E+00  0.00000000000E+00  0.14999999963E+04  0.15000000000E+04  0.10566000000E+00 0.  1.
        994   -1    0    0    0    0 -0.00000000000E+00 -0.00000000000E+00  0.11368683772E-12  0.17120000000E+03  0.17120000000E+03 0.  0.
         13    1    1    2    0    0 -0.20406947685E+02  0.12012803097E+02  0.35320381685E+02  0.42524010612E+02  0.10566000000E+00 0.  1.
        994    1    1    2    0    0  0.43210852166E+00  0.45652736484E+01  0.77037428050E+01  0.17143458255E+03  0.17120000000E+03 0.  0.
        998    1    1    2    0    0  0.19974839163E+02 -0.16578076745E+02  0.14569758718E+04  0.14572414068E+04  0.10000000000E+02 0.  1.
</event>
<event>
 5    1  0.1072898E-008  0.3829244E+03  0.7957747E-01  0.3438523E+00
         13   -1    0    0    0    0  0.00000000000E+00  0.00000000000E+00  0.14999999963E+04  0.15000000000E+04  0.10566000000E+00 0.  1.
        994   -1    0    0    0    0 -0.00000000000E+00 -0.00000000000E+00  0.11368683772E-12  0.17120000000E+03  0.17120000000E+03 0.  0.
         13    1    1    2    0    0 -0.11429951452E+02  0.32254927209E+01  0.25289642346E+02  0.27939662981E+02  0.10566000000E+00 0.  1.
        994    1    1    2    0    0  0.10779031015E+02 -0.21965028172E+01  0.30649315512E+01  0.17158043577E+03  0.17120000000E+03 0.  0.
        998    1    1    2    0    0  0.65092043673E+00 -0.10289899037E+01  0.14716454224E+04  0.14716799012E+04  0.10000000000E+02 0.  1.
</event>
<event>
 5    1  0.1072898E-008  0.3701464E+03  0.7957747E-01  0.3495219E+00
         13   -1    0    0    0    0  0.00000000000E+00  0.00000000000E+00  0.14999999963E+04  0.15000000000E+04  0.10566000000E+00 0.  1.
        994   -1    0    0    0    0 -0.00000000000E+00 -0.00000000000E+00  0.11368683772E-12  0.17120000000E+03  0.17120000000E+03 0.  0.
         13    1    1    2    0    0  0.93798085186E+01  0.36446102338E+02  0.78509434490E+02  0.87063434641E+02  0.10566000000E+00 0.  1.
        994    1    1    2    0    0 -0.10616192527E+02 -0.28820707046E+01  0.96108931487E+01  0.17182205662E+03  0.17120000000E+03 0.  0.
        998    1    1    2    0    0  0.12363840089E+01 -0.33564031634E+02  0.14118796686E+04  0.14123145087E+04  0.10000000000E+02 0.  1.
</event>
<event>
 5    1  0.1072898E-008  0.3751836E+03  0.7957747E-01  0.3472402E+00
         13   -1    0    0    0    0  0.00000000000E+00  0.00000000000E+00  0.14999999963E+04  0.15000000000E+04  0.10566000000E+00 0.  1.
        994   -1    0    0    0    0 -0.00000000000E+00 -0.00000000000E+00  0.11368683772E-12  0.17120000000E+03  0.17120000000E+03 0.  0.
         13    1    1    2    0    0 -0.78785172312E+01  0.75051479551E+02  0.31251882541E+03  0.32150089116E+03  0.10566000000E+00 0.  1.
        994    1    1    2    0    0 -0.41758384413E+01 -0.87108314693E+02  0.32875697017E+02  0.19492446632E+03  0.17120000000E+03 0.  0.
        998    1    1    2    0    0  0.12054355673E+02  0.12056835142E+02  0.11546054738E+04  0.11547746425E+04  0.10000000000E+02 0. -1.
</event>
<event>
 5    1  0.1072898E-008  0.3847070E+03  0.7957747E-01  0.3430916E+00
         13   -1    0    0    0    0  0.00000000000E+00  0.00000000000E+00  0.14999999963E+04  0.15000000000E+04  0.10566000000E+00 0.  1.
        994   -1    0    0    0    0 -0.00000000000E+00 -0.00000000000E+00  0.11368683772E-12  0.17120000000E+03  0.17120000000E+03 0.  0.
         13    1    1    2    0    0 -0.10582455997E+02 -0.12813668274E+02  0.90702339940E+02  0.92212277405E+02  0.10566000000E+00 0.  1.
        994    1    1    2    0    0 -0.87596876494E+01 -0.60370413445E+01  0.21483136422E+01  0.17154367738E+03  0.17120000000E+03 0.  0.
        998    1    1    2    0    0  0.19342143646E+02  0.18850709619E+02  0.14071493427E+04  0.14074440452E+04  0.10000000000E+02 0.  1.
</event>
<event>
 5    1  0.1111068E-008  0.3824726E+03  0.7957747E-01  0.3440463E+00
         13   -1    0    0    0    0  0.00000000000E+00  0.00000000000E+00  0.14999999963E+04  0.15000000000E+04  0.10566000000E+00 0.  1.
        994   -1    0    0    0    0 -0.00000000000E+00 -0.00000000000E+00  0.11368683772E-12  0.17120000000E+03  0.17120000000E+03 0.  0.
         13    1    1    2    0    0  0.12102141396E+02 -0.69116043274E+00  0.24086807722E+02  0.26965255411E+02  0.10566000000E+00 0.  1.
        994    1    1    2    0    0 -0.11643642003E+02  0.16531720900E+01  0.33489179491E+01  0.17163613439E+03  0.17120000000E+03 0.  0.
        998    1    1    2    0    0 -0.45849939300E+00 -0.96201165725E+00  0.14725642706E+04  0.14725986102E+04  0.10000000000E+02 0.  1.
</event>
<event>
 5    1  0.1072898E-008  0.3823237E+03  0.7957747E-01  0.3441103E+00
         13   -1    0    0    0    0  0.00000000000E+00  0.00000000000E+00  0.14999999963E+04  0.15000000000E+04  0.10566000000E+00 0. -1.
        994   -1    0    0    0    0 -0.00000000000E+00 -0.00000000000E+00  0.11368683772E-12  0.17120000000E+03  0.17120000000E+03 0.  0.
         13    1    1    2    0    0  0.24324819670E+02  0.55141981533E+01  0.10309165635E+03  0.10606603606E+03  0.10566000000E+00 0. -1.
        994    1    1    2    0    0 -0.16212818215E+02 -0.42118966753E+01  0.38961586108E+01  0.17206166220E+03  0.17120000000E+03 0.  0.
        998    1    1    2    0    0 -0.81120014550E+01 -0.13023014781E+01  0.13930121813E+04  0.13930723017E+04  0.10000000000E+02 0. -1.
</event>
<event>
 5    1  0.1072898E-008  0.3854031E+03  0.7957747E-01  0.3427965E+00
         13   -1    0    0    0    0  0.00000000000E+00  0.00000000000E+00  0.14999999963E+04  0.15000000000E+04  0.10566000000E+00 0.  1.
        994   -1    0    0    0    0 -0.00000000000E+00 -0.00000000000E+00  0.11368683772E-12  0.17120000000E+03  0.17120000000E+03 0.  0.
         13    1    1    2    0    0  0.21710134039E+02  0.21743835710E+02  0.18317188258E+03  0.18573118758E+03  0.10566000000E+00 0.  1.
        994    1    1    2    0    0 -0.73385303228E+02 -0.36289606417E+02  0.23761344989E+02  0.19124952230E+03  0.17120000000E+03 0.  0.
        998    1    1    2    0    0  0.51675169189E+02  0.14545770707E+02  0.12930667687E+04  0.12942192901E+04  0.10000000000E+02 0.  1.
</event>
<event>
 5    1  0.1072898E-008  0.3800253E+03  0.7957747E-01  0.3451048E+00
         13   -1    0    0    0    0  0.00000000000E+00  0.00000000000E+00  0.14999999963E+04  0.15000000000E+04  0.10566000000E+00 0.  1.
        994   -1    0    0    0    0 -0.00000000000E+00 -0.00000000000E+00  0.11368683772E-12  0.17120000000E+03  0.17120000000E+03 0.  0.
         13    1    1    2    0    0 -0.32154399688E+02 -0.26592724939E+02  0.18700048490E+03  0.19159924571E+03  0.10566000000E+00 0.  1.
        994    1    1    2    0    0  0.30247596697E+02  0.27156577173E+02  0.96635524265E+01  0.17622491605E+03  0.17120000000E+03 0.  0.
        998    1    1    2    0    0  0.19068029907E+01 -0.56385223399E+00  0.13033359590E+04  0.13033758382E+04  0.10000000000E+02 0.  1.
</event>
<event>
 5    1  0.1072898E-008  0.3772412E+03  0.7957747E-01  0.3463260E+00
         13   -1    0    0    0    0  0.00000000000E+00  0.00000000000E+00  0.14999999963E+04  0.15000000000E+04  0.10566000000E+00 0.  1.
        994   -1    0    0    0    0 -0.00000000000E+00 -0.00000000000E+00  0.11368683772E-12  0.17120000000E+03  0.17120000000E+03 0.  0.
         13    1    1    2    0    0  0.19128354009E+03 -0.76592971364E+02  0.75070067645E+03  0.77846476655E+03  0.10566000000E+00 0.  1.
        994    1    1    2    0    0 -0.21975840580E+03  0.99690895108E+02  0.23717058700E+03  0.37919831068E+03  0.17120000000E+03 0.  0.
        998    1    1    2    0    0  0.28474865705E+02 -0.23097923743E+02  0.51212873283E+03  0.51353692277E+03  0.10000000000E+02 0.  1.
</event>
<event>
 5    1  0.1072898E-008  0.3829280E+03  0.7957747E-01  0.3438508E+00
         13   -1    0    0    0    0  0.00000000000E+00  0.00000000000E+00  0.14999999963E+04  0.15000000000E+04  0.10566000000E+00 0. -1.
        994   -1    0    0    0    0 -0.00000000000E+00 -0.00000000000E+00  0.11368683772E-12  0.17120000000E+03  0.17120000000E+03 0.  0.
         13    1    1    2    0    0  0.49350250099E+01  0.88870652930E+01  0.18305478701E+02  0.20938866155E+02  0.10566000000E+00 0. -1.
        994    1    1    2    0    0 -0.14469838751E+02 -0.19867854138E+01  0.33689761593E+01  0.17185492006E+03  0.17120000000E+03 0.  0.
        998    1    1    2    0    0  0.95348137409E+01 -0.69002798792E+01  0.14783255414E+04  0.14784062138E+04  0.10000000000E+02 0. -1.
</event>
<event>
 5    1  0.1467478E-008  0.3840102E+03  0.7957747E-01  0.3433881E+00
         13   -1    0    0    0    0  0.00000000000E+00  0.00000000000E+00  0.14999999963E+04  0.15000000000E+04  0.10566000000E+00 0.  1.
        994   -1    0    0    0    0 -0.00000000000E+00 -0.00000000000E+00  0.11368683772E-12  0.17120000000E+03  0.17120000000E+03 0.  0.
         13    1    1    2    0    0  0.99606326878E+01 -0.14990548446E+01  0.22829555396E+02  0.24953178807E+02  0.10566000000E+00 0.  1.
        994    1    1    2    0    0 -0.12042009432E+02  0.14972149995E+01  0.26083340527E+01  0.17164933746E+03  0.17120000000E+03 0.  0.
        998    1    1    2    0    0  0.20813767439E+01  0.18398451153E-02  0.14745621068E+04  0.14745974837E+04  0.10000000000E+02 0.  1.
</event>
<event>
 5    1  0.1072898E-008  0.3825846E+03  0.7957747E-01  0.3439981E+00
         13   -1    0    0    0    0  0.00000000000E+00  0.00000000000E+00  0.14999999963E+04  0.15000000000E+04  0.10566000000E+00 0. -1.
        994   -1    0    0    0    0 -0.00000000000E+00 -0.00000000000E+00  0.11368683772E-12  0.17120000000E+03  0.17120000000E+03 0.  0.
         13    1    1    2    0    0 -0.23962675478E+02 -0.28064224342E+02  0.20435641823E+03  0.20766166555E+03  0.10566000000E+00 0. -1.
        994    1    1    2    0    0  0.97351513401E+02 -0.13367207592E+02  0.35528322746E+02  0.20056844497E+03  0.17120000000E+03 0.  0.
        998    1    1    2    0    0 -0.73388837923E+02  0.41431431933E+02  0.12601152553E+04  0.12629698895E+04  0.10000000000E+02 0. -1.
</event>
<event>
 5    1  0.1072898E-008  0.3755763E+03  0.7957747E-01  0.3470649E+00
         13   -1    0    0    0    0  0.00000000000E+00  0.00000000000E+00  0.14999999963E+04  0.15000000000E+04  0.10566000000E+00 0. -1.
        994   -1    0    0    0    0 -0.00000000000E+00 -0.00000000000E+00  0.11368683772E-12  0.17120000000E+03  0.17120000000E+03 0.  0.
         13    1    1    2    0    0  0.91449421502E+01 -0.95750550745E+01  0.11001642825E+02  0.17215079305E+02  0.10566000000E+00 0. -1.
        994    1    1    2    0    0 -0.53710231289E+01  0.13462062066E+01  0.64871173886E+01  0.17141231826E+03  0.17120000000E+03 0.  0.
        998    1    1    2    0    0 -0.37739190214E+01  0.82288488679E+01  0.14825112361E+04  0.14825726024E+04  0.10000000000E+02 0. -1.
</event>
<event>
 5    1  0.1072898E-008  0.3913319E+03  0.7957747E-01  0.3403254E+00
         13   -1    0    0    0    0  0.00000000000E+00  0.00000000000E+00  0.14999999963E+04  0.15000000000E+04  0.10566000000E+00 0. -1.
        994   -1    0    0    0    0 -0.00000000000E+00 -0.00000000000E+00  0.11368683772E-12  0.17120000000E+03  0.17120000000E+03 0.  0.
         13    1    1    2    0    0 -0.17733743719E+02 -0.86318079046E+01 -0.21098134505E+01  0.19835731668E+02  0.10566000000E+00 0. -1.
        994    1    1    2    0    0  0.55259950423E+02  0.14038792512E+02  0.35095059668E+02  0.18382560493E+03  0.17120000000E+03 0.  0.
        998    1    1    2    0    0 -0.37526206704E+02 -0.54069846078E+01  0.14670147501E+04  0.14675386634E+04  0.10000000000E+02 0. -1.
</event>
<event>
 5    1  0.1072898E-008  0.3801942E+03  0.7957747E-01  0.3450313E+00
         13   -1    0    0    0    0  0.00000000000E+00  0.00000000000E+00  0.14999999963E+04  0.15000000000E+04  0.10566000000E+00 0. -1.
        994   -1    0    0    0    0 -0.00000000000E+00 -0.00000000000E+00  0.11368683772E-12  0.17120000000E+03  0.17120000000E+03 0.  0.
         13    1    1    2    0    0  0.51975963918E+02  0.18567790653E+02  0.81220708470E+02  0.98199176796E+02  0.10566000000E+00 0. -1.
        994    1    1    2    0    0 -0.57987553821E+02 -0.17871568833E+02  0.29908980117E+02  0.18408133111E+03  0.17120000000E+03 0.  0.
        998    1    1    2    0    0  0.60115899034E+01 -0.69622182064E+00  0.13888703077E+04  0.13889194921E+04  0.10000000000E+02 0. -1.
</event>
<event>
 5    1  0.1072898E-008  0.3532090E+03  0.7957747E-01  0.3576807E+00
         13   -1    0    0    0    0  0.00000000000E+00  0.00000000000E+00  0.14999999963E+04  0.15000000000E+04  0.10566000000E+00 0. -1.
        994   -1    0    0    0    0 -0.00000000000E+00 -0.00000000000E+00  0.11368683772E-12  0.17120000000E+03  0.17120000000E+03 0.  0.
         13    1    1    2    0    0 -0.65984460866E+02  0.26528965798E+03  0.88500652121E+03  0.92626621737E+03  0.10566000000E+00 0. -1.
        994    1    1    2    0    0  0.37043973632E+02 -0.26325934415E+03  0.32544537378E+03  0.45376411226E+03  0.17120000000E+03 0.  0.
        998    1    1    2    0    0  0.28940487234E+02 -0.20303138252E+01  0.28954810130E+03  0.29116967036E+03  0.10000000000E+02 0. -1.
</event>
<event>
 5    1  0.1072898E-008  0.3818640E+03  0.7957747E-01  0.3443082E+00
         13   -1    0    0    0    0  0.00000000000E+00  0.00000000000E+00  0.14999999963E+04  0.15000000000E+04  0.10566000000E+00 0.  1.
        994   -1    0    0    0    0 -0.00000000000E+00 -0.00000000000E+00  0.11368683772E-12  0.17120000000E+03  0.17120000000E+03 0.  0.
         13    1    1    2    0    0  0.87291815129E+01 -0.12488459695E+02  0.33870149371E+02  0.37139714834E+02  0.10566000000E+00 0.  1.
        994    1    1    2    0    0 -0.99044439357E+01  0.18645057906E+02  0.46775085056E+01  0.17256029462E+03  0.17120000000E+03 0.  0.
        998    1    1    2    0    0  0.11752624227E+01 -0.61565982107E+01  0.14614523384E+04  0.14614999905E+04  0.10000000000E+02 0.  1.
</event>
<event>
 5    1  0.1072898E-008  0.3841470E+03  0.7957747E-01  0.3433298E+00
         13   -1    0    0    0    0  0.00000000000E+00  0.00000000000E+00  0.14999999963E+04  0.15000000000E+04  0.10566000000E+00 0. -1.
        994   -1    0    0    0    0 -0.00000000000E+00 -0.00000000000E+00  0.11368683772E-12  0.17120000000E+03  0.17120000000E+03 0.  0.
         13    1    1    2    0    0 -0.20182193556E+02  0.15168104266E+02  0.14020379426E+03  0.14245879198E+03  0.10566000000E+00 0. -1.
        994    1    1    2    0    0  0.24037439184E+02 -0.13434181534E+02  0.45588465798E+01  0.17346036665E+03  0.17120000000E+03 0.  0.
        998    1    1    2    0    0 -0.38552456284E+01 -0.17339227322E+01  0.13552373554E+04  0.13552808414E+04  0.10000000000E+02 0. -1.
</event>
<event>
 5    1  0.1072898E-008  0.3770455E+03  0.7957747E-01  0.3464125E+00
         13   -1    0    0    0    0  0.00000000000E+00  0.00000000000E+00  0.14999999963E+04  0.15000000000E+04  0.10566000000E+00 0.  1.
        994   -1    0    0    0    0 -0.00000000000E+00 -0.00000000000E+00  0.11368683772E-12  0.17120000000E+03  0.17120000000E+03 0.  0.
         13    1    1    2    0    0 -0.24347476838E+02  0.31755519895E+02  0.16025952836E+03  0.16517972111E+03  0.10566000000E+00 0.  1.
        994    1    1    2    0    0  0.76576611554E+02  0.47407731304E+02  0.33525324777E+02  0.19632844375E+03  0.17120000000E+03 0.  0.
        998    1    1    2    0    0 -0.52229134716E+02 -0.79163251198E+02  0.13062151431E+04  0.13096918351E+04  0.10000000000E+02 0.  1.
</event>
<event>
 5    1  0.1072898E-008  0.3850016E+03  0.7957747E-01  0.3429665E+00
         13   -1    0    0    0    0  0.00000000000E+00  0.00000000000E+00  0.14999999963E+04  0.15000000000E+04  0.10566000000E+00 0. -1.
        994   -1    0    0    0    0 -0.00000000000E+00 -0.00000000000E+00  0.11368683772E-12  0.17120000000E+03  0.17120000000E+03 0.  0.
         13    1    1    2    0    0 -0.81008544663E+01  0.10276573909E+02  0.53627283044E+02  0.55200801308E+02  0.10566000000E+00 0. -1.
        994    1    1    2    0    0  0.34741247674E+01 -0.37361351203E+01  0.17149233885E+01  0.17128458544E+03  0.17120000000E+03 0.  0.
        998    1    1    2    0    0  0.46267296989E+01 -0.65404387886E+01  0.14446577898E+04  0.14447146132E+04  0.10000000000E+02 0. -1.
</event>
<event>
 5    1  0.1072898E-008  0.3752739E+03  0.7957747E-01  0.3471999E+00
         13   -1    0    0    0    0  0.00000000000E+00  0.00000000000E+00  0.14999999963E+04  0.15000000000E+04  0.10566000000E+00 0.  1.
        994   -1    0    0    0    0 -0.00000000000E+00 -0.00000000000E+00  0.11368683772E-12  0.17120000000E+03  0.17120000000E+03 0.  0.
         13    1    1    2    0    0 -0.13477205310E+02 -0.85838488605E+01  0.16895880386E+02  0.23255095405E+02  0.10566000000E+00 0.  1.
        994    1    1    2    0    0 -0.11182721902E+00  0.11354477239E+02  0.69761477494E+01  0.17171791781E+03  0.17120000000E+03 0.  0.
        998    1    1    2    0    0  0.13589032529E+02 -0.27706283789E+01  0.14761279681E+04  0.14762269868E+04  0.10000000000E+02 0.  1.
</event>
<event>
 5    1  0.1072898E-008  0.3790587E+03  0.7957747E-01  0.3455267E+00
         13   -1    0    0    0    0  0.00000000000E+00  0.00000000000E+00  0.14999999963E+04  0.15000000000E+04  0.10566000000E+00 0.  1.
        994   -1    0    0    0    0 -0.00000000000E+00 -0.00000000000E+00  0.11368683772E-12  0.17120000000E+03  0.17120000000E+03 0.  0.
         13    1    1    2    0    0  0.16849320686E+02 -0.13617183068E+01  0.28657243328E+02  0.33271649246E+02  0.10566000000E+00 0.  1.
        994    1    1    2    0    0 -0.16739483291E+02  0.61257578514E+01  0.56752619942E+01  0.17221899956E+03  0.17120000000E+03 0.  0.
        998    1    1    2    0    0 -0.10983739554E+00 -0.47640395445E+01  0.14656674910E+04  0.14657093512E+04  0.10000000000E+02 0.  1.
</event>
<event>
 5    1  0.1072898E-008  0.3835276E+03  0.7957747E-01  0.3435941E+00
         13   -1    0    0    0    0  0.00000000000E+00  0.00000000000E+00  0.14999999963E+04  0.15000000000E+04  0.10566000000E+00 0. -1.
        994   -1    0    0    0    0 -0.00000000000E+00 -0.00000000000E+00  0.11368683772E-12  0.17120000000E+03  0.17120000000E+03 0.  0.
         13    1    1    2    0    0  0.10466107574E+02 -0.24427514460E+02  0.11062704021E+03  0.11377432074E+03  0.10566000000E+00 0. -1.
        994    1    1    2    0    0 -0.11403559922E+02  0.61624554778E+02  0.15451375523E+02  0.18296396349E+03  0.17120000000E+03 0.  0.
        998    1    1    2    0    0  0.93745234832E+00 -0.37197040318E+02  0.13739215805E+04  0.13744617158E+04  0.10000000000E+02 0. -1.
</event>
<event>
 5    1  0.1072898E-008  0.3693000E+03  0.7957747E-01  0.3499114E+00
         13   -1    0    0    0    0  0.00000000000E+00  0.00000000000E+00  0.14999999963E+04  0.15000000000E+04  0.10566000000E+00 0. -1.
        994   -1    0    0    0    0 -0.00000000000E+00 -0.00000000000E+00  0.11368683772E-12  0.17120000000E+03  0.17120000000E+03 0.  0.
         13    1    1    2    0    0  0.67123145736E+01  0.14441467899E+02  0.89544208309E+01  0.18270303185E+02  0.10566000000E+00 0. -1.
        994    1    1    2    0    0  0.40457267812E+01 -0.89630000271E+01  0.99706568429E+01  0.17177181746E+03  0.17120000000E+03 0.  0.
        998    1    1    2    0    0 -0.10758041355E+02 -0.54784678718E+01  0.14810749186E+04  0.14811578794E+04  0.10000000000E+02 0. -1.
</event>
<event>
 5    1  0.1072898E-008  0.3740411E+03  0.7957747E-01  0.3477523E+00
         13   -1    0    0    0    0  0.00000000000E+00  0.00000000000E+00  0.14999999963E+04  0.15000000000E+04  0.10566000000E+00 0.  1.
        994   -1    0    0    0    0 -0.00000000000E+00 -0.00000000000E+00  0.11368683772E-12  0.17120000000E+03  0.17120000000E+03 0.  0.
         13    1    1    2    0    0 -0.11574118136E+02 -0.19345209012E+02  0.32415138685E+02  0.39483537106E+02  0.10566000000E+00 0.  1.
        994    1    1    2    0    0  0.78683301037E+01  0.14383637970E+02  0.80891752035E+01  0.17217338475E+03  0.17120000000E+03 0.  0.
        998    1    1    2    0    0  0.37057880320E+01  0.49615710419E+01  0.14594956824E+04  0.14595430781E+04  0.10000000000E+02 0.  1.
</event>
<event>
 5    1  0.1072898E-008  0.3828241E+03  0.7957747E-01  0.3438953E+00
         13   -1    0    0    0    0  0.00000000000E+00  0.00000000000E+00  0.14999999963E+04  0.15000000000E+04  0.10566000000E+00 0.  1.
        994   -1    0    0    0    0 -0.00000000000E+00 -0.00000000000E+00  0.11368683772E-12  0.17120000000E+03  0.17120000000E+03 0.  0.
         13    1    1    2    0    0 -0.17391634084E+02 -0.12557285259E+01  0.56012590276E+02  0.58664019839E+02  0.10566000000E+00 0.  1.
        994    1    1    2    0    0  0.83399108148E+01 -0.14869617125E+01  0.29520452631E+01  0.17143488484E+03  0.17120000000E+03 0.  0.
        998    1    1    2    0    0  0.90517232693E+01  0.27426902384E+01  0.14410353607E+04  0.14411010953E+04  0.10000000000E+02 0.  1.
</event>
<event>
 5    1  0.1072898E-008  0.3835476E+03  0.7957747E-01  0.3435856E+00
         13   -1    0    0    0    0  0.00000000000E+00  0.00000000000E+00  0.14999999963E+04  0.15000000000E+04  0.10566000000E+00 0. -1.
        994   -1    0    0    0    0 -0.00000000000E+00 -0.00000000000E+00  0.11368683772E-12  0.17120000000E+03  0.17120000000E+03 0.  0.
         13    1    1    2    0    0 -0.83235975413E+01  0.18826568173E+02  0.86046257129E+02  0.88474241874E+02  0.10566000000E+00 0. -1.
        994    1    1    2    0    0  0.47808091666E+01 -0.19083025085E+02  0.36327961889E+01  0.17236488967E+03  0.17120000000E+03 0.  0.
        998    1    1    2    0    0  0.35427883748E+01  0.25645691169E+00  0.14103209430E+04  0.14103608685E+04  0.10000000000E+02 0. -1.
</event>
<event>
 5    1  0.1072898E-008  0.3806501E+03  0.7957747E-01  0.3448333E+00
         13   -1    0    0    0    0  0.00000000000E+00  0.00000000000E+00  0.14999999963E+04  0.15000000000E+04  0.10566000000E+00 0.  1.
        994   -1    0    0    0    0 -0.00000000000E+00 -0.00000000000E+00  0.11368683772E-12  0.17120000000E+03  0.17120000000E+03 0.  0.
         13    1    1    2    0    0 -0.46488104727E+01  0.15882024787E+02  0.35779050353E+02  0.39420828991E+02  0.10566000000E+00 0.  1.
        994    1    1    2    0    0 -0.28062876709E+01 -0.14377824275E+01  0.38385226784E+01  0.17127205471E+03  0.17120000000E+03 0.  0.
        998    1    1    2    0    0  0.74550981437E+01 -0.14444242359E+02  0.14603824232E+04  0.14605071163E+04  0.10000000000E+02 0.  1.
</event>
<event>
 5    1  0.1072898E-008  0.3855308E+03  0.7957747E-01  0.3427424E+00
         13   -1    0    0    0    0  0.00000000000E+00  0.00000000000E+00  0.14999999963E+04  0.15000000000E+04  0.10566000000E+00 0. -1.
        994   -1    0    0    0    0 -0.00000000000E+00 -0.00000000000E+00  0.11368683772E-12  0.17120000000E+03  0.17120000000E+03 0.  0.
         13    1    1    2    0    0  0.11514321793E+02 -0.10840134404E+02  0.80546458798E+02  0.82084293925E+02  0.10566000000E+00 0. -1.
        994    1    1    2    0    0 -0.21328418526E+02  0.18214204375E+02  0.39537005580E+01  0.17352731896E+03  0.17120000000E+03 0.  0.
        998    1    1    2    0    0  0.98140967322E+01 -0.73740699708E+01  0.14154998369E+04  0.14155883871E+04  0.10000000000E+02 0. -1.
</event>
<event>
 5    1  0.1072898E-008  0.3690646E+03  0.7957747E-01  0.3500201E+00
         13   -1    0    0    0    0  0.00000000000E+00  0.00000000000E+00  0.14999999963E+04  0.15000000000E+04  0.10566000000E+00 0.  1.
        994   -1    0    0    0    0 -0.00000000000E+00 -0.00000000000E+00  0.11368683772E-12  0.17120000000E+03  0.17120000000E+03 0.  0.
         13    1    1    2    0    0 -0.27742684606E+02 -0.58211980180E+02  0.20285010040E+03  0.21285315498E+03  0.10566000000E+00 0.  1.
        994    1    1    2    0    0  0.68661290251E+01  0.46403329878E+02  0.17430771177E+02  0.17836391041E+03  0.17120000000E+03 0.  0.
        998    1    1    2    0    0  0.20876555581E+02  0.11808650302E+02  0.12797191247E+04  0.12799829346E+04  0.10000000000E+02 0.  1.
</event>
<event>
 5    1  0.1072898E-008  0.3779743E+03  0.7957747E-01  0.3460027E+00
         13   -1    0    0    0    0  0.00000000000E+00  0.00000000000E+00  0.14999999963E+04  0.15000000000E+04  0.10566000000E+00 0. -1.
        994   -1    0    0    0    0 -0.00000000000E+00 -0.00000000000E+00  0.11368683772E-12  0.17120000000E+03  0.17120000000E+03 0.  0.
         13    1    1    2    0    0 -0.14728185732E+02  0.33167775451E+02  0.12111998945E+03  0.12644004030E+03  0.10566000000E+00 0. -1.
        994    1    1    2    0    0  0.66180222734E+01 -0.28987195366E+02  0.81402132834E+01  0.17395332359E+03  0.17120000000E+03 0.  0.
        998    1    1    2    0    0  0.81101634588E+01 -0.41805800850E+01  0.13707397935E+04  0.13708066361E+04  0.10000000000E+02 0. -1.
</event>
<event>
 5    1  0.1072898E-008  0.3804431E+03  0.7957747E-01  0.3449231E+00
         13   -1    0    0    0    0  0.00000000000E+00  0.00000000000E+00  0.14999999963E+04  0.15000000000E+04  0.10566000000E+00 0. -1.
        994   -1    0    0    0    0 -0.00000000000E+00 -0.00000000000E+00  0.11368683772E-12  0.17120000000E+03  0.17120000000E+03 0.  0.
         13    1    1    2    0    0 -0.20677544724E+02 -0.94465963765E+01  0.66548490851E+02  0.70324333182E+02  0.10566000000E+00 0. -1.
        994    1    1    2    0    0  0.60858421362E+01  0.59206554055E+01  0.41503047700E+01  0.17146065632E+03  0.17120000000E+03 0.  0.
        998    1    1    2    0    0  0.14591702588E+02  0.35259409710E+01  0.14293012007E+04  0.14294150105E+04  0.10000000000E+02 0. -1.
</event>
<event>
 5    1  0.1072898E-008  0.3796831E+03  0.7957747E-01  0.3452540E+00
         13   -1    0    0    0    0  0.00000000000E+00  0.00000000000E+00  0.14999999963E+04  0.15000000000E+04  0.10566000000E+00 0. -1.
        994   -1    0    0    0    0 -0.00000000000E+00 -0.00000000000E+00  0.11368683772E-12  0.17120000000E+03  0.17120000000E+03 0.  0.
         13    1    1    2    0    0 -0.67550614382E+01 -0.21449279885E+02  0.72111848870E+02  0.75536960318E+02  0.10566000000E+00 0. -1.
        994    1    1    2    0    0 -0.14800965246E+02 -0.34335409031E+02  0.89856777749E+01  0.17546558435E+03  0.17120000000E+03 0.  0.
        998    1    1    2    0    0  0.21556026684E+02  0.55784688916E+02  0.14189024696E+04  0.14201974553E+04  0.10000000000E+02 0. -1.
</event>
<event>
 5    1  0.1072898E-008  0.3768883E+03  0.7957747E-01  0.3464821E+00
         13   -1    0    0    0    0  0.00000000000E+00  0.00000000000E+00  0.14999999963E+04  0.15000000000E+04  0.10566000000E+00 0. -1.
        994   -1    0    0    0    0 -0.00000000000E+00 -0.00000000000E+00  0.11368683772E-12  0.17120000000E+03  0.17120000000E+03 0.  0.
         13    1    1    2    0    0 -0.71146346491E+02 -0.86802050325E+02  0.45635564260E+03  0.46995412782E+03  0.10566000000E+00 0. -1.
        994    1    1    2    0    0  0.18028673683E+02  0.59022100525E+02  0.28402565135E+02  0.18418682670E+03  0.17120000000E+03 0.  0.
        998    1    1    2    0    0  0.53117672809E+02  0.27779949800E+02  0.10152417885E+04  0.10170590455E+04  0.10000000000E+02 0. -1.
</event>
<event>
 5    1  0.1072898E-008  0.3757711E+03  0.7957747E-01  0.3469781E+00
         13   -1    0    0    0    0  0.00000000000E+00  0.00000000000E+00  0.14999999963E+04  0.15000000000E+04  0.10566000000E+00 0.  1.
        994   -1    0    0    0    0 -0.00000000000E+00 -0.00000000000E+00  0.11368683772E-12  0.17120000000E+03  0.17120000000E+03 0.  0.
         13    1    1    2    0    0 -0.43700101853E+02  0.31877734307E+02  0.95396956308E+02  0.10966530574E+03  0.10566000000E+00 0.  1.
        994    1    1    2    0    0  0.32977678869E+02 -0.37091268952E+02  0.22865643287E+02  0.17970967469E+03  0.17120000000E+03 0.  0.
        998    1    1    2    0    0  0.10722422984E+02  0.52135346451E+01  0.13817373967E+04  0.13818250196E+04  0.10000000000E+02 0.  1.
</event>
<event>
 5    1  0.1072898E-008  0.3684990E+03  0.7957747E-01  0.3502818E+00
         13   -1    0    0    0    0  0.00000000000E+00  0.00000000000E+00  0.14999999963E+04  0.15000000000E+04  0.10566000000E+00 0.  1.
        994   -1    0    0    0    0 -0.00000000000E+00 -0.00000000000E+00  0.11368683772E-12  0.17120000000E+03  0.17120000000E+03 0.  0.
         13    1    1    2    0    0  0.46294093360E+02 -0.31219328605E+02  0.13241847920E+03  0.14370961818E+03  0.10566000000E+00 0.  1.
        994    1    1    2    0    0 -0.52725272649E+02  0.37737241296E+02  0.24914034889E+02  0.18475443944E+03  0.17120000000E+03 0.  0.
        998    1    1    2    0    0  0.64311792890E+01 -0.65179126909E+01  0.13426674822E+04  0.13427359424E+04  0.10000000000E+02 0.  1.
</event>
<event>
 5    1  0.1072898E-008  0.3838111E+03  0.7957747E-01  0.3434730E+00
         13   -1    0    0    0    0  0.00000000000E+00  0.00000000000E+00  0.14999999963E+04  0.15000000000E+04  0.10566000000E+00 0. -1.
        994   -1    0    0    0    0 -0.00000000000E+00 -0.00000000000E+00  0.11368683772E-12  0.17120000000E+03  0.17120000000E+03 0.  0.
         13    1    1    2    0    0 -0.40418376602E+01 -0.13143749613E+02  0.39911689981E+02  0.42214319451E+02  0.10566000000E+00 0. -1.
        994    1    1    2    0    0  0.24924908159E+01  0.21047472875E+02  0.37059827857E+01  0.17254675579E+03  0.17120000000E+03 0.  0.
        998    1    1    2    0    0  0.15493468443E+01 -0.79037232615E+01  0.14563823235E+04  0.14564389248E+04  0.10000000000E+02 0. -1.
</event>
<event>
 5    1  0.1072898E-008  0.3794570E+03  0.7957747E-01  0.3453526E+00
         13   -1    0    0    0    0  0.00000000000E+00  0.00000000000E+00  0.14999999963E+04  0.15000000000E+04  0.10566000000E+00 0.  1.
        994   -1    0    0    0    0 -0.00000000000E+00 -0.00000000000E+00  0.11368683772E-12  0.17120000000E+03  0.17120000000E+03 0.  0.
         13    1    1    2    0    0  0.32555747092E+01  0.98022460912E+01  0.10125916743E+02  0.14464720842E+02  0.10566000000E+00 0.  1.
        994    1    1    2    0    0 -0.16292747131E+01 -0.81209099326E+01  0.46372705718E+01  0.17146296391E+03  0.17120000000E+03 0.  0.
        998    1    1    2    0    0 -0.16262999961E+01 -0.16813361586E+01  0.14852368090E+04  0.14852723152E+04  0.10000000000E+02 0.  1.
</event>
<event>
 5    1  0.1072898E-008  0.3780222E+03  0.7957747E-01  0.3459816E+00
         13   -1    0    0    0    0  0.00000000000E+00  0.00000000000E+00  0.14999999963E+04  0.15000000000E+04  0.10566000000E+00 0.  1.
        994   -1    0    0    0    0 -0.00000000000E+00 -0.00000000000E+00  0.11368683772E-12  0.17120000000E+03  0.17120000000E+03 0.  0.
         13    1    1    2    0    0 -0.54764144444E+01  0.13806864645E+03  0.81302130695E+03  0.82467969477E+03  0.10566000000E+00 0.  1.
        994    1    1    2    0    0  0.84386200015E+01 -0.13606388766E+03  0.70459899724E+02  0.22991004611E+03  0.17120000000E+03 0.  0.
        998    1    1    2    0    0 -0.29622055571E+01 -0.20047587892E+01  0.61651878960E+03  0.61661025912E+03  0.10000000000E+02 0.  0.
</event>
<event>
 5    1  0.1072898E-008  0.3843242E+03  0.7957747E-01  0.3432543E+00
         13   -1    0    0    0    0  0.00000000000E+00  0.00000000000E+00  0.14999999963E+04  0.15000000000E+04  0.10566000000E+00 0. -1.
        994   -1    0    0    0    0 -0.00000000000E+00 -0.00000000000E+00  0.11368683772E-12  0.17120000000E+03  0.17120000000E+03 0.  0.
         13    1    1    2    0    0  0.11244470721E+02 -0.63752308237E+00  0.30592806906E+02  0.32600238587E+02  0.10566000000E+00 0. -1.
        994    1    1    2    0    0 -0.19660803083E+02 -0.35944290136E+02  0.75179634592E+01  0.17619449181E+03  0.17120000000E+03 0.  0.
        998    1    1    2    0    0  0.84163323617E+01  0.36581813218E+02  0.14618892259E+04  0.14624052696E+04  0.10000000000E+02 0. -1.
</event>
<event>
 5    1  0.1072898E-008  0.3850926E+03  0.7957747E-01  0.3429280E+00
         13   -1    0    0    0    0  0.00000000000E+00  0.00000000000E+00  0.14999999963E+04  0.15000000000E+04  0.10566000000E+00 0. -1.
        994   -1    0    0    0    0 -0.00000000000E+00 -0.00000000000E+00  0.11368683772E-12  0.17120000000E+03  0.17120000000E+03 0.  0.
         13    1    1    2    0    0  0.88746471982E+01  0.10739546210E+02  0.59595766371E+02  0.61202644951E+02  0.10566000000E+00 0. -1.
        994    1    1    2    0    0 -0.13346987318E+02 -0.70095711326E+01  0.23317437726E+01  0.17187830924E+03  0.17120000000E+03 0.  0.
        998    1    1    2    0    0  0.44723401198E+01 -0.37299750773E+01  0.14380724861E+04  0.14381190458E+04  0.10000000000E+02 0. -1.
</event>
<event>
 5    1  0.1072898E-008  0.3767821E+03  0.7957747E-01  0.3465291E+00
         13   -1    0    0    0    0  0.00000000000E+00  0.00000000000E+00  0.14999999963E+04  0.15000000000E+04  0.10566000000E+00 0. -1.
        994   -1    0    0    0    0 -0.00000000000E+00 -0.00000000000E+00  0.11368683772E-12  0.17120000000E+03  0.17120000000E+03 0.  0.
         13    1    1    2    0    0  0.53033493138E+02  0.21627168576E+03  0.94762086409E+03  0.97343274378E+03  0.10566000000E+00 0. -1.
        994    1    1    2    0    0 -0.30376944008E+02 -0.22830872352E+03  0.21328701813E+03  0.35755897984E+03  0.17120000000E+03 0.  0.
        998    1    1    2    0    0 -0.22656549131E+02  0.12037037761E+02  0.33909211406E+03  0.34020827638E+03  0.10000000000E+02 0. -1.
</event>
<event>
 5    1  0.1072898E-008  0.3841154E+03  0.7957747E-01  0.3433432E+00
         13   -1    0    0    0    0  0.00000000000E+00  0.00000000000E+00  0.14999999963E+04  0.15000000000E+04  0.10566000000E+00 0. -1.
        994   -1    0    0    0    0 -0.00000000000E+00 -0.00000000000E+00  0.11368683772E-12  0.17120000000E+03  0.17120000000E+03 0.  0.
         13    1    1    2    0    0 -0.10970645931E+02  0.93044196626E+01  0.47735776629E+02  0.49856221596E+02  0.10566000000E+00 0. -1.
        994    1    1    2    0    0  0.10583480271E+02 -0.14166998530E+02  0.31019813234E+01  0.17213882825E+03  0.17120000000E+03 0.  0.
        998    1    1    2    0    0  0.38716566041E+00  0.48625788677E+01  0.14491622383E+04  0.14492049502E+04  0.10000000000E+02 0. -1.
</event>
<event>
 5    1  0.1072898E-008  0.3737827E+03  0.7957747E-01  0.3478685E+00
         13   -1    0    0    0    0  0.00000000000E+00  0.00000000000E+00  0.14999999963E+04  0.15000000000E+04  0.10566000000E+00 0.  1.
        994   -1    0    0    0    0 -0.00000000000E+00 -0.00000000000E+00  0.11368683772E-12  0.17120000000E+03  0.17120000000E+03 0.  0.
         13    1    1    2    0    0  0.53910341839E+01 -0.21163504665E+02  0.29602396252E+02  0.36786821107E+02  0.10566000000E+00 0.  1.
        994    1    1    2    0    0  0.71954805819E+01  0.17685379392E+02  0.85504121013E+01  0.17247346791E+03  0.17120000000E+03 0.  0.
        998    1    1    2    0    0 -0.12586514766E+02  0.34781252728E+01  0.14618471879E+04  0.14619397110E+04  0.10000000000E+02 0.  1.
</event>
<event>
 5    1  0.1072898E-008  0.3816836E+03  0.7957747E-01  0.3443860E+00
         13   -1    0    0    0    0  0.00000000000E+00  0.00000000000E+00  0.14999999963E+04  0.15000000000E+04  0.10566000000E+00 0. -1.
        994   -1    0    0    0    0 -0.00000000000E+00 -0.00000000000E+00  0.11368683772E-12  0.17120000000E+03  0.17120000000E+03 0.  0.
         13    1    1    2    0    0  0.14796435204E+02 -0.67173519660E+01  0.38107298932E+02  0.41427463211E+02  0.10566000000E+00 0. -1.
        994    1    1    2    0    0 -0.94519607593E+01  0.20852430669E+02  0.50301486706E+01  0.17279729692E+03  0.17120000000E+03 0.  0.
        998    1    1    2    0    0 -0.53444744452E+01 -0.14135078703E+02  0.14568625487E+04  0.14569752399E+04  0.10000000000E+02 0. -1.
</event>
<event>
 5    1  0.1072898E-008  0.3762387E+03  0.7957747E-01  0.3467701E+00
         13   -1    0    0    0    0  0.00000000000E+00  0.00000000000E+00  0.14999999963E+04  0.15000000000E+04  0.10566000000E+00 0. -1.
        994   -1    0    0    0    0 -0.00000000000E+00 -0.00000000000E+00  0.11368683772E-12  0.17120000000E+03  0.17120000000E+03 0.  0.
         13    1    1    2    0    0  0.40116125172E+02  0.50337477339E+02  0.11784923911E+03  0.13428186567E+03  0.10566000000E+00 0. -1.
        994    1    1    2    0    0 -0.65014866724E+02 -0.63396793762E+02  0.44373098527E+02  0.19880769157E+03  0.17120000000E+03 0.  0.
        998    1    1    2    0    0  0.24898741552E+02  0.13059316423E+02  0.13377776586E+04  0.13381104428E+04  0.10000000000E+02 0. -1.
</event>
<event>
 5    1  0.1072898E-008  0.3817705E+03  0.7957747E-01  0.3443486E+00
         13   -1    0    0    0    0  0.00000000000E+00  0.00000000000E+00  0.14999999963E+04  0.15000000000E+04  0.10566000000E+00 0.  1.
        994   -1    0    0    0    0 -0.00000000000E+00 -0.00000000000E+00  0.11368683772E-12  0.17120000000E+03  0.17120000000E+03 0.  0.
         13    1    1    2    0    0  0.11966947994E+02  0.15120026820E+02  0.54516511879E+02  0.57826328664E+02  0.10566000000E+00 0.  1.
        994    1    1    2    0    0 -0.11507561363E+02 -0.16107418104E+02  0.45455469993E+01  0.17240062321E+03  0.17120000000E+03 0.  0.
        998    1    1    2    0    0 -0.45938663062E+00  0.98739128367E+00  0.14409379374E+04  0.14409730481E+04  0.10000000000E+02 0.  0.
</event>
<event>
 5    1  0.1072898E-008  0.3796266E+03  0.7957747E-01  0.3452786E+00
         13   -1    0    0    0    0  0.00000000000E+00  0.00000000000E+00  0.14999999963E+04  0.15000000000E+04  0.10566000000E+00 0.  1.
        994   -1    0    0    0    0 -0.00000000000E+00 -0.00000000000E+00  0.11368683772E-12  0.17120000000E+03  0.17120000000E+03 0.  0.
         13    1    1    2    0    0 -0.26323373584E+02 -0.48182026828E+02  0.19106192804E+03  0.19879411263E+03  0.10566000000E+00 0.  1.
        994    1    1    2    0    0  0.63955761167E+02  0.10475764680E+03  0.56514399227E+02  0.21810048434E+03  0.17120000000E+03 0.  0.
        998    1    1    2    0    0 -0.37632387583E+02 -0.56575619970E+02  0.12524236690E+04  0.12543054030E+04  0.10000000000E+02 0.  1.
</event>
<event>
 5    1  0.1072898E-008  0.3845108E+03  0.7957747E-01  0.3431750E+00
         13   -1    0    0    0    0  0.00000000000E+00  0.00000000000E+00  0.14999999963E+04  0.15000000000E+04  0.10566000000E+00 0.  1.
        994   -1    0    0    0    0 -0.00000000000E+00 -0.00000000000E+00  0.11368683772E-12  0.17120000000E+03  0.17120000000E+03 0.  0.
         13    1    1    2    0    0  0.74208376426E+01 -0.71574628475E+01  0.27813329348E+02  0.29662949266E+02  0.10566000000E+00 0.  1.
        994    1    1    2    0    0 -0.25733948932E+01  0.90471008756E+01  0.21646940837E+01  0.17147185861E+03  0.17120000000E+03 0.  0.
        998    1    1    2    0    0 -0.48474427494E+01 -0.18896380281E+01  0.14700219728E+04  0.14700651921E+04  0.10000000000E+02 0.  1.
</event>
<event>
 5    1  0.1072898E-008  0.3732524E+03  0.7957747E-01  0.3481076E+00
         13   -1    0    0    0    0  0.00000000000E+00  0.00000000000E+00  0.14999999963E+04  0.15000000000E+04  0.10566000000E+00 0.  1.
        994   -1    0    0    0    0 -0.00000000000E+00 -0.00000000000E+00  0.11368683772E-12  0.17120000000E+03  0.17120000000E+03 0.  0.
         13    1    1    2    0    0  0.19711204336E+01  0.20803660654E+02  0.25318400478E+02  0.32828496450E+02  0.10566000000E+00 0.  1.
        994    1    1    2    0    0 -0.19158441420E+01 -0.19427864347E+02  0.88831427761E+01  0.17253829313E+03  0.17120000000E+03 0.  0.
        998    1    1    2    0    0 -0.55276291508E-01 -0.13757963069E+01  0.14657984530E+04  0.14658332104E+04  0.10000000000E+02 0.  1.
</event>
<event>
 5    1  0.1072898E-008  0.3798550E+03  0.7957747E-01  0.3451790E+00
         13   -1    0    0    0    0  0.00000000000E+00  0.00000000000E+00  0.14999999963E+04  0.15000000000E+04  0.10566000000E+00 0.  1.
        994   -1    0    0    0    0 -0.00000000000E+00 -0.00000000000E+00  0.11368683772E-12  0.17120000000E+03  0.17120000000E+03 0.  0.
         13    1    1    2    0    0 -0.15560291022E+01 -0.19967315256E+02  0.45475277121E+02  0.49690309904E+02  0.10566000000E+00 0.  1.
        994    1    1    2    0    0  0.60513851006E+01  0.16503608911E+02  0.52404600460E+01  0.17217982109E+03  0.17120000000E+03 0.  0.
        998    1    1    2    0    0 -0.44953559983E+01  0.34637063452E+01  0.14492842591E+04  0.14493298690E+04  0.10000000000E+02 0.  1.
</event>
<event>
 5    1  0.1072898E-008  0.3800149E+03  0.7957747E-01  0.3451093E+00
         13   -1    0    0    0    0  0.00000000000E+00  0.00000000000E+00  0.14999999963E+04  0.15000000000E+04  0.10566000000E+00 0.  1.
        994   -1    0    0    0    0 -0.00000000000E+00 -0.00000000000E+00  0.11368683772E-12  0.17120000000E+03  0.17120000000E+03 0.  0.
         13    1    1    2    0    0  0.45648449457E+02 -0.66109443910E+01  0.22211733644E+03  0.22685591867E+03  0.10566000000E+00 0.  1.
        994    1    1    2    0    0 -0.45230997342E+02  0.31121805851E+01  0.11027514117E+02  0.17744456840E+03  0.17120000000E+03 0.  0.
        998    1    1    2    0    0 -0.41745211544E+00  0.34987638059E+01  0.12668551457E+04  0.12668995129E+04  0.10000000000E+02 0.  1.
</event>
<event>
 5    1  0.1072898E-008  0.3735109E+03  0.7957747E-01  0.3479910E+00
         13   -1    0    0    0    0  0.00000000000E+00  0.00000000000E+00  0.14999999963E+04  0.15000000000E+04  0.10566000000E+00 0.  1.
        994   -1    0    0    0    0 -0.00000000000E+00 -0.00000000000E+00  0.11368683772E-12  0.17120000000E+03  0.17120000000E+03 0.  0.
         13    1    1    2    0    0  0.19616148935E+01  0.27068104634E+02  0.43930820485E+02  0.51637761125E+02  0.10566000000E+00 0.  1.
        994    1    1    2    0    0  0.82479584456E+00 -0.37728852688E+02  0.12326401909E+02  0.17574278590E+03  0.17120000000E+03 0.  0.
        998    1    1    2    0    0 -0.27864107381E+01  0.10660748054E+02  0.14437427739E+04  0.14438194530E+04  0.10000000000E+02 0.  1.
</event>
<event>
 5    1  0.1312944E-008  0.3863064E+03  0.7957747E-01  0.3424150E+00
         13   -1    0    0    0    0  0.00000000000E+00  0.00000000000E+00  0.14999999963E+04  0.15000000000E+04  0.10566000000E+00 0.  1.
        994   -1    0    0    0    0 -0.00000000000E+00 -0.00000000000E+00  0.11368683772E-12  0.17120000000E+03  0.17120000000E+03 0.  0.
         13    1    1    2    0    0  0.67338288254E+01  0.74063121373E+01  0.50237976575E+02  0.51225612388E+02  0.10566000000E+00 0.  1.
        994    1    1    2    0    0 -0.55049488461E+01 -0.10241688940E+02  0.14257696620E+01  0.17160031898E+03  0.17120000000E+03 0.  0.
        998    1    1    2    0    0 -0.12288799793E+01  0.28353768028E+01  0.14483362500E+04  0.14483740686E+04  0.10000000000E+02 0.  1.
</event>
<event>
 5    1  0.1072898E-008  0.3762457E+03  0.7957747E-01  0.3467670E+00
         13   -1    0    0    0    0  0.00000000000E+00  0.00000000000E+00  0.14999999963E+04  0.15000000000E+04  0.10566000000E+00 0. -1.
        994   -1    0    0    0    0 -0.00000000000E+00 -0.00000000000E+00  0.11368683772E-12  0.17120000000E+03  0.17120000000E+03 0.  0.
         13    1    1    2    0    0  0.70879688016E+02 -0.32611530991E-01  0.30013086070E+03  0.30838689328E+03  0.10566000000E+00 0. -1.
        994    1    1    2    0    0 -0.83141042664E+02  0.93765054283E+01  0.30116968545E+02  0.19291662350E+03  0.17120000000E+03 0.  0.
        998    1    1    2    0    0  0.12261354648E+02 -0.93438938973E+01  0.11697521670E+04  0.11698964832E+04  0.10000000000E+02 0. -1.
</event>
<event>
 5    1  0.1072898E-008  0.3821458E+03  0.7957747E-01  0.3441868E+00
         13   -1    0    0    0    0  0.00000000000E+00  0.00000000000E+00  0.14999999963E+04  0.15000000000E+04  0.10566000000E+00 0.  1.
        994   -1    0    0    0    0 -0.00000000000E+00 -0.00000000000E+00  0.11368683772E-12  0.17120000000E+03  0.17120000000E+03 0.  0.
         13    1    1    2    0    0 -0.28647813358E+02  0.26320403560E+02  0.21857923062E+03  0.22201430602E+03  0.10566000000E+00 0.  1.
        994    1    1    2    0    0  0.13156614773E+02 -0.40622558809E+02  0.91297830068E+01  0.17668073391E+03  0.17120000000E+03 0.  0.
        998    1    1    2    0    0  0.15491198585E+02  0.14302155249E+02  0.12722909827E+04  0.12725049601E+04  0.10000000000E+02 0.  1.
</event>
<event>
 5    1  0.1072898E-008  0.3779223E+03  0.7957747E-01  0.3460256E+00
         13   -1    0    0    0    0  0.00000000000E+00  0.00000000000E+00  0.14999999963E+04  0.15000000000E+04  0.10566000000E+00 0.  1.
        994   -1    0    0    0    0 -0.00000000000E+00 -0.00000000000E+00  0.11368683772E-12  0.17120000000E+03  0.17120000000E+03 0.  0.
         13    1    1    2    0    0 -0.26979824791E+02  0.96710443599E+02  0.58100070984E+03  0.58961229367E+03  0.10566000000E+00 0.  1.
        994    1    1    2    0    0  0.31051595841E+02 -0.95691612006E+02  0.40047877674E+02  0.20256939235E+03  0.17120000000E+03 0.  0.
        998    1    1    2    0    0 -0.40717710498E+01 -0.10188315930E+01  0.87895140877E+03  0.87901831398E+03  0.10000000000E+02 0.  1.
</event>
<event>
 5    1  0.1072898E-008  0.3767822E+03  0.7957747E-01  0.3465290E+00
         13   -1    0    0    0    0  0.00000000000E+00  0.00000000000E+00  0.14999999963E+04  0.15000000000E+04  0.10566000000E+00 0. -1.
        994   -1    0    0    0    0 -0.00000000000E+00 -0.00000000000E+00  0.11368683772E-12  0.17120000000E+03  0.17120000000E+03 0.  0.
         13    1    1    2    0    0  0.10410199142E+03  0.24934262005E+02  0.33331189879E+03  0.35007966962E+03  0.10566000000E+00 0. -1.
        994    1    1    2    0    0 -0.81682578889E+02 -0.45120623051E+02  0.46457086743E+02  0.20043855724E+03  0.17120000000E+03 0.  0.
        998    1    1    2    0    0 -0.22419412529E+02  0.20186361046E+02  0.11202310107E+04  0.11206817731E+04  0.10000000000E+02 0. -1.
</event>
<event>
 5    1  0.1072898E-008  0.3845326E+03  0.7957747E-01  0.3431657E+00
         13   -1    0    0    0    0  0.00000000000E+00  0.00000000000E+00  0.14999999963E+04  0.15000000000E+04  0.10566000000E+00 0.  1.
        994   -1    0    0    0    0 -0.00000000000E+00 -0.00000000000E+00  0.11368683772E-12  0.17120000000E+03  0.17120000000E+03 0.  0.
         13    1    1    2    0    0 -0.19992425052E+03  0.68109740915E+02  0.12182601536E+04  0.12364329565E+04  0.10566000000E+00 0.  1.
        994    1    1    2    0    0  0.19885848647E+03 -0.70522904038E+02  0.16566719265E+03  0.31823456185E+03  0.17120000000E+03 0.  0.
        998    1    1    2    0    0  0.10657640511E+01  0.24131631226E+01  0.11607265001E+03  0.11653248169E+03  0.10000000000E+02 0.  0.
</event>
<event>
 5    1  0.1072898E-008  0.3843569E+03  0.7957747E-01  0.3432404E+00
         13   -1    0    0    0    0  0.00000000000E+00  0.00000000000E+00  0.14999999963E+04  0.15000000000E+04  0.10566000000E+00 0. -1.
        994   -1    0    0    0    0 -0.00000000000E+00 -0.00000000000E+00  0.11368683772E-12  0.17120000000E+03  0.17120000000E+03 0.  0.
         13    1    1    2    0    0 -0.37499040080E+01 -0.12234473062E+02  0.41566091038E+02  0.43491323265E+02  0.10566000000E+00 0. -1.
        994    1    1    2    0    0  0.27509531611E+01  0.83920067548E+01  0.22068125524E+01  0.17144183720E+03  0.17120000000E+03 0.  0.
        998    1    1    2    0    0  0.99895084691E+00  0.38424663070E+01  0.14562270927E+04  0.14562668395E+04  0.10000000000E+02 0. -1.
</event>
<event>
 5    1  0.1072898E-008  0.3784530E+03  0.7957747E-01  0.3457922E+00
         13   -1    0    0    0    0  0.00000000000E+00  0.00000000000E+00  0.14999999963E+04  0.15000000000E+04  0.10566000000E+00 0. -1.
        994   -1    0    0    0    0 -0.00000000000E+00 -0.00000000000E+00  0.11368683772E-12  0.17120000000E+03  0.17120000000E+03 0.  0.
         13    1    1    2    0    0 -0.53558005631E+02 -0.81646903788E+02  0.56230181309E+03  0.57071710771E+03  0.10566000000E+00 0. -1.
        994    1    1    2    0    0  0.48795442080E+02  0.89684791199E+02  0.40782177798E+02  0.20346248540E+03  0.17120000000E+03 0.  0.
        998    1    1    2    0    0  0.47625635514E+01 -0.80378874111E+01  0.89691600539E+03  0.89702040689E+03  0.10000000000E+02 0. -1.
</event>
<event>
 5    1  0.1072898E-008  0.3785009E+03  0.7957747E-01  0.3457712E+00
         13   -1    0    0    0    0  0.00000000000E+00  0.00000000000E+00  0.14999999963E+04  0.15000000000E+04  0.10566000000E+00 0.  1.
        994   -1    0    0    0    0 -0.00000000000E+00 -0.00000000000E+00  0.11368683772E-12  0.17120000000E+03  0.17120000000E+03 0.  0.
         13    1    1    2    0    0  0.54279046021E+02 -0.15230822781E+02  0.27895030961E+03  0.28459001949E+03  0.10566000000E+00 0.  1.
        994    1    1    2    0    0 -0.57300547861E+02 -0.13235027437E+02  0.16600100293E+02  0.18177877232E+03  0.17120000000E+03 0.  0.
        998    1    1    2    0    0  0.30215018400E+01  0.28465850218E+02  0.12044495864E+04  0.12048312082E+04  0.10000000000E+02 0.  1.
</event>
<event>
 5    1  0.1072898E-008  0.4233601E+03  0.7957747E-01  0.3281672E+00
         13   -1    0    0    0    0  0.00000000000E+00  0.00000000000E+00  0.14999999963E+04  0.15000000000E+04  0.10566000000E+00 0.  1.
        994   -1    0    0    0    0 -0.00000000000E+00 -0.00000000000E+00  0.11368683772E-12  0.17120000000E+03  0.17120000000E+03 0.  0.
         13    1    1    2    0    0  0.29087788546E+02  0.71517152476E+02  0.61460216287E+02  0.98682176156E+02  0.10566000000E+00 0.  1.
        994    1    1    2    0    0 -0.38452176493E+02 -0.20951388497E+02  0.50909216433E+02  0.18389866469E+03  0.17120000000E+03 0.  0.
        998    1    1    2    0    0  0.93643879474E+01 -0.50565763978E+02  0.13876305636E+04  0.13886191592E+04  0.10000000000E+02 0.  1.
</event>
<event>
 5    1  0.1072898E-008  0.3754899E+03  0.7957747E-01  0.3471035E+00
         13   -1    0    0    0    0  0.00000000000E+00  0.00000000000E+00  0.14999999963E+04  0.15000000000E+04  0.10566000000E+00 0. -1.
        994   -1    0    0    0    0 -0.00000000000E+00 -0.00000000000E+00  0.11368683772E-12  0.17120000000E+03  0.17120000000E+03 0.  0.
         13    1    1    2    0    0  0.29440494922E+02  0.76705496007E+02  0.36193765911E+03  0.37114600376E+03  0.10566000000E+00 0. -1.
        994    1    1    2    0    0 -0.28742470945E+02 -0.87370280048E+02  0.35700124137E+02  0.19759462122E+03  0.17120000000E+03 0.  0.
        998    1    1    2    0    0 -0.69802397632E+00  0.10664784041E+02  0.11023622130E+04  0.11024593750E+04  0.10000000000E+02 0. -1.
</event>
<event>
 5    1  0.1072898E-008  0.3837943E+03  0.7957747E-01  0.3434802E+00
         13   -1    0    0    0    0  0.00000000000E+00  0.00000000000E+00  0.14999999963E+04  0.15000000000E+04  0.10566000000E+00 0. -1.
        994   -1    0    0    0    0 -0.00000000000E+00 -0.00000000000E+00  0.11368683772E-12  0.17120000000E+03  0.17120000000E+03 0.  0.
         13    1    1    2    0    0 -0.21104847668E+02 -0.26672764510E+01  0.10451843923E+03  0.10666135318E+03  0.10566000000E+00 0. -1.
        994    1    1    2    0    0  0.82142571827E+01  0.14527620481E+01  0.24597259790E+01  0.17142075368E+03  0.17120000000E+03 0.  0.
        998    1    1    2    0    0  0.12890590485E+02  0.12145144029E+01  0.13930218311E+04  0.13931178931E+04  0.10000000000E+02 0. -1.
</event>
<event>
 5    1  0.1072898E-008  0.3834943E+03  0.7957747E-01  0.3436083E+00
         13   -1    0    0    0    0  0.00000000000E+00  0.00000000000E+00  0.14999999963E+04  0.15000000000E+04  0.10566000000E+00 0. -1.
        994   -1    0    0    0    0 -0.00000000000E+00 -0.00000000000E+00  0.11368683772E-12  0.17120000000E+03  0.17120000000E+03 0.  0.
         13    1    1    2    0    0 -0.21441215140E+02 -0.14754520779E+01  0.94630292271E+02  0.97040229002E+02  0.10566000000E+00 0. -1.
        994    1    1    2    0    0  0.15437320544E+02  0.27593484838E+02  0.56903912075E+01  0.17418820805E+03  0.17120000000E+03 0.  0.
        998    1    1    2    0    0  0.60038945961E+01 -0.26118032760E+02  0.13996793128E+04  0.13999715629E+04  0.10000000000E+02 0. -1.
</event>
<event>
 5    1  0.1072898E-008  0.3800677E+03  0.7957747E-01  0.3450864E+00
         13   -1    0    0    0    0  0.00000000000E+00  0.00000000000E+00  0.14999999963E+04  0.15000000000E+04  0.10566000000E+00 0. -1.
        994   -1    0    0    0    0 -0.00000000000E+00 -0.00000000000E+00  0.11368683772E-12  0.17120000000E+03  0.17120000000E+03 0.  0.
         13    1    1    2    0    0 -0.36967350829E+02 -0.24707542076E+01  0.14959719484E+03  0.15411690862E+03  0.10566000000E+00 0. -1.
        994    1    1    2    0    0  0.38158793749E+02  0.58370402619E+01  0.90954346818E+01  0.17573369487E+03  0.17120000000E+03 0.  0.
        998    1    1    2    0    0 -0.11914429197E+01 -0.33662860543E+01  0.13413073668E+04  0.13413493965E+04  0.10000000000E+02 0. -1.
</event>
<event>
 5    1  0.1072898E-008  0.3743525E+03  0.7957747E-01  0.3476124E+00
         13   -1    0    0    0    0  0.00000000000E+00  0.00000000000E+00  0.14999999963E+04  0.15000000000E+04  0.10566000000E+00 0.  1.
        994   -1    0    0    0    0 -0.00000000000E+00 -0.00000000000E+00  0.11368683772E-12  0.17120000000E+03  0.17120000000E+03 0.  0.
         13    1    1    2    0    0 -0.30161384448E+01  0.79572933715E+02  0.34617969231E+03  0.35522012809E+03  0.10566000000E+00 0.  1.
        994    1    1    2    0    0  0.20105538281E+02 -0.78862445046E+02  0.29922028754E+02  0.19190697151E+03  0.17120000000E+03 0.  0.
        998    1    1    2    0    0 -0.17089399837E+02 -0.71048866872E+00  0.11238982752E+04  0.11240729004E+04  0.10000000000E+02 0. -1.
</event>
<event>
 5    1  0.1072898E-008  0.3729727E+03  0.7957747E-01  0.3482340E+00
         13   -1    0    0    0    0  0.00000000000E+00  0.00000000000E+00  0.14999999963E+04  0.15000000000E+04  0.10566000000E+00 0. -1.
        994   -1    0    0    0    0 -0.00000000000E+00 -0.00000000000E+00  0.11368683772E-12  0.17120000000E+03  0.17120000000E+03 0.  0.
         13    1    1    2    0    0  0.58246153412E+02 -0.17210986315E+02  0.28446185197E+03  0.29087349282E+03  0.10566000000E+00 0. -1.
        994    1    1    2    0    0 -0.57604818827E+01  0.11459085464E+02  0.82866985369E+01  0.17187961823E+03  0.17120000000E+03 0.  0.
        998    1    1    2    0    0 -0.52485671529E+02  0.57519008517E+01  0.12072514458E+04  0.12084468889E+04  0.10000000000E+02 0. -1.
</event>
<event>
 5    1  0.1072898E-008  0.3736720E+03  0.7957747E-01  0.3479184E+00
         13   -1    0    0    0    0  0.00000000000E+00  0.00000000000E+00  0.14999999963E+04  0.15000000000E+04  0.10566000000E+00 0.  1.
        994   -1    0    0    0    0 -0.00000000000E+00 -0.00000000000E+00  0.11368683772E-12  0.17120000000E+03  0.17120000000E+03 0.  0.
         13    1    1    2    0    0  0.13834624176E+02  0.38780029977E+02  0.62248045802E+02  0.74633222638E+02  0.10566000000E+00 0.  1.
        994    1    1    2    0    0 -0.26553729652E+02 -0.12427395400E+02  0.15943846571E+02  0.17442243823E+03  0.17120000000E+03 0.  0.
        998    1    1    2    0    0  0.12719105475E+02 -0.26352634577E+02  0.14218081039E+04  0.14221443391E+04  0.10000000000E+02 0.  1.
</event>
<event>
 5    1  0.1072898E-008  0.3790887E+03  0.7957747E-01  0.3455136E+00
         13   -1    0    0    0    0  0.00000000000E+00  0.00000000000E+00  0.14999999963E+04  0.15000000000E+04  0.10566000000E+00 0.  1.
        994   -1    0    0    0    0 -0.00000000000E+00 -0.00000000000E+00  0.11368683772E-12  0.17120000000E+03  0.17120000000E+03 0.  0.
         13    1    1    2    0    0 -0.85319658841E+01 -0.16767639618E+02  0.39035582488E+02  0.43332851792E+02  0.10566000000E+00 0.  1.
        994    1    1    2    0    0 -0.11079089628E+02 -0.12327510174E+01  0.50106254612E+01  0.17163569637E+03  0.17120000000E+03 0.  0.
        998    1    1    2    0    0  0.19611055513E+02  0.18000390636E+02  0.14559537883E+04  0.14562314518E+04  0.10000000000E+02 0.  1.
</event>
<event>
 5    1  0.1072898E-008  0.3798098E+03  0.7957747E-01  0.3451987E+00
         13   -1    0    0    0    0  0.00000000000E+00  0.00000000000E+00  0.14999999963E+04  0.15000000000E+04  0.10566000000E+00 0. -1.
        994   -1    0    0    0    0 -0.00000000000E+00 -0.00000000000E+00  0.11368683772E-12  0.17120000000E+03  0.17120000000E+03 0.  0.
         13    1    1    2    0    0 -0.76736239590E+01  0.74225286593E+01  0.11515846568E+02  0.15703640424E+02  0.10566000000E+00 0. -1.
        994    1    1    2    0    0  0.22036973085E+01 -0.14065194650E+02  0.49074632836E+01  0.17186101704E+03  0.17120000000E+03 0.  0.
        998    1    1    2    0    0  0.54699266505E+01  0.66426659910E+01  0.14835766864E+04  0.14836353425E+04  0.10000000000E+02 0. -1.
</event>
<event>
 5    1  0.1072898E-008  0.2991117E+03  0.7957747E-01  0.3902381E+00
         13   -1    0    0    0    0  0.00000000000E+00  0.00000000000E+00  0.14999999963E+04  0.15000000000E+04  0.10566000000E+00 0. -1.
        994   -1    0    0    0    0 -0.00000000000E+00 -0.00000000000E+00  0.11368683772E-12  0.17120000000E+03  0.17120000000E+03 0.  0.
         13    1    1    2    0    0  0.21647015787E+03  0.57103324090E+02  0.71901915344E+03  0.75306618106E+03  0.10566000000E+00 0. -1.
        994    1    1    2    0    0 -0.12033726768E+03 -0.10399584834E+03  0.14911711830E+03  0.27720308338E+03  0.17120000000E+03 0.  0.
        998    1    1    2    0    0 -0.96132890197E+02  0.46892524249E+02  0.63186372454E+03  0.64093073557E+03  0.10000000000E+02 0. -1.
</event>
<event>
 5    1  0.1072898E-008  0.3751880E+03  0.7957747E-01  0.3472383E+00
         13   -1    0    0    0    0  0.00000000000E+00  0.00000000000E+00  0.14999999963E+04  0.15000000000E+04  0.10566000000E+00 0. -1.
        994   -1    0    0    0    0 -0.00000000000E+00 -0.00000000000E+00  0.11368683772E-12  0.17120000000E+03  0.17120000000E+03 0.  0.
         13    1    1    2    0    0 -0.36328143814E+02  0.32861313950E+02  0.19317564976E+03  0.19928984623E+03  0.10566000000E+00 0. -1.
        994    1    1    2    0    0  0.17595901110E+02 -0.55676739752E+01  0.77401617186E+01  0.17236578788E+03  0.17120000000E+03 0.  0.
        998    1    1    2    0    0  0.18732242705E+02 -0.27293639975E+02  0.12990841848E+04  0.12995443659E+04  0.10000000000E+02 0.  1.
</event>
<event>
 5    1  0.1072898E-008  0.3726273E+03  0.7957747E-01  0.3483903E+00
         13   -1    0    0    0    0  0.00000000000E+00  0.00000000000E+00  0.14999999963E+04  0.15000000000E+04  0.10566000000E+00 0.  1.
        994   -1    0    0    0    0 -0.00000000000E+00 -0.00000000000E+00  0.11368683772E-12  0.17120000000E+03  0.17120000000E+03 0.  0.
         13    1    1    2    0    0 -0.62723802320E+02 -0.49288669752E+01  0.29165575718E+03  0.29836497946E+03  0.10566000000E+00 0.  1.
        994    1    1    2    0    0  0.12075119709E+02  0.22939243518E+02  0.10208410311E+02  0.17345220970E+03  0.17120000000E+03 0.  0.
        998    1    1    2    0    0  0.50648682611E+02 -0.18010376543E+02  0.11981358288E+04  0.11993828108E+04  0.10000000000E+02 0.  1.
</event>
<event>
 5    1  0.1072898E-008  0.3753076E+03  0.7957747E-01  0.3471848E+00
         13   -1    0    0    0    0  0.00000000000E+00  0.00000000000E+00  0.14999999963E+04  0.15000000000E+04  0.10566000000E+00 0.  1.
        994   -1    0    0    0    0 -0.00000000000E+00 -0.00000000000E+00  0.11368683772E-12  0.17120000000E+03  0.17120000000E+03 0.  0.
         13    1    1    2    0    0  0.35953747291E+02 -0.10064364526E+02  0.65265746340E+02  0.75190372967E+02  0.10566000000E+00 0.  1.
        994    1    1    2    0    0 -0.12959732329E+03  0.91239084615E+02  0.97249963044E+02  0.25275884174E+03  0.17120000000E+03 0.  0.
        998    1    1    2    0    0  0.93643575994E+02 -0.81174720090E+02  0.13374842869E+04  0.13432507853E+04  0.10000000000E+02 0.  1.
</event>
<event>
 5    1  0.1072898E-008  0.3705948E+03  0.7957747E-01  0.3493162E+00
         13   -1    0    0    0    0  0.00000000000E+00  0.00000000000E+00  0.14999999963E+04  0.15000000000E+04  0.10566000000E+00 0. -1.
        994   -1    0    0    0    0 -0.00000000000E+00 -0.00000000000E+00  0.11368683772E-12  0.17120000000E+03  0.17120000000E+03 0.  0.
         13    1    1    2    0    0  0.12760692435E+03 -0.19067737297E+02  0.74369366105E+03  0.75480287387E+03  0.10566000000E+00 0. -1.
        994    1    1    2    0    0 -0.95271606477E+02  0.72238344312E+02  0.60030616873E+02  0.21727441716E+03  0.17120000000E+03 0.  0.
        998    1    1    2    0    0 -0.32335317872E+02 -0.53170607015E+02  0.69627571835E+03  0.69912270897E+03  0.10000000000E+02 0. -1.
</event>
<event>
 5    1  0.1072898E-008  0.3842538E+03  0.7957747E-01  0.3432843E+00
         13   -1    0    0    0    0  0.00000000000E+00  0.00000000000E+00  0.14999999963E+04  0.15000000000E+04  0.10566000000E+00 0. -1.
        994   -1    0    0    0    0 -0.00000000000E+00 -0.00000000000E+00  0.11368683772E-12  0.17120000000E+03  0.17120000000E+03 0.  0.
         13    1    1    2    0    0 -0.16190583197E+01 -0.24753652661E+02  0.14436087819E+03  0.14647675238E+03  0.10566000000E+00 0. -1.
        994    1    1    2    0    0 -0.48194216070E+01  0.22599012382E+02  0.37632613978E+01  0.17279335728E+03  0.17120000000E+03 0.  0.
        998    1    1    2    0    0  0.64384799267E+01  0.21546402789E+01  0.13518758567E+04  0.13519298903E+04  0.10000000000E+02 0. -1.
</event>
<event>
 5    1  0.1072898E-008  0.3843789E+03  0.7957747E-01  0.3432311E+00
         13   -1    0    0    0    0  0.00000000000E+00  0.00000000000E+00  0.14999999963E+04  0.15000000000E+04  0.10566000000E+00 0.  1.
        994   -1    0    0    0    0 -0.00000000000E+00 -0.00000000000E+00  0.11368683772E-12  0.17120000000E+03  0.17120000000E+03 0.  0.
         13    1    1    2    0    0  0.16552948902E+01  0.10370112775E+02  0.27441928865E+02  0.29382815795E+02  0.10566000000E+00 0.  1.
        994    1    1    2    0    0 -0.53817355516E+01 -0.11181023611E+02  0.24463867176E+01  0.17166654646E+03  0.17120000000E+03 0.  0.
        998    1    1    2    0    0  0.37264406614E+01  0.81091083582E+00  0.14701116807E+04  0.14701506377E+04  0.10000000000E+02 0.  1.
</event>
<event>
 5    1  0.1072898E-008  0.3849679E+03  0.7957747E-01  0.3429809E+00
         13   -1    0    0    0    0  0.00000000000E+00  0.00000000000E+00  0.14999999963E+04  0.15000000000E+04  0.10566000000E+00 0. -1.
        994   -1    0    0    0    0 -0.00000000000E+00 -0.00000000000E+00  0.11368683772E-12  0.17120000000E+03  0.17120000000E+03 0.  0.
         13    1    1    2    0    0  0.89163713316E+01  0.49499074312E+01  0.31670060154E+02  0.33271716750E+02  0.10566000000E+00 0. -1.
        994    1    1    2    0    0 -0.56494023882E+00 -0.88590045036E+01  0.19053161917E+01  0.17144057673E+03  0.17120000000E+03 0.  0.
        998    1    1    2    0    0 -0.83514310928E+01  0.39090970724E+01  0.14664246199E+04  0.14664877065E+04  0.10000000000E+02 0. -1.
</event>
<event>
 5    1  0.1072898E-008  0.3834511E+03  0.7957747E-01  0.3436268E+00
         13   -1    0    0    0    0  0.00000000000E+00  0.00000000000E+00  0.14999999963E+04  0.15000000000E+04  0.10566000000E+00 0. -1.
        994   -1    0    0    0    0 -0.00000000000E+00 -0.00000000000E+00  0.11368683772E-12  0.17120000000E+03  0.17120000000E+03 0.  0.
         13    1    1    2    0    0  0.94671466746E+00 -0.13282300296E+02  0.35155702503E+02  0.37593222159E+02  0.10566000000E+00 0. -1.
        994    1    1    2    0    0 -0.18482272363E+02  0.15187998332E+02  0.42948677799E+01  0.17291661451E+03  0.17120000000E+03 0.  0.
        998    1    1    2    0    0  0.17535557696E+02 -0.19056980363E+01  0.14605494260E+04  0.14606901633E+04  0.10000000000E+02 0. -1.
</event>
<event>
 5    1  0.1072898E-008  0.3858475E+03  0.7957747E-01  0.3426086E+00
         13   -1    0    0    0    0  0.00000000000E+00  0.00000000000E+00  0.14999999963E+04  0.15000000000E+04  0.10566000000E+00 0.  1.
        994   -1    0    0    0    0 -0.00000000000E+00 -0.00000000000E+00  0.11368683772E-12  0.17120000000E+03  0.17120000000E+03 0.  0.
         13    1    1    2    0    0  0.52485064195E+01  0.14082922598E+02  0.88595014478E+02  0.89860799479E+02  0.10566000000E+00 0.  1.
        994    1    1    2    0    0 -0.27417601762E+01 -0.17120400509E+02  0.21965381992E+01  0.17208977350E+03  0.17120000000E+03 0.  0.
        998    1    1    2    0    0 -0.25067462432E+01  0.30374779102E+01  0.14092084436E+04  0.14092494270E+04  0.10000000000E+02 0.  1.
</event>
<event>
 5    1  0.1072898E-008  0.3765482E+03  0.7957747E-01  0.3466328E+00
         13   -1    0    0    0    0  0.00000000000E+00  0.00000000000E+00  0.14999999963E+04  0.15000000000E+04  0.10566000000E+00 0. -1.
        994   -1    0    0    0    0 -0.00000000000E+00 -0.00000000000E+00  0.11368683772E-12  0.17120000000E+03  0.17120000000E+03 0.  0.
         13    1    1    2    0    0  0.51230640233E+02 -0.31086121319E+02  0.34602555284E+03  0.35117605246E+03  0.10566000000E+00 0. -1.
        994    1    1    2    0    0 -0.15928430196E+02  0.10939462530E+02  0.71494742237E+01  0.17243532617E+03  0.17120000000E+03 0.  0.
        998    1    1    2    0    0 -0.35302210038E+02  0.20146658789E+02  0.11468249692E+04  0.11475886214E+04  0.10000000000E+02 0. -1.
</event>
<event>
 5    1  0.1072898E-008  0.3815026E+03  0.7957747E-01  0.3444642E+00
         13   -1    0    0    0    0  0.00000000000E+00  0.00000000000E+00  0.14999999963E+04  0.15000000000E+04  0.10566000000E+00 0. -1.
        994   -1    0    0    0    0 -0.00000000000E+00 -0.00000000000E+00  0.11368683772E-12  0.17120000000E+03  0.17120000000E+03 0.  0.
         13    1    1    2    0    0  0.99429245694E+01 -0.32116685443E+02  0.16084566542E+03  0.16432188680E+03  0.10566000000E+00 0. -1.
        994    1    1    2    0    0 -0.99514586386E+01  0.22436575082E+02  0.53830730644E+01  0.17303424200E+03  0.17120000000E+03 0.  0.
        998    1    1    2    0    0  0.85340692833E-02  0.96801103610E+01  0.13337712578E+04  0.13338438712E+04  0.10000000000E+02 0. -1.
</event>
<event>
 5    1  0.1072898E-008  0.3842609E+03  0.7957747E-01  0.3432813E+00
         13   -1    0    0    0    0  0.00000000000E+00  0.00000000000E+00  0.14999999963E+04  0.15000000000E+04  0.10566000000E+00 0.  1.
        994   -1    0    0    0    0 -0.00000000000E+00 -0.00000000000E+00  0.11368683772E-12  0.17120000000E+03  0.17120000000E+03 0.  0.
         13    1    1    2    0    0  0.84609736887E+01  0.17337657705E+02  0.91197713117E+02  0.93215966939E+02  0.10566000000E+00 0.  1.
        994    1    1    2    0    0 -0.15394277691E+01 -0.15854835774E+02  0.28344755736E+01  0.17196284455E+03  0.17120000000E+03 0.  0.
        998    1    1    2    0    0 -0.69215459196E+01 -0.14828219311E+01  0.14059678076E+04  0.14060211885E+04  0.10000000000E+02 0.  1.
</event>
<event>
 5    1  0.1072898E-008  0.3762366E+03  0.7957747E-01  0.3467711E+00
         13   -1    0    0    0    0  0.00000000000E+00  0.00000000000E+00  0.14999999963E+04  0.15000000000E+04  0.10566000000E+00 0.  1.
        994   -1    0    0    0    0 -0.00000000000E+00 -0.00000000000E+00  0.11368683772E-12  0.17120000000E+03  0.17120000000E+03 0.  0.
         13    1    1    2    0    0  0.29900117722E+02 -0.14300011012E+02  0.88192175991E+02  0.94214534043E+02  0.10566000000E+00 0.  1.
        994    1    1    2    0    0 -0.12194997909E+02  0.25340917080E+02  0.87269108989E+01  0.17371378479E+03  0.17120000000E+03 0.  0.
        998    1    1    2    0    0 -0.17705119813E+02 -0.11040906068E+02  0.14030809094E+04  0.14032716812E+04  0.10000000000E+02 0.  1.
</event>
<event>
 5    1  0.1072898E-008  0.3808902E+03  0.7957747E-01  0.3447292E+00
         13   -1    0    0    0    0  0.00000000000E+00  0.00000000000E+00  0.14999999963E+04  0.15000000000E+04  0.10566000000E+00 0. -1.
        994   -1    0    0    0    0 -0.00000000000E+00 -0.00000000000E+00  0.11368683772E-12  0.17120000000E+03  0.17120000000E+03 0.  0.
         13    1    1    2    0    0  0.70184206981E+01 -0.15423014271E+02  0.36395041407E+02  0.40146454406E+02  0.10566000000E+00 0. -1.
        994    1    1    2    0    0 -0.97922214175E+01  0.18216216988E+02  0.51113916107E+01  0.17252038861E+03  0.17120000000E+03 0.  0.
        998    1    1    2    0    0  0.27738007194E+01 -0.27932027174E+01  0.14584935633E+04  0.14585331570E+04  0.10000000000E+02 0. -1.
</event>
<event>
 5    1  0.1072898E-008  0.3830061E+03  0.7957747E-01  0.3438173E+00
         13   -1    0    0    0    0  0.00000000000E+00  0.00000000000E+00  0.14999999963E+04  0.15000000000E+04  0.10566000000E+00 0. -1.
        994   -1    0    0    0    0 -0.00000000000E+00 -0.00000000000E+00  0.11368683772E-12  0.17120000000E+03  0.17120000000E+03 0.  0.
         13    1    1    2    0    0  0.12929967052E+02 -0.24178660764E+02  0.14713468265E+03  0.14966769086E+03  0.10566000000E+00 0. -1.
        994    1    1    2    0    0  0.62388004874E+01  0.17644082434E+02  0.37834641957E+01  0.17226140275E+03  0.17120000000E+03 0.  0.
        998    1    1    2    0    0 -0.19168767539E+02  0.65345783306E+01  0.13490818494E+04  0.13492709064E+04  0.10000000000E+02 0. -1.
</event>
<event>
 5    1  0.1072898E-008  0.3758224E+03  0.7957747E-01  0.3469553E+00
         13   -1    0    0    0    0  0.00000000000E+00  0.00000000000E+00  0.14999999963E+04  0.15000000000E+04  0.10566000000E+00 0. -1.
        994   -1    0    0    0    0 -0.00000000000E+00 -0.00000000000E+00  0.11368683772E-12  0.17120000000E+03  0.17120000000E+03 0.  0.
         13    1    1    2    0    0 -0.17808385483E+02  0.90576083966E+01  0.31242647831E+02  0.37084943992E+02  0.10566000000E+00 0. -1.
        994    1    1    2    0    0 -0.86893144966E+01  0.39474274518E+01  0.65658617998E+01  0.17159148263E+03  0.17120000000E+03 0.  0.
        998    1    1    2    0    0  0.26497699979E+02 -0.13005035848E+02  0.14621914866E+04  0.14625235734E+04  0.10000000000E+02 0. -1.
</event>
<event>
 5    1  0.1072898E-008  0.3762535E+03  0.7957747E-01  0.3467636E+00
         13   -1    0    0    0    0  0.00000000000E+00  0.00000000000E+00  0.14999999963E+04  0.15000000000E+04  0.10566000000E+00 0.  1.
        994   -1    0    0    0    0 -0.00000000000E+00 -0.00000000000E+00  0.11368683772E-12  0.17120000000E+03  0.17120000000E+03 0.  0.
         13    1    1    2    0    0 -0.18061457713E+02 -0.18296486583E+02  0.56088467027E+02  0.61700121341E+02  0.10566000000E+00 0.  1.
        994    1    1    2    0    0  0.98201213598E+01 -0.13887569130E+02  0.70163084605E+01  0.17218585292E+03  0.17120000000E+03 0.  0.
        998    1    1    2    0    0  0.82413363532E+01  0.32184055712E+02  0.14368952208E+04  0.14373140257E+04  0.10000000000E+02 0.  1.
</event>
<event>
 5    1  0.1072898E-008  0.3840168E+03  0.7957747E-01  0.3433853E+00
         13   -1    0    0    0    0  0.00000000000E+00  0.00000000000E+00  0.14999999963E+04  0.15000000000E+04  0.10566000000E+00 0.  1.
        994   -1    0    0    0    0 -0.00000000000E+00 -0.00000000000E+00  0.11368683772E-12  0.17120000000E+03  0.17120000000E+03 0.  0.
         13    1    1    2    0    0 -0.21479592087E+02  0.91153349798E+01  0.14000879438E+03  0.14193990233E+03  0.10566000000E+00 0.  1.
        994    1    1    2    0    0  0.45868938218E+01  0.14017598536E+01  0.21949685222E+01  0.17128123777E+03  0.17120000000E+03 0.  0.
        998    1    1    2    0    0  0.16892698265E+02 -0.10517094833E+02  0.13577962334E+04  0.13579788599E+04  0.10000000000E+02 0.  1.
</event>
<event>
 5    1  0.1072898E-008  0.3794743E+03  0.7957747E-01  0.3453451E+00
         13   -1    0    0    0    0  0.00000000000E+00  0.00000000000E+00  0.14999999963E+04  0.15000000000E+04  0.10566000000E+00 0. -1.
        994   -1    0    0    0    0 -0.00000000000E+00 -0.00000000000E+00  0.11368683772E-12  0.17120000000E+03  0.17120000000E+03 0.  0.
         13    1    1    2    0    0 -0.19645140352E+02  0.91273034146E+01  0.51806488762E+02  0.56153028850E+02  0.10566000000E+00 0. -1.
        994    1    1    2    0    0  0.75326857341E+01 -0.15805600063E+02  0.54260000376E+01  0.17217851151E+03  0.17120000000E+03 0.  0.
        998    1    1    2    0    0  0.12112454618E+02  0.66782966479E+01  0.14427675075E+04  0.14428684596E+04  0.10000000000E+02 0. -1.
</event>
<event>
 5    1  0.1072898E-008  0.3836864E+03  0.7957747E-01  0.3435263E+00
         13   -1    0    0    0    0  0.00000000000E+00  0.00000000000E+00  0.14999999963E+04  0.15000000000E+04  0.10566000000E+00 0. -1.
        994   -1    0    0    0    0 -0.00000000000E+00 -0.00000000000E+00  0.11368683772E-12  0.17120000000E+03  0.17120000000E+03 0.  0.
         13    1    1    2    0    0  0.10755383059E+02  0.26016745853E+00  0.24655113109E+02  0.26900403683E+02  0.10566000000E+00 0. -1.
        994    1    1    2    0    0 -0.68759889686E+01  0.79600453800E+00  0.24419968855E+01  0.17135727646E+03  0.17120000000E+03 0.  0.
        998    1    1    2    0    0 -0.38793940900E+01 -0.10561719965E+01  0.14729028863E+04  0.14729423199E+04  0.10000000000E+02 0. -1.
</event>
<event>
 5    1  0.1072898E-008  0.3825558E+03  0.7957747E-01  0.3440105E+00
         13   -1    0    0    0    0  0.00000000000E+00  0.00000000000E+00  0.14999999963E+04  0.15000000000E+04  0.10566000000E+00 0.  1.
        994   -1    0    0    0    0 -0.00000000000E+00 -0.00000000000E+00  0.11368683772E-12  0.17120000000E+03  0.17120000000E+03 0.  0.
         13    1    1    2    0    0  0.33214180353E+00  0.11549173056E+02  0.22917689618E+02  0.25665645870E+02  0.10566000000E+00 0.  1.
        994    1    1    2    0    0 -0.49820319264E+01 -0.14930196534E+00  0.29308955301E+01  0.17129761552E+03  0.17120000000E+03 0.  0.
        998    1    1    2    0    0  0.46498901229E+01 -0.11399871090E+02  0.14741514111E+04  0.14742367386E+04  0.10000000000E+02 0.  1.
</event>
<event>
 5    1  0.1072898E-008  0.3739849E+03  0.7957747E-01  0.3477775E+00
         13   -1    0    0    0    0  0.00000000000E+00  0.00000000000E+00  0.14999999963E+04  0.15000000000E+04  0.10566000000E+00 0.  1.
        994   -1    0    0    0    0 -0.00000000000E+00 -0.00000000000E+00  0.11368683772E-12  0.17120000000E+03  0.17120000000E+03 0.  0.
         13    1    1    2    0    0 -0.46875879388E+02 -0.28797060479E+02  0.13775154260E+03  0.14833110736E+03  0.10566000000E+00 0.  1.
        994    1    1    2    0    0 -0.40096143474E+02  0.27871407893E+02  0.21564377367E+02  0.17932924600E+03  0.17120000000E+03 0.  0.
        998    1    1    2    0    0  0.86972022863E+02  0.92565258612E+00  0.13406840763E+04  0.13435396466E+04  0.10000000000E+02 0.  1.
</event>
<event>
 5    1  0.1268823E-008  0.3854371E+03  0.7957747E-01  0.3427821E+00
         13   -1    0    0    0    0  0.00000000000E+00  0.00000000000E+00  0.14999999963E+04  0.15000000000E+04  0.10566000000E+00 0. -1.
        994   -1    0    0    0    0 -0.00000000000E+00 -0.00000000000E+00  0.11368683772E-12  0.17120000000E+03  0.17120000000E+03 0.  0.
         13    1    1    2    0    0 -0.29938215929E+01  0.15274689394E+02  0.81623950902E+02  0.83094883288E+02  0.10566000000E+00 0. -1.
        994    1    1    2    0    0  0.52858728091E+01 -0.16509847295E+02  0.24008162481E+01  0.17209218294E+03  0.17120000000E+03 0.  0.
        998    1    1    2    0    0 -0.22920512162E+01  0.12351579012E+01  0.14159752291E+04  0.14160129338E+04  0.10000000000E+02 0. -1.
</event>
<event>
 5    1  0.1072898E-008  0.3830193E+03  0.7957747E-01  0.3438116E+00
         13   -1    0    0    0    0  0.00000000000E+00  0.00000000000E+00  0.14999999963E+04  0.15000000000E+04  0.10566000000E+00 0. -1.
        994   -1    0    0    0    0 -0.00000000000E+00 -0.00000000000E+00  0.11368683772E-12  0.17120000000E+03  0.17120000000E+03 0.  0.
         13    1    1    2    0    0 -0.11815676856E+02 -0.79552016394E+01  0.38892960522E+02  0.41419427747E+02  0.10566000000E+00 0. -1.
        994    1    1    2    0    0 -0.81875925585E+00  0.74120984734E+01  0.28008004380E+01  0.17138522122E+03  0.17120000000E+03 0.  0.
        998    1    1    2    0    0  0.12634436112E+02  0.54310316595E+00  0.14583062353E+04  0.14583953510E+04  0.10000000000E+02 0. -1.
</event>
<event>
 5    1  0.1072898E-008  0.2692014E+03  0.7957747E-01  0.4143810E+00
         13   -1    0    0    0    0  0.00000000000E+00  0.00000000000E+00  0.14999999963E+04  0.15000000000E+04  0.10566000000E+00 0.  1.
        994   -1    0    0    0    0 -0.00000000000E+00 -0.00000000000E+00  0.11368683772E-12  0.17120000000E+03  0.17120000000E+03 0.  0.
         13    1    1    2    0    0  0.38228283604E+01 -0.15744274423E+03  0.78765662918E+03  0.80324704069E+03  0.10566000000E+00 0.  1.
        994    1    1    2    0    0 -0.12294639937E+03 -0.65914847712E+01  0.12184963345E+03  0.24354884102E+03  0.17120000000E+03 0.  0.
        998    1    1    2    0    0  0.11912357101E+03  0.16403422900E+03  0.59049373365E+03  0.62440411829E+03  0.10000000000E+02 0.  1.
</event>
<event>
 5    1  0.1072898E-008  0.3834319E+03  0.7957747E-01  0.3436350E+00
         13   -1    0    0    0    0  0.00000000000E+00  0.00000000000E+00  0.14999999963E+04  0.15000000000E+04  0.10566000000E+00 0.  1.
        994   -1    0    0    0    0 -0.00000000000E+00 -0.00000000000E+00  0.11368683772E-12  0.17120000000E+03  0.17120000000E+03 0.  0.
         13    1    1    2    0    0 -0.23022680003E+02  0.15254689016E+02  0.14450815948E+03  0.14712365089E+03  0.10566000000E+00 0.  1.
        994    1    1    2    0    0  0.21367441143E+02 -0.17791620206E+02  0.49703254614E+01  0.17351441850E+03  0.17120000000E+03 0.  0.
        998    1    1    2    0    0  0.16552388596E+01  0.25369311893E+01  0.13505215113E+04  0.13505619306E+04  0.10000000000E+02 0.  1.
</event>
<event>
 5    1  0.1072898E-008  0.3795495E+03  0.7957747E-01  0.3453122E+00
         13   -1    0    0    0    0  0.00000000000E+00  0.00000000000E+00  0.14999999963E+04  0.15000000000E+04  0.10566000000E+00 0. -1.
        994   -1    0    0    0    0 -0.00000000000E+00 -0.00000000000E+00  0.11368683772E-12  0.17120000000E+03  0.17120000000E+03 0.  0.
         13    1    1    2    0    0 -0.57761434495E+01 -0.15394906016E+02  0.28892895113E+02  0.33244210269E+02  0.10566000000E+00 0. -1.
        994    1    1    2    0    0  0.33213085556E+01  0.15126422595E+02  0.51640888833E+01  0.17197659017E+03  0.17120000000E+03 0.  0.
        998    1    1    2    0    0  0.24548348939E+01  0.26848342063E+00  0.14659430123E+04  0.14659791996E+04  0.10000000000E+02 0. -1.
</event>
<event>
 5    1  0.1072898E-008  0.3712080E+03  0.7957747E-01  0.3490357E+00
         13   -1    0    0    0    0  0.00000000000E+00  0.00000000000E+00  0.14999999963E+04  0.15000000000E+04  0.10566000000E+00 0. -1.
        994   -1    0    0    0    0 -0.00000000000E+00 -0.00000000000E+00  0.11368683772E-12  0.17120000000E+03  0.17120000000E+03 0.  0.
         13    1    1    2    0    0 -0.18948982899E+02 -0.48876288178E+02  0.11803296846E+03  0.12915009991E+03  0.10566000000E+00 0. -1.
        994    1    1    2    0    0 -0.88865444700E+01  0.30750650572E+02  0.15184570161E+02  0.17482729865E+03  0.17120000000E+03 0.  0.
        998    1    1    2    0    0  0.27835527369E+02  0.18125637605E+02  0.13667824577E+04  0.13672226014E+04  0.10000000000E+02 0. -1.
</event>
<event>
 5    1  0.1072898E-008  0.3818952E+03  0.7957747E-01  0.3442947E+00
         13   -1    0    0    0    0  0.00000000000E+00  0.00000000000E+00  0.14999999963E+04  0.15000000000E+04  0.10566000000E+00 0.  1.
        994   -1    0    0    0    0 -0.00000000000E+00 -0.00000000000E+00  0.11368683772E-12  0.17120000000E+03  0.17120000000E+03 0.  0.
         13    1    1    2    0    0  0.41044962358E+01  0.12923064504E+02  0.28653845002E+02  0.31700259983E+02  0.10566000000E+00 0.  1.
        994    1    1    2    0    0  0.46318080179E+01 -0.68939875178E+00  0.32523417987E+01  0.17129491132E+03  0.17120000000E+03 0.  0.
        998    1    1    2    0    0 -0.87363042537E+01 -0.12233665752E+02  0.14680938095E+04  0.14682048287E+04  0.10000000000E+02 0.  1.
</event>
<event>
 5    1  0.1072898E-008  0.3780872E+03  0.7957747E-01  0.3459530E+00
         13   -1    0    0    0    0  0.00000000000E+00  0.00000000000E+00  0.14999999963E+04  0.15000000000E+04  0.10566000000E+00 0.  1.
        994   -1    0    0    0    0 -0.00000000000E+00 -0.00000000000E+00  0.11368683772E-12  0.17120000000E+03  0.17120000000E+03 0.  0.
         13    1    1    2    0    0 -0.22431053984E+02  0.33838036535E+02  0.15057549630E+03  0.15595241630E+03  0.10566000000E+00 0.  1.
        994    1    1    2    0    0  0.23317023609E+02 -0.25585336849E+02  0.91437253115E+01  0.17490380432E+03  0.17120000000E+03 0.  0.
        998    1    1    2    0    0 -0.88596962570E+00 -0.82526996856E+01  0.13402807747E+04  0.13403437794E+04  0.10000000000E+02 0.  1.
</event>
<event>
 5    1  0.1072898E-008  0.3726109E+03  0.7957747E-01  0.3483977E+00
         13   -1    0    0    0    0  0.00000000000E+00  0.00000000000E+00  0.14999999963E+04  0.15000000000E+04  0.10566000000E+00 0. -1.
        994   -1    0    0    0    0 -0.00000000000E+00 -0.00000000000E+00  0.11368683772E-12  0.17120000000E+03  0.17120000000E+03 0.  0.
         13    1    1    2    0    0  0.12019047999E+02  0.10646349698E+02  0.12827480978E+02  0.20551343240E+02  0.10566000000E+00 0. -1.
        994    1    1    2    0    0 -0.98314943189E+01 -0.49005537893E+01  0.83243672844E+01  0.17175391931E+03  0.17120000000E+03 0.  0.
        998    1    1    2    0    0 -0.21875536804E+01 -0.57457959090E+01  0.14788481480E+04  0.14788947374E+04  0.10000000000E+02 0. -1.
</event>
<event>
 5    1  0.1072898E-008  0.3803174E+03  0.7957747E-01  0.3449778E+00
         13   -1    0    0    0    0  0.00000000000E+00  0.00000000000E+00  0.14999999963E+04  0.15000000000E+04  0.10566000000E+00 0. -1.
        994   -1    0    0    0    0 -0.00000000000E+00 -0.00000000000E+00  0.11368683772E-12  0.17120000000E+03  0.17120000000E+03 0.  0.
         13    1    1    2    0    0 -0.30712342453E+01  0.15596055460E+02  0.29996070744E+02  0.33947678121E+02  0.10566000000E+00 0. -1.
        994    1    1    2    0    0  0.56695369347E+01 -0.12491155735E+02  0.46016411415E+01  0.17181032484E+03  0.17120000000E+03 0.  0.
        998    1    1    2    0    0 -0.25983026894E+01 -0.31048997244E+01  0.14654022844E+04  0.14654419970E+04  0.10000000000E+02 0. -1.
</event>
<event>
 5    1  0.1179348E-008  0.3854906E+03  0.7957747E-01  0.3427594E+00
         13   -1    0    0    0    0  0.00000000000E+00  0.00000000000E+00  0.14999999963E+04  0.15000000000E+04  0.10566000000E+00 0. -1.
        994   -1    0    0    0    0 -0.00000000000E+00 -0.00000000000E+00  0.11368683772E-12  0.17120000000E+03  0.17120000000E+03 0.  0.
         13    1    1    2    0    0  0.14635510945E+02  0.74604334771E+01  0.91569809068E+02  0.93031700753E+02  0.10566000000E+00 0. -1.
        994    1    1    2    0    0 -0.18630810006E+02 -0.47842804847E+01  0.26025428192E+01  0.17229686489E+03  0.17120000000E+03 0.  0.
        998    1    1    2    0    0  0.39952990616E+01 -0.26761529924E+01  0.14058276444E+04  0.14058714344E+04  0.10000000000E+02 0. -1.
</event>
<event>
 5    1  0.1072898E-008  0.3736766E+03  0.7957747E-01  0.3479163E+00
         13   -1    0    0    0    0  0.00000000000E+00  0.00000000000E+00  0.14999999963E+04  0.15000000000E+04  0.10566000000E+00 0.  1.
        994   -1    0    0    0    0 -0.00000000000E+00 -0.00000000000E+00  0.11368683772E-12  0.17120000000E+03  0.17120000000E+03 0.  0.
         13    1    1    2    0    0  0.59978546528E+01 -0.55735938327E+02  0.24895332488E+03  0.25518667327E+03  0.10566000000E+00 0.  1.
        994    1    1    2    0    0 -0.72275084757E+01  0.68122450716E+01  0.76967846780E+01  0.17166049067E+03  0.17120000000E+03 0.  0.
        998    1    1    2    0    0  0.12296538230E+01  0.48923693255E+02  0.12433498867E+04  0.12443528361E+04  0.10000000000E+02 0.  1.
</event>
<event>
 5    1  0.1181055E-008  0.3849949E+03  0.7957747E-01  0.3429694E+00
         13   -1    0    0    0    0  0.00000000000E+00  0.00000000000E+00  0.14999999963E+04  0.15000000000E+04  0.10566000000E+00 0. -1.
        994   -1    0    0    0    0 -0.00000000000E+00 -0.00000000000E+00  0.11368683772E-12  0.17120000000E+03  0.17120000000E+03 0.  0.
         13    1    1    2    0    0  0.83523380897E+00 -0.12798453871E+02  0.48720321681E+02  0.50380342851E+02  0.10566000000E+00 0. -1.
        994    1    1    2    0    0 -0.48870781632E+00  0.14466300635E+02  0.23220211714E+01  0.17182649526E+03  0.17120000000E+03 0.  0.
        998    1    1    2    0    0 -0.34652599264E+00 -0.16678467638E+01  0.14489576534E+04  0.14489931619E+04  0.10000000000E+02 0. -1.
</event>
<event>
 5    1  0.1072898E-008  0.3745651E+03  0.7957747E-01  0.3475170E+00
         13   -1    0    0    0    0  0.00000000000E+00  0.00000000000E+00  0.14999999963E+04  0.15000000000E+04  0.10566000000E+00 0.  1.
        994   -1    0    0    0    0 -0.00000000000E+00 -0.00000000000E+00  0.11368683772E-12  0.17120000000E+03  0.17120000000E+03 0.  0.
         13    1    1    2    0    0  0.13943783596E+03 -0.81161393505E+02  0.79845693704E+03  0.81459411572E+03  0.10566000000E+00 0.  1.
        994    1    1    2    0    0 -0.20459173242E+03  0.23187573732E+02  0.16849653859E+03  0.31637946214E+03  0.17120000000E+03 0.  0.
        998    1    1    2    0    0  0.65153896459E+02  0.57973819773E+02  0.53304652064E+03  0.54022642214E+03  0.10000000000E+02 0.  1.
</event>
<event>
 5    1  0.1072898E-008  0.3840482E+03  0.7957747E-01  0.3433719E+00
         13   -1    0    0    0    0  0.00000000000E+00  0.00000000000E+00  0.14999999963E+04  0.15000000000E+04  0.10566000000E+00 0.  1.
        994   -1    0    0    0    0 -0.00000000000E+00 -0.00000000000E+00  0.11368683772E-12  0.17120000000E+03  0.17120000000E+03 0.  0.
         13    1    1    2    0    0 -0.14330409697E+02 -0.68545509107E+01  0.58776841685E+02  0.60885743756E+02  0.10566000000E+00 0.  1.
        994    1    1    2    0    0  0.94730573788E+01  0.10138337872E+02  0.27387994568E+01  0.17178319398E+03  0.17120000000E+03 0.  0.
        998    1    1    2    0    0  0.48573523186E+01 -0.32837869616E+01  0.14384843551E+04  0.14385310623E+04  0.10000000000E+02 0.  1.
</event>
<event>
 5    1  0.1072898E-008  0.3710857E+03  0.7957747E-01  0.3490916E+00
         13   -1    0    0    0    0  0.00000000000E+00  0.00000000000E+00  0.14999999963E+04  0.15000000000E+04  0.10566000000E+00 0.  1.
        994   -1    0    0    0    0 -0.00000000000E+00 -0.00000000000E+00  0.11368683772E-12  0.17120000000E+03  0.17120000000E+03 0.  0.
         13    1    1    2    0    0  0.16548371902E+02  0.83243395174E+01  0.16112409998E+02  0.24551255793E+02  0.10566000000E+00 0.  1.
        994    1    1    2    0    0 -0.63721161843E+01 -0.61742331843E+01  0.89739001515E+01  0.17166448644E+03  0.17120000000E+03 0.  0.
        998    1    1    2    0    0 -0.10176255718E+02 -0.21501063330E+01  0.14749136861E+04  0.14749842578E+04  0.10000000000E+02 0.  1.
</event>
<event>
 5    1  0.1072898E-008  0.3744143E+03  0.7957747E-01  0.3475847E+00
         13   -1    0    0    0    0  0.00000000000E+00  0.00000000000E+00  0.14999999963E+04  0.15000000000E+04  0.10566000000E+00 0. -1.
        994   -1    0    0    0    0 -0.00000000000E+00 -0.00000000000E+00  0.11368683772E-12  0.17120000000E+03  0.17120000000E+03 0.  0.
         13    1    1    2    0    0  0.53791362924E+01  0.65671638060E+02  0.25292194696E+03  0.26136415510E+03  0.10566000000E+00 0. -1.
        994    1    1    2    0    0 -0.55771925472E+01 -0.68131785970E+02  0.23066451266E+02  0.18578090997E+03  0.17120000000E+03 0.  0.
        998    1    1    2    0    0  0.19805625473E+00  0.24601479095E+01  0.12240115981E+04  0.12240549349E+04  0.10000000000E+02 0. -1.
</event>
<event>
 5    1  0.1072898E-008  0.3843446E+03  0.7957747E-01  0.3432456E+00
         13   -1    0    0    0    0  0.00000000000E+00  0.00000000000E+00  0.14999999963E+04  0.15000000000E+04  0.10566000000E+00 0. -1.
        994   -1    0    0    0    0 -0.00000000000E+00 -0.00000000000E+00  0.11368683772E-12  0.17120000000E+03  0.17120000000E+03 0.  0.
         13    1    1    2    0    0  0.72252165483E+00 -0.11990789169E+02  0.49040135861E+02  0.50490069833E+02  0.10566000000E+00 0. -1.
        994    1    1    2    0    0 -0.21901708542E+02 -0.48060689353E+02  0.11203855157E+02  0.17951178532E+03  0.17120000000E+03 0.  0.
        998    1    1    2    0    0  0.21179186887E+02  0.60051478521E+02  0.14397560053E+04  0.14411981448E+04  0.10000000000E+02 0. -1.
</event>
<event>
 5    1  0.1072898E-008  0.3755489E+03  0.7957747E-01  0.3470771E+00
         13   -1    0    0    0    0  0.00000000000E+00  0.00000000000E+00  0.14999999963E+04  0.15000000000E+04  0.10566000000E+00 0.  1.
        994   -1    0    0    0    0 -0.00000000000E+00 -0.00000000000E+00  0.11368683772E-12  0.17120000000E+03  0.17120000000E+03 0.  0.
         13    1    1    2    0    0 -0.23902972943E+02  0.33929547629E+02  0.13691282761E+03  0.14306536914E+03  0.10566000000E+00 0.  1.
        994    1    1    2    0    0  0.80545289933E+01 -0.16466689196E+02  0.75380523774E+01  0.17234352185E+03  0.17120000000E+03 0.  0.
        998    1    1    2    0    0  0.15848443950E+02 -0.17462858433E+02  0.13555491163E+04  0.13557911090E+04  0.10000000000E+02 0.  1.
</event>
<event>
 5    1  0.1072898E-008  0.3793983E+03  0.7957747E-01  0.3453783E+00
         13   -1    0    0    0    0  0.00000000000E+00  0.00000000000E+00  0.14999999963E+04  0.15000000000E+04  0.10566000000E+00 0.  1.
        994   -1    0    0    0    0 -0.00000000000E+00 -0.00000000000E+00  0.11368683772E-12  0.17120000000E+03  0.17120000000E+03 0.  0.
         13    1    1    2    0    0  0.25682246494E+02  0.27639100618E+02  0.15560647660E+03  0.16011522224E+03  0.10566000000E+00 0.  1.
        994    1    1    2    0    0 -0.78921115397E+01 -0.27679667344E+02  0.72170963615E+01  0.17375262844E+03  0.17120000000E+03 0.  0.
        998    1    1    2    0    0 -0.17790134954E+02  0.40566726249E-01  0.13371764233E+04  0.13373321493E+04  0.10000000000E+02 0.  1.
</event>
<event>
 5    1  0.1072898E-008  0.3847328E+03  0.7957747E-01  0.3430806E+00
         13   -1    0    0    0    0  0.00000000000E+00  0.00000000000E+00  0.14999999963E+04  0.15000000000E+04  0.10566000000E+00 0. -1.
        994   -1    0    0    0    0 -0.00000000000E+00 -0.00000000000E+00  0.11368683772E-12  0.17120000000E+03  0.17120000000E+03 0.  0.
         13    1    1    2    0    0  0.20993241369E+02 -0.67948796066E+01  0.13111708212E+03  0.13296084747E+03  0.10566000000E+00 0. -1.
        994    1    1    2    0    0 -0.16922779306E+02  0.11384616063E+02  0.31332602891E+01  0.17243911175E+03  0.17120000000E+03 0.  0.
        998    1    1    2    0    0 -0.40704620637E+01 -0.45897364565E+01  0.13657496539E+04  0.13658000408E+04  0.10000000000E+02 0. -1.
</event>
<event>
 5    1  0.1072898E-008  0.3827715E+03  0.7957747E-01  0.3439179E+00
         13   -1    0    0    0    0  0.00000000000E+00  0.00000000000E+00  0.14999999963E+04  0.15000000000E+04  0.10566000000E+00 0. -1.
        994   -1    0    0    0    0 -0.00000000000E+00 -0.00000000000E+00  0.11368683772E-12  0.17120000000E+03  0.17120000000E+03 0.  0.
         13    1    1    2    0    0 -0.26753310861E+01 -0.15064029432E+02  0.40832470285E+02  0.43604864095E+02  0.10566000000E+00 0. -1.
        994    1    1    2    0    0  0.57425451823E+01  0.15362747715E+02  0.36321633840E+01  0.17202215977E+03  0.17120000000E+03 0.  0.
        998    1    1    2    0    0 -0.30672140963E+01 -0.29871828282E+00  0.14555353626E+04  0.14555729761E+04  0.10000000000E+02 0. -1.
</event>
<event>
 5    1  0.1072898E-008  0.3853056E+03  0.7957747E-01  0.3428377E+00
         13   -1    0    0    0    0  0.00000000000E+00  0.00000000000E+00  0.14999999963E+04  0.15000000000E+04  0.10566000000E+00 0. -1.
        994   -1    0    0    0    0 -0.00000000000E+00 -0.00000000000E+00  0.11368683772E-12  0.17120000000E+03  0.17120000000E+03 0.  0.
         13    1    1    2    0    0  0.15305008899E+02  0.10246893650E+02  0.10472519199E+03  0.10633258733E+03  0.10566000000E+00 0. -1.
        994    1    1    2    0    0 -0.22969396989E+02 -0.72585126755E+01  0.33872356746E+01  0.17291961303E+03  0.17120000000E+03 0.  0.
        998    1    1    2    0    0  0.76643880898E+01 -0.29883809749E+01  0.13918875686E+04  0.13919477996E+04  0.10000000000E+02 0. -1.
</event>
<event>
 5    1  0.1072898E-008  0.4141568E+03  0.7957747E-01  0.3314706E+00
         13   -1    0    0    0    0  0.00000000000E+00  0.00000000000E+00  0.14999999963E+04  0.15000000000E+04  0.10566000000E+00 0. -1.
        994   -1    0    0    0    0 -0.00000000000E+00 -0.00000000000E+00  0.11368683772E-12  0.17120000000E+03  0.17120000000E+03 0.  0.
         13    1    1    2    0    0  0.44665792552E+02 -0.66421302070E+02  0.84224420744E+02  0.11619202471E+03  0.10566000000E+00 0. -1.
        994    1    1    2    0    0 -0.46493206534E+02  0.18361534578E+00  0.45564268570E+02  0.18315893246E+03  0.17120000000E+03 0.  0.
        998    1    1    2    0    0  0.18274139822E+01  0.66237686724E+02  0.13702113070E+04  0.13718490428E+04  0.10000000000E+02 0. -1.
</event>
<event>
 5    1  0.1072898E-008  0.3711337E+03  0.7957747E-01  0.3490697E+00
         13   -1    0    0    0    0  0.00000000000E+00  0.00000000000E+00  0.14999999963E+04  0.15000000000E+04  0.10566000000E+00 0.  1.
        994   -1    0    0    0    0 -0.00000000000E+00 -0.00000000000E+00  0.11368683772E-12  0.17120000000E+03  0.17120000000E+03 0.  0.
         13    1    1    2    0    0  0.11573887483E+02 -0.58068266448E+01  0.56909530672E+01  0.14144688685E+02  0.10566000000E+00 0.  1.
        994    1    1    2    0    0 -0.21717537594E+01  0.16491946509E+02  0.96312849344E+01  0.17227565836E+03  0.17120000000E+03 0.  0.
        998    1    1    2    0    0 -0.94021337235E+01 -0.10685119864E+02  0.14846777583E+04  0.14847796530E+04  0.10000000000E+02 0.  1.
</event>
<event>
 5    1  0.1072898E-008  0.3849212E+03  0.7957747E-01  0.3430007E+00
         13   -1    0    0    0    0  0.00000000000E+00  0.00000000000E+00  0.14999999963E+04  0.15000000000E+04  0.10566000000E+00 0. -1.
        994   -1    0    0    0    0 -0.00000000000E+00 -0.00000000000E+00  0.11368683772E-12  0.17120000000E+03  0.17120000000E+03 0.  0.
         13    1    1    2    0    0  0.14028957570E+02 -0.67050813629E+01  0.70721461828E+02  0.72410676656E+02  0.10566000000E+00 0. -1.
        994    1    1    2    0    0 -0.13254567524E+02  0.42767421266E+01  0.23076052711E+01  0.17178107907E+03  0.17120000000E+03 0.  0.
        998    1    1    2    0    0 -0.77439004642E+00  0.24283392362E+01  0.14269709292E+04  0.14270082443E+04  0.10000000000E+02 0. -1.
</event>
<event>
 5    1  0.1072898E-008  0.3829891E+03  0.7957747E-01  0.3438246E+00
         13   -1    0    0    0    0  0.00000000000E+00  0.00000000000E+00  0.14999999963E+04  0.15000000000E+04  0.10566000000E+00 0. -1.
        994   -1    0    0    0    0 -0.00000000000E+00 -0.00000000000E+00  0.11368683772E-12  0.17120000000E+03  0.17120000000E+03 0.  0.
         13    1    1    2    0    0  0.16562559436E+02 -0.10707896069E+01  0.59811520331E+02  0.62071685121E+02  0.10566000000E+00 0. -1.
        994    1    1    2    0    0  0.18864001950E+02 -0.24266720933E+00  0.38108431523E+01  0.17227847220E+03  0.17120000000E+03 0.  0.
        998    1    1    2    0    0 -0.35426561386E+02  0.13134568162E+01  0.14363776328E+04  0.14368498427E+04  0.10000000000E+02 0. -1.
</event>
<event>
 5    1  0.1072898E-008  0.3776258E+03  0.7957747E-01  0.3461562E+00
         13   -1    0    0    0    0  0.00000000000E+00  0.00000000000E+00  0.14999999963E+04  0.15000000000E+04  0.10566000000E+00 0.  1.
        994   -1    0    0    0    0 -0.00000000000E+00 -0.00000000000E+00  0.11368683772E-12  0.17120000000E+03  0.17120000000E+03 0.  0.
         13    1    1    2    0    0 -0.21404296742E+01 -0.15088948721E+02  0.19249381702E+02  0.24552141915E+02  0.10566000000E+00 0.  1.
        994    1    1    2    0    0  0.61922073569E+01  0.14804148942E+02  0.62045822717E+01  0.17206232330E+03  0.17120000000E+03 0.  0.
        998    1    1    2    0    0 -0.40517776827E+01  0.28479977872E+00  0.14745460323E+04  0.14745855348E+04  0.10000000000E+02 0.  1.
</event>
<event>
 5    1  0.1072898E-008  0.3832786E+03  0.7957747E-01  0.3437006E+00
         13   -1    0    0    0    0  0.00000000000E+00  0.00000000000E+00  0.14999999963E+04  0.15000000000E+04  0.10566000000E+00 0.  1.
        994   -1    0    0    0    0 -0.00000000000E+00 -0.00000000000E+00  0.11368683772E-12  0.17120000000E+03  0.17120000000E+03 0.  0.
         13    1    1    2    0    0 -0.51141295661E+01  0.15491129123E+02  0.53026730306E+02  0.55479497959E+02  0.10566000000E+00 0.  1.
        994    1    1    2    0    0  0.25162807018E+01 -0.95259496803E+01  0.28083154591E+01  0.17150627400E+03  0.17120000000E+03 0.  0.
        998    1    1    2    0    0  0.25978488643E+01 -0.59651794425E+01  0.14441649505E+04  0.14442142280E+04  0.10000000000E+02 0.  1.
</event>
<event>
 5    1  0.1072898E-008  0.3730836E+03  0.7957747E-01  0.3481838E+00
         13   -1    0    0    0    0  0.00000000000E+00  0.00000000000E+00  0.14999999963E+04  0.15000000000E+04  0.10566000000E+00 0.  1.
        994   -1    0    0    0    0 -0.00000000000E+00 -0.00000000000E+00  0.11368683772E-12  0.17120000000E+03  0.17120000000E+03 0.  0.
         13    1    1    2    0    0 -0.49924492576E+02  0.44603476681E+02  0.36454180794E+03  0.37063818744E+03  0.10566000000E+00 0.  1.
        994    1    1    2    0    0  0.17413524348E+02  0.27433507269E+01  0.87300423385E+01  0.17232646472E+03  0.17120000000E+03 0.  0.
        998    1    1    2    0    0  0.32510968228E+02 -0.47346827408E+02  0.11267281460E+04  0.11282353478E+04  0.10000000000E+02 0.  1.
</event>
<event>
 5    1  0.1072898E-008  0.3841163E+03  0.7957747E-01  0.3433429E+00
         13   -1    0    0    0    0  0.00000000000E+00  0.00000000000E+00  0.14999999963E+04  0.15000000000E+04  0.10566000000E+00 0.  1.
        994   -1    0    0    0    0 -0.00000000000E+00 -0.00000000000E+00  0.11368683772E-12  0.17120000000E+03  0.17120000000E+03 0.  0.
         13    1    1    2    0    0 -0.72695699867E+01 -0.18582441717E+02  0.10939622557E+03  0.11120116510E+03  0.10566000000E+00 0.  1.
        994    1    1    2    0    0 -0.86273539856E+01 -0.19245646574E+01  0.23272433346E+01  0.17144384284E+03  0.17120000000E+03 0.  0.
        998    1    1    2    0    0  0.15896923972E+02  0.20507006374E+02  0.13882765274E+04  0.13885549921E+04  0.10000000000E+02 0.  1.
</event>
<event>
 5    1  0.1072898E-008  0.3854371E+03  0.7957747E-01  0.3427821E+00
         13   -1    0    0    0    0  0.00000000000E+00  0.00000000000E+00  0.14999999963E+04  0.15000000000E+04  0.10566000000E+00 0. -1.
        994   -1    0    0    0    0 -0.00000000000E+00 -0.00000000000E+00  0.11368683772E-12  0.17120000000E+03  0.17120000000E+03 0.  0.
         13    1    1    2    0    0  0.85589005172E+01 -0.54660005363E+01  0.37133244290E+02  0.38497025021E+02  0.10566000000E+00 0. -1.
        994    1    1    2    0    0 -0.79121579584E+01 -0.53427041210E+01  0.17126618422E+01  0.17147454605E+03  0.17120000000E+03 0.  0.
        998    1    1    2    0    0 -0.64674255880E+00  0.10808704657E+02  0.14611540901E+04  0.14612284289E+04  0.10000000000E+02 0. -1.
</event>
<event>
 5    1  0.1072898E-008  0.3729467E+03  0.7957747E-01  0.3482457E+00
         13   -1    0    0    0    0  0.00000000000E+00  0.00000000000E+00  0.14999999963E+04  0.15000000000E+04  0.10566000000E+00 0.  1.
        994   -1    0    0    0    0 -0.00000000000E+00 -0.00000000000E+00  0.11368683772E-12  0.17120000000E+03  0.17120000000E+03 0.  0.
         13    1    1    2    0    0  0.26525956733E+02 -0.33750632461E+02  0.13311878477E+03  0.13986905874E+03  0.10566000000E+00 0.  1.
        994    1    1    2    0    0  0.29939286615E+02  0.20623546861E+02  0.12274438967E+02  0.17544740927E+03  0.17120000000E+03 0.  0.
        998    1    1    2    0    0 -0.56465243348E+02  0.13127085600E+02  0.13546067725E+04  0.13558835320E+04  0.10000000000E+02 0.  1.
</event>
<event>
 5    1  0.1072898E-008  0.3845316E+03  0.7957747E-01  0.3431661E+00
         13   -1    0    0    0    0  0.00000000000E+00  0.00000000000E+00  0.14999999963E+04  0.15000000000E+04  0.10566000000E+00 0.  1.
        994   -1    0    0    0    0 -0.00000000000E+00 -0.00000000000E+00  0.11368683772E-12  0.17120000000E+03  0.17120000000E+03 0.  0.
         13    1    1    2    0    0 -0.17630580590E+02 -0.37874094274E+01  0.73686619313E+02  0.75861128860E+02  0.10566000000E+00 0.  1.
        994    1    1    2    0    0  0.40535616512E+02 -0.34726742564E+01  0.73336242320E+01  0.17612046365E+03  0.17120000000E+03 0.  0.
        998    1    1    2    0    0 -0.22905035921E+02  0.72600836838E+01  0.14189797527E+04  0.14192184075E+04  0.10000000000E+02 0.  1.
</event>
<event>
 5    1  0.1072898E-008  0.3858509E+03  0.7957747E-01  0.3426071E+00
         13   -1    0    0    0    0  0.00000000000E+00  0.00000000000E+00  0.14999999963E+04  0.15000000000E+04  0.10566000000E+00 0. -1.
        994   -1    0    0    0    0 -0.00000000000E+00 -0.00000000000E+00  0.11368683772E-12  0.17120000000E+03  0.17120000000E+03 0.  0.
         13    1    1    2    0    0  0.10088726087E+02  0.84806010867E+00  0.42995973092E+02  0.44172009986E+02  0.10566000000E+00 0. -1.
        994    1    1    2    0    0 -0.57371695226E+01 -0.37535106825E+01  0.13624252637E+01  0.17134263964E+03  0.17120000000E+03 0.  0.
        998    1    1    2    0    0 -0.43515565645E+01  0.29054505739E+01  0.14556415979E+04  0.14556853504E+04  0.10000000000E+02 0. -1.
</event>
<event>
 5    1  0.1072898E-008  0.3788914E+03  0.7957747E-01  0.3456000E+00
         13   -1    0    0    0    0  0.00000000000E+00  0.00000000000E+00  0.14999999963E+04  0.15000000000E+04  0.10566000000E+00 0.  1.
        994   -1    0    0    0    0 -0.00000000000E+00 -0.00000000000E+00  0.11368683772E-12  0.17120000000E+03  0.17120000000E+03 0.  0.
         13    1    1    2    0    0 -0.11694008302E+02  0.24931993141E+02  0.88276387025E+02  0.92472081097E+02  0.10566000000E+00 0.  1.
        994    1    1    2    0    0 -0.83203806058E+00  0.68467899729E+01  0.48534389821E+01  0.17140760395E+03  0.17120000000E+03 0.  0.
        998    1    1    2    0    0  0.12526046362E+02 -0.31778783114E+02  0.14068701703E+04  0.14073203150E+04  0.10000000000E+02 0.  1.
</event>
<event>
 5    1  0.1072898E-008  0.3899701E+03  0.7957747E-01  0.3408863E+00
         13   -1    0    0    0    0  0.00000000000E+00  0.00000000000E+00  0.14999999963E+04  0.15000000000E+04  0.10566000000E+00 0. -1.
        994   -1    0    0    0    0 -0.00000000000E+00 -0.00000000000E+00  0.11368683772E-12  0.17120000000E+03  0.17120000000E+03 0.  0.
         13    1    1    2    0    0  0.17387169548E+02  0.61896909985E+02  0.85009720562E+02  0.10658426190E+03  0.10566000000E+00 0. -1.
        994    1    1    2    0    0 -0.23785684114E+01 -0.55280085336E+02  0.33524080896E+02  0.18301598133E+03  0.17120000000E+03 0.  0.
        998    1    1    2    0    0 -0.15008601136E+02 -0.66168246491E+01  0.13814661948E+04  0.13815997568E+04  0.10000000000E+02 0. -1.
</event>
<event>
 5    1  0.1072898E-008  0.3841217E+03  0.7957747E-01  0.3433406E+00
         13   -1    0    0    0    0  0.00000000000E+00  0.00000000000E+00  0.14999999963E+04  0.15000000000E+04  0.10566000000E+00 0. -1.
        994   -1    0    0    0    0 -0.00000000000E+00 -0.00000000000E+00  0.11368683772E-12  0.17120000000E+03  0.17120000000E+03 0.  0.
         13    1    1    2    0    0  0.18084729921E+02 -0.11367242192E+02  0.11735048044E+03  0.11927874108E+03  0.10566000000E+00 0. -1.
        994    1    1    2    0    0 -0.51191825613E+01  0.10903194262E+01  0.21571813093E+01  0.17129357331E+03  0.17120000000E+03 0.  0.
        998    1    1    2    0    0 -0.12965547360E+02  0.10276922766E+02  0.13804923345E+04  0.13806276856E+04  0.10000000000E+02 0. -1.
</event>
<event>
 5    1  0.1072898E-008  0.3833797E+03  0.7957747E-01  0.3436573E+00
         13   -1    0    0    0    0  0.00000000000E+00  0.00000000000E+00  0.14999999963E+04  0.15000000000E+04  0.10566000000E+00 0. -1.
        994   -1    0    0    0    0 -0.00000000000E+00 -0.00000000000E+00  0.11368683772E-12  0.17120000000E+03  0.17120000000E+03 0.  0.
         13    1    1    2    0    0  0.10766454561E+02  0.23455867899E+01  0.24028151305E+02  0.26434476359E+02  0.10566000000E+00 0. -1.
        994    1    1    2    0    0 -0.87491224059E+01  0.11436490086E+01  0.26941710829E+01  0.17144839933E+03  0.17120000000E+03 0.  0.
        998    1    1    2    0    0 -0.20173321548E+01 -0.34892357985E+01  0.14732776739E+04  0.14733171243E+04  0.10000000000E+02 0. -1.
</event>
<event>
 5    1  0.1072898E-008  0.3817607E+03  0.7957747E-01  0.3443528E+00
         13   -1    0    0    0    0  0.00000000000E+00  0.00000000000E+00  0.14999999963E+04  0.15000000000E+04  0.10566000000E+00 0.  1.
        994   -1    0    0    0    0 -0.00000000000E+00 -0.00000000000E+00  0.11368683772E-12  0.17120000000E+03  0.17120000000E+03 0.  0.
         13    1    1    2    0    0 -0.10374914549E+02 -0.36235332520E+01  0.17027307395E+02  0.20265961766E+02  0.10566000000E+00 0.  1.
        994    1    1    2    0    0  0.11607741137E+02  0.62053761233E+01  0.38230056510E+01  0.17174778519E+03  0.17120000000E+03 0.  0.
        998    1    1    2    0    0 -0.12328265878E+01 -0.25818428713E+01  0.14791496832E+04  0.14791862530E+04  0.10000000000E+02 0.  1.
</event>
<event>
 5    1  0.1072898E-008  0.3696082E+03  0.7957747E-01  0.3497694E+00
         13   -1    0    0    0    0  0.00000000000E+00  0.00000000000E+00  0.14999999963E+04  0.15000000000E+04  0.10566000000E+00 0. -1.
        994   -1    0    0    0    0 -0.00000000000E+00 -0.00000000000E+00  0.11368683772E-12  0.17120000000E+03  0.17120000000E+03 0.  0.
         13    1    1    2    0    0  0.32173181009E+02  0.48080925720E+02  0.15192502295E+03  0.16256725610E+03  0.10566000000E+00 0. -1.
        994    1    1    2    0    0 -0.14076003476E+02 -0.33869234015E+02  0.15442957000E+02  0.17576456926E+03  0.17120000000E+03 0.  0.
        998    1    1    2    0    0 -0.18097177533E+02 -0.14211691705E+02  0.13326320163E+04  0.13328681746E+04  0.10000000000E+02 0.  1.
</event>
<event>
 5    1  0.1072898E-008  0.3781792E+03  0.7957747E-01  0.3459125E+00
         13   -1    0    0    0    0  0.00000000000E+00  0.00000000000E+00  0.14999999963E+04  0.15000000000E+04  0.10566000000E+00 0. -1.
        994   -1    0    0    0    0 -0.00000000000E+00 -0.00000000000E+00  0.11368683772E-12  0.17120000000E+03  0.17120000000E+03 0.  0.
         13    1    1    2    0    0  0.45902859356E+02  0.29014042938E+02  0.24561179413E+03  0.25154333973E+03  0.10566000000E+00 0. -1.
        994    1    1    2    0    0 -0.44096020475E+02 -0.30342617810E+02  0.14752242256E+02  0.17997833794E+03  0.17120000000E+03 0.  0.
        998    1    1    2    0    0 -0.18068388812E+01  0.13285748723E+01  0.12396359599E+04  0.12396783223E+04  0.10000000000E+02 0.  0.
</event>
<event>
 5    1  0.1072898E-008  0.3747776E+03  0.7957747E-01  0.3474218E+00
         13   -1    0    0    0    0  0.00000000000E+00  0.00000000000E+00  0.14999999963E+04  0.15000000000E+04  0.10566000000E+00 0. -1.
        994   -1    0    0    0    0 -0.00000000000E+00 -0.00000000000E+00  0.11368683772E-12  0.17120000000E+03  0.17120000000E+03 0.  0.
         13    1    1    2    0    0  0.61527887735E+02 -0.79057461558E+01  0.28700113356E+03  0.29362875135E+03  0.10566000000E+00 0. -1.
        994    1    1    2    0    0 -0.33641607867E+02 -0.50869223490E+01  0.10741114171E+02  0.17487837514E+03  0.17120000000E+03 0.  0.
        998    1    1    2    0    0 -0.27886279869E+02  0.12992668505E+02  0.12022577485E+04  0.12026928735E+04  0.10000000000E+02 0. -1.
</event>
<event>
 5    1  0.1072898E-008  0.3848377E+03  0.7957747E-01  0.3430361E+00
         13   -1    0    0    0    0  0.00000000000E+00  0.00000000000E+00  0.14999999963E+04  0.15000000000E+04  0.10566000000E+00 0.  1.
        994   -1    0    0    0    0 -0.00000000000E+00 -0.00000000000E+00  0.11368683772E-12  0.17120000000E+03  0.17120000000E+03 0.  0.
         13    1    1    2    0    0 -0.62227214338E+01  0.12411235529E+02  0.62026961520E+02  0.63561908002E+02  0.10566000000E+00 0.  1.
        994    1    1    2    0    0 -0.78107196182E+01  0.35495142942E+01  0.19529796317E+01  0.17142596222E+03  0.17120000000E+03 0.  0.
        998    1    1    2    0    0  0.14033441052E+02 -0.15960749823E+02  0.14360200551E+04  0.14362121298E+04  0.10000000000E+02 0.  1.
</event>
<event>
 5    1  0.1072898E-008  0.3856552E+03  0.7957747E-01  0.3426898E+00
         13   -1    0    0    0    0  0.00000000000E+00  0.00000000000E+00  0.14999999963E+04  0.15000000000E+04  0.10566000000E+00 0. -1.
        994   -1    0    0    0    0 -0.00000000000E+00 -0.00000000000E+00  0.11368683772E-12  0.17120000000E+03  0.17120000000E+03 0.  0.
         13    1    1    2    0    0 -0.84420390394E+01  0.96132737349E+01  0.62385734949E+02  0.63684174991E+02  0.10566000000E+00 0. -1.
        994    1    1    2    0    0  0.81320261364E+01 -0.64984359253E+01  0.16608877244E+01  0.17152422006E+03  0.17120000000E+03 0.  0.
        998    1    1    2    0    0  0.31001290295E+00 -0.31148378096E+01  0.14359533736E+04  0.14359916050E+04  0.10000000000E+02 0. -1.
</event>
<event>
 5    1  0.1072898E-008  0.3789830E+03  0.7957747E-01  0.3455599E+00
         13   -1    0    0    0    0  0.00000000000E+00  0.00000000000E+00  0.14999999963E+04  0.15000000000E+04  0.10566000000E+00 0.  1.
        994   -1    0    0    0    0 -0.00000000000E+00 -0.00000000000E+00  0.11368683772E-12  0.17120000000E+03  0.17120000000E+03 0.  0.
         13    1    1    2    0    0  0.23302872692E+02 -0.13709438307E+02  0.89010642693E+02  0.93026223459E+02  0.10566000000E+00 0.  1.
        994    1    1    2    0    0  0.26134904562E+02  0.17718861265E+02  0.79987639931E+01  0.17427108626E+03  0.17120000000E+03 0.  0.
        998    1    1    2    0    0 -0.49437777253E+02 -0.40094229585E+01  0.14029905896E+04  0.14039026903E+04  0.10000000000E+02 0.  1.
</event>
<event>
 5    1  0.1072898E-008  0.3742484E+03  0.7957747E-01  0.3476591E+00
         13   -1    0    0    0    0  0.00000000000E+00  0.00000000000E+00  0.14999999963E+04  0.15000000000E+04  0.10566000000E+00 0. -1.
        994   -1    0    0    0    0 -0.00000000000E+00 -0.00000000000E+00  0.11368683772E-12  0.17120000000E+03  0.17120000000E+03 0.  0.
         13    1    1    2    0    0  0.36260136460E+02  0.33296451732E+02  0.16558979560E+03  0.17275254778E+03  0.10566000000E+00 0. -1.
        994    1    1    2    0    0 -0.30244724036E+02 -0.15916364695E+02  0.11056172856E+02  0.17492785071E+03  0.17120000000E+03 0.  0.
        998    1    1    2    0    0 -0.60154124243E+01 -0.17380087037E+02  0.13233540278E+04  0.13235196015E+04  0.10000000000E+02 0. -1.
</event>
<event>
 5    1  0.1072898E-008  0.3851428E+03  0.7957747E-01  0.3429067E+00
         13   -1    0    0    0    0  0.00000000000E+00  0.00000000000E+00  0.14999999963E+04  0.15000000000E+04  0.10566000000E+00 0. -1.
        994   -1    0    0    0    0 -0.00000000000E+00 -0.00000000000E+00  0.11368683772E-12  0.17120000000E+03  0.17120000000E+03 0.  0.
         13    1    1    2    0    0  0.10423927893E+02 -0.18945166899E+01  0.34949460964E+02  0.36520178695E+02  0.10566000000E+00 0. -1.
        994    1    1    2    0    0 -0.12006012895E+02  0.49144235166E+01  0.21126764717E+01  0.17170381273E+03  0.17120000000E+03 0.  0.
        998    1    1    2    0    0  0.15820850023E+01 -0.30199068268E+01  0.14629378588E+04  0.14629760086E+04  0.10000000000E+02 0. -1.
</event>
<event>
 5    1  0.1072898E-008  0.3813940E+03  0.7957747E-01  0.3445111E+00
         13   -1    0    0    0    0  0.00000000000E+00  0.00000000000E+00  0.14999999963E+04  0.15000000000E+04  0.10566000000E+00 0. -1.
        994   -1    0    0    0    0 -0.00000000000E+00 -0.00000000000E+00  0.11368683772E-12  0.17120000000E+03  0.17120000000E+03 0.  0.
         13    1    1    2    0    0 -0.98752724270E+01 -0.14356758885E+02  0.42507590848E+02  0.45940657101E+02  0.10566000000E+00 0. -1.
        994    1    1    2    0    0  0.97871014236E+01  0.11066311635E+02  0.41577175013E+01  0.17188652426E+03  0.17120000000E+03 0.  0.
        998    1    1    2    0    0  0.88171003449E-01  0.32904472493E+01  0.14533346879E+04  0.14533728186E+04  0.10000000000E+02 0. -1.
</event>
<event>
 5    1  0.1072898E-008  0.3826765E+03  0.7957747E-01  0.3439587E+00
         13   -1    0    0    0    0  0.00000000000E+00  0.00000000000E+00  0.14999999963E+04  0.15000000000E+04  0.10566000000E+00 0. -1.
        994   -1    0    0    0    0 -0.00000000000E+00 -0.00000000000E+00  0.11368683772E-12  0.17120000000E+03  0.17120000000E+03 0.  0.
         13    1    1    2    0    0  0.10319686451E+02  0.70892090663E+01  0.26643266380E+02  0.29438539724E+02  0.10566000000E+00 0. -1.
        994    1    1    2    0    0 -0.12558521932E+02 -0.60362866815E+01  0.34317452635E+01  0.17180037865E+03  0.17120000000E+03 0.  0.
        998    1    1    2    0    0  0.22388354811E+01 -0.10529223848E+01  0.14699249846E+04  0.14699610816E+04  0.10000000000E+02 0. -1.
</event>
<event>
 5    1  0.1708059E-008  0.3845420E+03  0.7957747E-01  0.3431617E+00
         13   -1    0    0    0    0  0.00000000000E+00  0.00000000000E+00  0.14999999963E+04  0.15000000000E+04  0.10566000000E+00 0.  1.
        994   -1    0    0    0    0 -0.00000000000E+00 -0.00000000000E+00  0.11368683772E-12  0.17120000000E+03  0.17120000000E+03 0.  0.
         13    1    1    2    0    0  0.10754673046E+02 -0.88733576165E+00  0.30673909077E+02  0.32516922043E+02  0.10566000000E+00 0.  1.
        994    1    1    2    0    0 -0.94408194330E+01  0.38748718217E+00  0.21518104462E+01  0.17147404907E+03  0.17120000000E+03 0.  0.
        998    1    1    2    0    0 -0.13138536126E+01  0.49984857947E+00  0.14671742768E+04  0.14672090289E+04  0.10000000000E+02 0.  1.
</event>
<event>
 5    1  0.1072898E-008  0.3829581E+03  0.7957747E-01  0.3438379E+00
         13   -1    0    0    0    0  0.00000000000E+00  0.00000000000E+00  0.14999999963E+04  0.15000000000E+04  0.10566000000E+00 0. -1.
        994   -1    0    0    0    0 -0.00000000000E+00 -0.00000000000E+00  0.11368683772E-12  0.17120000000E+03  0.17120000000E+03 0.  0.
         13    1    1    2    0    0  0.20376853159E+02  0.98459360557E+01  0.96801547871E+02  0.99411817385E+02  0.10566000000E+00 0. -1.
        994    1    1    2    0    0 -0.93518991808E+01 -0.98408231848E+01  0.32577021309E+01  0.17176831036E+03  0.17120000000E+03 0.  0.
        998    1    1    2    0    0 -0.11024953978E+02 -0.51128708498E-02  0.13999407463E+04  0.14000198723E+04  0.10000000000E+02 0. -1.
</event>
<event>
 5    1  0.1072898E-008  0.3757752E+03  0.7957747E-01  0.3469763E+00
         13   -1    0    0    0    0  0.00000000000E+00  0.00000000000E+00  0.14999999963E+04  0.15000000000E+04  0.10566000000E+00 0. -1.
        994   -1    0    0    0    0 -0.00000000000E+00 -0.00000000000E+00  0.11368683772E-12  0.17120000000E+03  0.17120000000E+03 0.  0.
         13    1    1    2    0    0 -0.97779383749E+02 -0.55681575512E+02  0.47928211878E+03  0.49231352437E+03  0.10566000000E+00 0. -1.
        994    1    1    2    0    0  0.32701505186E+02  0.61250672023E+02  0.31435395433E+02  0.18739972612E+03  0.17120000000E+03 0.  0.
        998    1    1    2    0    0  0.65077878563E+02 -0.55690965113E+01  0.98928248207E+03  0.99148674950E+03  0.10000000000E+02 0.  1.
</event>
<event>
 5    1  0.1072898E-008  0.3759837E+03  0.7957747E-01  0.3468835E+00
         13   -1    0    0    0    0  0.00000000000E+00  0.00000000000E+00  0.14999999963E+04  0.15000000000E+04  0.10566000000E+00 0. -1.
        994   -1    0    0    0    0 -0.00000000000E+00 -0.00000000000E+00  0.11368683772E-12  0.17120000000E+03  0.17120000000E+03 0.  0.
         13    1    1    2    0    0  0.17085741288E+02  0.23973053394E+02  0.71397591089E+02  0.77228602355E+02  0.10566000000E+00 0. -1.
        994    1    1    2    0    0 -0.10516037865E+02  0.10750609524E+01  0.65530927212E+01  0.17165117487E+03  0.17120000000E+03 0.  0.
        998    1    1    2    0    0 -0.65697034222E+01 -0.25048114347E+02  0.14220493125E+04  0.14223202228E+04  0.10000000000E+02 0. -1.
</event>
<event>
 5    1  0.1072898E-008  0.3766599E+03  0.7957747E-01  0.3465832E+00
         13   -1    0    0    0    0  0.00000000000E+00  0.00000000000E+00  0.14999999963E+04  0.15000000000E+04  0.10566000000E+00 0. -1.
        994   -1    0    0    0    0 -0.00000000000E+00 -0.00000000000E+00  0.11368683772E-12  0.17120000000E+03  0.17120000000E+03 0.  0.
         13    1    1    2    0    0 -0.23676781232E+02  0.37358630956E+02  0.19562830652E+03  0.20056595611E+03  0.10566000000E+00 0. -1.
        994    1    1    2    0    0  0.54529974966E+01  0.34128302347E+01  0.59686904333E+01  0.17142475859E+03  0.17120000000E+03 0.  0.
        998    1    1    2    0    0  0.18223783735E+02 -0.40771461190E+02  0.12984029993E+04  0.12992092853E+04  0.10000000000E+02 0. -1.
</event>
<event>
 5    1  0.1072898E-008  0.3818893E+03  0.7957747E-01  0.3442973E+00
         13   -1    0    0    0    0  0.00000000000E+00  0.00000000000E+00  0.14999999963E+04  0.15000000000E+04  0.10566000000E+00 0.  1.
        994   -1    0    0    0    0 -0.00000000000E+00 -0.00000000000E+00  0.11368683772E-12  0.17120000000E+03  0.17120000000E+03 0.  0.
         13    1    1    2    0    0 -0.16465264851E+02 -0.57337924660E+01  0.46796825598E+02  0.49939316903E+02  0.10566000000E+00 0.  1.
        994    1    1    2    0    0  0.93603776717E+01  0.58532771437E+01  0.35874819185E+01  0.17159308713E+03  0.17120000000E+03 0.  0.
        998    1    1    2    0    0  0.71048871788E+01 -0.11948467770E+00  0.14496156888E+04  0.14496675960E+04  0.10000000000E+02 0.  1.
</event>
<event>
 5    1  0.1072898E-008  0.3848315E+03  0.7957747E-01  0.3430387E+00
         13   -1    0    0    0    0  0.00000000000E+00  0.00000000000E+00  0.14999999963E+04  0.15000000000E+04  0.10566000000E+00 0. -1.
        994   -1    0    0    0    0 -0.00000000000E+00 -0.00000000000E+00  0.11368683772E-12  0.17120000000E+03  0.17120000000E+03 0.  0.
         13    1    1    2    0    0  0.21856980907E+02 -0.73318178801E+01  0.13722939219E+03  0.13915243588E+03  0.10566000000E+00 0. -1.
        994    1    1    2    0    0 -0.27702260879E+02  0.53230715046E+01  0.43365649723E+01  0.17356265769E+03  0.17120000000E+03 0.  0.
        998    1    1    2    0    0  0.58452799716E+01  0.20087463756E+01  0.13584340391E+04  0.13584849064E+04  0.10000000000E+02 0. -1.
</event>
<event>
 5    1  0.1072898E-008  0.3724507E+03  0.7957747E-01  0.3484703E+00
         13   -1    0    0    0    0  0.00000000000E+00  0.00000000000E+00  0.14999999963E+04  0.15000000000E+04  0.10566000000E+00 0.  1.
        994   -1    0    0    0    0 -0.00000000000E+00 -0.00000000000E+00  0.11368683772E-12  0.17120000000E+03  0.17120000000E+03 0.  0.
         13    1    1    2    0    0 -0.15728733343E+02  0.47665318055E+01  0.13138144944E+02  0.21041266470E+02  0.10566000000E+00 0.  1.
        994    1    1    2    0    0  0.21132849590E+02  0.30325733941E+01  0.95580281113E+01  0.17279059504E+03  0.17120000000E+03 0.  0.
        998    1    1    2    0    0 -0.54041162471E+01 -0.77991051996E+01  0.14773038232E+04  0.14773681385E+04  0.10000000000E+02 0.  1.
</event>
<event>
 5    1  0.1072898E-008  0.3724387E+03  0.7957747E-01  0.3484758E+00
         13   -1    0    0    0    0  0.00000000000E+00  0.00000000000E+00  0.14999999963E+04  0.15000000000E+04  0.10566000000E+00 0. -1.
        994   -1    0    0    0    0 -0.00000000000E+00 -0.00000000000E+00  0.11368683772E-12  0.17120000000E+03  0.17120000000E+03 0.  0.
         13    1    1    2    0    0  0.27104564605E+02  0.28776629219E+02  0.85043409635E+02  0.93782431713E+02  0.10566000000E+00 0. -1.
        994    1    1    2    0    0 -0.37319684438E+02 -0.39298768961E+02  0.18138949304E+02  0.18048715625E+03  0.17120000000E+03 0.  0.
        998    1    1    2    0    0  0.10215119833E+02  0.10522139742E+02  0.13968176373E+04  0.13969304120E+04  0.10000000000E+02 0. -1.
</event>
<event>
 5    1  0.1163940E-008  0.3844438E+03  0.7957747E-01  0.3432035E+00
         13   -1    0    0    0    0  0.00000000000E+00  0.00000000000E+00  0.14999999963E+04  0.15000000000E+04  0.10566000000E+00 0. -1.
        994   -1    0    0    0    0 -0.00000000000E+00 -0.00000000000E+00  0.11368683772E-12  0.17120000000E+03  0.17120000000E+03 0.  0.
         13    1    1    2    0    0  0.12393628572E+02  0.18517888781E+01  0.40239174313E+02  0.42145384856E+02  0.10566000000E+00 0. -1.
        994    1    1    2    0    0 -0.11344881344E+02 -0.21414220236E+01  0.23457997176E+01  0.17160487988E+03  0.17120000000E+03 0.  0.
        998    1    1    2    0    0 -0.10487472281E+01  0.28963314545E+00  0.14574150222E+04  0.14574497353E+04  0.10000000000E+02 0. -1.
</event>
<event>
 5    1  0.1072898E-008  0.3704578E+03  0.7957747E-01  0.3493790E+00
         13   -1    0    0    0    0  0.00000000000E+00  0.00000000000E+00  0.14999999963E+04  0.15000000000E+04  0.10566000000E+00 0. -1.
        994   -1    0    0    0    0 -0.00000000000E+00 -0.00000000000E+00  0.11368683772E-12  0.17120000000E+03  0.17120000000E+03 0.  0.
         13    1    1    2    0    0  0.51453315642E+01  0.11807731324E+03  0.46501841269E+03  0.47980294042E+03  0.10566000000E+00 0. -1.
        994    1    1    2    0    0 -0.17251473904E+02 -0.12827983042E+03  0.69299044000E+02  0.22553298150E+03  0.17120000000E+03 0.  0.
        998    1    1    2    0    0  0.12106142340E+02  0.10202517185E+02  0.96568253959E+03  0.96586407807E+03  0.10000000000E+02 0. -1.
</event>
<event>
 5    1  0.1072898E-008  0.3832060E+03  0.7957747E-01  0.3437317E+00
         13   -1    0    0    0    0  0.00000000000E+00  0.00000000000E+00  0.14999999963E+04  0.15000000000E+04  0.10566000000E+00 0.  1.
        994   -1    0    0    0    0 -0.00000000000E+00 -0.00000000000E+00  0.11368683772E-12  0.17120000000E+03  0.17120000000E+03 0.  0.
         13    1    1    2    0    0  0.28294777154E+02  0.15137555062E+02  0.19043805899E+03  0.19312277304E+03  0.10566000000E+00 0.  1.
        994    1    1    2    0    0 -0.25867590860E+02 -0.71888912994E+01  0.49114817955E+01  0.17336197700E+03  0.17120000000E+03 0.  0.
        998    1    1    2    0    0 -0.24271862945E+01 -0.79486637630E+01  0.13046504555E+04  0.13047152500E+04  0.10000000000E+02 0.  1.
</event>
<event>
 5    1  0.1072898E-008  0.3763730E+03  0.7957747E-01  0.3467105E+00
         13   -1    0    0    0    0  0.00000000000E+00  0.00000000000E+00  0.14999999963E+04  0.15000000000E+04  0.10566000000E+00 0. -1.
        994   -1    0    0    0    0 -0.00000000000E+00 -0.00000000000E+00  0.11368683772E-12  0.17120000000E+03  0.17120000000E+03 0.  0.
         13    1    1    2    0    0  0.35581957834E+02 -0.23249219615E+02  0.16886625835E+03  0.17413335783E+03  0.10566000000E+00 0. -1.
        994    1    1    2    0    0 -0.14493198134E+00  0.64225006402E+01  0.61149885773E+01  0.17142958498E+03  0.17120000000E+03 0.  0.
        998    1    1    2    0    0 -0.35437025853E+02  0.16826718975E+02  0.13250187494E+04  0.13256370572E+04  0.10000000000E+02 0. -1.
</event>
<event>
 5    1  0.1072898E-008  0.3785205E+03  0.7957747E-01  0.3457626E+00
         13   -1    0    0    0    0  0.00000000000E+00  0.00000000000E+00  0.14999999963E+04  0.15000000000E+04  0.10566000000E+00 0.  1.
        994   -1    0    0    0    0 -0.00000000000E+00 -0.00000000000E+00  0.11368683772E-12  0.17120000000E+03  0.17120000000E+03 0.  0.
         13    1    1    2    0    0 -0.19788772384E+02  0.92103763366E+01  0.50960288670E+02  0.55438152297E+02  0.10566000000E+00 0.  1.
        994    1    1    2    0    0 -0.68770131622E+01  0.63355174372E+01  0.51756298532E+01  0.17153325985E+03  0.17120000000E+03 0.  0.
        998    1    1    2    0    0  0.26665785547E+02 -0.15545893774E+02  0.14438640778E+04  0.14442285879E+04  0.10000000000E+02 0.  1.
</event>
<event>
 5    1  0.1072898E-008  0.3837886E+03  0.7957747E-01  0.3434826E+00
         13   -1    0    0    0    0  0.00000000000E+00  0.00000000000E+00  0.14999999963E+04  0.15000000000E+04  0.10566000000E+00 0.  1.
        994   -1    0    0    0    0 -0.00000000000E+00 -0.00000000000E+00  0.11368683772E-12  0.17120000000E+03  0.17120000000E+03 0.  0.
         13    1    1    2    0    0 -0.91556035828E+01 -0.19537621223E+02  0.11563155946E+03  0.11762743059E+03  0.10566000000E+00 0.  1.
        994    1    1    2    0    0  0.46495639189E+01 -0.33790208976E+01  0.23418374879E+01  0.17131246432E+03  0.17120000000E+03 0.  0.
        998    1    1    2    0    0  0.45060396639E+01  0.22916642121E+02  0.13820265993E+04  0.13822601051E+04  0.10000000000E+02 0.  1.
</event>
<event>
 5    1  0.1072898E-008  0.3858794E+03  0.7957747E-01  0.3425951E+00
         13   -1    0    0    0    0  0.00000000000E+00  0.00000000000E+00  0.14999999963E+04  0.15000000000E+04  0.10566000000E+00 0.  1.
        994   -1    0    0    0    0 -0.00000000000E+00 -0.00000000000E+00  0.11368683772E-12  0.17120000000E+03  0.17120000000E+03 0.  0.
         13    1    1    2    0    0 -0.51661289319E+01  0.12255210216E+02  0.79969254147E+02  0.81067699107E+02  0.10566000000E+00 0.  1.
        994    1    1    2    0    0  0.48184162426E+01  0.12843731758E+01  0.12756887879E+01  0.17127736024E+03  0.17120000000E+03 0.  0.
        998    1    1    2    0    0  0.34771268926E+00 -0.13539583392E+02  0.14187550533E+04  0.14188549407E+04  0.10000000000E+02 0.  1.
</event>
<event>
 5    1  0.1072898E-008  0.3817364E+03  0.7957747E-01  0.3443633E+00
         13   -1    0    0    0    0  0.00000000000E+00  0.00000000000E+00  0.14999999963E+04  0.15000000000E+04  0.10566000000E+00 0. -1.
        994   -1    0    0    0    0 -0.00000000000E+00 -0.00000000000E+00  0.11368683772E-12  0.17120000000E+03  0.17120000000E+03 0.  0.
         13    1    1    2    0    0  0.49870140605E+01  0.39070738667E+02  0.22531729972E+03  0.22873410250E+03  0.10566000000E+00 0. -1.
        994    1    1    2    0    0  0.61368463145E+01 -0.29614820282E+02  0.63054585921E+01  0.17396521857E+03  0.17120000000E+03 0.  0.
        998    1    1    2    0    0 -0.11123860375E+02 -0.94559183851E+01  0.12683772380E+04  0.12685006789E+04  0.10000000000E+02 0. -1.
</event>
<event>
 5    1  0.1072898E-008  0.3825465E+03  0.7957747E-01  0.3440145E+00
         13   -1    0    0    0    0  0.00000000000E+00  0.00000000000E+00  0.14999999963E+04  0.15000000000E+04  0.10566000000E+00 0. -1.
        994   -1    0    0    0    0 -0.00000000000E+00 -0.00000000000E+00  0.11368683772E-12  0.17120000000E+03  0.17120000000E+03 0.  0.
         13    1    1    2    0    0 -0.95711523146E+01  0.29172891265E+01  0.16434623321E+02  0.19241245808E+02  0.10566000000E+00 0. -1.
        994    1    1    2    0    0  0.58205778288E+01 -0.35953166668E+01  0.30083470677E+01  0.17136305197E+03  0.17120000000E+03 0.  0.
        998    1    1    2    0    0  0.37505744858E+01  0.67802754034E+00  0.14805570259E+04  0.14805957022E+04  0.10000000000E+02 0. -1.
</event>
<event>
 5    1  0.1072898E-008  0.3844857E+03  0.7957747E-01  0.3431856E+00
         13   -1    0    0    0    0  0.00000000000E+00  0.00000000000E+00  0.14999999963E+04  0.15000000000E+04  0.10566000000E+00 0.  1.
        994   -1    0    0    0    0 -0.00000000000E+00 -0.00000000000E+00  0.11368683772E-12  0.17120000000E+03  0.17120000000E+03 0.  0.
         13    1    1    2    0    0 -0.11950511265E+02 -0.36950654788E+01  0.40487502195E+02  0.42375903841E+02  0.10566000000E+00 0.  1.
        994    1    1    2    0    0  0.97383011936E+01  0.87494197961E+01  0.24504601051E+01  0.17171730143E+03  0.17120000000E+03 0.  0.
        998    1    1    2    0    0  0.22122100710E+01 -0.50543543172E+01  0.14570620340E+04  0.14571067947E+04  0.10000000000E+02 0.  1.
</event>
<event>
 5    1  0.1072898E-008  0.3785049E+03  0.7957747E-01  0.3457695E+00
         13   -1    0    0    0    0  0.00000000000E+00  0.00000000000E+00  0.14999999963E+04  0.15000000000E+04  0.10566000000E+00 0.  1.
        994   -1    0    0    0    0 -0.00000000000E+00 -0.00000000000E+00  0.11368683772E-12  0.17120000000E+03  0.17120000000E+03 0.  0.
         13    1    1    2    0    0  0.45649046332E+02  0.49697960785E+01  0.26756275659E+03  0.27147444480E+03  0.10566000000E+00 0.  1.
        994    1    1    2    0    0  0.58671577003E+00 -0.33388000500E+01  0.49283963357E+01  0.17130446845E+03  0.17120000000E+03 0.  0.
        998    1    1    2    0    0 -0.46235762103E+02 -0.16309960286E+01  0.12275088434E+04  0.12284210867E+04  0.10000000000E+02 0.  1.
</event>
<event>
 5    1  0.1072898E-008  0.3848983E+03  0.7957747E-01  0.3430104E+00
         13   -1    0    0    0    0  0.00000000000E+00  0.00000000000E+00  0.14999999963E+04  0.15000000000E+04  0.10566000000E+00 0. -1.
        994   -1    0    0    0    0 -0.00000000000E+00 -0.00000000000E+00  0.11368683772E-12  0.17120000000E+03  0.17120000000E+03 0.  0.
         13    1    1    2    0    0 -0.20657510200E+02 -0.24597638888E+01  0.12349923892E+03  0.12523919651E+03  0.10566000000E+00 0. -1.
        994    1    1    2    0    0  0.18210319221E+02 -0.18914192245E+01  0.27840986828E+01  0.17219867711E+03  0.17120000000E+03 0.  0.
        998    1    1    2    0    0  0.24471909793E+01  0.43511831133E+01  0.13737166587E+04  0.13737621264E+04  0.10000000000E+02 0. -1.
</event>
<event>
 5    1  0.1072898E-008  0.3760170E+03  0.7957747E-01  0.3468687E+00
         13   -1    0    0    0    0  0.00000000000E+00  0.00000000000E+00  0.14999999963E+04  0.15000000000E+04  0.10566000000E+00 0.  1.
        994   -1    0    0    0    0 -0.00000000000E+00 -0.00000000000E+00  0.11368683772E-12  0.17120000000E+03  0.17120000000E+03 0.  0.
         13    1    1    2    0    0 -0.14955891932E+02  0.15886555826E+03  0.83756237973E+03  0.85262693800E+03  0.10566000000E+00 0.  1.
        994    1    1    2    0    0  0.11846808101E+02 -0.15682972567E+03  0.95165694128E+02  0.25120083411E+03  0.17120000000E+03 0.  0.
        998    1    1    2    0    0  0.31090838307E+01 -0.20358325847E+01  0.56727192242E+03  0.56737222790E+03  0.10000000000E+02 0.  0.
</event>
<event>
 5    1  0.1072898E-008  0.3821311E+03  0.7957747E-01  0.3441932E+00
         13   -1    0    0    0    0  0.00000000000E+00  0.00000000000E+00  0.14999999963E+04  0.15000000000E+04  0.10566000000E+00 0. -1.
        994   -1    0    0    0    0 -0.00000000000E+00 -0.00000000000E+00  0.11368683772E-12  0.17120000000E+03  0.17120000000E+03 0.  0.
         13    1    1    2    0    0  0.67519422110E+00  0.10942452262E+02  0.18164646071E+02  0.21216943221E+02  0.10566000000E+00 0. -1.
        994    1    1    2    0    0 -0.21397877658E+01 -0.12374762669E+02  0.35849601321E+01  0.17169742392E+03  0.17120000000E+03 0.  0.
        998    1    1    2    0    0  0.14645935447E+01  0.14323104068E+01  0.14782503901E+04  0.14782856329E+04  0.10000000000E+02 0. -1.
</event>
<event>
 5    1  0.1072898E-008  0.3770503E+03  0.7957747E-01  0.3464104E+00
         13   -1    0    0    0    0  0.00000000000E+00  0.00000000000E+00  0.14999999963E+04  0.15000000000E+04  0.10566000000E+00 0.  1.
        994   -1    0    0    0    0 -0.00000000000E+00 -0.00000000000E+00  0.11368683772E-12  0.17120000000E+03  0.17120000000E+03 0.  0.
         13    1    1    2    0    0  0.80156582923E+01  0.51193127316E+02  0.25134370420E+03  0.25662941348E+03  0.10566000000E+00 0.  1.
        994    1    1    2    0    0 -0.34482149858E+01 -0.21195954734E+02  0.71879633321E+01  0.17269124327E+03  0.17120000000E+03 0.  0.
        998    1    1    2    0    0 -0.45674433065E+01 -0.29997172583E+02  0.12414683288E+04  0.12418793433E+04  0.10000000000E+02 0.  1.
</event>
<event>
 5    1  0.1072898E-008  0.3784539E+03  0.7957747E-01  0.3457918E+00
         13   -1    0    0    0    0  0.00000000000E+00  0.00000000000E+00  0.14999999963E+04  0.15000000000E+04  0.10566000000E+00 0.  1.
        994   -1    0    0    0    0 -0.00000000000E+00 -0.00000000000E+00  0.11368683772E-12  0.17120000000E+03  0.17120000000E+03 0.  0.
         13    1    1    2    0    0 -0.34253857545E+02  0.87726297444E+02  0.56671355854E+03  0.57448542072E+03  0.10566000000E+00 0.  1.
        994    1    1    2    0    0  0.30222945225E+01  0.22592673043E+02  0.17354760165E+02  0.17358050248E+03  0.17120000000E+03 0.  0.
        998    1    1    2    0    0  0.31231563022E+02 -0.11031897049E+03  0.91593167757E+03  0.92313407680E+03  0.10000000000E+02 0.  1.
</event>
<event>
 5    1  0.1072898E-008  0.3771924E+03  0.7957747E-01  0.3463475E+00
         13   -1    0    0    0    0  0.00000000000E+00  0.00000000000E+00  0.14999999963E+04  0.15000000000E+04  0.10566000000E+00 0.  1.
        994   -1    0    0    0    0 -0.00000000000E+00 -0.00000000000E+00  0.11368683772E-12  0.17120000000E+03  0.17120000000E+03 0.  0.
         13    1    1    2    0    0  0.36912357969E+00 -0.10179124410E+02  0.67483644651E+01  0.12218936654E+02  0.10566000000E+00 0.  1.
        994    1    1    2    0    0 -0.48026217840E+01  0.10178518967E+02  0.59846827905E+01  0.17167388809E+03  0.17120000000E+03 0.  0.
        998    1    1    2    0    0  0.44334982043E+01  0.60544285274E-03  0.14872669490E+04  0.14873071753E+04  0.10000000000E+02 0.  1.
</event>
<event>
 5    1  0.1072898E-008  0.3854681E+03  0.7957747E-01  0.3427689E+00
         13   -1    0    0    0    0  0.00000000000E+00  0.00000000000E+00  0.14999999963E+04  0.15000000000E+04  0.10566000000E+00 0.  1.
        994   -1    0    0    0    0 -0.00000000000E+00 -0.00000000000E+00  0.11368683772E-12  0.17120000000E+03  0.17120000000E+03 0.  0.
         13    1    1    2    0    0 -0.78479547565E+01  0.10273719938E+02  0.60759720446E+02  0.62120000869E+02  0.10566000000E+00 0.  1.
        994    1    1    2    0    0  0.27074511094E+01 -0.65468968249E+01  0.15627273317E+01  0.17135365262E+03  0.17120000000E+03 0.  0.
        998    1    1    2    0    0  0.51405036471E+01 -0.37268231135E+01  0.14376775485E+04  0.14377263465E+04  0.10000000000E+02 0.  1.
</event>
<event>
 5    1  0.1072898E-008  0.3043531E+03  0.7957747E-01  0.3865424E+00
         13   -1    0    0    0    0  0.00000000000E+00  0.00000000000E+00  0.14999999963E+04  0.15000000000E+04  0.10566000000E+00 0.  1.
        994   -1    0    0    0    0 -0.00000000000E+00 -0.00000000000E+00  0.11368683772E-12  0.17120000000E+03  0.17120000000E+03 0.  0.
         13    1    1    2    0    0 -0.57408436326E+02  0.19455358468E+03  0.63665508664E+03  0.66818899750E+03  0.10566000000E+00 0.  1.
        994    1    1    2    0    0  0.46277325357E+02 -0.19688082408E+03  0.18191476990E+03  0.32141262147E+03  0.17120000000E+03 0.  0.
        998    1    1    2    0    0  0.11131110969E+02  0.23272394072E+01  0.68143013974E+03  0.68159838103E+03  0.10000000000E+02 0. -1.
</event>
<event>
 5    1  0.1072898E-008  0.3786237E+03  0.7957747E-01  0.3457173E+00
         13   -1    0    0    0    0  0.00000000000E+00  0.00000000000E+00  0.14999999963E+04  0.15000000000E+04  0.10566000000E+00 0.  1.
        994   -1    0    0    0    0 -0.00000000000E+00 -0.00000000000E+00  0.11368683772E-12  0.17120000000E+03  0.17120000000E+03 0.  0.
         13    1    1    2    0    0  0.10126285269E+02 -0.27968776074E+02  0.10773086638E+03  0.11176200081E+03  0.10566000000E+00 0.  1.
        994    1    1    2    0    0 -0.24210661725E+00 -0.18415831996E+02  0.59694259035E+01  0.17229125204E+03  0.17120000000E+03 0.  0.
        998    1    1    2    0    0 -0.98841786521E+01  0.46384608070E+02  0.13862997040E+04  0.13871467472E+04  0.10000000000E+02 0.  1.
</event>
<event>
 5    1  0.1072898E-008  0.3745758E+03  0.7957747E-01  0.3475122E+00
         13   -1    0    0    0    0  0.00000000000E+00  0.00000000000E+00  0.14999999963E+04  0.15000000000E+04  0.10566000000E+00 0.  1.
        994   -1    0    0    0    0 -0.00000000000E+00 -0.00000000000E+00  0.11368683772E-12  0.17120000000E+03  0.17120000000E+03 0.  0.
         13    1    1    2    0    0  0.94839684374E+02  0.16783044892E+03  0.90934962004E+03  0.92955815737E+03  0.10566000000E+00 0.  1.
        994    1    1    2    0    0 -0.87536280177E+02 -0.16722185879E+03  0.13986186110E+03  0.29068286946E+03  0.17120000000E+03 0.  0.
        998    1    1    2    0    0 -0.73034041972E+01 -0.60859012545E+00  0.45078851515E+03  0.45095897317E+03  0.10000000000E+02 0.  0.
</event>
<event>
 5    1  0.1072898E-008  0.3794299E+03  0.7957747E-01  0.3453644E+00
         13   -1    0    0    0    0  0.00000000000E+00  0.00000000000E+00  0.14999999963E+04  0.15000000000E+04  0.10566000000E+00 0.  1.
        994   -1    0    0    0    0 -0.00000000000E+00 -0.00000000000E+00  0.11368683772E-12  0.17120000000E+03  0.17120000000E+03 0.  0.
         13    1    1    2    0    0 -0.27949080701E+02  0.18771894711E+02  0.12432864711E+03  0.12880667219E+03  0.10566000000E+00 0.  1.
        994    1    1    2    0    0  0.16583923392E+02 -0.17383360895E+02  0.63567849064E+01  0.17299438276E+03  0.17120000000E+03 0.  0.
        998    1    1    2    0    0  0.11365157309E+02 -0.13885338159E+01  0.13693145643E+04  0.13693989451E+04  0.10000000000E+02 0.  1.
</event>
<event>
 5    1  0.1072898E-008  0.3828267E+03  0.7957747E-01  0.3438942E+00
         13   -1    0    0    0    0  0.00000000000E+00  0.00000000000E+00  0.14999999963E+04  0.15000000000E+04  0.10566000000E+00 0. -1.
        994   -1    0    0    0    0 -0.00000000000E+00 -0.00000000000E+00  0.11368683772E-12  0.17120000000E+03  0.17120000000E+03 0.  0.
         13    1    1    2    0    0  0.24496943049E+02  0.36844212185E+00  0.12181190931E+03  0.12425131139E+03  0.10566000000E+00 0. -1.
        994    1    1    2    0    0 -0.17354758996E+00 -0.12866057568E+02  0.32615183153E+01  0.17171384061E+03  0.17120000000E+03 0.  0.
        998    1    1    2    0    0 -0.24323395459E+02  0.12497615446E+02  0.13749265687E+04  0.13752348480E+04  0.10000000000E+02 0. -1.
</event>
<event>
 5    1  0.1072898E-008  0.3689744E+03  0.7957747E-01  0.3500618E+00
         13   -1    0    0    0    0  0.00000000000E+00  0.00000000000E+00  0.14999999963E+04  0.15000000000E+04  0.10566000000E+00 0.  1.
        994   -1    0    0    0    0 -0.00000000000E+00 -0.00000000000E+00  0.11368683772E-12  0.17120000000E+03  0.17120000000E+03 0.  0.
         13    1    1    2    0    0 -0.13655841039E+03 -0.23596876486E+02  0.81499385493E+03  0.82669220800E+03  0.10566000000E+00 0.  1.
        994    1    1    2    0    0  0.11042041866E+03 -0.34642915244E+02  0.58621442235E+02  0.21479924098E+03  0.17120000000E+03 0.  0.
        998    1    1    2    0    0  0.26137991724E+02  0.58239791730E+02  0.62638469911E+03  0.62970855102E+03  0.10000000000E+02 0.  1.
</event>
<event>
 5    1  0.1072898E-008  0.3844607E+03  0.7957747E-01  0.3431963E+00
         13   -1    0    0    0    0  0.00000000000E+00  0.00000000000E+00  0.14999999963E+04  0.15000000000E+04  0.10566000000E+00 0. -1.
        994   -1    0    0    0    0 -0.00000000000E+00 -0.00000000000E+00  0.11368683772E-12  0.17120000000E+03  0.17120000000E+03 0.  0.
         13    1    1    2    0    0 -0.37312051295E+01  0.94990639315E+01  0.26372408650E+02  0.28278423035E+02  0.10566000000E+00 0. -1.
        994    1    1    2    0    0  0.86933431850E+01 -0.10241692959E+02  0.24929014419E+01  0.17174434794E+03  0.17120000000E+03 0.  0.
        998    1    1    2    0    0 -0.49621380555E+01  0.74262902778E+00  0.14711346862E+04  0.14711772290E+04  0.10000000000E+02 0. -1.
</event>
<event>
 5    1  0.1072898E-008  0.3837007E+03  0.7957747E-01  0.3435201E+00
         13   -1    0    0    0    0  0.00000000000E+00  0.00000000000E+00  0.14999999963E+04  0.15000000000E+04  0.10566000000E+00 0. -1.
        994   -1    0    0    0    0 -0.00000000000E+00 -0.00000000000E+00  0.11368683772E-12  0.17120000000E+03  0.17120000000E+03 0.  0.
         13    1    1    2    0    0  0.23297230259E+01  0.13107311777E+02  0.38030687737E+02  0.40293592607E+02  0.10566000000E+00 0. -1.
        994    1    1    2    0    0 -0.16032752757E+01 -0.10503854244E+02  0.26495469804E+01  0.17154988063E+03  0.17120000000E+03 0.  0.
        998    1    1    2    0    0 -0.72644775021E+00 -0.26034575325E+01  0.14593197616E+04  0.14593565268E+04  0.10000000000E+02 0. -1.
</event>
<event>
 5    1  0.1072898E-008  0.3850442E+03  0.7957747E-01  0.3429485E+00
         13   -1    0    0    0    0  0.00000000000E+00  0.00000000000E+00  0.14999999963E+04  0.15000000000E+04  0.10566000000E+00 0.  1.
        994   -1    0    0    0    0 -0.00000000000E+00 -0.00000000000E+00  0.11368683772E-12  0.17120000000E+03  0.17120000000E+03 0.  0.
         13    1    1    2    0    0  0.15647619554E+01  0.10393685324E+02  0.33267579301E+02  0.34888682566E+02  0.10566000000E+00 0.  1.
        994    1    1    2    0    0 -0.21373270583E+01 -0.12788420301E+02  0.21611890874E+01  0.17170388056E+03  0.17120000000E+03 0.  0.
        998    1    1    2    0    0  0.57256510290E+00  0.23947349779E+01  0.14645712279E+04  0.14646074369E+04  0.10000000000E+02 0.  1.
</event>
<event>
 5    1  0.1072898E-008  0.3763137E+03  0.7957747E-01  0.3467368E+00
         13   -1    0    0    0    0  0.00000000000E+00  0.00000000000E+00  0.14999999963E+04  0.15000000000E+04  0.10566000000E+00 0. -1.
        994   -1    0    0    0    0 -0.00000000000E+00 -0.00000000000E+00  0.11368683772E-12  0.17120000000E+03  0.17120000000E+03 0.  0.
         13    1    1    2    0    0 -0.73634678385E+02  0.12583424612E+02  0.44770406108E+03  0.45389354028E+03  0.10566000000E+00 0. -1.
        994    1    1    2    0    0  0.50396761156E+02  0.15003891455E+02  0.15420793531E+02  0.17975592109E+03  0.17120000000E+03 0.  0.
        998    1    1    2    0    0  0.23237917229E+02 -0.27587316067E+02  0.10368751417E+04  0.10375505386E+04  0.10000000000E+02 0. -1.
</event>
<event>
 5    1  0.1072898E-008  0.3817491E+03  0.7957747E-01  0.3443578E+00
         13   -1    0    0    0    0  0.00000000000E+00  0.00000000000E+00  0.14999999963E+04  0.15000000000E+04  0.10566000000E+00 0.  1.
        994   -1    0    0    0    0 -0.00000000000E+00 -0.00000000000E+00  0.11368683772E-12  0.17120000000E+03  0.17120000000E+03 0.  0.
         13    1    1    2    0    0  0.14398469092E+02  0.91502371450E+01  0.42860142198E+02  0.46130745770E+02  0.10566000000E+00 0.  1.
        994    1    1    2    0    0 -0.15246580405E+02 -0.52505386010E+01  0.41175268556E+01  0.17200703589E+03  0.17120000000E+03 0.  0.
        998    1    1    2    0    0  0.84811131320E+00 -0.38996985439E+01  0.14530223272E+04  0.14530622183E+04  0.10000000000E+02 0.  1.
</event>
<event>
 5    1  0.1072898E-008  0.3837214E+03  0.7957747E-01  0.3435113E+00
         13   -1    0    0    0    0  0.00000000000E+00  0.00000000000E+00  0.14999999963E+04  0.15000000000E+04  0.10566000000E+00 0. -1.
        994   -1    0    0    0    0 -0.00000000000E+00 -0.00000000000E+00  0.11368683772E-12  0.17120000000E+03  0.17120000000E+03 0.  0.
         13    1    1    2    0    0 -0.11384841915E+02 -0.13189364234E+02  0.73882248208E+02  0.75908969948E+02  0.10566000000E+00 0. -1.
        994    1    1    2    0    0 -0.68986347356E+01 -0.29097115769E+01  0.24514211703E+01  0.17138117472E+03  0.17120000000E+03 0.  0.
        998    1    1    2    0    0  0.18283476651E+02  0.16099075811E+02  0.14236663269E+04  0.14239098553E+04  0.10000000000E+02 0. -1.
</event>
<event>
 5    1  0.1072898E-008  0.3725110E+03  0.7957747E-01  0.3484430E+00
         13   -1    0    0    0    0  0.00000000000E+00  0.00000000000E+00  0.14999999963E+04  0.15000000000E+04  0.10566000000E+00 0. -1.
        994   -1    0    0    0    0 -0.00000000000E+00 -0.00000000000E+00  0.11368683772E-12  0.17120000000E+03  0.17120000000E+03 0.  0.
         13    1    1    2    0    0 -0.66534539270E+01  0.50513826345E+02  0.15945906482E+03  0.16740107413E+03  0.10566000000E+00 0. -1.
        994    1    1    2    0    0 -0.22867628411E+02 -0.35141809318E+02  0.14012517261E+02  0.17681534388E+03  0.17120000000E+03 0.  0.
        998    1    1    2    0    0  0.29521082338E+02 -0.15372017027E+02  0.13265284142E+04  0.13269835820E+04  0.10000000000E+02 0. -1.
</event>
<event>
 5    1  0.1072898E-008  0.3059631E+03  0.7957747E-01  0.3854346E+00
         13   -1    0    0    0    0  0.00000000000E+00  0.00000000000E+00  0.14999999963E+04  0.15000000000E+04  0.10566000000E+00 0. -1.
        994   -1    0    0    0    0 -0.00000000000E+00 -0.00000000000E+00  0.11368683772E-12  0.17120000000E+03  0.17120000000E+03 0.  0.
         13    1    1    2    0    0 -0.84196606461E+02 -0.12507021198E+03  0.81495234327E+03  0.82878161142E+03  0.10566000000E+00 0. -1.
        994    1    1    2    0    0  0.25848146768E+02  0.92579524597E+02  0.48421350661E+02  0.20222057824E+03  0.17120000000E+03 0.  0.
        998    1    1    2    0    0  0.58348459693E+02  0.32490687384E+02  0.63662630235E+03  0.64019781033E+03  0.10000000000E+02 0. -1.
</event>
<event>
 5    1  0.1072898E-008  0.3857116E+03  0.7957747E-01  0.3426660E+00
         13   -1    0    0    0    0  0.00000000000E+00  0.00000000000E+00  0.14999999963E+04  0.15000000000E+04  0.10566000000E+00 0.  1.
        994   -1    0    0    0    0 -0.00000000000E+00 -0.00000000000E+00  0.11368683772E-12  0.17120000000E+03  0.17120000000E+03 0.  0.
         13    1    1    2    0    0  0.69820859833E+02  0.64165953878E+02  0.20084153287E+03  0.22210257674E+03  0.10566000000E+00 0.  1.
        994    1    1    2    0    0 -0.64763248872E+02 -0.58155927352E+02  0.48118691785E+02  0.19799302712E+03  0.17120000000E+03 0.  0.
        998    1    1    2    0    0 -0.50576109615E+01 -0.60100265254E+01  0.12510397716E+04  0.12511043961E+04  0.10000000000E+02 0.  1.
</event>
<event>
 5    1  0.1072898E-008  0.3854410E+03  0.7957747E-01  0.3427804E+00
         13   -1    0    0    0    0  0.00000000000E+00  0.00000000000E+00  0.14999999963E+04  0.15000000000E+04  0.10566000000E+00 0.  1.
        994   -1    0    0    0    0 -0.00000000000E+00 -0.00000000000E+00  0.11368683772E-12  0.17120000000E+03  0.17120000000E+03 0.  0.
         13    1    1    2    0    0  0.17818979176E+01 -0.14046045488E+02  0.69317582552E+02  0.70748886697E+02  0.10566000000E+00 0.  1.
        994    1    1    2    0    0  0.11224241763E+02  0.15229502305E+02  0.25876199977E+01  0.17226159503E+03  0.17120000000E+03 0.  0.
        998    1    1    2    0    0 -0.13006139680E+02 -0.11834568172E+01  0.14280947937E+04  0.14281895183E+04  0.10000000000E+02 0.  1.
</event>
<event>
 5    1  0.1072898E-008  0.3807039E+03  0.7957747E-01  0.3448099E+00
         13   -1    0    0    0    0  0.00000000000E+00  0.00000000000E+00  0.14999999963E+04  0.15000000000E+04  0.10566000000E+00 0. -1.
        994   -1    0    0    0    0 -0.00000000000E+00 -0.00000000000E+00  0.11368683772E-12  0.17120000000E+03  0.17120000000E+03 0.  0.
         13    1    1    2    0    0  0.95141483353E+00 -0.11095441942E+02  0.14956583917E+02  0.18647374844E+02  0.10566000000E+00 0. -1.
        994    1    1    2    0    0  0.64578024127E+01  0.45042236942E+01  0.39850228087E+01  0.17142727802E+03  0.17120000000E+03 0.  0.
        998    1    1    2    0    0 -0.74092172462E+01  0.65912182481E+01  0.14810583896E+04  0.14811253471E+04  0.10000000000E+02 0. -1.
</event>
<event>
 5    1  0.1072898E-008  0.3833835E+03  0.7957747E-01  0.3436557E+00
         13   -1    0    0    0    0  0.00000000000E+00  0.00000000000E+00  0.14999999963E+04  0.15000000000E+04  0.10566000000E+00 0.  1.
        994   -1    0    0    0    0 -0.00000000000E+00 -0.00000000000E+00  0.11368683772E-12  0.17120000000E+03  0.17120000000E+03 0.  0.
         13    1    1    2    0    0  0.29545188778E+02 -0.16015382117E+02  0.19484686930E+03  0.19772385866E+03  0.10566000000E+00 0.  1.
        994    1    1    2    0    0 -0.32426008127E+02  0.21356260442E+02  0.74347125277E+01  0.17570501078E+03  0.17120000000E+03 0.  0.
        998    1    1    2    0    0  0.28808193495E+01 -0.53408783250E+01  0.12977184145E+04  0.12977711306E+04  0.10000000000E+02 0.  1.
</event>
<event>
 5    1  0.1072898E-008  0.3854685E+03  0.7957747E-01  0.3427688E+00
         13   -1    0    0    0    0  0.00000000000E+00  0.00000000000E+00  0.14999999963E+04  0.15000000000E+04  0.10566000000E+00 0. -1.
        994   -1    0    0    0    0 -0.00000000000E+00 -0.00000000000E+00  0.11368683772E-12  0.17120000000E+03  0.17120000000E+03 0.  0.
         13    1    1    2    0    0  0.18147428477E+02 -0.86487399256E+01  0.10350080971E+03  0.10543509206E+03  0.10566000000E+00 0. -1.
        994    1    1    2    0    0 -0.48018503168E+02  0.25931025565E+02  0.11238902025E+02  0.18003873931E+03  0.17120000000E+03 0.  0.
        998    1    1    2    0    0  0.29871074690E+02 -0.17282285639E+02  0.13852602845E+04  0.13857261686E+04  0.10000000000E+02 0. -1.
</event>
<event>
 5    1  0.1072898E-008  0.3792736E+03  0.7957747E-01  0.3454327E+00
         13   -1    0    0    0    0  0.00000000000E+00  0.00000000000E+00  0.14999999963E+04  0.15000000000E+04  0.10566000000E+00 0. -1.
        994   -1    0    0    0    0 -0.00000000000E+00 -0.00000000000E+00  0.11368683772E-12  0.17120000000E+03  0.17120000000E+03 0.  0.
         13    1    1    2    0    0 -0.44212774189E+02 -0.19606789593E+02  0.21969624786E+03  0.22495699164E+03  0.10566000000E+00 0. -1.
        994    1    1    2    0    0  0.44767267975E+02  0.22199403147E+02  0.12913235744E+02  0.17881027219E+03  0.17120000000E+03 0.  0.
        998    1    1    2    0    0 -0.55449378579E+00 -0.25926135541E+01  0.12673905127E+04  0.12674327362E+04  0.10000000000E+02 0. -1.
</event>
<event>
 5    1  0.1072898E-008  0.3838185E+03  0.7957747E-01  0.3434699E+00
         13   -1    0    0    0    0  0.00000000000E+00  0.00000000000E+00  0.14999999963E+04  0.15000000000E+04  0.10566000000E+00 0. -1.
        994   -1    0    0    0    0 -0.00000000000E+00 -0.00000000000E+00  0.11368683772E-12  0.17120000000E+03  0.17120000000E+03 0.  0.
         13    1    1    2    0    0 -0.97201953013E+01 -0.18359991920E+02  0.90103299599E+02  0.92467222640E+02  0.10566000000E+00 0. -1.
        994    1    1    2    0    0  0.84802554275E+01  0.23058115941E+02  0.42130341059E+01  0.17300514761E+03  0.17120000000E+03 0.  0.
        998    1    1    2    0    0  0.12399398739E+01 -0.46981240210E+01  0.14056836626E+04  0.14057276298E+04  0.10000000000E+02 0. -1.
</event>
<event>
 5    1  0.1072898E-008  0.3825162E+03  0.7957747E-01  0.3440275E+00
         13   -1    0    0    0    0  0.00000000000E+00  0.00000000000E+00  0.14999999963E+04  0.15000000000E+04  0.10566000000E+00 0.  1.
        994   -1    0    0    0    0 -0.00000000000E+00 -0.00000000000E+00  0.11368683772E-12  0.17120000000E+03  0.17120000000E+03 0.  0.
         13    1    1    2    0    0 -0.17349635900E+02 -0.48724244562E+01  0.54787543295E+02  0.57675267232E+02  0.10566000000E+00 0.  1.
        994    1    1    2    0    0  0.15251129330E+02  0.26251630446E+01  0.36627184831E+01  0.17193703479E+03  0.17120000000E+03 0.  0.
        998    1    1    2    0    0  0.20985065694E+01  0.22472614116E+01  0.14415497345E+04  0.14415876980E+04  0.10000000000E+02 0.  1.
</event>
<event>
 5    1  0.1072898E-008  0.3825896E+03  0.7957747E-01  0.3439960E+00
         13   -1    0    0    0    0  0.00000000000E+00  0.00000000000E+00  0.14999999963E+04  0.15000000000E+04  0.10566000000E+00 0. -1.
        994   -1    0    0    0    0 -0.00000000000E+00 -0.00000000000E+00  0.11368683772E-12  0.17120000000E+03  0.17120000000E+03 0.  0.
         13    1    1    2    0    0  0.16657971464E+02 -0.24437821233E+02  0.13009791046E+03  0.13341728745E+03  0.10566000000E+00 0. -1.
        994    1    1    2    0    0  0.21382504816E+02  0.70895013323E+02  0.21224144320E+02  0.18773177336E+03  0.17120000000E+03 0.  0.
        998    1    1    2    0    0 -0.38040476280E+02 -0.46457192090E+02  0.13486779415E+04  0.13500509392E+04  0.10000000000E+02 0. -1.
</event>
<event>
 5    1  0.1072898E-008  0.3737286E+03  0.7957747E-01  0.3478929E+00
         13   -1    0    0    0    0  0.00000000000E+00  0.00000000000E+00  0.14999999963E+04  0.15000000000E+04  0.10566000000E+00 0.  1.
        994   -1    0    0    0    0 -0.00000000000E+00 -0.00000000000E+00  0.11368683772E-12  0.17120000000E+03  0.17120000000E+03 0.  0.
         13    1    1    2    0    0 -0.83686387689E+02 -0.22983202407E+02  0.26664211323E+03  0.28040981935E+03  0.10566000000E+00 0.  1.
        994    1    1    2    0    0  0.67257362328E+02  0.23083178620E+01  0.29145251069E+02  0.18624652152E+03  0.17120000000E+03 0.  0.
        998    1    1    2    0    0  0.16429025361E+02  0.20674884545E+02  0.12042126320E+04  0.12045436591E+04  0.10000000000E+02 0.  1.
</event>
<event>
 5    1  0.1072898E-008  0.3846364E+03  0.7957747E-01  0.3431216E+00
         13   -1    0    0    0    0  0.00000000000E+00  0.00000000000E+00  0.14999999963E+04  0.15000000000E+04  0.10566000000E+00 0. -1.
        994   -1    0    0    0    0 -0.00000000000E+00 -0.00000000000E+00  0.11368683772E-12  0.17120000000E+03  0.17120000000E+03 0.  0.
         13    1    1    2    0    0 -0.20611175911E+02  0.94995314845E+01  0.53697302361E+01  0.23321810344E+02  0.10566000000E+00 0. -1.
        994    1    1    2    0    0  0.15944061335E+02 -0.10197887174E+02  0.20219220865E+02  0.17342568116E+03  0.17120000000E+03 0.  0.
        998    1    1    2    0    0  0.46671145760E+01  0.69835568946E+00  0.14744110452E+04  0.14744525085E+04  0.10000000000E+02 0. -1.
</event>
<event>
 5    1  0.1072898E-008  0.3693320E+03  0.7957747E-01  0.3498967E+00
         13   -1    0    0    0    0  0.00000000000E+00  0.00000000000E+00  0.14999999963E+04  0.15000000000E+04  0.10566000000E+00 0.  1.
        994   -1    0    0    0    0 -0.00000000000E+00 -0.00000000000E+00  0.11368683772E-12  0.17120000000E+03  0.17120000000E+03 0.  0.
         13    1    1    2    0    0  0.42258385420E+01 -0.13820967297E+02  0.64109736174E+01  0.15811027644E+02  0.10566000000E+00 0.  1.
        994    1    1    2    0    0 -0.50756700202E+01  0.14665583522E+02  0.10453766021E+02  0.17221951977E+03  0.17120000000E+03 0.  0.
        998    1    1    2    0    0  0.84983147826E+00 -0.84461622570E+00  0.14831352566E+04  0.14831694526E+04  0.10000000000E+02 0.  1.
</event>
<event>
 5    1  0.1072898E-008  0.3810599E+03  0.7957747E-01  0.3446557E+00
         13   -1    0    0    0    0  0.00000000000E+00  0.00000000000E+00  0.14999999963E+04  0.15000000000E+04  0.10566000000E+00 0.  1.
        994   -1    0    0    0    0 -0.00000000000E+00 -0.00000000000E+00  0.11368683772E-12  0.17120000000E+03  0.17120000000E+03 0.  0.
         13    1    1    2    0    0  0.13492233331E+02 -0.23632496137E+00  0.23804683585E+02  0.27363668145E+02  0.10566000000E+00 0.  1.
        994    1    1    2    0    0 -0.10235790773E+02 -0.30211109608E+01  0.39786076083E+01  0.17157845973E+03  0.17120000000E+03 0.  0.
        998    1    1    2    0    0 -0.32564425582E+01  0.32574359222E+01  0.14722167051E+04  0.14722578721E+04  0.10000000000E+02 0.  1.
</event>
<event>
 5    1  0.1072898E-008  0.3710637E+03  0.7957747E-01  0.3491017E+00
         13   -1    0    0    0    0  0.00000000000E+00  0.00000000000E+00  0.14999999963E+04  0.15000000000E+04  0.10566000000E+00 0. -1.
        994   -1    0    0    0    0 -0.00000000000E+00 -0.00000000000E+00  0.11368683772E-12  0.17120000000E+03  0.17120000000E+03 0.  0.
         13    1    1    2    0    0 -0.11207037607E+03  0.40777200691E+02  0.52275641792E+03  0.53618731142E+03  0.10566000000E+00 0. -1.
        994    1    1    2    0    0  0.10772571181E+03 -0.46417323268E+02  0.57720582525E+02  0.21540775876E+03  0.17120000000E+03 0.  0.
        998    1    1    2    0    0  0.43446642542E+01  0.56401225775E+01  0.91952299584E+03  0.91960492983E+03  0.10000000000E+02 0. -1.
</event>
<event>
 5    1  0.1072898E-008  0.3810336E+03  0.7957747E-01  0.3446670E+00
         13   -1    0    0    0    0  0.00000000000E+00  0.00000000000E+00  0.14999999963E+04  0.15000000000E+04  0.10566000000E+00 0.  1.
        994   -1    0    0    0    0 -0.00000000000E+00 -0.00000000000E+00  0.11368683772E-12  0.17120000000E+03  0.17120000000E+03 0.  0.
         13    1    1    2    0    0  0.11438021889E+02  0.34042835795E+02  0.21714923815E+03  0.22009894549E+03  0.10566000000E+00 0.  1.
        994    1    1    2    0    0  0.36690228621E+01  0.17957214415E+01  0.36678846949E+01  0.17128800227E+03  0.17120000000E+03 0.  0.
        998    1    1    2    0    0 -0.15107044751E+02 -0.35838557236E+02  0.12791828734E+04  0.12798130522E+04  0.10000000000E+02 0.  1.
</event>
<event>
 5    1  0.1072898E-008  0.3857229E+03  0.7957747E-01  0.3426612E+00
         13   -1    0    0    0    0  0.00000000000E+00  0.00000000000E+00  0.14999999963E+04  0.15000000000E+04  0.10566000000E+00 0.  1.
        994   -1    0    0    0    0 -0.00000000000E+00 -0.00000000000E+00  0.11368683772E-12  0.17120000000E+03  0.17120000000E+03 0.  0.
         13    1    1    2    0    0  0.60225419071E+01  0.92466870471E+01  0.45875289299E+02  0.47183954526E+02  0.10566000000E+00 0.  1.
        994    1    1    2    0    0 -0.23361374378E+01 -0.17412250040E+02  0.22849630255E+01  0.17211422093E+03  0.17120000000E+03 0.  0.
        998    1    1    2    0    0 -0.36864044694E+01  0.81655629924E+01  0.14518397440E+04  0.14519018245E+04  0.10000000000E+02 0.  1.
</event>
<event>
 5    1  0.1072898E-008  0.3836160E+03  0.7957747E-01  0.3435563E+00
         13   -1    0    0    0    0  0.00000000000E+00  0.00000000000E+00  0.14999999963E+04  0.15000000000E+04  0.10566000000E+00 0. -1.
        994   -1    0    0    0    0 -0.00000000000E+00 -0.00000000000E+00  0.11368683772E-12  0.17120000000E+03  0.17120000000E+03 0.  0.
         13    1    1    2    0    0  0.10331919115E+02  0.29248168126E+02  0.15929957318E+03  0.16229161737E+03  0.10566000000E+00 0. -1.
        994    1    1    2    0    0  0.74950303268E+01 -0.57546237808E+02  0.13524598507E+02  0.18127354945E+03  0.17120000000E+03 0.  0.
        998    1    1    2    0    0 -0.17826949442E+02  0.28298069682E+02  0.13271758246E+04  0.13276348332E+04  0.10000000000E+02 0. -1.
</event>
<event>
 5    1  0.1072898E-008  0.3861647E+03  0.7957747E-01  0.3424748E+00
         13   -1    0    0    0    0  0.00000000000E+00  0.00000000000E+00  0.14999999963E+04  0.15000000000E+04  0.10566000000E+00 0. -1.
        994   -1    0    0    0    0 -0.00000000000E+00 -0.00000000000E+00  0.11368683772E-12  0.17120000000E+03  0.17120000000E+03 0.  0.
         13    1    1    2    0    0 -0.10648757796E+02 -0.33449705345E+00  0.56000730180E+02  0.57005270595E+02  0.10566000000E+00 0. -1.
        994    1    1    2    0    0  0.37876777204E+01  0.56707542925E+01  0.12053760165E+01  0.17134000376E+03  0.17120000000E+03 0.  0.
        998    1    1    2    0    0  0.68610800756E+01 -0.53362572390E+01  0.14427938901E+04  0.14428547256E+04  0.10000000000E+02 0. -1.
</event>
<event>
 5    1  0.1072898E-008  0.3795057E+03  0.7957747E-01  0.3453314E+00
         13   -1    0    0    0    0  0.00000000000E+00  0.00000000000E+00  0.14999999963E+04  0.15000000000E+04  0.10566000000E+00 0. -1.
        994   -1    0    0    0    0 -0.00000000000E+00 -0.00000000000E+00  0.11368683772E-12  0.17120000000E+03  0.17120000000E+03 0.  0.
         13    1    1    2    0    0  0.18094495132E+02  0.17813307351E+02  0.68013381221E+02  0.72598594078E+02  0.10566000000E+00 0. -1.
        994    1    1    2    0    0 -0.19377687902E+02 -0.22398428385E+02  0.73256126617E+01  0.17389735186E+03  0.17120000000E+03 0.  0.
        998    1    1    2    0    0  0.12831927694E+01  0.45851210343E+01  0.14246610024E+04  0.14247040541E+04  0.10000000000E+02 0. -1.
</event>
<event>
 5    1  0.1072898E-008  0.3784361E+03  0.7957747E-01  0.3457997E+00
         13   -1    0    0    0    0  0.00000000000E+00  0.00000000000E+00  0.14999999963E+04  0.15000000000E+04  0.10566000000E+00 0. -1.
        994   -1    0    0    0    0 -0.00000000000E+00 -0.00000000000E+00  0.11368683772E-12  0.17120000000E+03  0.17120000000E+03 0.  0.
         13    1    1    2    0    0  0.35242292898E+02 -0.14785389173E+02  0.13411898354E+03  0.13945802183E+03  0.10566000000E+00 0. -1.
        994    1    1    2    0    0 -0.35304482143E+02  0.16362068414E+02  0.10029478451E+02  0.17585264906E+03  0.17120000000E+03 0.  0.
        998    1    1    2    0    0  0.62189244512E-01 -0.15766792407E+01  0.13558515343E+04  0.13558893291E+04  0.10000000000E+02 0. -1.
</event>
<event>
 5    1  0.1072898E-008  0.3708280E+03  0.7957747E-01  0.3492094E+00
         13   -1    0    0    0    0  0.00000000000E+00  0.00000000000E+00  0.14999999963E+04  0.15000000000E+04  0.10566000000E+00 0. -1.
        994   -1    0    0    0    0 -0.00000000000E+00 -0.00000000000E+00  0.11368683772E-12  0.17120000000E+03  0.17120000000E+03 0.  0.
         13    1    1    2    0    0  0.19413315572E+02  0.53984222222E+02  0.16022547420E+03  0.17018632970E+03  0.10566000000E+00 0. -1.
        994    1    1    2    0    0 -0.49258932817E+01 -0.40845250228E+01  0.11520888575E+02  0.17170648981E+03  0.17120000000E+03 0.  0.
        998    1    1    2    0    0 -0.14487422290E+02 -0.49899697199E+02  0.13282536335E+04  0.13293071805E+04  0.10000000000E+02 0. -1.
</event>
<event>
 5    1  0.1072898E-008  0.3734619E+03  0.7957747E-01  0.3480131E+00
         13   -1    0    0    0    0  0.00000000000E+00  0.00000000000E+00  0.14999999963E+04  0.15000000000E+04  0.10566000000E+00 0.  1.
        994   -1    0    0    0    0 -0.00000000000E+00 -0.00000000000E+00  0.11368683772E-12  0.17120000000E+03  0.17120000000E+03 0.  0.
         13    1    1    2    0    0  0.15623131515E+02 -0.14760627266E+02  0.28707632523E+02  0.35862204125E+02  0.10566000000E+00 0.  1.
        994    1    1    2    0    0 -0.50321784124E+01 -0.15104404448E+01  0.75650550078E+01  0.17144758472E+03  0.17120000000E+03 0.  0.
        998    1    1    2    0    0 -0.10590953103E+02  0.16271067711E+02  0.14637273087E+04  0.14638902112E+04  0.10000000000E+02 0.  1.
</event>
<event>
 5    1  0.1072898E-008  0.3701610E+03  0.7957747E-01  0.3495151E+00
         13   -1    0    0    0    0  0.00000000000E+00  0.00000000000E+00  0.14999999963E+04  0.15000000000E+04  0.10566000000E+00 0.  1.
        994   -1    0    0    0    0 -0.00000000000E+00 -0.00000000000E+00  0.11368683772E-12  0.17120000000E+03  0.17120000000E+03 0.  0.
         13    1    1    2    0    0 -0.16021783154E+02 -0.12838122589E+02  0.18573519466E+02  0.27685767398E+02  0.10566000000E+00 0.  1.
        994    1    1    2    0    0  0.16258223027E+02  0.18865262949E+02  0.11331248405E+02  0.17337261939E+03  0.17120000000E+03 0.  0.
        998    1    1    2    0    0 -0.23643987353E+00 -0.60271403598E+01  0.14700952284E+04  0.14701416132E+04  0.10000000000E+02 0.  1.
</event>
<event>
 5    1  0.1072898E-008  0.3831212E+03  0.7957747E-01  0.3437680E+00
         13   -1    0    0    0    0  0.00000000000E+00  0.00000000000E+00  0.14999999963E+04  0.15000000000E+04  0.10566000000E+00 0.  1.
        994   -1    0    0    0    0 -0.00000000000E+00 -0.00000000000E+00  0.11368683772E-12  0.17120000000E+03  0.17120000000E+03 0.  0.
         13    1    1    2    0    0 -0.14133985519E+02 -0.16178374712E+02  0.93531462434E+02  0.95966947352E+02  0.10566000000E+00 0.  1.
        994    1    1    2    0    0 -0.86756188734E+01  0.15782380731E+02  0.36397524509E+01  0.17218315162E+03  0.17120000000E+03 0.  0.
        998    1    1    2    0    0  0.22809604393E+02  0.39599398136E+00  0.14028287814E+04  0.14030499010E+04  0.10000000000E+02 0.  1.
</event>
<event>
 5    1  0.1072898E-008  0.3860197E+03  0.7957747E-01  0.3425359E+00
         13   -1    0    0    0    0  0.00000000000E+00  0.00000000000E+00  0.14999999963E+04  0.15000000000E+04  0.10566000000E+00 0.  1.
        994   -1    0    0    0    0 -0.00000000000E+00 -0.00000000000E+00  0.11368683772E-12  0.17120000000E+03  0.17120000000E+03 0.  0.
         13    1    1    2    0    0  0.43891779759E+01  0.96289312254E+01  0.51282061211E+02  0.52362602742E+02  0.10566000000E+00 0.  1.
        994    1    1    2    0    0  0.35090221993E+00 -0.51212937713E+01  0.12110821617E+01  0.17128122344E+03  0.17120000000E+03 0.  0.
        998    1    1    2    0    0 -0.47400801959E+01 -0.45076374541E+01  0.14475068529E+04  0.14475561738E+04  0.10000000000E+02 0.  1.
</event>
<event>
 5    1  0.1072898E-008  0.3760604E+03  0.7957747E-01  0.3468494E+00
         13   -1    0    0    0    0  0.00000000000E+00  0.00000000000E+00  0.14999999963E+04  0.15000000000E+04  0.10566000000E+00 0. -1.
        994   -1    0    0    0    0 -0.00000000000E+00 -0.00000000000E+00  0.11368683772E-12  0.17120000000E+03  0.17120000000E+03 0.  0.
         13    1    1    2    0    0 -0.17277111047E+01 -0.20595695515E+02  0.35313951085E+02  0.40917648572E+02  0.10566000000E+00 0. -1.
        994    1    1    2    0    0 -0.17757798715E+02 -0.15706053727E+02  0.80411391739E+01  0.17302057524E+03  0.17120000000E+03 0.  0.
        998    1    1    2    0    0  0.19485509819E+02  0.36301749242E+02  0.14566449060E+04  0.14572617762E+04  0.10000000000E+02 0. -1.
</event>
<event>
 5    1  0.1072898E-008  0.4230952E+03  0.7957747E-01  0.3282604E+00
         13   -1    0    0    0    0  0.00000000000E+00  0.00000000000E+00  0.14999999963E+04  0.15000000000E+04  0.10566000000E+00 0.  1.
        994   -1    0    0    0    0 -0.00000000000E+00 -0.00000000000E+00  0.11368683772E-12  0.17120000000E+03  0.17120000000E+03 0.  0.
         13    1    1    2    0    0 -0.27116123078E+01  0.42467134289E+02  0.51750163133E+01  0.42867263663E+02  0.10566000000E+00 0.  1.
        994    1    1    2    0    0  0.31841719983E+01 -0.34357502567E+02  0.47549513988E+02  0.18099992601E+03  0.17120000000E+03 0.  0.
        998    1    1    2    0    0 -0.47255969049E+00 -0.81096317226E+01  0.14472754660E+04  0.14473328103E+04  0.10000000000E+02 0.  1.
</event>
<event>
 5    1  0.1072898E-008  0.3794526E+03  0.7957747E-01  0.3453545E+00
         13   -1    0    0    0    0  0.00000000000E+00  0.00000000000E+00  0.14999999963E+04  0.15000000000E+04  0.10566000000E+00 0.  1.
        994   -1    0    0    0    0 -0.00000000000E+00 -0.00000000000E+00  0.11368683772E-12  0.17120000000E+03  0.17120000000E+03 0.  0.
         13    1    1    2    0    0  0.25362789679E+01 -0.20275178479E+02  0.45696468051E+02  0.50056906913E+02  0.10566000000E+00 0.  1.
        994    1    1    2    0    0 -0.51369105023E+01  0.12678758596E+02  0.50366950001E+01  0.17181951887E+03  0.17120000000E+03 0.  0.
        998    1    1    2    0    0  0.26006315344E+01  0.75964198833E+01  0.14492668332E+04  0.14493235742E+04  0.10000000000E+02 0.  1.
</event>
<event>
 5    1  0.1072898E-008  0.3771878E+03  0.7957747E-01  0.3463496E+00
         13   -1    0    0    0    0  0.00000000000E+00  0.00000000000E+00  0.14999999963E+04  0.15000000000E+04  0.10566000000E+00 0.  1.
        994   -1    0    0    0    0 -0.00000000000E+00 -0.00000000000E+00  0.11368683772E-12  0.17120000000E+03  0.17120000000E+03 0.  0.
         13    1    1    2    0    0 -0.53474638478E+02  0.15912289304E+02  0.24992188418E+03  0.25607361689E+03  0.10566000000E+00 0.  1.
        994    1    1    2    0    0  0.34686203263E+02 -0.56793674526E+02  0.20652050872E+02  0.18483668837E+03  0.17120000000E+03 0.  0.
        998    1    1    2    0    0  0.18788435215E+02  0.40881385223E+02  0.12294260612E+04  0.12302896947E+04  0.10000000000E+02 0.  1.
</event>
<event>
 5    1  0.1072898E-008  0.3781038E+03  0.7957747E-01  0.3459457E+00
         13   -1    0    0    0    0  0.00000000000E+00  0.00000000000E+00  0.14999999963E+04  0.15000000000E+04  0.10566000000E+00 0.  1.
        994   -1    0    0    0    0 -0.00000000000E+00 -0.00000000000E+00  0.11368683772E-12  0.17120000000E+03  0.17120000000E+03 0.  0.
         13    1    1    2    0    0 -0.17053055763E+02 -0.13030188164E+02  0.42718821694E+02  0.47806917966E+02  0.10566000000E+00 0.  1.
        994    1    1    2    0    0  0.54225259413E+01  0.22236711846E+02  0.68577283763E+01  0.17285931731E+03  0.17120000000E+03 0.  0.
        998    1    1    2    0    0  0.11630529822E+02 -0.92065236825E+01  0.14504234462E+04  0.14505337647E+04  0.10000000000E+02 0.  1.
</event>
<event>
 5    1  0.1072898E-008  0.3782500E+03  0.7957747E-01  0.3458814E+00
         13   -1    0    0    0    0  0.00000000000E+00  0.00000000000E+00  0.14999999963E+04  0.15000000000E+04  0.10566000000E+00 0. -1.
        994   -1    0    0    0    0 -0.00000000000E+00 -0.00000000000E+00  0.11368683772E-12  0.17120000000E+03  0.17120000000E+03 0.  0.
         13    1    1    2    0    0 -0.10281547692E+02 -0.68157782810E+01  0.13306593986E+02  0.18145017609E+02  0.10566000000E+00 0. -1.
        994    1    1    2    0    0 -0.16943597071E+01 -0.22546929652E+01  0.50458900451E+01  0.17129756420E+03  0.17120000000E+03 0.  0.
        998    1    1    2    0    0  0.11975907399E+02  0.90704712462E+01  0.14816475122E+04  0.14817574182E+04  0.10000000000E+02 0. -1.
</event>
<event>
 5    1  0.1072898E-008  0.3759380E+03  0.7957747E-01  0.3469038E+00
         13   -1    0    0    0    0  0.00000000000E+00  0.00000000000E+00  0.14999999963E+04  0.15000000000E+04  0.10566000000E+00 0.  1.
        994   -1    0    0    0    0 -0.00000000000E+00 -0.00000000000E+00  0.11368683772E-12  0.17120000000E+03  0.17120000000E+03 0.  0.
         13    1    1    2    0    0  0.38977637119E+02  0.10190616322E+03  0.62834609074E+03  0.63774833846E+03  0.10566000000E+00 0.  1.
        994    1    1    2    0    0 -0.77731344057E+02 -0.81612526939E+02  0.50533816962E+02  0.21110630748E+03  0.17120000000E+03 0.  0.
        998    1    1    2    0    0  0.38753706938E+02 -0.20293636277E+02  0.82112008858E+03  0.82234535406E+03  0.10000000000E+02 0.  1.
</event>
<event>
 5    1  0.1072898E-008  0.3774483E+03  0.7957747E-01  0.3462345E+00
         13   -1    0    0    0    0  0.00000000000E+00  0.00000000000E+00  0.14999999963E+04  0.15000000000E+04  0.10566000000E+00 0.  1.
        994   -1    0    0    0    0 -0.00000000000E+00 -0.00000000000E+00  0.11368683772E-12  0.17120000000E+03  0.17120000000E+03 0.  0.
         13    1    1    2    0    0  0.24067439804E+02  0.37857079477E+02  0.66739731023E+02  0.80415191266E+02  0.10566000000E+00 0.  1.
        994    1    1    2    0    0  0.45352885502E+02 -0.32360713398E+02  0.26161546367E+02  0.18192846535E+03  0.17120000000E+03 0.  0.
        998    1    1    2    0    0 -0.69420325306E+02 -0.54963660796E+01  0.14070987189E+04  0.14088563434E+04  0.10000000000E+02 0.  1.
</event>
<event>
 5    1  0.1084446E-008  0.3848794E+03  0.7957747E-01  0.3430184E+00
         13   -1    0    0    0    0  0.00000000000E+00  0.00000000000E+00  0.14999999963E+04  0.15000000000E+04  0.10566000000E+00 0.  1.
        994   -1    0    0    0    0 -0.00000000000E+00 -0.00000000000E+00  0.11368683772E-12  0.17120000000E+03  0.17120000000E+03 0.  0.
         13    1    1    2    0    0  0.14765189154E+02  0.85473167279E+01  0.82053299694E+02  0.83808248930E+02  0.10566000000E+00 0.  1.
        994    1    1    2    0    0 -0.15444761501E+02 -0.91829501193E+01  0.27529646105E+01  0.17216238278E+03  0.17120000000E+03 0.  0.
        998    1    1    2    0    0  0.67957234704E+00  0.63563339142E+00  0.14151937320E+04  0.14152293683E+04  0.10000000000E+02 0.  1.
</event>
<event>
 5    1  0.1072898E-008  0.3952535E+03  0.7957747E-01  0.3387317E+00
         13   -1    0    0    0    0  0.00000000000E+00  0.00000000000E+00  0.14999999963E+04  0.15000000000E+04  0.10566000000E+00 0. -1.
        994   -1    0    0    0    0 -0.00000000000E+00 -0.00000000000E+00  0.11368683772E-12  0.17120000000E+03  0.17120000000E+03 0.  0.
         13    1    1    2    0    0  0.22883320783E+02  0.40340920440E+02  0.37100881469E+02  0.59392952459E+02  0.10566000000E+00 0. -1.
        994    1    1    2    0    0  0.10848427655E+02 -0.28566058848E+01  0.25456529527E+02  0.17344544813E+03  0.17120000000E+03 0.  0.
        998    1    1    2    0    0 -0.33731748438E+02 -0.37484314555E+02  0.14374425853E+04  0.14383615994E+04  0.10000000000E+02 0. -1.
</event>
<event>
 5    1  0.1072898E-008  0.3832233E+03  0.7957747E-01  0.3437242E+00
         13   -1    0    0    0    0  0.00000000000E+00  0.00000000000E+00  0.14999999963E+04  0.15000000000E+04  0.10566000000E+00 0.  1.
        994   -1    0    0    0    0 -0.00000000000E+00 -0.00000000000E+00  0.11368683772E-12  0.17120000000E+03  0.17120000000E+03 0.  0.
         13    1    1    2    0    0 -0.15525186015E+02 -0.27846440311E+01  0.49311232788E+02  0.51772526366E+02  0.10566000000E+00 0.  1.
        994    1    1    2    0    0  0.85714128715E+01 -0.31072263158E+01  0.27898011149E+01  0.17146529376E+03  0.17120000000E+03 0.  0.
        998    1    1    2    0    0  0.69537731434E+01  0.58918703468E+01  0.14478989624E+04  0.14479621799E+04  0.10000000000E+02 0.  1.
</event>
<event>
 5    1  0.1072898E-008  0.3837303E+03  0.7957747E-01  0.3435075E+00
         13   -1    0    0    0    0  0.00000000000E+00  0.00000000000E+00  0.14999999963E+04  0.15000000000E+04  0.10566000000E+00 0. -1.
        994   -1    0    0    0    0 -0.00000000000E+00 -0.00000000000E+00  0.11368683772E-12  0.17120000000E+03  0.17120000000E+03 0.  0.
         13    1    1    2    0    0 -0.12572405442E+02  0.33887750571E+00  0.33041622276E+02  0.35354493112E+02  0.10566000000E+00 0. -1.
        994    1    1    2    0    0  0.18088094027E+02  0.85331987508E+00  0.33454185982E+01  0.17218751153E+03  0.17120000000E+03 0.  0.
        998    1    1    2    0    0 -0.55156885849E+01 -0.11921973808E+01  0.14636129554E+04  0.14636579954E+04  0.10000000000E+02 0. -1.
</event>
<event>
 5    1  0.1072898E-008  0.3841721E+03  0.7957747E-01  0.3433191E+00
         13   -1    0    0    0    0  0.00000000000E+00  0.00000000000E+00  0.14999999963E+04  0.15000000000E+04  0.10566000000E+00 0.  1.
        994   -1    0    0    0    0 -0.00000000000E+00 -0.00000000000E+00  0.11368683772E-12  0.17120000000E+03  0.17120000000E+03 0.  0.
         13    1    1    2    0    0  0.81086938638E+01 -0.11335009494E+03  0.26555768550E+03  0.28885098309E+03  0.10566000000E+00 0.  1.
        994    1    1    2    0    0  0.65489485676E+01  0.12167394531E+03  0.75569687821E+02  0.22331067017E+03  0.17120000000E+03 0.  0.
        998    1    1    2    0    0 -0.14657642431E+02 -0.83238503692E+01  0.11588726230E+04  0.11590383467E+04  0.10000000000E+02 0.  0.
</event>
<event>
 5    1  0.1072898E-008  0.3839430E+03  0.7957747E-01  0.3434168E+00
         13   -1    0    0    0    0  0.00000000000E+00  0.00000000000E+00  0.14999999963E+04  0.15000000000E+04  0.10566000000E+00 0.  1.
        994   -1    0    0    0    0 -0.00000000000E+00 -0.00000000000E+00  0.11368683772E-12  0.17120000000E+03  0.17120000000E+03 0.  0.
         13    1    1    2    0    0  0.12833335944E+02  0.73321693577E+01  0.49166925120E+02  0.51340558127E+02  0.10566000000E+00 0.  1.
        994    1    1    2    0    0 -0.85675497001E+01 -0.13264398759E+02  0.29790991000E+01  0.17195249988E+03  0.17120000000E+03 0.  0.
        998    1    1    2    0    0 -0.42657862435E+01  0.59322294014E+01  0.14478539721E+04  0.14479069420E+04  0.10000000000E+02 0.  1.
</event>
<event>
 5    1  0.1072898E-008  0.3757660E+03  0.7957747E-01  0.3469804E+00
         13   -1    0    0    0    0  0.00000000000E+00  0.00000000000E+00  0.14999999963E+04  0.15000000000E+04  0.10566000000E+00 0. -1.
        994   -1    0    0    0    0 -0.00000000000E+00 -0.00000000000E+00  0.11368683772E-12  0.17120000000E+03  0.17120000000E+03 0.  0.
         13    1    1    2    0    0 -0.31107828502E+02  0.89988139143E+01  0.75803203841E+02  0.82430652809E+02  0.10566000000E+00 0. -1.
        994    1    1    2    0    0  0.37690071646E+02 -0.65216957102E+01  0.11262464619E+02  0.17578212971E+03  0.17120000000E+03 0.  0.
        998    1    1    2    0    0 -0.65822431449E+01 -0.24771182040E+01  0.14129343278E+04  0.14129872175E+04  0.10000000000E+02 0. -1.
</event>
<event>
 5    1  0.1072898E-008  0.3765296E+03  0.7957747E-01  0.3466410E+00
         13   -1    0    0    0    0  0.00000000000E+00  0.00000000000E+00  0.14999999963E+04  0.15000000000E+04  0.10566000000E+00 0. -1.
        994   -1    0    0    0    0 -0.00000000000E+00 -0.00000000000E+00  0.11368683772E-12  0.17120000000E+03  0.17120000000E+03 0.  0.
         13    1    1    2    0    0 -0.36713230931E+02  0.13775435158E+02  0.12298997787E+03  0.12908977403E+03  0.10566000000E+00 0. -1.
        994    1    1    2    0    0  0.34351167076E+02 -0.40457777115E+00  0.98967620814E+01  0.17489297374E+03  0.17120000000E+03 0.  0.
        998    1    1    2    0    0  0.23620638556E+01 -0.13370857387E+02  0.13671132563E+04  0.13672172522E+04  0.10000000000E+02 0. -1.
</event>
<event>
 5    1  0.1072898E-008  0.3712018E+03  0.7957747E-01  0.3490386E+00
         13   -1    0    0    0    0  0.00000000000E+00  0.00000000000E+00  0.14999999963E+04  0.15000000000E+04  0.10566000000E+00 0. -1.
        994   -1    0    0    0    0 -0.00000000000E+00 -0.00000000000E+00  0.11368683772E-12  0.17120000000E+03  0.17120000000E+03 0.  0.
         13    1    1    2    0    0  0.17225779212E+02 -0.35730950775E+01  0.81102139179E+01  0.19372176226E+02  0.10566000000E+00 0. -1.
        994    1    1    2    0    0 -0.17978238061E+02 -0.37620548185E+00  0.12711729802E+02  0.17261050562E+03  0.17120000000E+03 0.  0.
        998    1    1    2    0    0  0.75245884846E+00  0.39493005593E+01  0.14791780526E+04  0.14792173182E+04  0.10000000000E+02 0. -1.
</event>
<event>
 5    1  0.1072898E-008  0.3746466E+03  0.7957747E-01  0.3474805E+00
         13   -1    0    0    0    0  0.00000000000E+00  0.00000000000E+00  0.14999999963E+04  0.15000000000E+04  0.10566000000E+00 0. -1.
        994   -1    0    0    0    0 -0.00000000000E+00 -0.00000000000E+00  0.11368683772E-12  0.17120000000E+03  0.17120000000E+03 0.  0.
         13    1    1    2    0    0 -0.13985636103E+02  0.26699403330E+02  0.63394893190E+02  0.70195297578E+02  0.10566000000E+00 0. -1.
        994    1    1    2    0    0  0.14349853522E+02 -0.15539556375E+02  0.83843931118E+01  0.17270533911E+03  0.17120000000E+03 0.  0.
        998    1    1    2    0    0 -0.36421741867E+00 -0.11159846955E+02  0.14282207100E+04  0.14282993633E+04  0.10000000000E+02 0. -1.
</event>
<event>
 5    1  0.1072898E-008  0.3754572E+03  0.7957747E-01  0.3471180E+00
         13   -1    0    0    0    0  0.00000000000E+00  0.00000000000E+00  0.14999999963E+04  0.15000000000E+04  0.10566000000E+00 0.  1.
        994   -1    0    0    0    0 -0.00000000000E+00 -0.00000000000E+00  0.11368683772E-12  0.17120000000E+03  0.17120000000E+03 0.  0.
         13    1    1    2    0    0  0.34320977674E+02 -0.26851151261E+02  0.15879524874E+03  0.16466589209E+03  0.10566000000E+00 0.  1.
        994    1    1    2    0    0 -0.21521485382E+01  0.12199098632E+02  0.69650993651E+01  0.17178883072E+03  0.17120000000E+03 0.  0.
        998    1    1    2    0    0 -0.32168829136E+02  0.14652052628E+02  0.13342396482E+04  0.13347452772E+04  0.10000000000E+02 0.  1.
</event>
<event>
 5    1  0.1072898E-008  0.3855733E+03  0.7957747E-01  0.3427245E+00
         13   -1    0    0    0    0  0.00000000000E+00  0.00000000000E+00  0.14999999963E+04  0.15000000000E+04  0.10566000000E+00 0.  1.
        994   -1    0    0    0    0 -0.00000000000E+00 -0.00000000000E+00  0.11368683772E-12  0.17120000000E+03  0.17120000000E+03 0.  0.
         13    1    1    2    0    0 -0.11261603289E+02  0.81839295231E+01  0.69583649509E+02  0.70962637029E+02  0.10566000000E+00 0.  1.
        994    1    1    2    0    0  0.19582148912E+02  0.13665428800E+01  0.26116739040E+01  0.17234148902E+03  0.17120000000E+03 0.  0.
        998    1    1    2    0    0 -0.83205456230E+01 -0.95504724031E+01  0.14278046729E+04  0.14278958740E+04  0.10000000000E+02 0.  1.
</event>
<event>
 5    1  0.1072898E-008  0.3745731E+03  0.7957747E-01  0.3475134E+00
         13   -1    0    0    0    0  0.00000000000E+00  0.00000000000E+00  0.14999999963E+04  0.15000000000E+04  0.10566000000E+00 0. -1.
        994   -1    0    0    0    0 -0.00000000000E+00 -0.00000000000E+00  0.11368683772E-12  0.17120000000E+03  0.17120000000E+03 0.  0.
         13    1    1    2    0    0  0.35055674518E+02  0.43622361456E+02  0.28218391264E+03  0.28767965248E+03  0.10566000000E+00 0. -1.
        994    1    1    2    0    0  0.16645554900E+02 -0.16347505389E+02  0.87532406778E+01  0.17300397294E+03  0.17120000000E+03 0.  0.
        998    1    1    2    0    0 -0.51701229418E+02 -0.27274856068E+02  0.12090628430E+04  0.12105163746E+04  0.10000000000E+02 0. -1.
</event>
<event>
 5    1  0.1072898E-008  0.3841458E+03  0.7957747E-01  0.3433303E+00
         13   -1    0    0    0    0  0.00000000000E+00  0.00000000000E+00  0.14999999963E+04  0.15000000000E+04  0.10566000000E+00 0. -1.
        994   -1    0    0    0    0 -0.00000000000E+00 -0.00000000000E+00  0.11368683772E-12  0.17120000000E+03  0.17120000000E+03 0.  0.
         13    1    1    2    0    0 -0.14977312393E+02  0.92682159602E+00  0.54880405610E+02  0.56895069811E+02  0.10566000000E+00 0. -1.
        994    1    1    2    0    0  0.79557299673E+01 -0.46327314177E+01  0.23344076101E+01  0.17146324766E+03  0.17120000000E+03 0.  0.
        998    1    1    2    0    0  0.70215824257E+01  0.37059098217E+01  0.14427851831E+04  0.14428416825E+04  0.10000000000E+02 0. -1.
</event>
<event>
 5    1  0.1072898E-008  0.3824648E+03  0.7957747E-01  0.3440496E+00
         13   -1    0    0    0    0  0.00000000000E+00  0.00000000000E+00  0.14999999963E+04  0.15000000000E+04  0.10566000000E+00 0.  1.
        994   -1    0    0    0    0 -0.00000000000E+00 -0.00000000000E+00  0.11368683772E-12  0.17120000000E+03  0.17120000000E+03 0.  0.
         13    1    1    2    0    0  0.93426737196E+01 -0.10907885974E+02  0.34415128805E+02  0.37291819255E+02  0.10566000000E+00 0.  1.
        994    1    1    2    0    0 -0.47651175020E+01  0.10949590362E+02  0.33670396130E+01  0.17164899309E+03  0.17120000000E+03 0.  0.
        998    1    1    2    0    0 -0.45775562177E+01 -0.41704387989E-01  0.14622178279E+04  0.14622591877E+04  0.10000000000E+02 0.  1.
</event>
<event>
 5    1  0.1072898E-008  0.3773420E+03  0.7957747E-01  0.3462814E+00
         13   -1    0    0    0    0  0.00000000000E+00  0.00000000000E+00  0.14999999963E+04  0.15000000000E+04  0.10566000000E+00 0.  1.
        994   -1    0    0    0    0 -0.00000000000E+00 -0.00000000000E+00  0.11368683772E-12  0.17120000000E+03  0.17120000000E+03 0.  0.
         13    1    1    2    0    0 -0.33130048413E+02 -0.98061057302E+01  0.13011666318E+03  0.13462584083E+03  0.10566000000E+00 0.  1.
        994    1    1    2    0    0 -0.22009267854E+02  0.20125386063E+02  0.84864567729E+01  0.17398534129E+03  0.17120000000E+03 0.  0.
        998    1    1    2    0    0  0.55139316267E+02 -0.10319280333E+02  0.13613968763E+04  0.13625888179E+04  0.10000000000E+02 0.  1.
</event>
<event>
 5    1  0.1160706E-008  0.3861843E+03  0.7957747E-01  0.3424665E+00
         13   -1    0    0    0    0  0.00000000000E+00  0.00000000000E+00  0.14999999963E+04  0.15000000000E+04  0.10566000000E+00 0. -1.
        994   -1    0    0    0    0 -0.00000000000E+00 -0.00000000000E+00  0.11368683772E-12  0.17120000000E+03  0.17120000000E+03 0.  0.
         13    1    1    2    0    0  0.10706644466E+02 -0.47255305951E+01  0.63321684164E+02  0.64394174616E+02  0.10566000000E+00 0. -1.
        994    1    1    2    0    0 -0.13346791387E+02  0.54661110016E+01  0.17250575877E+01  0.17181510712E+03  0.17120000000E+03 0.  0.
        998    1    1    2    0    0  0.26401469211E+01 -0.74058040651E+00  0.14349532545E+04  0.14349907183E+04  0.10000000000E+02 0. -1.
</event>
<event>
 5    1  0.1072898E-008  0.3856834E+03  0.7957747E-01  0.3426779E+00
         13   -1    0    0    0    0  0.00000000000E+00  0.00000000000E+00  0.14999999963E+04  0.15000000000E+04  0.10566000000E+00 0.  1.
        994   -1    0    0    0    0 -0.00000000000E+00 -0.00000000000E+00  0.11368683772E-12  0.17120000000E+03  0.17120000000E+03 0.  0.
         13    1    1    2    0    0 -0.86276682593E-01  0.11815581200E+02  0.53646942861E+02  0.54932877633E+02  0.10566000000E+00 0.  1.
        994    1    1    2    0    0 -0.92241095941E+01 -0.10385786508E+02  0.19246359009E+01  0.17177337682E+03  0.17120000000E+03 0.  0.
        998    1    1    2    0    0  0.93103862767E+01 -0.14297946919E+01  0.14444284175E+04  0.14444937456E+04  0.10000000000E+02 0.  1.
</event>
<event>
 5    1  0.1072898E-008  0.3815125E+03  0.7957747E-01  0.3444599E+00
         13   -1    0    0    0    0  0.00000000000E+00  0.00000000000E+00  0.14999999963E+04  0.15000000000E+04  0.10566000000E+00 0. -1.
        994   -1    0    0    0    0 -0.00000000000E+00 -0.00000000000E+00  0.11368683772E-12  0.17120000000E+03  0.17120000000E+03 0.  0.
         13    1    1    2    0    0  0.22266539272E+02  0.33887508787E+01  0.75249657541E+02  0.78548103273E+02  0.10566000000E+00 0. -1.
        994    1    1    2    0    0 -0.10229391286E+02 -0.63035126284E+01  0.38519637565E+01  0.17166435956E+03  0.17120000000E+03 0.  0.
        998    1    1    2    0    0 -0.12037147986E+02  0.29147617498E+01  0.14208983750E+04  0.14209875372E+04  0.10000000000E+02 0. -1.
</event>
<event>
 5    1  0.1072898E-008  0.3802731E+03  0.7957747E-01  0.3449970E+00
         13   -1    0    0    0    0  0.00000000000E+00  0.00000000000E+00  0.14999999963E+04  0.15000000000E+04  0.10566000000E+00 0. -1.
        994   -1    0    0    0    0 -0.00000000000E+00 -0.00000000000E+00  0.11368683772E-12  0.17120000000E+03  0.17120000000E+03 0.  0.
         13    1    1    2    0    0  0.13375194076E+02  0.15190271465E+02  0.52791096658E+02  0.56538051029E+02  0.10566000000E+00 0. -1.
        994    1    1    2    0    0 -0.25814712567E+01  0.46606312500E+01  0.40901887506E+01  0.17133171079E+03  0.17120000000E+03 0.  0.
        998    1    1    2    0    0 -0.10793722819E+02 -0.19850902715E+02  0.14431187109E+04  0.14433302382E+04  0.10000000000E+02 0. -1.
</event>
<event>
 5    1  0.1072898E-008  0.3806640E+03  0.7957747E-01  0.3448272E+00
         13   -1    0    0    0    0  0.00000000000E+00  0.00000000000E+00  0.14999999963E+04  0.15000000000E+04  0.10566000000E+00 0.  1.
        994   -1    0    0    0    0 -0.00000000000E+00 -0.00000000000E+00  0.11368683772E-12  0.17120000000E+03  0.17120000000E+03 0.  0.
         13    1    1    2    0    0  0.11495049210E+03 -0.44467012746E+01  0.65554734032E+03  0.66556420829E+03  0.10566000000E+00 0.  1.
        994    1    1    2    0    0 -0.39371233951E+02  0.11485513043E+03  0.72413789888E+02  0.22202475541E+03  0.17120000000E+03 0.  0.
        998    1    1    2    0    0 -0.75579258152E+02 -0.11040842916E+03  0.77203886607E+03  0.78361103630E+03  0.10000000000E+02 0.  1.
</event>
<event>
 5    1  0.1072898E-008  0.4048562E+03  0.7957747E-01  0.3349591E+00
         13   -1    0    0    0    0  0.00000000000E+00  0.00000000000E+00  0.14999999963E+04  0.15000000000E+04  0.10566000000E+00 0. -1.
        994   -1    0    0    0    0 -0.00000000000E+00 -0.00000000000E+00  0.11368683772E-12  0.17120000000E+03  0.17120000000E+03 0.  0.
         13    1    1    2    0    0 -0.39280040876E+02  0.48333596366E+02  0.50688969329E+02  0.80302185054E+02  0.10566000000E+00 0. -1.
        994    1    1    2    0    0  0.29513720810E+02 -0.57502622962E+02  0.47596029473E+02  0.18908313882E+03  0.17120000000E+03 0.  0.
        998    1    1    2    0    0  0.97663200665E+01  0.91690265967E+01  0.14017149975E+04  0.14018146761E+04  0.10000000000E+02 0. -1.
</event>
<event>
 5    1  0.1072898E-008  0.3856839E+03  0.7957747E-01  0.3426777E+00
         13   -1    0    0    0    0  0.00000000000E+00  0.00000000000E+00  0.14999999963E+04  0.15000000000E+04  0.10566000000E+00 0. -1.
        994   -1    0    0    0    0 -0.00000000000E+00 -0.00000000000E+00  0.11368683772E-12  0.17120000000E+03  0.17120000000E+03 0.  0.
         13    1    1    2    0    0  0.82361213161E+01 -0.78719801365E+01  0.55014911360E+02  0.56182322857E+02  0.10566000000E+00 0. -1.
        994    1    1    2    0    0  0.55535761803E+01 -0.12998915886E+01  0.13977245532E+01  0.17130068757E+03  0.17120000000E+03 0.  0.
        998    1    1    2    0    0 -0.13789697496E+02  0.91718717250E+01  0.14435873604E+04  0.14437169896E+04  0.10000000000E+02 0. -1.
</event>
<event>
 5    1  0.1072898E-008  0.3741267E+03  0.7957747E-01  0.3477138E+00
         13   -1    0    0    0    0  0.00000000000E+00  0.00000000000E+00  0.14999999963E+04  0.15000000000E+04  0.10566000000E+00 0. -1.
        994   -1    0    0    0    0 -0.00000000000E+00 -0.00000000000E+00  0.11368683772E-12  0.17120000000E+03  0.17120000000E+03 0.  0.
         13    1    1    2    0    0 -0.85219506446E+01 -0.17604064696E+02  0.23842096987E+02  0.30838020193E+02  0.10566000000E+00 0. -1.
        994    1    1    2    0    0  0.35635039470E+01  0.13205967770E+02  0.77659752073E+01  0.17192104733E+03  0.17120000000E+03 0.  0.
        998    1    1    2    0    0  0.49584466976E+01  0.43980969262E+01  0.14683919241E+04  0.14684409325E+04  0.10000000000E+02 0. -1.
</event>
<event>
 5    1  0.1072898E-008  0.3849468E+03  0.7957747E-01  0.3429898E+00
         13   -1    0    0    0    0  0.00000000000E+00  0.00000000000E+00  0.14999999963E+04  0.15000000000E+04  0.10566000000E+00 0.  1.
        994   -1    0    0    0    0 -0.00000000000E+00 -0.00000000000E+00  0.11368683772E-12  0.17120000000E+03  0.17120000000E+03 0.  0.
         13    1    1    2    0    0 -0.10968171450E+02  0.62881652659E+01  0.47433268881E+02  0.49089387530E+02  0.10566000000E+00 0.  1.
        994    1    1    2    0    0  0.88548346415E+01 -0.71983619713E+01  0.20849855695E+01  0.17159257465E+03  0.17120000000E+03 0.  0.
        998    1    1    2    0    0  0.21133368082E+01  0.91019670541E+00  0.14504817418E+04  0.14505180378E+04  0.10000000000E+02 0.  1.
</event>
<event>
 5    1  0.1072898E-008  0.3800412E+03  0.7957747E-01  0.3450979E+00
         13   -1    0    0    0    0  0.00000000000E+00  0.00000000000E+00  0.14999999963E+04  0.15000000000E+04  0.10566000000E+00 0. -1.
        994   -1    0    0    0    0 -0.00000000000E+00 -0.00000000000E+00  0.11368683772E-12  0.17120000000E+03  0.17120000000E+03 0.  0.
         13    1    1    2    0    0  0.11359104251E+02 -0.14089877019E+02  0.41012316673E+02  0.44828285342E+02  0.10566000000E+00 0. -1.
        994    1    1    2    0    0  0.19381696883E+02  0.53635715239E+01  0.54652773227E+01  0.17246369859E+03  0.17120000000E+03 0.  0.
        998    1    1    2    0    0 -0.30740801133E+02  0.87263054947E+01  0.14535224023E+04  0.14539080161E+04  0.10000000000E+02 0. -1.
</event>
<event>
 5    1  0.1072898E-008  0.3798248E+03  0.7957747E-01  0.3451922E+00
         13   -1    0    0    0    0  0.00000000000E+00  0.00000000000E+00  0.14999999963E+04  0.15000000000E+04  0.10566000000E+00 0. -1.
        994   -1    0    0    0    0 -0.00000000000E+00 -0.00000000000E+00  0.11368683772E-12  0.17120000000E+03  0.17120000000E+03 0.  0.
         13    1    1    2    0    0  0.13512527301E+02 -0.21414871650E+02  0.77578148623E+02  0.81606160489E+02  0.10566000000E+00 0. -1.
        994    1    1    2    0    0 -0.97496520964E+00  0.73503880638E+01  0.44055504562E+01  0.17141711594E+03  0.17120000000E+03 0.  0.
        998    1    1    2    0    0 -0.12537562091E+02  0.14064483586E+02  0.14180162972E+04  0.14181767236E+04  0.10000000000E+02 0. -1.
</event>
<event>
 5    1  0.1072898E-008  0.3806251E+03  0.7957747E-01  0.3448441E+00
         13   -1    0    0    0    0  0.00000000000E+00  0.00000000000E+00  0.14999999963E+04  0.15000000000E+04  0.10566000000E+00 0. -1.
        994   -1    0    0    0    0 -0.00000000000E+00 -0.00000000000E+00  0.11368683772E-12  0.17120000000E+03  0.17120000000E+03 0.  0.
         13    1    1    2    0    0 -0.28528005643E+02  0.21243809990E+02  0.21001952284E+03  0.21301022912E+03  0.10566000000E+00 0. -1.
        994    1    1    2    0    0 -0.82855753569E+01  0.40128464248E+01  0.41007223684E+01  0.17149638369E+03  0.17120000000E+03 0.  0.
        998    1    1    2    0    0  0.36813581000E+02 -0.25256656414E+02  0.12858797511E+04  0.12866933872E+04  0.10000000000E+02 0. -1.
</event>
<event>
 5    1  0.1072898E-008  0.3837426E+03  0.7957747E-01  0.3435023E+00
         13   -1    0    0    0    0  0.00000000000E+00  0.00000000000E+00  0.14999999963E+04  0.15000000000E+04  0.10566000000E+00 0.  1.
        994   -1    0    0    0    0 -0.00000000000E+00 -0.00000000000E+00  0.11368683772E-12  0.17120000000E+03  0.17120000000E+03 0.  0.
         13    1    1    2    0    0 -0.77531008528E+00 -0.25851486681E+02  0.15044062099E+03  0.15264760750E+03  0.10566000000E+00 0.  1.
        994    1    1    2    0    0  0.74183395082E+01  0.13280357597E+02  0.30201997334E+01  0.17190102171E+03  0.17120000000E+03 0.  0.
        998    1    1    2    0    0 -0.66430294229E+01  0.12571129084E+02  0.13465391756E+04  0.13466513708E+04  0.10000000000E+02 0.  1.
</event>
<event>
 5    1  0.1072898E-008  0.3851266E+03  0.7957747E-01  0.3429135E+00
         13   -1    0    0    0    0  0.00000000000E+00  0.00000000000E+00  0.14999999963E+04  0.15000000000E+04  0.10566000000E+00 0. -1.
        994   -1    0    0    0    0 -0.00000000000E+00 -0.00000000000E+00  0.11368683772E-12  0.17120000000E+03  0.17120000000E+03 0.  0.
         13    1    1    2    0    0 -0.46487570421E+01 -0.15307345908E+02  0.79648938867E+02  0.81239709548E+02  0.10566000000E+00 0. -1.
        994    1    1    2    0    0  0.27229329086E+01  0.13932859823E+02  0.22300707723E+01  0.17180207264E+03  0.17120000000E+03 0.  0.
        998    1    1    2    0    0  0.19258241335E+01  0.13744860850E+01  0.14181209866E+04  0.14181582178E+04  0.10000000000E+02 0. -1.
</event>
<event>
 5    1  0.1072898E-008  0.3833943E+03  0.7957747E-01  0.3436511E+00
         13   -1    0    0    0    0  0.00000000000E+00  0.00000000000E+00  0.14999999963E+04  0.15000000000E+04  0.10566000000E+00 0. -1.
        994   -1    0    0    0    0 -0.00000000000E+00 -0.00000000000E+00  0.11368683772E-12  0.17120000000E+03  0.17120000000E+03 0.  0.
         13    1    1    2    0    0  0.13626298465E+02 -0.23367479536E+02  0.13494251785E+03  0.13762706637E+03  0.10566000000E+00 0. -1.
        994    1    1    2    0    0 -0.11254000205E+02  0.28646454929E+02  0.55672775591E+01  0.17403363606E+03  0.17120000000E+03 0.  0.
        998    1    1    2    0    0 -0.23722982597E+01 -0.52789753934E+01  0.13594902009E+04  0.13595392976E+04  0.10000000000E+02 0. -1.
</event>
<event>
 5    1  0.1072898E-008  0.3743430E+03  0.7957747E-01  0.3476167E+00
         13   -1    0    0    0    0  0.00000000000E+00  0.00000000000E+00  0.14999999963E+04  0.15000000000E+04  0.10566000000E+00 0. -1.
        994   -1    0    0    0    0 -0.00000000000E+00 -0.00000000000E+00  0.11368683772E-12  0.17120000000E+03  0.17120000000E+03 0.  0.
         13    1    1    2    0    0 -0.54866665754E+02  0.28362495074E+02  0.35464328353E+03  0.35998146043E+03  0.10566000000E+00 0. -1.
        994    1    1    2    0    0  0.50438130177E+01  0.22626954886E+01  0.71206429741E+01  0.17143717041E+03  0.17120000000E+03 0.  0.
        998    1    1    2    0    0  0.49822852736E+02 -0.30625190563E+02  0.11382360698E+04  0.11397813692E+04  0.10000000000E+02 0. -1.
</event>
<event>
 5    1  0.1072898E-008  0.3839028E+03  0.7957747E-01  0.3434339E+00
         13   -1    0    0    0    0  0.00000000000E+00  0.00000000000E+00  0.14999999963E+04  0.15000000000E+04  0.10566000000E+00 0. -1.
        994   -1    0    0    0    0 -0.00000000000E+00 -0.00000000000E+00  0.11368683772E-12  0.17120000000E+03  0.17120000000E+03 0.  0.
         13    1    1    2    0    0 -0.41535469473E+01  0.22111322941E+02  0.11160929844E+03  0.11385433333E+03  0.10566000000E+00 0. -1.
        994    1    1    2    0    0 -0.15295621273E+01 -0.19748794215E+02  0.34718616772E+01  0.17237705258E+03  0.17120000000E+03 0.  0.
        998    1    1    2    0    0  0.56831090745E+01 -0.23625287253E+01  0.13849188362E+04  0.13849686141E+04  0.10000000000E+02 0. -1.
</event>
<event>
 5    1  0.1072898E-008  0.3801678E+03  0.7957747E-01  0.3450428E+00
         13   -1    0    0    0    0  0.00000000000E+00  0.00000000000E+00  0.14999999963E+04  0.15000000000E+04  0.10566000000E+00 0. -1.
        994   -1    0    0    0    0 -0.00000000000E+00 -0.00000000000E+00  0.11368683772E-12  0.17120000000E+03  0.17120000000E+03 0.  0.
         13    1    1    2    0    0 -0.14012429612E+02  0.33803939173E+02  0.42342240359E+02  0.55963657582E+02  0.10566000000E+00 0. -1.
        994    1    1    2    0    0  0.31980558759E+02  0.84969063284E+02  0.46952066037E+02  0.19939015612E+03  0.17120000000E+03 0.  0.
        998    1    1    2    0    0 -0.17968129148E+02 -0.11877300246E+03  0.14107056899E+04  0.14158461863E+04  0.10000000000E+02 0. -1.
</event>
<event>
 5    1  0.1072898E-008  0.3738657E+03  0.7957747E-01  0.3478311E+00
         13   -1    0    0    0    0  0.00000000000E+00  0.00000000000E+00  0.14999999963E+04  0.15000000000E+04  0.10566000000E+00 0.  1.
        994   -1    0    0    0    0 -0.00000000000E+00 -0.00000000000E+00  0.11368683772E-12  0.17120000000E+03  0.17120000000E+03 0.  0.
         13    1    1    2    0    0 -0.32595161074E+02 -0.84198988340E+00  0.75530983644E+02  0.82268427277E+02  0.10566000000E+00 0.  1.
        994    1    1    2    0    0  0.18223614684E+01 -0.41881688438E+01  0.73335725929E+01  0.17141786093E+03  0.17120000000E+03 0.  0.
        998    1    1    2    0    0  0.30772799605E+02  0.50301587272E+01  0.14171354400E+04  0.14175137118E+04  0.10000000000E+02 0.  1.
</event>
<event>
 5    1  0.1072898E-008  0.3846905E+03  0.7957747E-01  0.3430986E+00
         13   -1    0    0    0    0  0.00000000000E+00  0.00000000000E+00  0.14999999963E+04  0.15000000000E+04  0.10566000000E+00 0. -1.
        994   -1    0    0    0    0 -0.00000000000E+00 -0.00000000000E+00  0.11368683772E-12  0.17120000000E+03  0.17120000000E+03 0.  0.
         13    1    1    2    0    0 -0.23078780055E+01  0.15453715269E+02  0.79479084879E+02  0.81000492059E+02  0.10566000000E+00 0. -1.
        994    1    1    2    0    0 -0.41439317232E+02  0.34154598847E+01  0.74960984151E+01  0.17633636571E+03  0.17120000000E+03 0.  0.
        998    1    1    2    0    0  0.43747195237E+02 -0.18869175154E+02  0.14130248130E+04  0.14138631422E+04  0.10000000000E+02 0. -1.
</event>
<event>
 5    1  0.1072898E-008  0.3752223E+03  0.7957747E-01  0.3472229E+00
         13   -1    0    0    0    0  0.00000000000E+00  0.00000000000E+00  0.14999999963E+04  0.15000000000E+04  0.10566000000E+00 0.  1.
        994   -1    0    0    0    0 -0.00000000000E+00 -0.00000000000E+00  0.11368683772E-12  0.17120000000E+03  0.17120000000E+03 0.  0.
         13    1    1    2    0    0  0.21571254867E+02 -0.65019669808E+01  0.12326037582E+02  0.25681452016E+02  0.10566000000E+00 0.  1.
        994    1    1    2    0    0 -0.21835359075E+02  0.11011472722E+02  0.15859807231E+02  0.17366349335E+03  0.17120000000E+03 0.  0.
        998    1    1    2    0    0  0.26410420871E+00 -0.45095057410E+01  0.14718141515E+04  0.14718550546E+04  0.10000000000E+02 0.  1.
</event>
<event>
 5    1  0.1072898E-008  0.3690696E+03  0.7957747E-01  0.3500178E+00
         13   -1    0    0    0    0  0.00000000000E+00  0.00000000000E+00  0.14999999963E+04  0.15000000000E+04  0.10566000000E+00 0.  1.
        994   -1    0    0    0    0 -0.00000000000E+00 -0.00000000000E+00  0.11368683772E-12  0.17120000000E+03  0.17120000000E+03 0.  0.
         13    1    1    2    0    0 -0.12774352378E+02  0.37665265996E+01  0.40409109594E+01  0.13918007283E+02  0.10566000000E+00 0.  1.
        994    1    1    2    0    0 -0.15087840385E+02  0.14997562944E+02  0.12026301327E+02  0.17293536869E+03  0.17120000000E+03 0.  0.
        998    1    1    2    0    0  0.27862192763E+02 -0.18764089544E+02  0.14839327840E+04  0.14843466240E+04  0.10000000000E+02 0.  1.
</event>
<event>
 5    1  0.1072898E-008  0.3858906E+03  0.7957747E-01  0.3425904E+00
         13   -1    0    0    0    0  0.00000000000E+00  0.00000000000E+00  0.14999999963E+04  0.15000000000E+04  0.10566000000E+00 0. -1.
        994   -1    0    0    0    0 -0.00000000000E+00 -0.00000000000E+00  0.11368683772E-12  0.17120000000E+03  0.17120000000E+03 0.  0.
         13    1    1    2    0    0  0.32009559162E+01  0.13468004176E+02  0.80406636364E+02  0.81589653699E+02  0.10566000000E+00 0. -1.
        994    1    1    2    0    0 -0.15061592119E+01 -0.10510839673E+02  0.15584148969E+01  0.17153604555E+03  0.17120000000E+03 0.  0.
        998    1    1    2    0    0 -0.16947967043E+01 -0.29571645034E+01  0.14180349450E+04  0.14180743008E+04  0.10000000000E+02 0. -1.
</event>
<event>
 5    1  0.1072898E-008  0.3709089E+03  0.7957747E-01  0.3491724E+00
         13   -1    0    0    0    0  0.00000000000E+00  0.00000000000E+00  0.14999999963E+04  0.15000000000E+04  0.10566000000E+00 0. -1.
        994   -1    0    0    0    0 -0.00000000000E+00 -0.00000000000E+00  0.11368683772E-12  0.17120000000E+03  0.17120000000E+03 0.  0.
         13    1    1    2    0    0 -0.93377771583E+02 -0.44312128626E+02  0.38154060136E+03  0.39529256838E+03  0.10566000000E+00 0. -1.
        994    1    1    2    0    0  0.81044012812E+02  0.35444567379E+02  0.39391766434E+02  0.19668655427E+03  0.17120000000E+03 0.  0.
        998    1    1    2    0    0  0.12333758771E+02  0.88675612474E+01  0.10790676285E+04  0.10792208773E+04  0.10000000000E+02 0.  1.
</event>
<event>
 5    1  0.1072898E-008  0.3797023E+03  0.7957747E-01  0.3452456E+00
         13   -1    0    0    0    0  0.00000000000E+00  0.00000000000E+00  0.14999999963E+04  0.15000000000E+04  0.10566000000E+00 0. -1.
        994   -1    0    0    0    0 -0.00000000000E+00 -0.00000000000E+00  0.11368683772E-12  0.17120000000E+03  0.17120000000E+03 0.  0.
         13    1    1    2    0    0  0.20657273711E+02  0.96503416372E+01  0.58596886860E+02  0.62876532702E+02  0.10566000000E+00 0. -1.
        994    1    1    2    0    0 -0.13568356334E+02 -0.10697377646E+02  0.52830981927E+01  0.17215076331E+03  0.17120000000E+03 0.  0.
        998    1    1    2    0    0 -0.70889173768E+01  0.10470360090E+01  0.14361200112E+04  0.14361727040E+04  0.10000000000E+02 0. -1.
</event>
<event>
 5    1  0.1072898E-008  0.3940513E+03  0.7957747E-01  0.3392169E+00
         13   -1    0    0    0    0  0.00000000000E+00  0.00000000000E+00  0.14999999963E+04  0.15000000000E+04  0.10566000000E+00 0. -1.
        994   -1    0    0    0    0 -0.00000000000E+00 -0.00000000000E+00  0.11368683772E-12  0.17120000000E+03  0.17120000000E+03 0.  0.
         13    1    1    2    0    0  0.25051677214E+02 -0.21208244477E+02  0.12052967360E+02  0.34966574771E+02  0.10566000000E+00 0. -1.
        994    1    1    2    0    0 -0.18495297889E+02  0.26657913839E+02  0.28303988532E+02  0.17653123288E+03  0.17120000000E+03 0.  0.
        998    1    1    2    0    0 -0.65563793248E+01 -0.54496693626E+01  0.14596430404E+04  0.14597021924E+04  0.10000000000E+02 0. -1.
</event>
<event>
 5    1  0.1072898E-008  0.3746733E+03  0.7957747E-01  0.3474685E+00
         13   -1    0    0    0    0  0.00000000000E+00  0.00000000000E+00  0.14999999963E+04  0.15000000000E+04  0.10566000000E+00 0.  1.
        994   -1    0    0    0    0 -0.00000000000E+00 -0.00000000000E+00  0.11368683772E-12  0.17120000000E+03  0.17120000000E+03 0.  0.
         13    1    1    2    0    0 -0.26006104085E+02 -0.99148247259E+02  0.60109400609E+03  0.60977102891E+03  0.10566000000E+00 0.  1.
        994    1    1    2    0    0 -0.96237281703E+01  0.19037520722E+02  0.15050443346E+02  0.17317909569E+03  0.17120000000E+03 0.  0.
        998    1    1    2    0    0  0.35629832255E+02  0.80110726537E+02  0.88385554685E+03  0.88824987540E+03  0.10000000000E+02 0.  1.
</event>
<event>
 5    1  0.1072898E-008  0.3846798E+03  0.7957747E-01  0.3431032E+00
         13   -1    0    0    0    0  0.00000000000E+00  0.00000000000E+00  0.14999999963E+04  0.15000000000E+04  0.10566000000E+00 0.  1.
        994   -1    0    0    0    0 -0.00000000000E+00 -0.00000000000E+00  0.11368683772E-12  0.17120000000E+03  0.17120000000E+03 0.  0.
         13    1    1    2    0    0 -0.12544011416E+02 -0.19899884133E+02  0.13781919462E+03  0.13981237134E+03  0.10566000000E+00 0.  1.
        994    1    1    2    0    0  0.12896930743E+02  0.24425750513E+02  0.43049299885E+01  0.17346734717E+03  0.17120000000E+03 0.  0.
        998    1    1    2    0    0 -0.35291932683E+00 -0.45258663802E+01  0.13578758717E+04  0.13579202815E+04  0.10000000000E+02 0.  1.
</event>
<event>
 5    1  0.1072898E-008  0.3757476E+03  0.7957747E-01  0.3469886E+00
         13   -1    0    0    0    0  0.00000000000E+00  0.00000000000E+00  0.14999999963E+04  0.15000000000E+04  0.10566000000E+00 0.  1.
        994   -1    0    0    0    0 -0.00000000000E+00 -0.00000000000E+00  0.11368683772E-12  0.17120000000E+03  0.17120000000E+03 0.  0.
         13    1    1    2    0    0  0.67582059608E+02  0.13667933648E+02  0.39258215773E+03  0.39859115510E+03  0.10566000000E+00 0.  1.
        994    1    1    2    0    0 -0.35879041477E+02  0.23798402993E+01  0.10691915328E+02  0.17526187923E+03  0.17120000000E+03 0.  0.
        998    1    1    2    0    0 -0.31703018131E+02 -0.16047773947E+02  0.10967259232E+04  0.10973469657E+04  0.10000000000E+02 0.  1.
</event>
<event>
 5    1  0.1072898E-008  0.2463827E+03  0.7957747E-01  0.4373115E+00
         13   -1    0    0    0    0  0.00000000000E+00  0.00000000000E+00  0.14999999963E+04  0.15000000000E+04  0.10566000000E+00 0. -1.
        994   -1    0    0    0    0 -0.00000000000E+00 -0.00000000000E+00  0.11368683772E-12  0.17120000000E+03  0.17120000000E+03 0.  0.
         13    1    1    2    0    0 -0.14841060005E+03 -0.75977867497E+02  0.26757236786E+03  0.31526707053E+03  0.10566000000E+00 0. -1.
        994    1    1    2    0    0  0.14273996434E+03  0.89170847122E+02  0.17192498582E+03  0.29528592609E+03  0.17120000000E+03 0.  0.
        998    1    1    2    0    0  0.56706357135E+01 -0.13192979624E+02  0.10605026426E+04  0.10606470034E+04  0.10000000000E+02 0. -1.
</event>
<event>
 5    1  0.1072898E-008  0.3832189E+03  0.7957747E-01  0.3437261E+00
         13   -1    0    0    0    0  0.00000000000E+00  0.00000000000E+00  0.14999999963E+04  0.15000000000E+04  0.10566000000E+00 0. -1.
        994   -1    0    0    0    0 -0.00000000000E+00 -0.00000000000E+00  0.11368683772E-12  0.17120000000E+03  0.17120000000E+03 0.  0.
         13    1    1    2    0    0 -0.98656042588E+01 -0.13512297462E+02  0.54787081332E+02  0.57284795321E+02  0.10566000000E+00 0. -1.
        994    1    1    2    0    0  0.71106908243E+01  0.88887576711E+01  0.29457092787E+01  0.17160329000E+03  0.17120000000E+03 0.  0.
        998    1    1    2    0    0  0.27549134345E+01  0.46235397907E+01  0.14422672057E+04  0.14423119147E+04  0.10000000000E+02 0. -1.
</event>
<event>
 5    1  0.1072898E-008  0.3838024E+03  0.7957747E-01  0.3434767E+00
         13   -1    0    0    0    0  0.00000000000E+00  0.00000000000E+00  0.14999999963E+04  0.15000000000E+04  0.10566000000E+00 0.  1.
        994   -1    0    0    0    0 -0.00000000000E+00 -0.00000000000E+00  0.11368683772E-12  0.17120000000E+03  0.17120000000E+03 0.  0.
         13    1    1    2    0    0  0.11266017742E+02  0.57837130430E+01  0.35641679149E+02  0.37824792781E+02  0.10566000000E+00 0.  1.
        994    1    1    2    0    0 -0.12556365965E+02  0.88824197842E+01  0.30072887077E+01  0.17191580350E+03  0.17120000000E+03 0.  0.
        998    1    1    2    0    0  0.12903482230E+01 -0.14666132827E+02  0.14613510284E+04  0.14614594037E+04  0.10000000000E+02 0.  1.
</event>
<event>
 5    1  0.1072898E-008  0.3749019E+03  0.7957747E-01  0.3473662E+00
         13   -1    0    0    0    0  0.00000000000E+00  0.00000000000E+00  0.14999999963E+04  0.15000000000E+04  0.10566000000E+00 0. -1.
        994   -1    0    0    0    0 -0.00000000000E+00 -0.00000000000E+00  0.11368683772E-12  0.17120000000E+03  0.17120000000E+03 0.  0.
         13    1    1    2    0    0  0.13633920156E+02  0.27122935057E+02  0.65011973780E+02  0.71750298144E+02  0.10566000000E+00 0. -1.
        994    1    1    2    0    0 -0.12583123336E+02 -0.19994103765E+02  0.86291478083E+01  0.17303757213E+03  0.17120000000E+03 0.  0.
        998    1    1    2    0    0 -0.10507968204E+01 -0.71288312920E+01  0.14263588747E+04  0.14264121297E+04  0.10000000000E+02 0. -1.
</event>
<event>
 5    1  0.1072898E-008  0.3855182E+03  0.7957747E-01  0.3427477E+00
         13   -1    0    0    0    0  0.00000000000E+00  0.00000000000E+00  0.14999999963E+04  0.15000000000E+04  0.10566000000E+00 0.  1.
        994   -1    0    0    0    0 -0.00000000000E+00 -0.00000000000E+00  0.11368683772E-12  0.17120000000E+03  0.17120000000E+03 0.  0.
         13    1    1    2    0    0  0.87219294756E+01  0.92547739166E+01  0.59247012494E+02  0.60596555575E+02  0.10566000000E+00 0.  1.
        994    1    1    2    0    0  0.88146592002E+01 -0.20501878383E+02  0.30098656643E+01  0.17267462039E+03  0.17120000000E+03 0.  0.
        998    1    1    2    0    0 -0.17536588676E+02  0.11247104466E+02  0.14377431181E+04  0.14379288240E+04  0.10000000000E+02 0.  1.
</event>
<event>
 5    1  0.1086596E-008  0.3846058E+03  0.7957747E-01  0.3431346E+00
         13   -1    0    0    0    0  0.00000000000E+00  0.00000000000E+00  0.14999999963E+04  0.15000000000E+04  0.10566000000E+00 0. -1.
        994   -1    0    0    0    0 -0.00000000000E+00 -0.00000000000E+00  0.11368683772E-12  0.17120000000E+03  0.17120000000E+03 0.  0.
         13    1    1    2    0    0 -0.38329098935E+00  0.13644306891E+02  0.49300377094E+02  0.51155179289E+02  0.10566000000E+00 0. -1.
        994    1    1    2    0    0  0.17986778073E+01 -0.14715288120E+02  0.25499989712E+01  0.17185958641E+03  0.17120000000E+03 0.  0.
        998    1    1    2    0    0 -0.14153868180E+01  0.10709812288E+01  0.14481496202E+04  0.14481852343E+04  0.10000000000E+02 0. -1.
</event>
<event>
 5    1  0.1175098E-008  0.3862780E+03  0.7957747E-01  0.3424270E+00
         13   -1    0    0    0    0  0.00000000000E+00  0.00000000000E+00  0.14999999963E+04  0.15000000000E+04  0.10566000000E+00 0. -1.
        994   -1    0    0    0    0 -0.00000000000E+00 -0.00000000000E+00  0.11368683772E-12  0.17120000000E+03  0.17120000000E+03 0.  0.
         13    1    1    2    0    0  0.12674924594E+01 -0.10321227661E+02  0.51824708922E+02  0.52857789364E+02  0.10566000000E+00 0. -1.
        994    1    1    2    0    0 -0.25408956612E+01  0.15587280166E+02  0.18142664702E+01  0.17193647378E+03  0.17120000000E+03 0.  0.
        998    1    1    2    0    0  0.12734032018E+01 -0.52660525048E+01  0.14463610209E+04  0.14464057369E+04  0.10000000000E+02 0. -1.
</event>
<event>
 5    1  0.1072898E-008  0.3848770E+03  0.7957747E-01  0.3430194E+00
         13   -1    0    0    0    0  0.00000000000E+00  0.00000000000E+00  0.14999999963E+04  0.15000000000E+04  0.10566000000E+00 0.  1.
        994   -1    0    0    0    0 -0.00000000000E+00 -0.00000000000E+00  0.11368683772E-12  0.17120000000E+03  0.17120000000E+03 0.  0.
         13    1    1    2    0    0  0.54816254779E+01  0.11740172040E+02  0.46718347561E+02  0.48481904050E+02  0.10566000000E+00 0.  1.
        994    1    1    2    0    0 -0.47812776024E+01 -0.19512960098E+02  0.30202392848E+01  0.17240121250E+03  0.17120000000E+03 0.  0.
        998    1    1    2    0    0 -0.70034787548E+00  0.77727880585E+01  0.14502614094E+04  0.14503168834E+04  0.10000000000E+02 0.  1.
</event>
<event>
 5    1  0.1072898E-008  0.3842299E+03  0.7957747E-01  0.3432945E+00
         13   -1    0    0    0    0  0.00000000000E+00  0.00000000000E+00  0.14999999963E+04  0.15000000000E+04  0.10566000000E+00 0.  1.
        994   -1    0    0    0    0 -0.00000000000E+00 -0.00000000000E+00  0.11368683772E-12  0.17120000000E+03  0.17120000000E+03 0.  0.
         13    1    1    2    0    0  0.42289425903E+00 -0.18806790253E+02  0.89485307268E+02  0.91441268474E+02  0.10566000000E+00 0.  1.
        994    1    1    2    0    0 -0.19364675944E-01  0.87816457335E+01  0.22672742958E+01  0.17144007177E+03  0.17120000000E+03 0.  0.
        998    1    1    2    0    0 -0.40352958309E+00  0.10025144520E+02  0.14082474147E+04  0.14083186598E+04  0.10000000000E+02 0.  1.
</event>
<event>
 5    1  0.1072898E-008  0.3833442E+03  0.7957747E-01  0.3436725E+00
         13   -1    0    0    0    0  0.00000000000E+00  0.00000000000E+00  0.14999999963E+04  0.15000000000E+04  0.10566000000E+00 0. -1.
        994   -1    0    0    0    0 -0.00000000000E+00 -0.00000000000E+00  0.11368683772E-12  0.17120000000E+03  0.17120000000E+03 0.  0.
         13    1    1    2    0    0  0.16951346673E+02 -0.56358754620E+01  0.61426554115E+02  0.63971430817E+02  0.10566000000E+00 0. -1.
        994    1    1    2    0    0 -0.21620968404E+02  0.77623855262E+00  0.40036031018E+01  0.17260804633E+03  0.17120000000E+03 0.  0.
        998    1    1    2    0    0  0.46696217301E+01  0.48596369093E+01  0.14345698391E+04  0.14346205229E+04  0.10000000000E+02 0. -1.
</event>
<event>
 5    1  0.2104263E-008  0.3862455E+03  0.7957747E-01  0.3424407E+00
         13   -1    0    0    0    0  0.00000000000E+00  0.00000000000E+00  0.14999999963E+04  0.15000000000E+04  0.10566000000E+00 0. -1.
        994   -1    0    0    0    0 -0.00000000000E+00 -0.00000000000E+00  0.11368683772E-12  0.17120000000E+03  0.17120000000E+03 0.  0.
         13    1    1    2    0    0  0.81497810508E+01  0.85435388714E+01  0.66995407660E+02  0.68027985412E+02  0.10566000000E+00 0. -1.
        994    1    1    2    0    0 -0.10178833375E+02 -0.84764059275E+01  0.15879575218E+01  0.17171901384E+03  0.17120000000E+03 0.  0.
        998    1    1    2    0    0  0.20290523239E+01 -0.67132943910E-01  0.14314166311E+04  0.14314530007E+04  0.10000000000E+02 0. -1.
</event>
<event>
 5    1  0.1072898E-008  0.3809473E+03  0.7957747E-01  0.3447044E+00
         13   -1    0    0    0    0  0.00000000000E+00  0.00000000000E+00  0.14999999963E+04  0.15000000000E+04  0.10566000000E+00 0.  1.
        994   -1    0    0    0    0 -0.00000000000E+00 -0.00000000000E+00  0.11368683772E-12  0.17120000000E+03  0.17120000000E+03 0.  0.
         13    1    1    2    0    0 -0.22414440328E+02  0.12807148819E+02  0.92496492125E+02  0.96031465758E+02  0.10566000000E+00 0.  1.
        994    1    1    2    0    0  0.53768326891E+01 -0.11829360644E+02  0.42185933748E+01  0.17174423028E+03  0.17120000000E+03 0.  0.
        998    1    1    2    0    0  0.17037607639E+02 -0.97778817522E+00  0.14032849108E+04  0.14034243040E+04  0.10000000000E+02 0.  1.
</event>
<event>
 5    1  0.1072898E-008  0.3813755E+03  0.7957747E-01  0.3445191E+00
         13   -1    0    0    0    0  0.00000000000E+00  0.00000000000E+00  0.14999999963E+04  0.15000000000E+04  0.10566000000E+00 0.  1.
        994   -1    0    0    0    0 -0.00000000000E+00 -0.00000000000E+00  0.11368683772E-12  0.17120000000E+03  0.17120000000E+03 0.  0.
         13    1    1    2    0    0  0.20913482331E+02 -0.14371445252E+02  0.11252591437E+03  0.11535165691E+03  0.10566000000E+00 0.  1.
        994    1    1    2    0    0  0.21739706030E+02  0.26395750442E+01  0.50379684103E+01  0.17266847802E+03  0.17120000000E+03 0.  0.
        998    1    1    2    0    0 -0.42653188361E+02  0.11731870208E+02  0.13824361135E+04  0.13831798651E+04  0.10000000000E+02 0.  1.
</event>
<event>
 5    1  0.1072898E-008  0.3799408E+03  0.7957747E-01  0.3451416E+00
         13   -1    0    0    0    0  0.00000000000E+00  0.00000000000E+00  0.14999999963E+04  0.15000000000E+04  0.10566000000E+00 0.  1.
        994   -1    0    0    0    0 -0.00000000000E+00 -0.00000000000E+00  0.11368683772E-12  0.17120000000E+03  0.17120000000E+03 0.  0.
         13    1    1    2    0    0 -0.14638879910E+02 -0.24615425738E+01  0.24694889241E+02  0.28813273253E+02  0.10566000000E+00 0.  1.
        994    1    1    2    0    0  0.11630442245E+02 -0.75008557526E+00  0.46173119259E+01  0.17165835076E+03  0.17120000000E+03 0.  0.
        998    1    1    2    0    0  0.30084376650E+01  0.32116281491E+01  0.14706877951E+04  0.14707283760E+04  0.10000000000E+02 0.  1.
</event>
<event>
 5    1  0.1072898E-008  0.3846232E+03  0.7957747E-01  0.3431272E+00
         13   -1    0    0    0    0  0.00000000000E+00  0.00000000000E+00  0.14999999963E+04  0.15000000000E+04  0.10566000000E+00 0. -1.
        994   -1    0    0    0    0 -0.00000000000E+00 -0.00000000000E+00  0.11368683772E-12  0.17120000000E+03  0.17120000000E+03 0.  0.
         13    1    1    2    0    0  0.41969250453E+01  0.12786186025E+02  0.53299426723E+02  0.54972181928E+02  0.10566000000E+00 0. -1.
        994    1    1    2    0    0  0.16020142008E+02 -0.12628921397E+01  0.26681108683E+01  0.17197324984E+03  0.17120000000E+03 0.  0.
        998    1    1    2    0    0 -0.20217067054E+02 -0.11523293886E+02  0.14440324587E+04  0.14442545682E+04  0.10000000000E+02 0. -1.
</event>
<event>
 5    1  0.1072898E-008  0.3851759E+03  0.7957747E-01  0.3428927E+00
         13   -1    0    0    0    0  0.00000000000E+00  0.00000000000E+00  0.14999999963E+04  0.15000000000E+04  0.10566000000E+00 0. -1.
        994   -1    0    0    0    0 -0.00000000000E+00 -0.00000000000E+00  0.11368683772E-12  0.17120000000E+03  0.17120000000E+03 0.  0.
         13    1    1    2    0    0  0.63518132352E+01 -0.97337800046E+01  0.43087166796E+02  0.44627425548E+02  0.10566000000E+00 0. -1.
        994    1    1    2    0    0 -0.66629429321E+01  0.84986437424E+01  0.19262542613E+01  0.17155107755E+03  0.17120000000E+03 0.  0.
        998    1    1    2    0    0  0.31112969698E+00  0.12351362622E+01  0.14549865752E+04  0.14550214969E+04  0.10000000000E+02 0.  0.
</event>
<event>
 5    1  0.1072898E-008  0.3701680E+03  0.7957747E-01  0.3495119E+00
         13   -1    0    0    0    0  0.00000000000E+00  0.00000000000E+00  0.14999999963E+04  0.15000000000E+04  0.10566000000E+00 0. -1.
        994   -1    0    0    0    0 -0.00000000000E+00 -0.00000000000E+00  0.11368683772E-12  0.17120000000E+03  0.17120000000E+03 0.  0.
         13    1    1    2    0    0 -0.82759051636E+01  0.96335805535E+01  0.45690713609E+01  0.13497557471E+02  0.10566000000E+00 0. -1.
        994    1    1    2    0    0  0.58846213252E+01 -0.72195031560E+01  0.94811339080E+01  0.17171511842E+03  0.17120000000E+03 0.  0.
        998    1    1    2    0    0  0.23912838384E+01 -0.24140773974E+01  0.14859497910E+04  0.14859873241E+04  0.10000000000E+02 0. -1.
</event>
<event>
 5    1  0.1072898E-008  0.3765748E+03  0.7957747E-01  0.3466210E+00
         13   -1    0    0    0    0  0.00000000000E+00  0.00000000000E+00  0.14999999963E+04  0.15000000000E+04  0.10566000000E+00 0. -1.
        994   -1    0    0    0    0 -0.00000000000E+00 -0.00000000000E+00  0.11368683772E-12  0.17120000000E+03  0.17120000000E+03 0.  0.
         13    1    1    2    0    0  0.41550147896E+02 -0.51404427081E+02  0.32821073773E+03  0.33480013357E+03  0.10566000000E+00 0. -1.
        994    1    1    2    0    0 -0.37485687430E+02  0.36765550137E+02  0.15251430195E+02  0.17971902671E+03  0.17120000000E+03 0.  0.
        998    1    1    2    0    0 -0.40644604655E+01  0.14638876944E+02  0.11565378284E+04  0.11566808397E+04  0.10000000000E+02 0. -1.
</event>
<event>
 5    1  0.1072898E-008  0.3809777E+03  0.7957747E-01  0.3446912E+00
         13   -1    0    0    0    0  0.00000000000E+00  0.00000000000E+00  0.14999999963E+04  0.15000000000E+04  0.10566000000E+00 0. -1.
        994   -1    0    0    0    0 -0.00000000000E+00 -0.00000000000E+00  0.11368683772E-12  0.17120000000E+03  0.17120000000E+03 0.  0.
         13    1    1    2    0    0  0.19511250848E+02  0.37201505397E+02  0.21865161924E+03  0.22265035970E+03  0.10566000000E+00 0. -1.
        994    1    1    2    0    0 -0.29273732553E+02 -0.25925977308E+02  0.87524734510E+01  0.17582705568E+03  0.17120000000E+03 0.  0.
        998    1    1    2    0    0  0.97624817046E+01 -0.11275528089E+02  0.12725959036E+04  0.12727225846E+04  0.10000000000E+02 0.  1.
</event>
<event>
 5    1  0.1072898E-008  0.3857124E+03  0.7957747E-01  0.3426656E+00
         13   -1    0    0    0    0  0.00000000000E+00  0.00000000000E+00  0.14999999963E+04  0.15000000000E+04  0.10566000000E+00 0. -1.
        994   -1    0    0    0    0 -0.00000000000E+00 -0.00000000000E+00  0.11368683772E-12  0.17120000000E+03  0.17120000000E+03 0.  0.
         13    1    1    2    0    0  0.33051256560E+01 -0.12960644686E+02  0.69320432658E+02  0.70599119783E+02  0.10566000000E+00 0. -1.
        994    1    1    2    0    0  0.22899090655E+01  0.12306607985E+02  0.17911543115E+01  0.17166637562E+03  0.17120000000E+03 0.  0.
        998    1    1    2    0    0 -0.55950347215E+01  0.65403670093E+00  0.14288884093E+04  0.14289345046E+04  0.10000000000E+02 0. -1.
</event>
<event>
 5    1  0.1072898E-008  0.3845585E+03  0.7957747E-01  0.3431547E+00
         13   -1    0    0    0    0  0.00000000000E+00  0.00000000000E+00  0.14999999963E+04  0.15000000000E+04  0.10566000000E+00 0. -1.
        994   -1    0    0    0    0 -0.00000000000E+00 -0.00000000000E+00  0.11368683772E-12  0.17120000000E+03  0.17120000000E+03 0.  0.
         13    1    1    2    0    0  0.84526582155E+01 -0.18120715649E+02  0.11503557794E+03  0.11676045188E+03  0.10566000000E+00 0. -1.
        994    1    1    2    0    0 -0.32006793707E+01  0.35923708394E+01  0.19257187652E+01  0.17127842208E+03  0.17120000000E+03 0.  0.
        998    1    1    2    0    0 -0.52519788448E+01  0.14528344809E+02  0.13830386996E+04  0.13831611260E+04  0.10000000000E+02 0. -1.
</event>
<event>
 5    1  0.1072898E-008  0.4044699E+03  0.7957747E-01  0.3351074E+00
         13   -1    0    0    0    0  0.00000000000E+00  0.00000000000E+00  0.14999999963E+04  0.15000000000E+04  0.10566000000E+00 0. -1.
        994   -1    0    0    0    0 -0.00000000000E+00 -0.00000000000E+00  0.11368683772E-12  0.17120000000E+03  0.17120000000E+03 0.  0.
         13    1    1    2    0    0  0.26722474473E+02  0.39529163820E+02  0.25247876607E+02  0.53982514498E+02  0.10566000000E+00 0. -1.
        994    1    1    2    0    0 -0.29939214269E+02 -0.38710791934E+02  0.40087167909E+02  0.18251384329E+03  0.17120000000E+03 0.  0.
        998    1    1    2    0    0  0.32167397957E+01 -0.81837188694E+00  0.14346649518E+04  0.14347036422E+04  0.10000000000E+02 0. -1.
</event>
<event>
 5    1  0.1072898E-008  0.3814879E+03  0.7957747E-01  0.3444705E+00
         13   -1    0    0    0    0  0.00000000000E+00  0.00000000000E+00  0.14999999963E+04  0.15000000000E+04  0.10566000000E+00 0.  1.
        994   -1    0    0    0    0 -0.00000000000E+00 -0.00000000000E+00  0.11368683772E-12  0.17120000000E+03  0.17120000000E+03 0.  0.
         13    1    1    2    0    0  0.28768783848E+02  0.54601232266E+00  0.12140534509E+03  0.12476862600E+03  0.10566000000E+00 0.  1.
        994    1    1    2    0    0 -0.16982963992E+02 -0.52783841724E+01  0.44367677310E+01  0.17217841709E+03  0.17120000000E+03 0.  0.
        998    1    1    2    0    0 -0.11785819856E+02  0.47323718497E+01  0.13741578835E+04  0.13742529569E+04  0.10000000000E+02 0.  1.
</event>
<event>
 5    1  0.1072898E-008  0.3842112E+03  0.7957747E-01  0.3433024E+00
         13   -1    0    0    0    0  0.00000000000E+00  0.00000000000E+00  0.14999999963E+04  0.15000000000E+04  0.10566000000E+00 0.  1.
        994   -1    0    0    0    0 -0.00000000000E+00 -0.00000000000E+00  0.11368683772E-12  0.17120000000E+03  0.17120000000E+03 0.  0.
         13    1    1    2    0    0 -0.98721897119E+00 -0.17128865014E+02  0.70219235795E+02  0.72285025127E+02  0.10566000000E+00 0.  1.
        994    1    1    2    0    0  0.11904481095E+02  0.15853533161E+02  0.33192497769E+01  0.17237606737E+03  0.17120000000E+03 0.  0.
        998    1    1    2    0    0 -0.10917262124E+02  0.12753318532E+01  0.14264615107E+04  0.14265389075E+04  0.10000000000E+02 0.  1.
</event>
<event>
 5    1  0.1072898E-008  0.3725900E+03  0.7957747E-01  0.3484072E+00
         13   -1    0    0    0    0  0.00000000000E+00  0.00000000000E+00  0.14999999963E+04  0.15000000000E+04  0.10566000000E+00 0. -1.
        994   -1    0    0    0    0 -0.00000000000E+00 -0.00000000000E+00  0.11368683772E-12  0.17120000000E+03  0.17120000000E+03 0.  0.
         13    1    1    2    0    0  0.18059962382E+02 -0.70019302930E+02  0.39449748196E+03  0.40106999321E+03  0.10566000000E+00 0. -1.
        994    1    1    2    0    0  0.48315272968E+02 -0.27062571983E+02  0.23214362802E+02  0.18142517754E+03  0.17120000000E+03 0.  0.
        998    1    1    2    0    0 -0.66375235350E+02  0.97081874912E+02  0.10822881515E+04  0.10887048292E+04  0.10000000000E+02 0.  1.
</event>
<event>
 5    1  0.1072898E-008  0.3832462E+03  0.7957747E-01  0.3437144E+00
         13   -1    0    0    0    0  0.00000000000E+00  0.00000000000E+00  0.14999999963E+04  0.15000000000E+04  0.10566000000E+00 0. -1.
        994   -1    0    0    0    0 -0.00000000000E+00 -0.00000000000E+00  0.11368683772E-12  0.17120000000E+03  0.17120000000E+03 0.  0.
         13    1    1    2    0    0 -0.17379839876E+02  0.30377340047E+02  0.20203935164E+03  0.20504817092E+03  0.10566000000E+00 0. -1.
        994    1    1    2    0    0  0.16332966429E+02 -0.38184741112E+02  0.82292303823E+01  0.17635759263E+03  0.17120000000E+03 0.  0.
        998    1    1    2    0    0  0.10468734463E+01  0.78074010648E+01  0.12897314143E+04  0.12897942365E+04  0.10000000000E+02 0. -1.
</event>
<event>
 5    1  0.1072898E-008  0.3802637E+03  0.7957747E-01  0.3450011E+00
         13   -1    0    0    0    0  0.00000000000E+00  0.00000000000E+00  0.14999999963E+04  0.15000000000E+04  0.10566000000E+00 0.  1.
        994   -1    0    0    0    0 -0.00000000000E+00 -0.00000000000E+00  0.11368683772E-12  0.17120000000E+03  0.17120000000E+03 0.  0.
         13    1    1    2    0    0 -0.88339219331E+01  0.52901702477E+01  0.11192780320E+02  0.15208996459E+02  0.10566000000E+00 0.  1.
        994    1    1    2    0    0  0.15068737455E+02 -0.11390128877E+02  0.51927211724E+01  0.17231716756E+03  0.17120000000E+03 0.  0.
        998    1    1    2    0    0 -0.62348155215E+01  0.60999586297E+01  0.14836144948E+04  0.14836738360E+04  0.10000000000E+02 0.  1.
</event>
<event>
 5    1  0.1072898E-008  0.4428483E+03  0.7957747E-01  0.3216158E+00
         13   -1    0    0    0    0  0.00000000000E+00  0.00000000000E+00  0.14999999963E+04  0.15000000000E+04  0.10566000000E+00 0. -1.
        994   -1    0    0    0    0 -0.00000000000E+00 -0.00000000000E+00  0.11368683772E-12  0.17120000000E+03  0.17120000000E+03 0.  0.
         13    1    1    2    0    0  0.25025228545E+02  0.38409448939E+02 -0.30912945559E+01  0.45946872555E+02  0.10566000000E+00 0. -1.
        994    1    1    2    0    0 -0.45634125584E+02 -0.40881914713E+02  0.74543678576E+02  0.19651973027E+03  0.17120000000E+03 0.  0.
        998    1    1    2    0    0  0.20608897039E+02  0.24724657740E+01  0.14285476123E+04  0.14287333972E+04  0.10000000000E+02 0. -1.
</event>
<event>
 5    1  0.1072898E-008  0.3845284E+03  0.7957747E-01  0.3431675E+00
         13   -1    0    0    0    0  0.00000000000E+00  0.00000000000E+00  0.14999999963E+04  0.15000000000E+04  0.10566000000E+00 0. -1.
        994   -1    0    0    0    0 -0.00000000000E+00 -0.00000000000E+00  0.11368683772E-12  0.17120000000E+03  0.17120000000E+03 0.  0.
         13    1    1    2    0    0  0.13119651299E+02 -0.28086507666E+01  0.50174805705E+02  0.51937809551E+02  0.10566000000E+00 0. -1.
        994    1    1    2    0    0 -0.52169745172E+01 -0.19837867547E+02  0.32515261017E+01  0.17245512528E+03  0.17120000000E+03 0.  0.
        998    1    1    2    0    0 -0.79026767822E+01  0.22646518314E+02  0.14465736645E+04  0.14468070652E+04  0.10000000000E+02 0. -1.
</event>
<event>
 5    1  0.1072898E-008  0.3844919E+03  0.7957747E-01  0.3431830E+00
         13   -1    0    0    0    0  0.00000000000E+00  0.00000000000E+00  0.14999999963E+04  0.15000000000E+04  0.10566000000E+00 0.  1.
        994   -1    0    0    0    0 -0.00000000000E+00 -0.00000000000E+00  0.11368683772E-12  0.17120000000E+03  0.17120000000E+03 0.  0.
         13    1    1    2    0    0 -0.30494836071E+01  0.17975481408E+02  0.92624045997E+02  0.94401495450E+02  0.10566000000E+00 0.  1.
        994    1    1    2    0    0  0.18530354492E+01 -0.43304990393E+01  0.19557184015E+01  0.17127595218E+03  0.17120000000E+03 0.  0.
        998    1    1    2    0    0  0.11964481579E+01 -0.13644982369E+02  0.14054202319E+04  0.14055225524E+04  0.10000000000E+02 0.  1.
</event>
<event>
 5    1  0.1072898E-008  0.3719637E+03  0.7957747E-01  0.3486915E+00
         13   -1    0    0    0    0  0.00000000000E+00  0.00000000000E+00  0.14999999963E+04  0.15000000000E+04  0.10566000000E+00 0. -1.
        994   -1    0    0    0    0 -0.00000000000E+00 -0.00000000000E+00  0.11368683772E-12  0.17120000000E+03  0.17120000000E+03 0.  0.
         13    1    1    2    0    0 -0.18320681652E+02  0.21917087829E+02  0.44694329831E+02  0.53043382228E+02  0.10566000000E+00 0. -1.
        994    1    1    2    0    0  0.18501098162E+02 -0.24879514529E+02  0.11554832895E+02  0.17436810213E+03  0.17120000000E+03 0.  0.
        998    1    1    2    0    0 -0.18041650978E+00  0.29624266995E+01  0.14437508336E+04  0.14437885156E+04  0.10000000000E+02 0. -1.
</event>
<event>
 5    1  0.1072898E-008  0.3812632E+03  0.7957747E-01  0.3445676E+00
         13   -1    0    0    0    0  0.00000000000E+00  0.00000000000E+00  0.14999999963E+04  0.15000000000E+04  0.10566000000E+00 0. -1.
        994   -1    0    0    0    0 -0.00000000000E+00 -0.00000000000E+00  0.11368683772E-12  0.17120000000E+03  0.17120000000E+03 0.  0.
         13    1    1    2    0    0  0.31338064954E+02 -0.13161609763E+02  0.16739840938E+03  0.17081434633E+03  0.10566000000E+00 0. -1.
        994    1    1    2    0    0 -0.25060648008E+02 -0.13640595967E+02  0.62117105474E+01  0.17367247129E+03  0.17120000000E+03 0.  0.
        998    1    1    2    0    0 -0.62774169460E+01  0.26802205731E+02  0.13263898764E+04  0.13267131824E+04  0.10000000000E+02 0. -1.
</event>
<event>
 5    1  0.1072898E-008  0.3815616E+03  0.7957747E-01  0.3444387E+00
         13   -1    0    0    0    0  0.00000000000E+00  0.00000000000E+00  0.14999999963E+04  0.15000000000E+04  0.10566000000E+00 0.  1.
        994   -1    0    0    0    0 -0.00000000000E+00 -0.00000000000E+00  0.11368683772E-12  0.17120000000E+03  0.17120000000E+03 0.  0.
         13    1    1    2    0    0 -0.24563188026E+02  0.23819913441E+02  0.14715009590E+03  0.15107581001E+03  0.10566000000E+00 0.  1.
        994    1    1    2    0    0  0.41425713075E+02 -0.22166850805E+02  0.10723474305E+02  0.17785356864E+03  0.17120000000E+03 0.  0.
        998    1    1    2    0    0 -0.16862525049E+02 -0.16530626364E+01  0.13421264261E+04  0.13422706213E+04  0.10000000000E+02 0.  1.
</event>
<event>
 5    1  0.1072898E-008  0.3702489E+03  0.7957747E-01  0.3494748E+00
         13   -1    0    0    0    0  0.00000000000E+00  0.00000000000E+00  0.14999999963E+04  0.15000000000E+04  0.10566000000E+00 0.  1.
        994   -1    0    0    0    0 -0.00000000000E+00 -0.00000000000E+00  0.11368683772E-12  0.17120000000E+03  0.17120000000E+03 0.  0.
         13    1    1    2    0    0 -0.67889274330E+02 -0.35999547913E+02  0.27942485563E+03  0.28979851988E+03  0.10566000000E+00 0.  1.
        994    1    1    2    0    0  0.29109015843E+02  0.19411548095E+02  0.15365893773E+02  0.17541292340E+03  0.17120000000E+03 0.  0.
        998    1    1    2    0    0  0.38780258487E+02  0.16587999818E+02  0.12052092469E+04  0.12059885567E+04  0.10000000000E+02 0.  1.
</event>
<event>
 5    1  0.1072898E-008  0.3849578E+03  0.7957747E-01  0.3429851E+00
         13   -1    0    0    0    0  0.00000000000E+00  0.00000000000E+00  0.14999999963E+04  0.15000000000E+04  0.10566000000E+00 0. -1.
        994   -1    0    0    0    0 -0.00000000000E+00 -0.00000000000E+00  0.11368683772E-12  0.17120000000E+03  0.17120000000E+03 0.  0.
         13    1    1    2    0    0 -0.19554625152E+02  0.56228827742E+01  0.10921239385E+03  0.11109166625E+03  0.10566000000E+00 0. -1.
        994    1    1    2    0    0  0.24182458376E+02 -0.27369525502E+02  0.60507364971E+01  0.17515688291E+03  0.17120000000E+03 0.  0.
        998    1    1    2    0    0 -0.46278332241E+01  0.21746642728E+02  0.13847368659E+04  0.13849514508E+04  0.10000000000E+02 0. -1.
</event>
<event>
 5    1  0.1072898E-008  0.3777280E+03  0.7957747E-01  0.3461112E+00
         13   -1    0    0    0    0  0.00000000000E+00  0.00000000000E+00  0.14999999963E+04  0.15000000000E+04  0.10566000000E+00 0.  1.
        994   -1    0    0    0    0 -0.00000000000E+00 -0.00000000000E+00  0.11368683772E-12  0.17120000000E+03  0.17120000000E+03 0.  0.
         13    1    1    2    0    0  0.28043000898E+01  0.16417980419E+02  0.25413617171E+02  0.30385478140E+02  0.10566000000E+00 0.  1.
        994    1    1    2    0    0 -0.59183996577E+02  0.20811843998E+02  0.18658095610E+02  0.18328514079E+03  0.17120000000E+03 0.  0.
        998    1    1    2    0    0  0.56379696487E+02 -0.37229824417E+02  0.14559282835E+04  0.14575293811E+04  0.10000000000E+02 0.  1.
</event>
<event>
 5    1  0.1072898E-008  0.3849522E+03  0.7957747E-01  0.3429875E+00
         13   -1    0    0    0    0  0.00000000000E+00  0.00000000000E+00  0.14999999963E+04  0.15000000000E+04  0.10566000000E+00 0. -1.
        994   -1    0    0    0    0 -0.00000000000E+00 -0.00000000000E+00  0.11368683772E-12  0.17120000000E+03  0.17120000000E+03 0.  0.
         13    1    1    2    0    0  0.79750765928E+01 -0.10035480744E+02  0.49127539545E+02  0.50772423875E+02  0.10566000000E+00 0. -1.
        994    1    1    2    0    0 -0.14542203037E+02  0.17194542671E+01  0.23594752550E+01  0.17184132016E+03  0.17120000000E+03 0.  0.
        998    1    1    2    0    0  0.65671264440E+01  0.83160264767E+01  0.14485129815E+04  0.14485862560E+04  0.10000000000E+02 0. -1.
</event>
<event>
 5    1  0.1072898E-008  0.3828439E+03  0.7957747E-01  0.3438868E+00
         13   -1    0    0    0    0  0.00000000000E+00  0.00000000000E+00  0.14999999963E+04  0.15000000000E+04  0.10566000000E+00 0. -1.
        994   -1    0    0    0    0 -0.00000000000E+00 -0.00000000000E+00  0.11368683772E-12  0.17120000000E+03  0.17120000000E+03 0.  0.
         13    1    1    2    0    0 -0.19248544666E+02 -0.96404486888E+01  0.88490569093E+02  0.91071602078E+02  0.10566000000E+00 0. -1.
        994    1    1    2    0    0  0.69301483711E+01  0.59258566731E+00  0.28646160842E+01  0.17136517773E+03  0.17120000000E+03 0.  0.
        998    1    1    2    0    0  0.12318396295E+02  0.90478630215E+01  0.14086448111E+04  0.14087632202E+04  0.10000000000E+02 0. -1.
</event>
<event>
 5    1  0.1072898E-008  0.3815468E+03  0.7957747E-01  0.3444451E+00
         13   -1    0    0    0    0  0.00000000000E+00  0.00000000000E+00  0.14999999963E+04  0.15000000000E+04  0.10566000000E+00 0.  1.
        994   -1    0    0    0    0 -0.00000000000E+00 -0.00000000000E+00  0.11368683772E-12  0.17120000000E+03  0.17120000000E+03 0.  0.
         13    1    1    2    0    0  0.12696961765E+02  0.33655707615E+02  0.21755517126E+03  0.22050891864E+03  0.10566000000E+00 0.  1.
        994    1    1    2    0    0  0.80578474840E+01 -0.10093600471E+02  0.39093415380E+01  0.17173098913E+03  0.17120000000E+03 0.  0.
        998    1    1    2    0    0 -0.20754809249E+02 -0.23562107144E+02  0.12785354835E+04  0.12789600922E+04  0.10000000000E+02 0.  1.
</event>
<event>
 5    1  0.1072898E-008  0.3752181E+03  0.7957747E-01  0.3472248E+00
         13   -1    0    0    0    0  0.00000000000E+00  0.00000000000E+00  0.14999999963E+04  0.15000000000E+04  0.10566000000E+00 0.  1.
        994   -1    0    0    0    0 -0.00000000000E+00 -0.00000000000E+00  0.11368683772E-12  0.17120000000E+03  0.17120000000E+03 0.  0.
         13    1    1    2    0    0 -0.11574325364E+02  0.49705921782E+01  0.91504548428E+01  0.15569642966E+02  0.10566000000E+00 0.  1.
        994    1    1    2    0    0  0.73762771449E+01 -0.21634212348E+01  0.67675291266E+01  0.17150606201E+03  0.17120000000E+03 0.  0.
        998    1    1    2    0    0  0.41980482190E+01 -0.28071709434E+01  0.14840820123E+04  0.14841242950E+04  0.10000000000E+02 0.  1.
</event>
<event>
 5    1  0.1072898E-008  0.3803417E+03  0.7957747E-01  0.3449672E+00
         13   -1    0    0    0    0  0.00000000000E+00  0.00000000000E+00  0.14999999963E+04  0.15000000000E+04  0.10566000000E+00 0. -1.
        994   -1    0    0    0    0 -0.00000000000E+00 -0.00000000000E+00  0.11368683772E-12  0.17120000000E+03  0.17120000000E+03 0.  0.
         13    1    1    2    0    0 -0.14966939054E+02 -0.27512813342E+02  0.22822394082E+02  0.38753541751E+02  0.10566000000E+00 0. -1.
        994    1    1    2    0    0  0.73473209021E+01  0.25696071339E+02  0.19110684009E+02  0.17432420787E+03  0.17120000000E+03 0.  0.
        998    1    1    2    0    0  0.76196181516E+01  0.18167420027E+01  0.14580669182E+04  0.14581222504E+04  0.10000000000E+02 0. -1.
</event>
<event>
 5    1  0.1072898E-008  0.3834798E+03  0.7957747E-01  0.3436145E+00
         13   -1    0    0    0    0  0.00000000000E+00  0.00000000000E+00  0.14999999963E+04  0.15000000000E+04  0.10566000000E+00 0.  1.
        994   -1    0    0    0    0 -0.00000000000E+00 -0.00000000000E+00  0.11368683772E-12  0.17120000000E+03  0.17120000000E+03 0.  0.
         13    1    1    2    0    0  0.18804308831E+02  0.16290118778E+02  0.12077920013E+03  0.12331502888E+03  0.10566000000E+00 0.  1.
        994    1    1    2    0    0 -0.22578144701E+02 -0.11318067031E+02  0.44977199280E+01  0.17311135360E+03  0.17120000000E+03 0.  0.
        998    1    1    2    0    0  0.37738358701E+01 -0.49720517474E+01  0.13747230762E+04  0.13747736175E+04  0.10000000000E+02 0.  0.
</event>
<event>
 5    1  0.1072898E-008  0.3854183E+03  0.7957747E-01  0.3427900E+00
         13   -1    0    0    0    0  0.00000000000E+00  0.00000000000E+00  0.14999999963E+04  0.15000000000E+04  0.10566000000E+00 0. -1.
        994   -1    0    0    0    0 -0.00000000000E+00 -0.00000000000E+00  0.11368683772E-12  0.17120000000E+03  0.17120000000E+03 0.  0.
         13    1    1    2    0    0  0.14443641927E+02  0.23266862608E+01  0.76507997251E+02  0.77894268521E+02  0.10566000000E+00 0. -1.
        994    1    1    2    0    0 -0.83419809857E+01  0.22143846334E+01  0.16673058620E+01  0.17142552918E+03  0.17120000000E+03 0.  0.
        998    1    1    2    0    0 -0.61016609414E+01 -0.45410708942E+01  0.14218246932E+04  0.14218802023E+04  0.10000000000E+02 0. -1.
</event>
<event>
 5    1  0.1072898E-008  0.3701675E+03  0.7957747E-01  0.3495121E+00
         13   -1    0    0    0    0  0.00000000000E+00  0.00000000000E+00  0.14999999963E+04  0.15000000000E+04  0.10566000000E+00 0.  1.
        994   -1    0    0    0    0 -0.00000000000E+00 -0.00000000000E+00  0.11368683772E-12  0.17120000000E+03  0.17120000000E+03 0.  0.
         13    1    1    2    0    0 -0.41110629529E+01  0.44052858058E+02  0.99845781626E+02  0.10920964433E+03  0.10566000000E+00 0.  1.
        994    1    1    2    0    0  0.76443864484E+01 -0.36360153742E+02  0.13967113859E+02  0.17574133746E+03  0.17120000000E+03 0.  0.
        998    1    1    2    0    0 -0.35333234955E+01 -0.76927043161E+01  0.13861871008E+04  0.13862490182E+04  0.10000000000E+02 0.  1.
</event>
<event>
 5    1  0.1178408E-008  0.3855064E+03  0.7957747E-01  0.3427527E+00
         13   -1    0    0    0    0  0.00000000000E+00  0.00000000000E+00  0.14999999963E+04  0.15000000000E+04  0.10566000000E+00 0.  1.
        994   -1    0    0    0    0 -0.00000000000E+00 -0.00000000000E+00  0.11368683772E-12  0.17120000000E+03  0.17120000000E+03 0.  0.
         13    1    1    2    0    0 -0.82728887543E+01 -0.12691081487E+02  0.80708594108E+02  0.82118162209E+02  0.10566000000E+00 0.  1.
        994    1    1    2    0    0  0.59367170971E+01  0.13551730874E+02  0.20979420733E+01  0.17185091033E+03  0.17120000000E+03 0.  0.
        998    1    1    2    0    0  0.23361716572E+01 -0.86064938671E+00  0.14171934601E+04  0.14172309275E+04  0.10000000000E+02 0.  1.
</event>
<event>
 5    1  0.1786752E-008  0.3859476E+03  0.7957747E-01  0.3425663E+00
         13   -1    0    0    0    0  0.00000000000E+00  0.00000000000E+00  0.14999999963E+04  0.15000000000E+04  0.10566000000E+00 0.  1.
        994   -1    0    0    0    0 -0.00000000000E+00 -0.00000000000E+00  0.11368683772E-12  0.17120000000E+03  0.17120000000E+03 0.  0.
         13    1    1    2    0    0  0.11611998456E+02  0.73889754711E+01  0.77227164691E+02  0.78444130417E+02  0.10566000000E+00 0.  1.
        994    1    1    2    0    0 -0.16062688404E+02 -0.69039246393E+01  0.21632322453E+01  0.17210402002E+03  0.17120000000E+03 0.  0.
        998    1    1    2    0    0  0.44506899486E+01 -0.48505083174E+00  0.14206095993E+04  0.14206518496E+04  0.10000000000E+02 0.  1.
</event>
<event>
 5    1  0.1072898E-008  0.3736507E+03  0.7957747E-01  0.3479279E+00
         13   -1    0    0    0    0  0.00000000000E+00  0.00000000000E+00  0.14999999963E+04  0.15000000000E+04  0.10566000000E+00 0.  1.
        994   -1    0    0    0    0 -0.00000000000E+00 -0.00000000000E+00  0.11368683772E-12  0.17120000000E+03  0.17120000000E+03 0.  0.
         13    1    1    2    0    0 -0.39649717711E+02  0.13066169010E+02  0.11622528452E+03  0.12349555787E+03  0.10566000000E+00 0.  1.
        994    1    1    2    0    0  0.20445489084E+02 -0.15262318896E+02  0.95992814521E+01  0.17335669184E+03  0.17120000000E+03 0.  0.
        998    1    1    2    0    0  0.19204228627E+02  0.21961498855E+01  0.13741754303E+04  0.13743477503E+04  0.10000000000E+02 0.  1.
</event>
<event>
 5    1  0.1072898E-008  0.3818415E+03  0.7957747E-01  0.3443179E+00
         13   -1    0    0    0    0  0.00000000000E+00  0.00000000000E+00  0.14999999963E+04  0.15000000000E+04  0.10566000000E+00 0.  1.
        994   -1    0    0    0    0 -0.00000000000E+00 -0.00000000000E+00  0.11368683772E-12  0.17120000000E+03  0.17120000000E+03 0.  0.
         13    1    1    2    0    0  0.11669565918E+02 -0.30417480080E+02  0.13541080455E+03  0.13927490447E+03  0.10566000000E+00 0.  1.
        994    1    1    2    0    0  0.22502142303E+02  0.63738466877E+02  0.18539243210E+02  0.18499211363E+03  0.17120000000E+03 0.  0.
        998    1    1    2    0    0 -0.34171708220E+02 -0.33320986796E+02  0.13460499485E+04  0.13469329819E+04  0.10000000000E+02 0.  1.
</event>
<event>
 5    1  0.1072898E-008  0.3804475E+03  0.7957747E-01  0.3449212E+00
         13   -1    0    0    0    0  0.00000000000E+00  0.00000000000E+00  0.14999999963E+04  0.15000000000E+04  0.10566000000E+00 0. -1.
        994   -1    0    0    0    0 -0.00000000000E+00 -0.00000000000E+00  0.11368683772E-12  0.17120000000E+03  0.17120000000E+03 0.  0.
         13    1    1    2    0    0  0.20104154298E+02  0.23485717913E+02  0.13470675318E+03  0.13820881478E+03  0.10566000000E+00 0. -1.
        994    1    1    2    0    0 -0.41505761455E+01  0.19604679417E+01  0.39777588938E+01  0.17130771519E+03  0.17120000000E+03 0.  0.
        998    1    1    2    0    0 -0.15953578152E+02 -0.25446185855E+02  0.13613154842E+04  0.13616834700E+04  0.10000000000E+02 0. -1.
</event>
<event>
 5    1  0.1072898E-008  0.3791388E+03  0.7957747E-01  0.3454917E+00
         13   -1    0    0    0    0  0.00000000000E+00  0.00000000000E+00  0.14999999963E+04  0.15000000000E+04  0.10566000000E+00 0.  1.
        994   -1    0    0    0    0 -0.00000000000E+00 -0.00000000000E+00  0.11368683772E-12  0.17120000000E+03  0.17120000000E+03 0.  0.
         13    1    1    2    0    0  0.30828946034E+02  0.14769062754E+02  0.12848983392E+03  0.13295938370E+03  0.10566000000E+00 0.  1.
        994    1    1    2    0    0 -0.13235550530E+02 -0.12489869180E+02  0.56795177664E+01  0.17225815961E+03  0.17120000000E+03 0.  0.
        998    1    1    2    0    0 -0.17593395504E+02 -0.22791935741E+01  0.13658306446E+04  0.13659824567E+04  0.10000000000E+02 0.  1.
</event>
<event>
 5    1  0.1072898E-008  0.3686134E+03  0.7957747E-01  0.3502288E+00
         13   -1    0    0    0    0  0.00000000000E+00  0.00000000000E+00  0.14999999963E+04  0.15000000000E+04  0.10566000000E+00 0. -1.
        994   -1    0    0    0    0 -0.00000000000E+00 -0.00000000000E+00  0.11368683772E-12  0.17120000000E+03  0.17120000000E+03 0.  0.
         13    1    1    2    0    0 -0.42496995421E+02  0.55719435519E+02  0.22954293627E+03  0.24000129348E+03  0.10566000000E+00 0. -1.
        994    1    1    2    0    0  0.35904813305E+02 -0.36991254847E+02  0.19286029823E+02  0.17983019630E+03  0.17120000000E+03 0.  0.
        998    1    1    2    0    0  0.65921821165E+01 -0.18728180672E+02  0.12511710302E+04  0.12513685102E+04  0.10000000000E+02 0. -1.
</event>
<event>
 5    1  0.1072898E-008  0.3929568E+03  0.7957747E-01  0.3396612E+00
         13   -1    0    0    0    0  0.00000000000E+00  0.00000000000E+00  0.14999999963E+04  0.15000000000E+04  0.10566000000E+00 0.  1.
        994   -1    0    0    0    0 -0.00000000000E+00 -0.00000000000E+00  0.11368683772E-12  0.17120000000E+03  0.17120000000E+03 0.  0.
         13    1    1    2    0    0 -0.33147185177E+02  0.14539915208E+02  0.20445769516E+02  0.41571452639E+02  0.10566000000E+00 0.  1.
        994    1    1    2    0    0 -0.33936799725E+02 -0.28399993564E+02  0.31124087441E+02  0.17954502173E+03  0.17120000000E+03 0.  0.
        998    1    1    2    0    0  0.67083984902E+02  0.13860078356E+02  0.14484301393E+04  0.14500835256E+04  0.10000000000E+02 0.  1.
</event>
<event>
 5    1  0.1072898E-008  0.3700353E+03  0.7957747E-01  0.3495729E+00
         13   -1    0    0    0    0  0.00000000000E+00  0.00000000000E+00  0.14999999963E+04  0.15000000000E+04  0.10566000000E+00 0. -1.
        994   -1    0    0    0    0 -0.00000000000E+00 -0.00000000000E+00  0.11368683772E-12  0.17120000000E+03  0.17120000000E+03 0.  0.
         13    1    1    2    0    0 -0.42970441965E+02  0.11124413178E+02  0.12207275922E+03  0.12989219052E+03  0.10566000000E+00 0. -1.
        994    1    1    2    0    0 -0.16337771012E+02 -0.11411200900E+02  0.10624799003E+02  0.17268313358E+03  0.17120000000E+03 0.  0.
        998    1    1    2    0    0  0.59308212977E+02  0.28678772151E+00  0.13673024381E+04  0.13686246759E+04  0.10000000000E+02 0. -1.
</event>
<event>
 5    1  0.1072898E-008  0.3691996E+03  0.7957747E-01  0.3499577E+00
         13   -1    0    0    0    0  0.00000000000E+00  0.00000000000E+00  0.14999999963E+04  0.15000000000E+04  0.10566000000E+00 0. -1.
        994   -1    0    0    0    0 -0.00000000000E+00 -0.00000000000E+00  0.11368683772E-12  0.17120000000E+03  0.17120000000E+03 0.  0.
         13    1    1    2    0    0  0.15960806032E+03 -0.11270366681E+03  0.78620316392E+03  0.81011867991E+03  0.10566000000E+00 0. -1.
        994    1    1    2    0    0 -0.15220726318E+03  0.11900859094E+03  0.15293836064E+03  0.30004945899E+03  0.17120000000E+03 0.  0.
        998    1    1    2    0    0 -0.74007971399E+01 -0.63049241319E+01  0.56085847172E+03  0.56103186110E+03  0.10000000000E+02 0.  0.
</event>
<event>
 5    1  0.1072898E-008  0.3851051E+03  0.7957747E-01  0.3429226E+00
         13   -1    0    0    0    0  0.00000000000E+00  0.00000000000E+00  0.14999999963E+04  0.15000000000E+04  0.10566000000E+00 0.  1.
        994   -1    0    0    0    0 -0.00000000000E+00 -0.00000000000E+00  0.11368683772E-12  0.17120000000E+03  0.17120000000E+03 0.  0.
         13    1    1    2    0    0  0.12823726515E+02 -0.79560552167E+01  0.70417586269E+02  0.72016625832E+02  0.10566000000E+00 0.  1.
        994    1    1    2    0    0 -0.13627576531E+02  0.42082355685E+01  0.22469799523E+01  0.17180776760E+03  0.17120000000E+03 0.  0.
        998    1    1    2    0    0  0.80385001543E+00  0.37478196483E+01  0.14273354301E+04  0.14273756066E+04  0.10000000000E+02 0.  1.
</event>
<event>
 5    1  0.1072898E-008  0.3801753E+03  0.7957747E-01  0.3450396E+00
         13   -1    0    0    0    0  0.00000000000E+00  0.00000000000E+00  0.14999999963E+04  0.15000000000E+04  0.10566000000E+00 0. -1.
        994   -1    0    0    0    0 -0.00000000000E+00 -0.00000000000E+00  0.11368683772E-12  0.17120000000E+03  0.17120000000E+03 0.  0.
         13    1    1    2    0    0 -0.15698943324E+02  0.47232505442E+02  0.23107010058E+03  0.23636998316E+03  0.10566000000E+00 0. -1.
        994    1    1    2    0    0  0.77948363723E+02 -0.47623416488E+02  0.32444781404E+02  0.19673850931E+03  0.17120000000E+03 0.  0.
        998    1    1    2    0    0 -0.62249420399E+02  0.39091104540E+00  0.12364851143E+04  0.12380915075E+04  0.10000000000E+02 0. -1.
</event>
<event>
 5    1  0.1072898E-008  0.3764668E+03  0.7957747E-01  0.3466689E+00
         13   -1    0    0    0    0  0.00000000000E+00  0.00000000000E+00  0.14999999963E+04  0.15000000000E+04  0.10566000000E+00 0.  1.
        994   -1    0    0    0    0 -0.00000000000E+00 -0.00000000000E+00  0.11368683772E-12  0.17120000000E+03  0.17120000000E+03 0.  0.
         13    1    1    2    0    0 -0.15754402217E+03  0.14172691558E+02  0.91802004517E+03  0.93154806565E+03  0.10566000000E+00 0.  1.
        994    1    1    2    0    0  0.14637145430E+03 -0.18501348187E+02  0.83507685939E+02  0.24093541900E+03  0.17120000000E+03 0.  0.
        998    1    1    2    0    0  0.11172567868E+02  0.43286566293E+01  0.49847226517E+03  0.49871651535E+03  0.10000000000E+02 0.  0.
</event>
<event>
 5    1  0.1072898E-008  0.3854794E+03  0.7957747E-01  0.3427642E+00
         13   -1    0    0    0    0  0.00000000000E+00  0.00000000000E+00  0.14999999963E+04  0.15000000000E+04  0.10566000000E+00 0.  1.
        994   -1    0    0    0    0 -0.00000000000E+00 -0.00000000000E+00  0.11368683772E-12  0.17120000000E+03  0.17120000000E+03 0.  0.
         13    1    1    2    0    0  0.10683915279E+02  0.10480142749E+02  0.77762742848E+02  0.79189865368E+02  0.10566000000E+00 0.  1.
        994    1    1    2    0    0 -0.64296358620E+01 -0.14939859782E+02  0.22614431706E+01  0.17198573706E+03  0.17120000000E+03 0.  0.
        998    1    1    2    0    0 -0.42542794174E+01  0.44597170339E+01  0.14199758103E+04  0.14200243976E+04  0.10000000000E+02 0.  1.
</event>
<event>
 5    1  0.1072898E-008  0.3830896E+03  0.7957747E-01  0.3437815E+00
         13   -1    0    0    0    0  0.00000000000E+00  0.00000000000E+00  0.14999999963E+04  0.15000000000E+04  0.10566000000E+00 0.  1.
        994   -1    0    0    0    0 -0.00000000000E+00 -0.00000000000E+00  0.11368683772E-12  0.17120000000E+03  0.17120000000E+03 0.  0.
         13    1    1    2    0    0  0.20776009684E+02  0.28259506758E+01  0.90257174494E+02  0.92660656631E+02  0.10566000000E+00 0.  1.
        994    1    1    2    0    0 -0.11756136435E+01 -0.84417329533E+01  0.28220042656E+01  0.17143526076E+03  0.17120000000E+03 0.  0.
        998    1    1    2    0    0 -0.19600396040E+02  0.56157822775E+01  0.14069208175E+04  0.14071040826E+04  0.10000000000E+02 0.  1.
</event>
<event>
 5    1  0.1072898E-008  0.3736020E+03  0.7957747E-01  0.3479499E+00
         13   -1    0    0    0    0  0.00000000000E+00  0.00000000000E+00  0.14999999963E+04  0.15000000000E+04  0.10566000000E+00 0.  1.
        994   -1    0    0    0    0 -0.00000000000E+00 -0.00000000000E+00  0.11368683772E-12  0.17120000000E+03  0.17120000000E+03 0.  0.
         13    1    1    2    0    0 -0.43659795777E+02 -0.64884343556E+01  0.13480663300E+03  0.14184892319E+03  0.10566000000E+00 0.  1.
        994    1    1    2    0    0  0.92055657315E+01  0.82236393109E+02  0.31158539628E+02  0.19268591382E+03  0.17120000000E+03 0.  0.
        998    1    1    2    0    0  0.34454230045E+02 -0.75747958753E+02  0.13340348237E+04  0.13366651630E+04  0.10000000000E+02 0.  1.
</event>
<event>
 5    1  0.1072898E-008  0.3815514E+03  0.7957747E-01  0.3444431E+00
         13   -1    0    0    0    0  0.00000000000E+00  0.00000000000E+00  0.14999999963E+04  0.15000000000E+04  0.10566000000E+00 0. -1.
        994   -1    0    0    0    0 -0.00000000000E+00 -0.00000000000E+00  0.11368683772E-12  0.17120000000E+03  0.17120000000E+03 0.  0.
         13    1    1    2    0    0 -0.31947995293E+02 -0.12210255926E+02  0.18529190629E+03  0.18842204344E+03  0.10566000000E+00 0. -1.
        994    1    1    2    0    0 -0.88713968145E+01  0.10668634281E+03  0.42456701108E+02  0.20633150243E+03  0.17120000000E+03 0.  0.
        998    1    1    2    0    0  0.40819392107E+02 -0.94476086888E+02  0.12722513889E+04  0.12764464541E+04  0.10000000000E+02 0. -1.
</event>
<event>
 5    1  0.1072898E-008  0.3851932E+03  0.7957747E-01  0.3428853E+00
         13   -1    0    0    0    0  0.00000000000E+00  0.00000000000E+00  0.14999999963E+04  0.15000000000E+04  0.10566000000E+00 0. -1.
        994   -1    0    0    0    0 -0.00000000000E+00 -0.00000000000E+00  0.11368683772E-12  0.17120000000E+03  0.17120000000E+03 0.  0.
         13    1    1    2    0    0 -0.64737084539E+01  0.60280818163E+02  0.85476875741E+02  0.10479500651E+03  0.10566000000E+00 0. -1.
        994    1    1    2    0    0  0.19131385777E+02 -0.54832654705E+02  0.31776204569E+02  0.18355325418E+03  0.17120000000E+03 0.  0.
        998    1    1    2    0    0 -0.12657677323E+02 -0.54481634577E+01  0.13827469160E+04  0.13828517393E+04  0.10000000000E+02 0. -1.
</event>
<event>
 5    1  0.1072898E-008  0.3863100E+03  0.7957747E-01  0.3424135E+00
         13   -1    0    0    0    0  0.00000000000E+00  0.00000000000E+00  0.14999999963E+04  0.15000000000E+04  0.10566000000E+00 0. -1.
        994   -1    0    0    0    0 -0.00000000000E+00 -0.00000000000E+00  0.11368683772E-12  0.17120000000E+03  0.17120000000E+03 0.  0.
         13    1    1    2    0    0 -0.12330050329E+02 -0.28979711622E+01  0.75718407399E+02  0.76770546182E+02  0.10566000000E+00 0. -1.
        994    1    1    2    0    0  0.16205231570E+02  0.16312488997E+02  0.27144233041E+01  0.17275854515E+03  0.17120000000E+03 0.  0.
        998    1    1    2    0    0 -0.38751812409E+01 -0.13414517835E+02  0.14215671656E+04  0.14216709087E+04  0.10000000000E+02 0. -1.
</event>
<event>
 5    1  0.1072898E-008  0.3836203E+03  0.7957747E-01  0.3435545E+00
         13   -1    0    0    0    0  0.00000000000E+00  0.00000000000E+00  0.14999999963E+04  0.15000000000E+04  0.10566000000E+00 0. -1.
        994   -1    0    0    0    0 -0.00000000000E+00 -0.00000000000E+00  0.11368683772E-12  0.17120000000E+03  0.17120000000E+03 0.  0.
         13    1    1    2    0    0 -0.19709137098E+02 -0.16391190534E+02  0.14542001568E+03  0.14766215946E+03  0.10566000000E+00 0. -1.
        994    1    1    2    0    0  0.16005541892E+02 -0.33944897998E+00  0.31637611173E+01  0.17197599246E+03  0.17120000000E+03 0.  0.
        998    1    1    2    0    0  0.37035952066E+01  0.16730639514E+02  0.13514162195E+04  0.13515618481E+04  0.10000000000E+02 0. -1.
</event>
<event>
 5    1  0.1072898E-008  0.3856871E+03  0.7957747E-01  0.3426764E+00
         13   -1    0    0    0    0  0.00000000000E+00  0.00000000000E+00  0.14999999963E+04  0.15000000000E+04  0.10566000000E+00 0.  1.
        994   -1    0    0    0    0 -0.00000000000E+00 -0.00000000000E+00  0.11368683772E-12  0.17120000000E+03  0.17120000000E+03 0.  0.
         13    1    1    2    0    0  0.50341913146E+02  0.27871356972E+01  0.60638350935E+02  0.78861252290E+02  0.10566000000E+00 0.  1.
        994    1    1    2    0    0 -0.22162528380E+02  0.54853118396E+02  0.32557268128E+02  0.18403656694E+03  0.17120000000E+03 0.  0.
        998    1    1    2    0    0 -0.28179384766E+02 -0.57640254094E+02  0.14068043772E+04  0.14083021808E+04  0.10000000000E+02 0.  1.
</event>
<event>
 5    1  0.1072898E-008  0.3779471E+03  0.7957747E-01  0.3460146E+00
         13   -1    0    0    0    0  0.00000000000E+00  0.00000000000E+00  0.14999999963E+04  0.15000000000E+04  0.10566000000E+00 0.  1.
        994   -1    0    0    0    0 -0.00000000000E+00 -0.00000000000E+00  0.11368683772E-12  0.17120000000E+03  0.17120000000E+03 0.  0.
         13    1    1    2    0    0  0.12204198963E+02  0.91689118368E+00  0.12116834000E+02  0.17222427006E+02  0.10566000000E+00 0.  1.
        994    1    1    2    0    0 -0.10980156157E+02 -0.54806067088E+01  0.56800894101E+01  0.17173323585E+03  0.17120000000E+03 0.  0.
        998    1    1    2    0    0 -0.12240428056E+01  0.45637155251E+01  0.14822030729E+04  0.14822443371E+04  0.10000000000E+02 0.  1.
</event>
<event>
 5    1  0.1072898E-008  0.3756174E+03  0.7957747E-01  0.3470466E+00
         13   -1    0    0    0    0  0.00000000000E+00  0.00000000000E+00  0.14999999963E+04  0.15000000000E+04  0.10566000000E+00 0.  1.
        994   -1    0    0    0    0 -0.00000000000E+00 -0.00000000000E+00  0.11368683772E-12  0.17120000000E+03  0.17120000000E+03 0.  0.
         13    1    1    2    0    0  0.85149345558E+01  0.19929274290E+02  0.34162796625E+02  0.40457235713E+02  0.10566000000E+00 0.  1.
        994    1    1    2    0    0 -0.11515818166E+02 -0.12964297212E+02  0.73826679695E+01  0.17223423253E+03  0.17120000000E+03 0.  0.
        998    1    1    2    0    0  0.30008836106E+01 -0.69649770774E+01  0.14584545317E+04  0.14585085318E+04  0.10000000000E+02 0.  1.
</event>
<event>
 5    1  0.1072898E-008  0.3838947E+03  0.7957747E-01  0.3434373E+00
         13   -1    0    0    0    0  0.00000000000E+00  0.00000000000E+00  0.14999999963E+04  0.15000000000E+04  0.10566000000E+00 0. -1.
        994   -1    0    0    0    0 -0.00000000000E+00 -0.00000000000E+00  0.11368683772E-12  0.17120000000E+03  0.17120000000E+03 0.  0.
         13    1    1    2    0    0  0.26053076033E+02  0.68201346644E+01  0.14846224378E+03  0.15088514175E+03  0.10566000000E+00 0. -1.
        994    1    1    2    0    0 -0.29653731994E+02 -0.36878813259E+01  0.51325947088E+01  0.17386410733E+03  0.17120000000E+03 0.  0.
        998    1    1    2    0    0  0.36006559611E+01 -0.31322533384E+01  0.13464051578E+04  0.13464507509E+04  0.10000000000E+02 0. -1.
</event>
<event>
 5    1  0.1072898E-008  0.3822919E+03  0.7957747E-01  0.3441239E+00
         13   -1    0    0    0    0  0.00000000000E+00  0.00000000000E+00  0.14999999963E+04  0.15000000000E+04  0.10566000000E+00 0. -1.
        994   -1    0    0    0    0 -0.00000000000E+00 -0.00000000000E+00  0.11368683772E-12  0.17120000000E+03  0.17120000000E+03 0.  0.
         13    1    1    2    0    0 -0.15884341936E+02  0.76496280802E+02  0.42643837148E+03  0.43353626045E+03  0.10566000000E+00 0. -1.
        994    1    1    2    0    0  0.46968456204E+01 -0.12268499642E+03  0.54717552830E+02  0.21766285694E+03  0.17120000000E+03 0.  0.
        998    1    1    2    0    0  0.11187496315E+02  0.46188715615E+02  0.10188440720E+04  0.10200008826E+04  0.10000000000E+02 0. -1.
</event>
<event>
 5    1  0.1072898E-008  0.3715937E+03  0.7957747E-01  0.3488599E+00
         13   -1    0    0    0    0  0.00000000000E+00  0.00000000000E+00  0.14999999963E+04  0.15000000000E+04  0.10566000000E+00 0.  1.
        994   -1    0    0    0    0 -0.00000000000E+00 -0.00000000000E+00  0.11368683772E-12  0.17120000000E+03  0.17120000000E+03 0.  0.
         13    1    1    2    0    0  0.17358809937E+02 -0.51698452415E+01  0.85413449374E+01  0.20025516713E+02  0.10566000000E+00 0.  1.
        994    1    1    2    0    0 -0.19768497054E+02  0.25823275785E+01  0.13182511091E+02  0.17286029183E+03  0.17120000000E+03 0.  0.
        998    1    1    2    0    0  0.24096871169E+01  0.25875176630E+01  0.14782761403E+04  0.14783141915E+04  0.10000000000E+02 0.  1.
</event>
<event>
 5    1  0.1072898E-008  0.3851576E+03  0.7957747E-01  0.3429004E+00
         13   -1    0    0    0    0  0.00000000000E+00  0.00000000000E+00  0.14999999963E+04  0.15000000000E+04  0.10566000000E+00 0. -1.
        994   -1    0    0    0    0 -0.00000000000E+00 -0.00000000000E+00  0.11368683772E-12  0.17120000000E+03  0.17120000000E+03 0.  0.
         13    1    1    2    0    0  0.74525954183E-01 -0.13237182829E+02  0.52038646345E+02  0.53696000231E+02  0.10566000000E+00 0. -1.
        994    1    1    2    0    0  0.93922625487E-01  0.23197299218E+02  0.33227279450E+01  0.17279642367E+03  0.17120000000E+03 0.  0.
        998    1    1    2    0    0 -0.16844857967E+00 -0.99601163890E+01  0.14446386220E+04  0.14447075761E+04  0.10000000000E+02 0. -1.
</event>
<event>
 5    1  0.1072898E-008  0.3805919E+03  0.7957747E-01  0.3448585E+00
         13   -1    0    0    0    0  0.00000000000E+00  0.00000000000E+00  0.14999999963E+04  0.15000000000E+04  0.10566000000E+00 0. -1.
        994   -1    0    0    0    0 -0.00000000000E+00 -0.00000000000E+00  0.11368683772E-12  0.17120000000E+03  0.17120000000E+03 0.  0.
         13    1    1    2    0    0  0.76025906150E+01  0.10603371203E+02  0.22606795048E+02  0.26101900530E+02  0.10566000000E+00 0. -1.
        994    1    1    2    0    0  0.21428258739E+02  0.13280716273E+02  0.59579537075E+01  0.17314873638E+03  0.17120000000E+03 0.  0.
        998    1    1    2    0    0 -0.29030849354E+02 -0.23884087476E+02  0.14714352475E+04  0.14719493631E+04  0.10000000000E+02 0. -1.
</event>
<event>
 5    1  0.1072898E-008  0.3829305E+03  0.7957747E-01  0.3438497E+00
         13   -1    0    0    0    0  0.00000000000E+00  0.00000000000E+00  0.14999999963E+04  0.15000000000E+04  0.10566000000E+00 0.  1.
        994   -1    0    0    0    0 -0.00000000000E+00 -0.00000000000E+00  0.11368683772E-12  0.17120000000E+03  0.17120000000E+03 0.  0.
         13    1    1    2    0    0  0.40949462536E+02  0.20588802865E+03  0.11656744218E+04  0.11844254335E+04  0.10566000000E+00 0.  1.
        994    1    1    2    0    0 -0.48429248139E+02 -0.20361165604E+03  0.16455360977E+03  0.31652871755E+03  0.17120000000E+03 0.  0.
        998    1    1    2    0    0  0.74797856027E+01 -0.22763726145E+01  0.16977196475E+03  0.17024584894E+03  0.10000000000E+02 0.  0.
</event>
<event>
 5    1  0.1072898E-008  0.3746171E+03  0.7957747E-01  0.3474937E+00
         13   -1    0    0    0    0  0.00000000000E+00  0.00000000000E+00  0.14999999963E+04  0.15000000000E+04  0.10566000000E+00 0.  1.
        994   -1    0    0    0    0 -0.00000000000E+00 -0.00000000000E+00  0.11368683772E-12  0.17120000000E+03  0.17120000000E+03 0.  0.
         13    1    1    2    0    0 -0.69888301115E+02  0.76855062249E+02  0.58404436349E+03  0.59321067498E+03  0.10566000000E+00 0.  1.
        994    1    1    2    0    0  0.53659814022E+02 -0.68289620887E+02  0.32998579275E+02  0.19478499479E+03  0.17120000000E+03 0.  0.
        998    1    1    2    0    0  0.16228487092E+02 -0.85654413623E+01  0.88295705352E+03  0.88320433023E+03  0.10000000000E+02 0.  0.
</event>
<event>
 5    1  0.1072898E-008  0.3816412E+03  0.7957747E-01  0.3444043E+00
         13   -1    0    0    0    0  0.00000000000E+00  0.00000000000E+00  0.14999999963E+04  0.15000000000E+04  0.10566000000E+00 0. -1.
        994   -1    0    0    0    0 -0.00000000000E+00 -0.00000000000E+00  0.11368683772E-12  0.17120000000E+03  0.17120000000E+03 0.  0.
         13    1    1    2    0    0 -0.27581238316E+01 -0.25467761126E+02  0.11193940927E+03  0.11483316862E+03  0.10566000000E+00 0. -1.
        994    1    1    2    0    0 -0.25002988565E+01 -0.55741388191E+01  0.34310827450E+01  0.17134332449E+03  0.17120000000E+03 0.  0.
        998    1    1    2    0    0  0.52584226881E+01  0.31041899945E+02  0.13846295043E+04  0.13850235069E+04  0.10000000000E+02 0. -1.
</event>
<event>
 5    1  0.1072898E-008  0.3844247E+03  0.7957747E-01  0.3432116E+00
         13   -1    0    0    0    0  0.00000000000E+00  0.00000000000E+00  0.14999999963E+04  0.15000000000E+04  0.10566000000E+00 0.  1.
        994   -1    0    0    0    0 -0.00000000000E+00 -0.00000000000E+00  0.11368683772E-12  0.17120000000E+03  0.17120000000E+03 0.  0.
         13    1    1    2    0    0  0.11867011414E+02 -0.11754571109E+02  0.72856526677E+02  0.74746776153E+02  0.10566000000E+00 0.  1.
        994    1    1    2    0    0 -0.73689145993E+00  0.13859788238E+02  0.25510043196E+01  0.17178062860E+03  0.17120000000E+03 0.  0.
        998    1    1    2    0    0 -0.11130119954E+02 -0.21052171295E+01  0.14245924653E+04  0.14246725952E+04  0.10000000000E+02 0.  1.
</event>
<event>
 5    1  0.1072898E-008  0.3841019E+03  0.7957747E-01  0.3433490E+00
         13   -1    0    0    0    0  0.00000000000E+00  0.00000000000E+00  0.14999999963E+04  0.15000000000E+04  0.10566000000E+00 0. -1.
        994   -1    0    0    0    0 -0.00000000000E+00 -0.00000000000E+00  0.11368683772E-12  0.17120000000E+03  0.17120000000E+03 0.  0.
         13    1    1    2    0    0  0.73116749828E+00 -0.16451539737E+02  0.61672372826E+02  0.63833224105E+02  0.10566000000E+00 0. -1.
        994    1    1    2    0    0  0.24160632290E+01  0.20200382689E+02  0.34429784232E+01  0.17243893679E+03  0.17120000000E+03 0.  0.
        998    1    1    2    0    0 -0.31472307273E+01 -0.37488429525E+01  0.14348846450E+04  0.14349278391E+04  0.10000000000E+02 0. -1.
</event>
<event>
 5    1  0.1072898E-008  0.3957781E+03  0.7957747E-01  0.3385209E+00
         13   -1    0    0    0    0  0.00000000000E+00  0.00000000000E+00  0.14999999963E+04  0.15000000000E+04  0.10566000000E+00 0.  1.
        994   -1    0    0    0    0 -0.00000000000E+00 -0.00000000000E+00  0.11368683772E-12  0.17120000000E+03  0.17120000000E+03 0.  0.
         13    1    1    2    0    0 -0.54124593270E+02 -0.11339518162E+03  0.25280611702E+03  0.28230990556E+03  0.10566000000E+00 0.  1.
        994    1    1    2    0    0  0.10453836627E+03  0.85124457575E+02  0.99245896347E+02  0.23944442203E+03  0.17120000000E+03 0.  0.
        998    1    1    2    0    0 -0.50413772999E+02  0.28270724048E+02  0.11479479829E+04  0.11494456724E+04  0.10000000000E+02 0. -1.
</event>
<event>
 5    1  0.1072898E-008  0.3792253E+03  0.7957747E-01  0.3454539E+00
         13   -1    0    0    0    0  0.00000000000E+00  0.00000000000E+00  0.14999999963E+04  0.15000000000E+04  0.10566000000E+00 0.  1.
        994   -1    0    0    0    0 -0.00000000000E+00 -0.00000000000E+00  0.11368683772E-12  0.17120000000E+03  0.17120000000E+03 0.  0.
         13    1    1    2    0    0 -0.21654328429E+02 -0.40524241483E+01  0.52229445221E+02  0.56685608344E+02  0.10566000000E+00 0.  1.
        994    1    1    2    0    0  0.11859832941E+02  0.59129163969E+01  0.51135243321E+01  0.17178826022E+03  0.17120000000E+03 0.  0.
        998    1    1    2    0    0  0.97944954873E+01 -0.18604922486E+01  0.14426570267E+04  0.14427261314E+04  0.10000000000E+02 0.  1.
</event>
<event>
 5    1  0.1072898E-008  0.3848885E+03  0.7957747E-01  0.3430145E+00
         13   -1    0    0    0    0  0.00000000000E+00  0.00000000000E+00  0.14999999963E+04  0.15000000000E+04  0.10566000000E+00 0.  1.
        994   -1    0    0    0    0 -0.00000000000E+00 -0.00000000000E+00  0.11368683772E-12  0.17120000000E+03  0.17120000000E+03 0.  0.
         13    1    1    2    0    0 -0.15510039984E+02 -0.11801989645E+02  0.11682187431E+03  0.11843652216E+03  0.10566000000E+00 0.  1.
        994    1    1    2    0    0  0.94230593597E+00  0.12203566120E+02  0.21785501660E+01  0.17165081138E+03  0.17120000000E+03 0.  0.
        998    1    1    2    0    0  0.14567734048E+02 -0.40157647584E+00  0.13809995718E+04  0.13811126665E+04  0.10000000000E+02 0.  1.
</event>
<event>
 5    1  0.1072898E-008  0.3831953E+03  0.7957747E-01  0.3437362E+00
         13   -1    0    0    0    0  0.00000000000E+00  0.00000000000E+00  0.14999999963E+04  0.15000000000E+04  0.10566000000E+00 0. -1.
        994   -1    0    0    0    0 -0.00000000000E+00 -0.00000000000E+00  0.11368683772E-12  0.17120000000E+03  0.17120000000E+03 0.  0.
         13    1    1    2    0    0  0.95120708691E+01 -0.44832771349E+01  0.19950628266E+02  0.22552560793E+02  0.10566000000E+00 0. -1.
        994    1    1    2    0    0 -0.22093851303E+02  0.67507822368E+01  0.42963033183E+01  0.17280512015E+03  0.17120000000E+03 0.  0.
        998    1    1    2    0    0  0.12581780434E+02 -0.22675051019E+01  0.14757530647E+04  0.14758423191E+04  0.10000000000E+02 0. -1.
</event>
<event>
 5    1  0.1158473E-008  0.3860605E+03  0.7957747E-01  0.3425187E+00
         13   -1    0    0    0    0  0.00000000000E+00  0.00000000000E+00  0.14999999963E+04  0.15000000000E+04  0.10566000000E+00 0. -1.
        994   -1    0    0    0    0 -0.00000000000E+00 -0.00000000000E+00  0.11368683772E-12  0.17120000000E+03  0.17120000000E+03 0.  0.
         13    1    1    2    0    0  0.10205905935E+02 -0.59956589665E+01  0.63597467325E+02  0.64689701318E+02  0.10566000000E+00 0. -1.
        994    1    1    2    0    0 -0.66867922859E+01  0.68317446186E+01  0.14040705941E+01  0.17147243901E+03  0.17120000000E+03 0.  0.
        998    1    1    2    0    0 -0.35191136487E+01 -0.83608565209E+00  0.14349984584E+04  0.14350378597E+04  0.10000000000E+02 0. -1.
</event>
<event>
 5    1  0.1072898E-008  0.3754080E+03  0.7957747E-01  0.3471400E+00
         13   -1    0    0    0    0  0.00000000000E+00  0.00000000000E+00  0.14999999963E+04  0.15000000000E+04  0.10566000000E+00 0.  1.
        994   -1    0    0    0    0 -0.00000000000E+00 -0.00000000000E+00  0.11368683772E-12  0.17120000000E+03  0.17120000000E+03 0.  0.
         13    1    1    2    0    0 -0.47500400919E+02  0.23832040493E+01  0.18403529283E+03  0.19008147706E+03  0.10566000000E+00 0.  1.
        994    1    1    2    0    0  0.17103096614E+02  0.47371520770E+01  0.75392312921E+01  0.17228243245E+03  0.17120000000E+03 0.  0.
        998    1    1    2    0    0  0.30397304305E+02 -0.71203561263E+01  0.13084254722E+04  0.13088360905E+04  0.10000000000E+02 0.  1.
</event>
<event>
 5    1  0.1072898E-008  0.3711845E+03  0.7957747E-01  0.3490465E+00
         13   -1    0    0    0    0  0.00000000000E+00  0.00000000000E+00  0.14999999963E+04  0.15000000000E+04  0.10566000000E+00 0. -1.
        994   -1    0    0    0    0 -0.00000000000E+00 -0.00000000000E+00  0.11368683772E-12  0.17120000000E+03  0.17120000000E+03 0.  0.
         13    1    1    2    0    0  0.32857104954E+03  0.30293815559E+02  0.69614416372E+03  0.77038520086E+03  0.10566000000E+00 0. -1.
        994    1    1    2    0    0 -0.32297853188E+03 -0.56222763535E+02  0.68330397998E+03  0.77697483888E+03  0.17120000000E+03 0.  0.
        998    1    1    2    0    0 -0.55925176621E+01  0.25928947976E+02  0.12055185258E+03  0.12383996026E+03  0.10000000000E+02 0.  1.
</event>
<event>
 5    1  0.1072898E-008  0.3852890E+03  0.7957747E-01  0.3428448E+00
         13   -1    0    0    0    0  0.00000000000E+00  0.00000000000E+00  0.14999999963E+04  0.15000000000E+04  0.10566000000E+00 0. -1.
        994   -1    0    0    0    0 -0.00000000000E+00 -0.00000000000E+00  0.11368683772E-12  0.17120000000E+03  0.17120000000E+03 0.  0.
         13    1    1    2    0    0  0.20280443644E+01 -0.12993566366E+02  0.57104400308E+02  0.58599227209E+02  0.10566000000E+00 0. -1.
        994    1    1    2    0    0  0.15898104569E+01  0.12546318384E+02  0.20124019677E+01  0.17167826701E+03  0.17120000000E+03 0.  0.
        998    1    1    2    0    0 -0.36178548213E+01  0.44724798225E+00  0.14408831940E+04  0.14409225058E+04  0.10000000000E+02 0. -1.
</event>
<event>
 5    1  0.1072898E-008  0.3687868E+03  0.7957747E-01  0.3501485E+00
         13   -1    0    0    0    0  0.00000000000E+00  0.00000000000E+00  0.14999999963E+04  0.15000000000E+04  0.10566000000E+00 0.  1.
        994   -1    0    0    0    0 -0.00000000000E+00 -0.00000000000E+00  0.11368683772E-12  0.17120000000E+03  0.17120000000E+03 0.  0.
         13    1    1    2    0    0 -0.31971562336E+02  0.79440615961E+02  0.29915798300E+03  0.31117278515E+03  0.10566000000E+00 0.  1.
        994    1    1    2    0    0  0.25376367046E+02 -0.72050268797E+02  0.30897634636E+02  0.18999817121E+03  0.17120000000E+03 0.  0.
        998    1    1    2    0    0  0.65951952899E+01 -0.73903471641E+01  0.11699443786E+04  0.11700290436E+04  0.10000000000E+02 0.  1.
</event>
<event>
 5    1  0.1417780E-008  0.3862656E+03  0.7957747E-01  0.3424323E+00
         13   -1    0    0    0    0  0.00000000000E+00  0.00000000000E+00  0.14999999963E+04  0.15000000000E+04  0.10566000000E+00 0. -1.
        994   -1    0    0    0    0 -0.00000000000E+00 -0.00000000000E+00  0.11368683772E-12  0.17120000000E+03  0.17120000000E+03 0.  0.
         13    1    1    2    0    0 -0.87415290138E+01 -0.76650256376E+01  0.69631920125E+02  0.70595909314E+02  0.10566000000E+00 0. -1.
        994    1    1    2    0    0  0.23592748796E+01  0.60138670521E+01  0.11398035943E+01  0.17132563126E+03  0.17120000000E+03 0.  0.
        998    1    1    2    0    0  0.63822541341E+01  0.16511585855E+01  0.14292282726E+04  0.14292784594E+04  0.10000000000E+02 0. -1.
</event>
<event>
 5    1  0.1072898E-008  0.3808606E+03  0.7957747E-01  0.3447420E+00
         13   -1    0    0    0    0  0.00000000000E+00  0.00000000000E+00  0.14999999963E+04  0.15000000000E+04  0.10566000000E+00 0. -1.
        994   -1    0    0    0    0 -0.00000000000E+00 -0.00000000000E+00  0.11368683772E-12  0.17120000000E+03  0.17120000000E+03 0.  0.
         13    1    1    2    0    0 -0.88362753019E+02  0.37300381600E+02  0.53100123281E+03  0.53959393529E+03  0.10566000000E+00 0. -1.
        994    1    1    2    0    0  0.10664122190E+03 -0.69533468179E+02  0.59760556031E+02  0.22155815819E+03  0.17120000000E+03 0.  0.
        998    1    1    2    0    0 -0.18278468880E+02  0.32233086579E+02  0.90923820744E+03  0.91004790652E+03  0.10000000000E+02 0. -1.
</event>
<event>
 5    1  0.1072898E-008  0.2391241E+03  0.7957747E-01  0.4456830E+00
         13   -1    0    0    0    0  0.00000000000E+00  0.00000000000E+00  0.14999999963E+04  0.15000000000E+04  0.10566000000E+00 0. -1.
        994   -1    0    0    0    0 -0.00000000000E+00 -0.00000000000E+00  0.11368683772E-12  0.17120000000E+03  0.17120000000E+03 0.  0.
         13    1    1    2    0    0 -0.48871779251E+02 -0.16557246016E+03  0.13709179582E+03  0.22044695965E+03  0.10566000000E+00 0. -1.
        994    1    1    2    0    0  0.50847068249E+02  0.14652636278E+03  0.26066193005E+03  0.34829510637E+03  0.17120000000E+03 0.  0.
        998    1    1    2    0    0 -0.19752889978E+01  0.19046097377E+02  0.11022462704E+04  0.11024579340E+04  0.10000000000E+02 0. -1.
</event>
<event>
 5    1  0.1072898E-008  0.3836813E+03  0.7957747E-01  0.3435284E+00
         13   -1    0    0    0    0  0.00000000000E+00  0.00000000000E+00  0.14999999963E+04  0.15000000000E+04  0.10566000000E+00 0.  1.
        994   -1    0    0    0    0 -0.00000000000E+00 -0.00000000000E+00  0.11368683772E-12  0.17120000000E+03  0.17120000000E+03 0.  0.
         13    1    1    2    0    0  0.36141517472E+00 -0.23338081375E+02  0.13330974027E+03  0.13533770605E+03  0.10566000000E+00 0.  1.
        994    1    1    2    0    0  0.60408961864E+01 -0.24006227661E+00  0.24069761410E+01  0.17132362240E+03  0.17120000000E+03 0.  0.
        998    1    1    2    0    0 -0.64023113611E+01  0.23578143652E+02  0.13642832799E+04  0.13645386716E+04  0.10000000000E+02 0.  1.
</event>
<event>
 5    1  0.1072898E-008  0.4113745E+03  0.7957747E-01  0.3324978E+00
         13   -1    0    0    0    0  0.00000000000E+00  0.00000000000E+00  0.14999999963E+04  0.15000000000E+04  0.10566000000E+00 0.  1.
        994   -1    0    0    0    0 -0.00000000000E+00 -0.00000000000E+00  0.11368683772E-12  0.17120000000E+03  0.17120000000E+03 0.  0.
         13    1    1    2    0    0 -0.68562103433E+02  0.93356844441E+02  0.17587248377E+03  0.21058823363E+03  0.10566000000E+00 0.  1.
        994    1    1    2    0    0  0.28817861264E+02 -0.93061351428E+02  0.74939526213E+02  0.21075164732E+03  0.17120000000E+03 0.  0.
        998    1    1    2    0    0  0.39744242169E+02 -0.29549301279E+00  0.12491879863E+04  0.12498601191E+04  0.10000000000E+02 0.  1.
</event>
<event>
 5    1  0.1072898E-008  0.3797923E+03  0.7957747E-01  0.3452063E+00
         13   -1    0    0    0    0  0.00000000000E+00  0.00000000000E+00  0.14999999963E+04  0.15000000000E+04  0.10566000000E+00 0. -1.
        994   -1    0    0    0    0 -0.00000000000E+00 -0.00000000000E+00  0.11368683772E-12  0.17120000000E+03  0.17120000000E+03 0.  0.
         13    1    1    2    0    0  0.29193073502E+02  0.82182009614E+01  0.98537260829E+02  0.10309887149E+03  0.10566000000E+00 0. -1.
        994    1    1    2    0    0 -0.33905240204E+02 -0.85158025803E+01  0.83369980129E+01  0.17493150014E+03  0.17120000000E+03 0.  0.
        998    1    1    2    0    0  0.47121667024E+01  0.29760161890E+00  0.13931257374E+04  0.13931696284E+04  0.10000000000E+02 0. -1.
</event>
<event>
 5    1  0.1072898E-008  0.3738711E+03  0.7957747E-01  0.3478287E+00
         13   -1    0    0    0    0  0.00000000000E+00  0.00000000000E+00  0.14999999963E+04  0.15000000000E+04  0.10566000000E+00 0.  1.
        994   -1    0    0    0    0 -0.00000000000E+00 -0.00000000000E+00  0.11368683772E-12  0.17120000000E+03  0.17120000000E+03 0.  0.
         13    1    1    2    0    0 -0.38087225010E+02 -0.88899617938E+01  0.10197567603E+03  0.10921866963E+03  0.10566000000E+00 0.  1.
        994    1    1    2    0    0  0.28468640397E+02 -0.75218061608E+01  0.10223766875E+02  0.17401438579E+03  0.17120000000E+03 0.  0.
        998    1    1    2    0    0  0.96185846131E+01  0.16411767955E+02  0.13878005534E+04  0.13879669446E+04  0.10000000000E+02 0.  1.
</event>
<event>
 5    1  0.1072898E-008  0.3802440E+03  0.7957747E-01  0.3450097E+00
         13   -1    0    0    0    0  0.00000000000E+00  0.00000000000E+00  0.14999999963E+04  0.15000000000E+04  0.10566000000E+00 0. -1.
        994   -1    0    0    0    0 -0.00000000000E+00 -0.00000000000E+00  0.11368683772E-12  0.17120000000E+03  0.17120000000E+03 0.  0.
         13    1    1    2    0    0 -0.61636766485E+02 -0.64289879823E+02  0.52255566496E+03  0.53009123156E+03  0.10566000000E+00 0. -1.
        994    1    1    2    0    0  0.56686768526E+02  0.90583309950E+02  0.43144603106E+02  0.20637253341E+03  0.17120000000E+03 0.  0.
        998    1    1    2    0    0  0.49499979583E+01 -0.26293430127E+02  0.93429972821E+03  0.93473623503E+03  0.10000000000E+02 0. -1.
</event>
<event>
 5    1  0.1072898E-008  0.3691289E+03  0.7957747E-01  0.3499904E+00
         13   -1    0    0    0    0  0.00000000000E+00  0.00000000000E+00  0.14999999963E+04  0.15000000000E+04  0.10566000000E+00 0.  1.
        994   -1    0    0    0    0 -0.00000000000E+00 -0.00000000000E+00  0.11368683772E-12  0.17120000000E+03  0.17120000000E+03 0.  0.
         13    1    1    2    0    0 -0.60887074292E+01  0.24218158945E+02  0.27988364612E+02  0.37509349481E+02  0.10566000000E+00 0.  1.
        994    1    1    2    0    0  0.67365286697E+01 -0.17303277246E+02  0.10921724683E+02  0.17255001678E+03  0.17120000000E+03 0.  0.
        998    1    1    2    0    0 -0.64782124044E+00 -0.69148816987E+01  0.14610899070E+04  0.14611406337E+04  0.10000000000E+02 0.  1.
</event>
<event>
 5    1  0.1072898E-008  0.3740224E+03  0.7957747E-01  0.3477606E+00
         13   -1    0    0    0    0  0.00000000000E+00  0.00000000000E+00  0.14999999963E+04  0.15000000000E+04  0.10566000000E+00 0. -1.
        994   -1    0    0    0    0 -0.00000000000E+00 -0.00000000000E+00  0.11368683772E-12  0.17120000000E+03  0.17120000000E+03 0.  0.
         13    1    1    2    0    0 -0.14927035373E+02  0.43661854934E+02  0.16307318287E+03  0.16947580387E+03  0.10566000000E+00 0. -1.
        994    1    1    2    0    0 -0.56056044147E+01 -0.83876711445E+01  0.75287712500E+01  0.17166216305E+03  0.17120000000E+03 0.  0.
        998    1    1    2    0    0  0.20532639788E+02 -0.35274183790E+02  0.13293980422E+04  0.13300620331E+04  0.10000000000E+02 0. -1.
</event>
<event>
 5    1  0.1072898E-008  0.3694689E+03  0.7957747E-01  0.3498335E+00
         13   -1    0    0    0    0  0.00000000000E+00  0.00000000000E+00  0.14999999963E+04  0.15000000000E+04  0.10566000000E+00 0. -1.
        994   -1    0    0    0    0 -0.00000000000E+00 -0.00000000000E+00  0.11368683772E-12  0.17120000000E+03  0.17120000000E+03 0.  0.
         13    1    1    2    0    0 -0.10643128078E+02  0.13981818178E+02  0.12156762340E+02  0.21367392201E+02  0.10566000000E+00 0. -1.
        994    1    1    2    0    0  0.67251996002E+01 -0.19756673377E+01  0.97171506332E+01  0.17161874777E+03  0.17120000000E+03 0.  0.
        998    1    1    2    0    0  0.39179284779E+01 -0.12006150840E+02  0.14781260833E+04  0.14782138600E+04  0.10000000000E+02 0. -1.
</event>
<event>
 5    1  0.1072898E-008  0.3767469E+03  0.7957747E-01  0.3465447E+00
         13   -1    0    0    0    0  0.00000000000E+00  0.00000000000E+00  0.14999999963E+04  0.15000000000E+04  0.10566000000E+00 0.  1.
        994   -1    0    0    0    0 -0.00000000000E+00 -0.00000000000E+00  0.11368683772E-12  0.17120000000E+03  0.17120000000E+03 0.  0.
         13    1    1    2    0    0 -0.15990183725E+02  0.15030996344E+02  0.38589830533E+02  0.44393727161E+02  0.10566000000E+00 0.  1.
        994    1    1    2    0    0  0.13241669751E+02 -0.16483260653E+02  0.72965128751E+01  0.17265491247E+03  0.17120000000E+03 0.  0.
        998    1    1    2    0    0  0.27485139746E+01  0.14522643093E+01  0.14541136529E+04  0.14541513604E+04  0.10000000000E+02 0.  1.
</event>
<event>
 5    1  0.1072898E-008  0.3754235E+03  0.7957747E-01  0.3471331E+00
         13   -1    0    0    0    0  0.00000000000E+00  0.00000000000E+00  0.14999999963E+04  0.15000000000E+04  0.10566000000E+00 0.  1.
        994   -1    0    0    0    0 -0.00000000000E+00 -0.00000000000E+00  0.11368683772E-12  0.17120000000E+03  0.17120000000E+03 0.  0.
         13    1    1    2    0    0 -0.10870765175E+02 -0.64840074075E+02  0.23030683744E+03  0.23950711739E+03  0.10566000000E+00 0.  1.
        994    1    1    2    0    0  0.19523548409E+02  0.94069553573E+02  0.38466591340E+02  0.20004841539E+03  0.17120000000E+03 0.  0.
        998    1    1    2    0    0 -0.86527832337E+01 -0.29229479498E+02  0.12312265675E+04  0.12316444672E+04  0.10000000000E+02 0.  1.
</event>
<event>
 5    1  0.1072898E-008  0.3821672E+03  0.7957747E-01  0.3441776E+00
         13   -1    0    0    0    0  0.00000000000E+00  0.00000000000E+00  0.14999999963E+04  0.15000000000E+04  0.10566000000E+00 0. -1.
        994   -1    0    0    0    0 -0.00000000000E+00 -0.00000000000E+00  0.11368683772E-12  0.17120000000E+03  0.17120000000E+03 0.  0.
         13    1    1    2    0    0 -0.11268533809E+02  0.15336290151E+02  0.61531722204E+02  0.64407652117E+02  0.10566000000E+00 0. -1.
        994    1    1    2    0    0 -0.34421028504E+01 -0.45024608618E+01  0.31497657313E+01  0.17132274003E+03  0.17120000000E+03 0.  0.
        998    1    1    2    0    0  0.14710636660E+02 -0.10833829289E+02  0.14353185083E+04  0.14354696079E+04  0.10000000000E+02 0. -1.
</event>
<event>
 5    1  0.1072898E-008  0.4331313E+03  0.7957747E-01  0.3248106E+00
         13   -1    0    0    0    0  0.00000000000E+00  0.00000000000E+00  0.14999999963E+04  0.15000000000E+04  0.10566000000E+00 0. -1.
        994   -1    0    0    0    0 -0.00000000000E+00 -0.00000000000E+00  0.11368683772E-12  0.17120000000E+03  0.17120000000E+03 0.  0.
         13    1    1    2    0    0  0.14114349384E+03  0.59769313875E+02  0.21696240491E+03  0.26564365802E+03  0.10566000000E+00 0. -1.
        994    1    1    2    0    0 -0.10181289119E+03 -0.62513452893E+02  0.11799552491E+03  0.23980446306E+03  0.17120000000E+03 0.  0.
        998    1    1    2    0    0 -0.39330602644E+02  0.27441390178E+01  0.11650420665E+04  0.11657518789E+04  0.10000000000E+02 0. -1.
</event>
<event>
 5    1  0.1072898E-008  0.3836317E+03  0.7957747E-01  0.3435496E+00
         13   -1    0    0    0    0  0.00000000000E+00  0.00000000000E+00  0.14999999963E+04  0.15000000000E+04  0.10566000000E+00 0.  1.
        994   -1    0    0    0    0 -0.00000000000E+00 -0.00000000000E+00  0.11368683772E-12  0.17120000000E+03  0.17120000000E+03 0.  0.
         13    1    1    2    0    0 -0.78509231678E+00 -0.11649081132E+02  0.26900354512E+02  0.29325035346E+02  0.10566000000E+00 0.  1.
        994    1    1    2    0    0 -0.28722863077E+01  0.26780054422E+02  0.47109406891E+01  0.17336970412E+03  0.17120000000E+03 0.  0.
        998    1    1    2    0    0  0.36573786245E+01 -0.15130973290E+02  0.14683887011E+04  0.14685052605E+04  0.10000000000E+02 0.  1.
</event>
<event>
 5    1  0.1072898E-008  0.3838121E+03  0.7957747E-01  0.3434726E+00
         13   -1    0    0    0    0  0.00000000000E+00  0.00000000000E+00  0.14999999963E+04  0.15000000000E+04  0.10566000000E+00 0.  1.
        994   -1    0    0    0    0 -0.00000000000E+00 -0.00000000000E+00  0.11368683772E-12  0.17120000000E+03  0.17120000000E+03 0.  0.
         13    1    1    2    0    0 -0.57934570727E+01  0.18997763528E+02  0.86379283901E+02  0.88633351596E+02  0.10566000000E+00 0.  1.
        994    1    1    2    0    0  0.55457398014E+01 -0.15154203939E+02  0.30812193632E+01  0.17198645016E+03  0.17120000000E+03 0.  0.
        998    1    1    2    0    0  0.24771727137E+00 -0.38435595894E+01  0.14105394930E+04  0.14105801982E+04  0.10000000000E+02 0.  1.
</event>
<event>
 5    1  0.1072898E-008  0.3779196E+03  0.7957747E-01  0.3460267E+00
         13   -1    0    0    0    0  0.00000000000E+00  0.00000000000E+00  0.14999999963E+04  0.15000000000E+04  0.10566000000E+00 0.  1.
        994   -1    0    0    0    0 -0.00000000000E+00 -0.00000000000E+00  0.11368683772E-12  0.17120000000E+03  0.17120000000E+03 0.  0.
         13    1    1    2    0    0 -0.44863109963E+02 -0.67429715217E+02  0.42774839551E+03  0.43534832738E+03  0.10566000000E+00 0.  1.
        994    1    1    2    0    0  0.52264549383E+02  0.67731457725E+02  0.30233459785E+02  0.19375922063E+03  0.17120000000E+03 0.  0.
        998    1    1    2    0    0 -0.74014394201E+01 -0.30174250880E+00  0.10420181410E+04  0.10420924520E+04  0.10000000000E+02 0.  0.
</event>
<event>
 5    1  0.1072898E-008  0.3813324E+03  0.7957747E-01  0.3445377E+00
         13   -1    0    0    0    0  0.00000000000E+00  0.00000000000E+00  0.14999999963E+04  0.15000000000E+04  0.10566000000E+00 0. -1.
        994   -1    0    0    0    0 -0.00000000000E+00 -0.00000000000E+00  0.11368683772E-12  0.17120000000E+03  0.17120000000E+03 0.  0.
         13    1    1    2    0    0 -0.18713229703E+02  0.23274698499E+02  0.13656331982E+03  0.13979072945E+03  0.10566000000E+00 0. -1.
        994    1    1    2    0    0  0.28994741636E+02  0.12101525504E+02  0.67544804850E+01  0.17419014027E+03  0.17120000000E+03 0.  0.
        998    1    1    2    0    0 -0.10281511933E+02 -0.35376224003E+02  0.13566821960E+04  0.13572191303E+04  0.10000000000E+02 0. -1.
</event>
<event>
 5    1  0.1072898E-008  0.3704496E+03  0.7957747E-01  0.3493827E+00
         13   -1    0    0    0    0  0.00000000000E+00  0.00000000000E+00  0.14999999963E+04  0.15000000000E+04  0.10566000000E+00 0. -1.
        994   -1    0    0    0    0 -0.00000000000E+00 -0.00000000000E+00  0.11368683772E-12  0.17120000000E+03  0.17120000000E+03 0.  0.
         13    1    1    2    0    0  0.35567402421E+02 -0.37627336519E+02  0.17737158594E+03  0.18477431432E+03  0.10566000000E+00 0. -1.
        994    1    1    2    0    0 -0.38296794041E+02 -0.44264661971E+02  0.20956406016E+02  0.18213900100E+03  0.17120000000E+03 0.  0.
        998    1    1    2    0    0  0.27293916191E+01  0.81891998489E+02  0.13016720043E+04  0.13042866847E+04  0.10000000000E+02 0. -1.
</event>
<event>
 5    1  0.1072898E-008  0.3994819E+03  0.7957747E-01  0.3370483E+00
         13   -1    0    0    0    0  0.00000000000E+00  0.00000000000E+00  0.14999999963E+04  0.15000000000E+04  0.10566000000E+00 0. -1.
        994   -1    0    0    0    0 -0.00000000000E+00 -0.00000000000E+00  0.11368683772E-12  0.17120000000E+03  0.17120000000E+03 0.  0.
         13    1    1    2    0    0 -0.30287223894E+02  0.91568510409E+02  0.14979292246E+03  0.17815734286E+03  0.10566000000E+00 0. -1.
        994    1    1    2    0    0  0.92531794904E+01 -0.89202941547E+02  0.59635515253E+02  0.20225879657E+03  0.17120000000E+03 0.  0.
        998    1    1    2    0    0  0.21034044403E+02 -0.23655688623E+01  0.12905715586E+04  0.12907838606E+04  0.10000000000E+02 0. -1.
</event>
<event>
 5    1  0.1072898E-008  0.3766955E+03  0.7957747E-01  0.3465675E+00
         13   -1    0    0    0    0  0.00000000000E+00  0.00000000000E+00  0.14999999963E+04  0.15000000000E+04  0.10566000000E+00 0. -1.
        994   -1    0    0    0    0 -0.00000000000E+00 -0.00000000000E+00  0.11368683772E-12  0.17120000000E+03  0.17120000000E+03 0.  0.
         13    1    1    2    0    0 -0.40505594823E+02  0.32059202365E+02  0.20646397227E+03  0.21282828449E+03  0.10566000000E+00 0. -1.
        994    1    1    2    0    0  0.36907070660E+02 -0.26078620950E+02  0.12744438573E+02  0.17752207482E+03  0.17120000000E+03 0.  0.
        998    1    1    2    0    0  0.35985241628E+01 -0.59805814147E+01  0.12807915854E+04  0.12808496407E+04  0.10000000000E+02 0. -1.
</event>
<event>
 5    1  0.1072898E-008  0.3727961E+03  0.7957747E-01  0.3483139E+00
         13   -1    0    0    0    0  0.00000000000E+00  0.00000000000E+00  0.14999999963E+04  0.15000000000E+04  0.10566000000E+00 0.  1.
        994   -1    0    0    0    0 -0.00000000000E+00 -0.00000000000E+00  0.11368683772E-12  0.17120000000E+03  0.17120000000E+03 0.  0.
         13    1    1    2    0    0 -0.11932174977E+02 -0.51136735451E+02  0.98747363517E+02  0.11184093829E+03  0.10566000000E+00 0.  1.
        994    1    1    2    0    0  0.54001384944E+01  0.56683028144E+02  0.23961219874E+02  0.18200469014E+03  0.17120000000E+03 0.  0.
        998    1    1    2    0    0  0.65320364827E+01 -0.55462926931E+01  0.13772914129E+04  0.13773543716E+04  0.10000000000E+02 0.  1.
</event>
<event>
 5    1  0.1072898E-008  0.3808344E+03  0.7957747E-01  0.3447533E+00
         13   -1    0    0    0    0  0.00000000000E+00  0.00000000000E+00  0.14999999963E+04  0.15000000000E+04  0.10566000000E+00 0.  1.
        994   -1    0    0    0    0 -0.00000000000E+00 -0.00000000000E+00  0.11368683772E-12  0.17120000000E+03  0.17120000000E+03 0.  0.
         13    1    1    2    0    0  0.84196313558E+00  0.15936836111E+02  0.33665898058E+02  0.37257153719E+02  0.10566000000E+00 0.  1.
        994    1    1    2    0    0  0.17220776420E+02 -0.46163372177E+01  0.47729098000E+01  0.17219200440E+03  0.17120000000E+03 0.  0.
        998    1    1    2    0    0 -0.18062739556E+02 -0.11320498893E+02  0.14615611884E+04  0.14617508419E+04  0.10000000000E+02 0.  1.
</event>
<event>
 5    1  0.1072898E-008  0.3813928E+03  0.7957747E-01  0.3445116E+00
         13   -1    0    0    0    0  0.00000000000E+00  0.00000000000E+00  0.14999999963E+04  0.15000000000E+04  0.10566000000E+00 0.  1.
        994   -1    0    0    0    0 -0.00000000000E+00 -0.00000000000E+00  0.11368683772E-12  0.17120000000E+03  0.17120000000E+03 0.  0.
         13    1    1    2    0    0  0.49434242737E+01  0.91766276968E+01  0.14290237516E+02  0.17688131381E+02  0.10566000000E+00 0.  1.
        994    1    1    2    0    0 -0.64497306158E+01 -0.79272290342E+01  0.37793095178E+01  0.17154638780E+03  0.17120000000E+03 0.  0.
        998    1    1    2    0    0  0.15063063422E+01 -0.12493986626E+01  0.14819304492E+04  0.14819654808E+04  0.10000000000E+02 0.  1.
</event>
<event>
 5    1  0.1072898E-008  0.3714554E+03  0.7957747E-01  0.3489229E+00
         13   -1    0    0    0    0  0.00000000000E+00  0.00000000000E+00  0.14999999963E+04  0.15000000000E+04  0.10566000000E+00 0.  1.
        994   -1    0    0    0    0 -0.00000000000E+00 -0.00000000000E+00  0.11368683772E-12  0.17120000000E+03  0.17120000000E+03 0.  0.
         13    1    1    2    0    0  0.18404588590E+03 -0.34972787922E+02  0.82928511916E+03  0.85018221813E+03  0.10566000000E+00 0.  1.
        994    1    1    2    0    0 -0.17958495150E+03  0.29702919189E+02  0.13282909456E+03  0.28299474655E+03  0.17120000000E+03 0.  0.
        998    1    1    2    0    0 -0.44609344096E+01  0.52698687331E+01  0.53788578256E+03  0.53802303532E+03  0.10000000000E+02 0.  0.
</event>
<event>
 5    1  0.1072898E-008  0.3825971E+03  0.7957747E-01  0.3439927E+00
         13   -1    0    0    0    0  0.00000000000E+00  0.00000000000E+00  0.14999999963E+04  0.15000000000E+04  0.10566000000E+00 0. -1.
        994   -1    0    0    0    0 -0.00000000000E+00 -0.00000000000E+00  0.11368683772E-12  0.17120000000E+03  0.17120000000E+03 0.  0.
         13    1    1    2    0    0  0.33069689190E+01 -0.32397376320E+02  0.15713643081E+03  0.16047552800E+03  0.10566000000E+00 0. -1.
        994    1    1    2    0    0 -0.39859062753E+02  0.40284920358E+02  0.13546569163E+02  0.18084404670E+03  0.17120000000E+03 0.  0.
        998    1    1    2    0    0  0.36552093834E+02 -0.78875440382E+01  0.13293169963E+04  0.13298804253E+04  0.10000000000E+02 0. -1.
</event>
<event>
 5    1  0.1072898E-008  0.3720451E+03  0.7957747E-01  0.3486545E+00
         13   -1    0    0    0    0  0.00000000000E+00  0.00000000000E+00  0.14999999963E+04  0.15000000000E+04  0.10566000000E+00 0.  1.
        994   -1    0    0    0    0 -0.00000000000E+00 -0.00000000000E+00  0.11368683772E-12  0.17120000000E+03  0.17120000000E+03 0.  0.
         13    1    1    2    0    0  0.14920141577E+02  0.54991338395E+01  0.11735900395E+02  0.19763441496E+02  0.10566000000E+00 0.  1.
        994    1    1    2    0    0 -0.12053507519E+02 -0.41417014726E+01  0.87619466958E+01  0.17189721477E+03  0.17120000000E+03 0.  0.
        998    1    1    2    0    0 -0.28666340585E+01 -0.13574323669E+01  0.14795021492E+04  0.14795393437E+04  0.10000000000E+02 0.  1.
</event>
<event>
 5    1  0.1072898E-008  0.3783748E+03  0.7957747E-01  0.3458266E+00
         13   -1    0    0    0    0  0.00000000000E+00  0.00000000000E+00  0.14999999963E+04  0.15000000000E+04  0.10566000000E+00 0. -1.
        994   -1    0    0    0    0 -0.00000000000E+00 -0.00000000000E+00  0.11368683772E-12  0.17120000000E+03  0.17120000000E+03 0.  0.
         13    1    1    2    0    0  0.10755075274E+02  0.26320865936E+01  0.10253246789E+02  0.15091048928E+02  0.10566000000E+00 0. -1.
        994    1    1    2    0    0 -0.55249822795E+01  0.67214165783E+01  0.52102726456E+01  0.17150011607E+03  0.17120000000E+03 0.  0.
        998    1    1    2    0    0 -0.52300929948E+01 -0.93535031719E+01  0.14845364768E+04  0.14846088350E+04  0.10000000000E+02 0. -1.
</event>
<event>
 5    1  0.1072898E-008  0.3788578E+03  0.7957747E-01  0.3456147E+00
         13   -1    0    0    0    0  0.00000000000E+00  0.00000000000E+00  0.14999999963E+04  0.15000000000E+04  0.10566000000E+00 0.  1.
        994   -1    0    0    0    0 -0.00000000000E+00 -0.00000000000E+00  0.11368683772E-12  0.17120000000E+03  0.17120000000E+03 0.  0.
         13    1    1    2    0    0  0.40948320152E+02  0.60107516653E+01  0.21279625029E+03  0.21678364644E+03  0.10566000000E+00 0.  1.
        994    1    1    2    0    0 -0.12493239891E+01 -0.17688715014E+01  0.47265902154E+01  0.17127892565E+03  0.17120000000E+03 0.  0.
        998    1    1    2    0    0 -0.39698996163E+02 -0.42418801639E+01  0.12824771558E+04  0.12831374279E+04  0.10000000000E+02 0. -1.
</event>
<event>
 5    1  0.1072898E-008  0.3791914E+03  0.7957747E-01  0.3454687E+00
         13   -1    0    0    0    0  0.00000000000E+00  0.00000000000E+00  0.14999999963E+04  0.15000000000E+04  0.10566000000E+00 0. -1.
        994   -1    0    0    0    0 -0.00000000000E+00 -0.00000000000E+00  0.11368683772E-12  0.17120000000E+03  0.17120000000E+03 0.  0.
         13    1    1    2    0    0  0.50583533224E+01 -0.42011702837E+02  0.18190843004E+03  0.18676524890E+03  0.10566000000E+00 0. -1.
        994    1    1    2    0    0 -0.10317824389E+02  0.34465472813E+02  0.88925049102E+01  0.17516518764E+03  0.17120000000E+03 0.  0.
        998    1    1    2    0    0  0.52594710665E+01  0.75462300240E+01  0.13091990613E+04  0.13092695635E+04  0.10000000000E+02 0. -1.
</event>
<event>
 5    1  0.1072898E-008  0.3855685E+03  0.7957747E-01  0.3427265E+00
         13   -1    0    0    0    0  0.00000000000E+00  0.00000000000E+00  0.14999999963E+04  0.15000000000E+04  0.10566000000E+00 0.  1.
        994   -1    0    0    0    0 -0.00000000000E+00 -0.00000000000E+00  0.11368683772E-12  0.17120000000E+03  0.17120000000E+03 0.  0.
         13    1    1    2    0    0  0.11632146130E-01  0.17240537523E+02  0.10381822894E+03  0.10524006886E+03  0.10566000000E+00 0.  1.
        994    1    1    2    0    0  0.16949058542E+01 -0.18531150848E+02  0.24856430625E+01  0.17222628916E+03  0.17120000000E+03 0.  0.
        998    1    1    2    0    0 -0.17065380004E+01  0.12906133245E+01  0.13936961243E+04  0.13937336420E+04  0.10000000000E+02 0.  1.
</event>
<event>
 5    1  0.1072898E-008  0.3788271E+03  0.7957747E-01  0.3456282E+00
         13   -1    0    0    0    0  0.00000000000E+00  0.00000000000E+00  0.14999999963E+04  0.15000000000E+04  0.10566000000E+00 0.  1.
        994   -1    0    0    0    0 -0.00000000000E+00 -0.00000000000E+00  0.11368683772E-12  0.17120000000E+03  0.17120000000E+03 0.  0.
         13    1    1    2    0    0 -0.39863414572E+02 -0.49928194363E+02  0.32907540946E+03  0.33522015555E+03  0.10566000000E+00 0.  1.
        994    1    1    2    0    0  0.52428324419E+02  0.43544245883E+02  0.20475484374E+02  0.18540096011E+03  0.17120000000E+03 0.  0.
        998    1    1    2    0    0 -0.12564909847E+02  0.63839484801E+01  0.11504491024E+04  0.11505788843E+04  0.10000000000E+02 0.  1.
</event>
<event>
 5    1  0.1072898E-008  0.3834621E+03  0.7957747E-01  0.3436221E+00
         13   -1    0    0    0    0  0.00000000000E+00  0.00000000000E+00  0.14999999963E+04  0.15000000000E+04  0.10566000000E+00 0. -1.
        994   -1    0    0    0    0 -0.00000000000E+00 -0.00000000000E+00  0.11368683772E-12  0.17120000000E+03  0.17120000000E+03 0.  0.
         13    1    1    2    0    0  0.86546574248E+01  0.16258283654E+02  0.61967366392E+02  0.64646736531E+02  0.10566000000E+00 0. -1.
        994    1    1    2    0    0 -0.92423594823E+01 -0.36245714937E+02  0.70338432254E+01  0.17537983924E+03  0.17120000000E+03 0.  0.
        998    1    1    2    0    0  0.58770205747E+00  0.19987431283E+02  0.14309987867E+04  0.14311734242E+04  0.10000000000E+02 0. -1.
</event>
<event>
 5    1  0.1072898E-008  0.3853100E+03  0.7957747E-01  0.3428358E+00
         13   -1    0    0    0    0  0.00000000000E+00  0.00000000000E+00  0.14999999963E+04  0.15000000000E+04  0.10566000000E+00 0. -1.
        994   -1    0    0    0    0 -0.00000000000E+00 -0.00000000000E+00  0.11368683772E-12  0.17120000000E+03  0.17120000000E+03 0.  0.
         13    1    1    2    0    0  0.29562539625E+00 -0.15059774244E+02  0.78782119826E+02  0.80209212457E+02  0.10566000000E+00 0. -1.
        994    1    1    2    0    0 -0.77394938468E+01  0.68192574595E+01  0.18259448234E+01  0.17152019156E+03  0.17120000000E+03 0.  0.
        998    1    1    2    0    0  0.74438684505E+01  0.82405167841E+01  0.14193919316E+04  0.14194705960E+04  0.10000000000E+02 0. -1.
</event>
<event>
 5    1  0.1072898E-008  0.3848227E+03  0.7957747E-01  0.3430424E+00
         13   -1    0    0    0    0  0.00000000000E+00  0.00000000000E+00  0.14999999963E+04  0.15000000000E+04  0.10566000000E+00 0.  1.
        994   -1    0    0    0    0 -0.00000000000E+00 -0.00000000000E+00  0.11368683772E-12  0.17120000000E+03  0.17120000000E+03 0.  0.
         13    1    1    2    0    0  0.36448164808E+01 -0.12387960911E+02  0.55338682983E+02  0.56825410347E+02  0.10566000000E+00 0.  1.
        994    1    1    2    0    0  0.31806167730E+01 -0.14017113344E+02  0.23982800320E+01  0.17181905464E+03  0.17120000000E+03 0.  0.
        998    1    1    2    0    0 -0.68254332537E+01  0.26405074255E+02  0.14422630333E+04  0.14425555350E+04  0.10000000000E+02 0.  1.
</event>
<event>
 5    1  0.1072898E-008  0.3839561E+03  0.7957747E-01  0.3434112E+00
         13   -1    0    0    0    0  0.00000000000E+00  0.00000000000E+00  0.14999999963E+04  0.15000000000E+04  0.10566000000E+00 0.  1.
        994   -1    0    0    0    0 -0.00000000000E+00 -0.00000000000E+00  0.11368683772E-12  0.17120000000E+03  0.17120000000E+03 0.  0.
         13    1    1    2    0    0  0.92760839191E+01  0.50297921707E+01  0.25126529151E+02  0.27252489306E+02  0.10566000000E+00 0.  1.
        994    1    1    2    0    0 -0.87928241610E+01 -0.19455415631E+01  0.24169493959E+01  0.17145372709E+03  0.17120000000E+03 0.  0.
        998    1    1    2    0    0 -0.48325975808E+00 -0.30842506076E+01  0.14724565177E+04  0.14724937836E+04  0.10000000000E+02 0.  1.
</event>
<event>
 5    1  0.1072898E-008  0.3798819E+03  0.7957747E-01  0.3451673E+00
         13   -1    0    0    0    0  0.00000000000E+00  0.00000000000E+00  0.14999999963E+04  0.15000000000E+04  0.10566000000E+00 0. -1.
        994   -1    0    0    0    0 -0.00000000000E+00 -0.00000000000E+00  0.11368683772E-12  0.17120000000E+03  0.17120000000E+03 0.  0.
         13    1    1    2    0    0 -0.95290538367E+01  0.10780436090E+02  0.23368575797E+02  0.27443071405E+02  0.10566000000E+00 0. -1.
        994    1    1    2    0    0  0.51046136222E+00 -0.46352761171E+01  0.42655034248E+01  0.17131661004E+03  0.17120000000E+03 0.  0.
        998    1    1    2    0    0  0.90185924745E+01 -0.61451599731E+01  0.14723659171E+04  0.14724403186E+04  0.10000000000E+02 0. -1.
</event>
<event>
 5    1  0.1072898E-008  0.3723179E+03  0.7957747E-01  0.3485306E+00
         13   -1    0    0    0    0  0.00000000000E+00  0.00000000000E+00  0.14999999963E+04  0.15000000000E+04  0.10566000000E+00 0.  1.
        994   -1    0    0    0    0 -0.00000000000E+00 -0.00000000000E+00  0.11368683772E-12  0.17120000000E+03  0.17120000000E+03 0.  0.
         13    1    1    2    0    0  0.96555010197E+01  0.19908853101E+02  0.28358964000E+02  0.35969892062E+02  0.10566000000E+00 0.  1.
        994    1    1    2    0    0  0.65465577381E+01  0.13014147731E+01  0.82153776368E+01  0.17152691780E+03  0.17120000000E+03 0.  0.
        998    1    1    2    0    0 -0.16202058758E+02 -0.21210267874E+02  0.14634256546E+04  0.14637031901E+04  0.10000000000E+02 0.  1.
</event>
<event>
 5    1  0.1072898E-008  0.3821866E+03  0.7957747E-01  0.3441693E+00
         13   -1    0    0    0    0  0.00000000000E+00  0.00000000000E+00  0.14999999963E+04  0.15000000000E+04  0.10566000000E+00 0.  1.
        994   -1    0    0    0    0 -0.00000000000E+00 -0.00000000000E+00  0.11368683772E-12  0.17120000000E+03  0.17120000000E+03 0.  0.
         13    1    1    2    0    0  0.11575084422E+02 -0.26761486748E+02  0.13015504364E+03  0.13338105675E+03  0.10566000000E+00 0.  1.
        994    1    1    2    0    0  0.77571326386E+00  0.30502844590E+02  0.61295851097E+01  0.17400585356E+03  0.17120000000E+03 0.  0.
        998    1    1    2    0    0 -0.12350797686E+02 -0.37413578421E+01  0.13637153675E+04  0.13638130897E+04  0.10000000000E+02 0.  1.
</event>
<event>
 5    1  0.1072898E-008  0.3849909E+03  0.7957747E-01  0.3429711E+00
         13   -1    0    0    0    0  0.00000000000E+00  0.00000000000E+00  0.14999999963E+04  0.15000000000E+04  0.10566000000E+00 0.  1.
        994   -1    0    0    0    0 -0.00000000000E+00 -0.00000000000E+00  0.11368683772E-12  0.17120000000E+03  0.17120000000E+03 0.  0.
         13    1    1    2    0    0 -0.11630278882E+02 -0.78720845177E+01  0.59150587533E+02  0.60795034922E+02  0.10566000000E+00 0.  1.
        994    1    1    2    0    0  0.11470285087E+02  0.54543061882E+01  0.21653830668E+01  0.17168414539E+03  0.17120000000E+03 0.  0.
        998    1    1    2    0    0  0.15999379530E+00  0.24177783295E+01  0.14386840257E+04  0.14387208197E+04  0.10000000000E+02 0.  1.
</event>
<event>
 5    1  0.1072898E-008  0.3833961E+03  0.7957747E-01  0.3436503E+00
         13   -1    0    0    0    0  0.00000000000E+00  0.00000000000E+00  0.14999999963E+04  0.15000000000E+04  0.10566000000E+00 0.  1.
        994   -1    0    0    0    0 -0.00000000000E+00 -0.00000000000E+00  0.11368683772E-12  0.17120000000E+03  0.17120000000E+03 0.  0.
         13    1    1    2    0    0 -0.11388114754E+02 -0.15781470808E+02  0.74844947036E+02  0.77333829851E+02  0.10566000000E+00 0.  1.
        994    1    1    2    0    0  0.13588484701E+02  0.12750056765E+02  0.35771997452E+01  0.17224821399E+03  0.17120000000E+03 0.  0.
        998    1    1    2    0    0 -0.22003699473E+01  0.30314140431E+01  0.14215778495E+04  0.14216179562E+04  0.10000000000E+02 0.  1.
</event>
<event>
 5    1  0.1072898E-008  0.4362538E+03  0.7957747E-01  0.3237689E+00
         13   -1    0    0    0    0  0.00000000000E+00  0.00000000000E+00  0.14999999963E+04  0.15000000000E+04  0.10566000000E+00 0.  1.
        994   -1    0    0    0    0 -0.00000000000E+00 -0.00000000000E+00  0.11368683772E-12  0.17120000000E+03  0.17120000000E+03 0.  0.
         13    1    1    2    0    0  0.17945704622E+01  0.44524033406E+02  0.22337880961E+01  0.44616263932E+02  0.10566000000E+00 0.  1.
        994    1    1    2    0    0 -0.36732638059E+02  0.41512805515E+02  0.65842753065E+02  0.19161760841E+03  0.17120000000E+03 0.  0.
        998    1    1    2    0    0  0.34938067597E+02 -0.86036838922E+02  0.14319234551E+04  0.14349661277E+04  0.10000000000E+02 0.  1.
</event>
<event>
 5    1  0.1072898E-008  0.3843018E+03  0.7957747E-01  0.3432639E+00
         13   -1    0    0    0    0  0.00000000000E+00  0.00000000000E+00  0.14999999963E+04  0.15000000000E+04  0.10566000000E+00 0. -1.
        994   -1    0    0    0    0 -0.00000000000E+00 -0.00000000000E+00  0.11368683772E-12  0.17120000000E+03  0.17120000000E+03 0.  0.
         13    1    1    2    0    0  0.22317628539E+01 -0.23277265624E+02  0.13726200298E+03  0.13923965127E+03  0.10566000000E+00 0. -1.
        994    1    1    2    0    0  0.46028087257E+01  0.15482865394E+02  0.28376333884E+01  0.17198371182E+03  0.17120000000E+03 0.  0.
        998    1    1    2    0    0 -0.68345715796E+01  0.77944002297E+01  0.13599003599E+04  0.13599766369E+04  0.10000000000E+02 0. -1.
</event>
<event>
 5    1  0.1072898E-008  0.3796275E+03  0.7957747E-01  0.3452782E+00
         13   -1    0    0    0    0  0.00000000000E+00  0.00000000000E+00  0.14999999963E+04  0.15000000000E+04  0.10566000000E+00 0.  1.
        994   -1    0    0    0    0 -0.00000000000E+00 -0.00000000000E+00  0.11368683772E-12  0.17120000000E+03  0.17120000000E+03 0.  0.
         13    1    1    2    0    0  0.88892619975E+00 -0.10185863725E+02  0.10244184590E+02  0.14473993629E+02  0.10566000000E+00 0.  1.
        994    1    1    2    0    0  0.34520975178E+01  0.49148237024E+01  0.44420665929E+01  0.17136290271E+03  0.17120000000E+03 0.  0.
        998    1    1    2    0    0 -0.43410237176E+01  0.52710400229E+01  0.14853137451E+04  0.14853631037E+04  0.10000000000E+02 0.  1.
</event>
<event>
 5    1  0.1072898E-008  0.3850786E+03  0.7957747E-01  0.3429339E+00
         13   -1    0    0    0    0  0.00000000000E+00  0.00000000000E+00  0.14999999963E+04  0.15000000000E+04  0.10566000000E+00 0. -1.
        994   -1    0    0    0    0 -0.00000000000E+00 -0.00000000000E+00  0.11368683772E-12  0.17120000000E+03  0.17120000000E+03 0.  0.
         13    1    1    2    0    0  0.14133483651E+02  0.91668485377E+01  0.90553690121E+02  0.92107374464E+02  0.10566000000E+00 0. -1.
        994    1    1    2    0    0 -0.18074955632E+01 -0.14101323480E+02  0.22559289701E+01  0.17180408487E+03  0.17120000000E+03 0.  0.
        998    1    1    2    0    0 -0.12325988088E+02  0.49344749421E+01  0.14071903772E+04  0.14072885407E+04  0.10000000000E+02 0. -1.
</event>
<event>
 5    1  0.1072898E-008  0.3855221E+03  0.7957747E-01  0.3427461E+00
         13   -1    0    0    0    0  0.00000000000E+00  0.00000000000E+00  0.14999999963E+04  0.15000000000E+04  0.10566000000E+00 0.  1.
        994   -1    0    0    0    0 -0.00000000000E+00 -0.00000000000E+00  0.11368683772E-12  0.17120000000E+03  0.17120000000E+03 0.  0.
         13    1    1    2    0    0  0.11016081411E+02  0.15560537987E+00  0.44451894509E+02  0.45796946974E+02  0.10566000000E+00 0.  1.
        994    1    1    2    0    0 -0.73573954926E+01 -0.18441903030E+01  0.15600652636E+01  0.17137504518E+03  0.17120000000E+03 0.  0.
        998    1    1    2    0    0 -0.36586859183E+01  0.16885849231E+01  0.14539880365E+04  0.14540280078E+04  0.10000000000E+02 0.  1.
</event>
<event>
 5    1  0.1072898E-008  0.3841960E+03  0.7957747E-01  0.3433089E+00
         13   -1    0    0    0    0  0.00000000000E+00  0.00000000000E+00  0.14999999963E+04  0.15000000000E+04  0.10566000000E+00 0. -1.
        994   -1    0    0    0    0 -0.00000000000E+00 -0.00000000000E+00  0.11368683772E-12  0.17120000000E+03  0.17120000000E+03 0.  0.
         13    1    1    2    0    0  0.35370429984E+01 -0.22479409540E+02  0.12741212187E+03  0.12942833728E+03  0.10566000000E+00 0. -1.
        994    1    1    2    0    0 -0.22877420428E+01  0.13599742977E+02  0.26571629337E+01  0.17177510672E+03  0.17120000000E+03 0.  0.
        998    1    1    2    0    0 -0.12493009556E+01  0.88796665621E+01  0.13699307115E+04  0.13699965560E+04  0.10000000000E+02 0. -1.
</event>
<event>
 5    1  0.1072898E-008  0.3713781E+03  0.7957747E-01  0.3489581E+00
         13   -1    0    0    0    0  0.00000000000E+00  0.00000000000E+00  0.14999999963E+04  0.15000000000E+04  0.10566000000E+00 0. -1.
        994   -1    0    0    0    0 -0.00000000000E+00 -0.00000000000E+00  0.11368683772E-12  0.17120000000E+03  0.17120000000E+03 0.  0.
         13    1    1    2    0    0  0.68229306591E+02  0.14206080302E+02  0.32180615606E+03  0.32926625128E+03  0.10566000000E+00 0. -1.
        994    1    1    2    0    0  0.30046830815E+02 -0.12068520566E+02  0.15361429508E+02  0.17491104810E+03  0.17120000000E+03 0.  0.
        998    1    1    2    0    0 -0.98276137406E+02 -0.21375597360E+01  0.11628324107E+04  0.11670227006E+04  0.10000000000E+02 0. -1.
</event>
<event>
 5    1  0.1072898E-008  0.3798799E+03  0.7957747E-01  0.3451681E+00
         13   -1    0    0    0    0  0.00000000000E+00  0.00000000000E+00  0.14999999963E+04  0.15000000000E+04  0.10566000000E+00 0.  1.
        994   -1    0    0    0    0 -0.00000000000E+00 -0.00000000000E+00  0.11368683772E-12  0.17120000000E+03  0.17120000000E+03 0.  0.
         13    1    1    2    0    0 -0.88861886357E+01 -0.56321198100E+02  0.29213638667E+03  0.29764865409E+03  0.10566000000E+00 0.  1.
        994    1    1    2    0    0  0.11813803006E+02  0.63362971258E+02  0.18214654828E+02  0.18383592064E+03  0.17120000000E+03 0.  0.
        998    1    1    2    0    0 -0.29276143704E+01 -0.70417731586E+01  0.11896489548E+04  0.11897154253E+04  0.10000000000E+02 0.  1.
</event>
<event>
 5    1  0.1072898E-008  0.3690797E+03  0.7957747E-01  0.3500131E+00
         13   -1    0    0    0    0  0.00000000000E+00  0.00000000000E+00  0.14999999963E+04  0.15000000000E+04  0.10566000000E+00 0.  1.
        994   -1    0    0    0    0 -0.00000000000E+00 -0.00000000000E+00  0.11368683772E-12  0.17120000000E+03  0.17120000000E+03 0.  0.
         13    1    1    2    0    0 -0.49615830674E+01 -0.55330945733E+02  0.12167208233E+03  0.13375439300E+03  0.10566000000E+00 0.  1.
        994    1    1    2    0    0  0.28698670437E+02  0.75012366255E+02  0.33282299212E+02  0.19200942742E+03  0.17120000000E+03 0.  0.
        998    1    1    2    0    0 -0.23737087370E+02 -0.19681420522E+02  0.13450456147E+04  0.13454361796E+04  0.10000000000E+02 0.  1.
</event>
<event>
 5    1  0.1072898E-008  0.3818939E+03  0.7957747E-01  0.3442953E+00
         13   -1    0    0    0    0  0.00000000000E+00  0.00000000000E+00  0.14999999963E+04  0.15000000000E+04  0.10566000000E+00 0.  1.
        994   -1    0    0    0    0 -0.00000000000E+00 -0.00000000000E+00  0.11368683772E-12  0.17120000000E+03  0.17120000000E+03 0.  0.
         13    1    1    2    0    0  0.41287011529E+01  0.99538861163E+01  0.16783971606E+02  0.19945899050E+02  0.10566000000E+00 0.  1.
        994    1    1    2    0    0 -0.56629813862E+01 -0.10136396546E+02  0.36281621139E+01  0.17163163885E+03  0.17120000000E+03 0.  0.
        998    1    1    2    0    0  0.15342802333E+01  0.18251042984E+00  0.14795878626E+04  0.14796224621E+04  0.10000000000E+02 0.  1.
</event>
<event>
 5    1  0.1072898E-008  0.3843040E+03  0.7957747E-01  0.3432629E+00
         13   -1    0    0    0    0  0.00000000000E+00  0.00000000000E+00  0.14999999963E+04  0.15000000000E+04  0.10566000000E+00 0.  1.
        994   -1    0    0    0    0 -0.00000000000E+00 -0.00000000000E+00  0.11368683772E-12  0.17120000000E+03  0.17120000000E+03 0.  0.
         13    1    1    2    0    0  0.10420749047E+02  0.14455949102E+02  0.77470196395E+02  0.79493452364E+02  0.10566000000E+00 0.  1.
        994    1    1    2    0    0 -0.80819447038E+01 -0.14769394264E+02  0.29109094832E+01  0.17205047582E+03  0.17120000000E+03 0.  0.
        998    1    1    2    0    0 -0.23388043433E+01  0.31344516145E+00  0.14196188904E+04  0.14196560718E+04  0.10000000000E+02 0.  1.
</event>
<event>
 5    1  0.1072898E-008  0.3770276E+03  0.7957747E-01  0.3464204E+00
         13   -1    0    0    0    0  0.00000000000E+00  0.00000000000E+00  0.14999999963E+04  0.15000000000E+04  0.10566000000E+00 0. -1.
        994   -1    0    0    0    0 -0.00000000000E+00 -0.00000000000E+00  0.11368683772E-12  0.17120000000E+03  0.17120000000E+03 0.  0.
         13    1    1    2    0    0 -0.61905531717E+02  0.22190746067E+02  0.31716578642E+03  0.32391182644E+03  0.10566000000E+00 0. -1.
        994    1    1    2    0    0  0.65620050133E+02  0.23459789055E+01  0.20338552717E+02  0.18448466419E+03  0.17120000000E+03 0.  0.
        998    1    1    2    0    0 -0.37145184158E+01 -0.24536724973E+02  0.11624956571E+04  0.11628035094E+04  0.10000000000E+02 0.  1.
</event>
<event>
 5    1  0.1072898E-008  0.3849484E+03  0.7957747E-01  0.3429891E+00
         13   -1    0    0    0    0  0.00000000000E+00  0.00000000000E+00  0.14999999963E+04  0.15000000000E+04  0.10566000000E+00 0. -1.
        994   -1    0    0    0    0 -0.00000000000E+00 -0.00000000000E+00  0.11368683772E-12  0.17120000000E+03  0.17120000000E+03 0.  0.
         13    1    1    2    0    0 -0.13233820091E+01 -0.10401001549E+02  0.39491763783E+02  0.40860038471E+02  0.10566000000E+00 0. -1.
        994    1    1    2    0    0 -0.11035675613E+02 -0.26952987843E+02  0.44508176253E+01  0.17371672190E+03  0.17120000000E+03 0.  0.
        998    1    1    2    0    0  0.12359057622E+02  0.37353989392E+02  0.14560574149E+04  0.14566232396E+04  0.10000000000E+02 0. -1.
</event>
<event>
 5    1  0.1072898E-008  0.3857844E+03  0.7957747E-01  0.3426352E+00
         13   -1    0    0    0    0  0.00000000000E+00  0.00000000000E+00  0.14999999963E+04  0.15000000000E+04  0.10566000000E+00 0.  1.
        994   -1    0    0    0    0 -0.00000000000E+00 -0.00000000000E+00  0.11368683772E-12  0.17120000000E+03  0.17120000000E+03 0.  0.
         13    1    1    2    0    0 -0.12138888975E+02  0.54142573980E+01  0.72493314125E+02  0.73701821997E+02  0.10566000000E+00 0.  1.
        994    1    1    2    0    0  0.70754422909E+01 -0.24725144034E+01  0.14255013047E+01  0.17136991354E+03  0.17120000000E+03 0.  0.
        998    1    1    2    0    0  0.50634466842E+01 -0.29417429946E+01  0.14260811808E+04  0.14261282645E+04  0.10000000000E+02 0.  1.
</event>
<event>
 5    1  0.1072898E-008  0.3800558E+03  0.7957747E-01  0.3450916E+00
         13   -1    0    0    0    0  0.00000000000E+00  0.00000000000E+00  0.14999999963E+04  0.15000000000E+04  0.10566000000E+00 0.  1.
        994   -1    0    0    0    0 -0.00000000000E+00 -0.00000000000E+00  0.11368683772E-12  0.17120000000E+03  0.17120000000E+03 0.  0.
         13    1    1    2    0    0  0.61474787640E+01 -0.28327027745E+02  0.92562602785E+02  0.96995147272E+02  0.10566000000E+00 0.  1.
        994    1    1    2    0    0 -0.85565317548E+00  0.35911543445E+02  0.84298650306E+01  0.17513101872E+03  0.17120000000E+03 0.  0.
        998    1    1    2    0    0 -0.52918255885E+01 -0.75845157007E+01  0.13990075285E+04  0.13990738340E+04  0.10000000000E+02 0.  1.
</event>
<event>
 5    1  0.1072898E-008  0.3794044E+03  0.7957747E-01  0.3453756E+00
         13   -1    0    0    0    0  0.00000000000E+00  0.00000000000E+00  0.14999999963E+04  0.15000000000E+04  0.10566000000E+00 0. -1.
        994   -1    0    0    0    0 -0.00000000000E+00 -0.00000000000E+00  0.11368683772E-12  0.17120000000E+03  0.17120000000E+03 0.  0.
         13    1    1    2    0    0  0.36763486653E+02  0.20105020598E+02  0.13675646863E+03  0.14303184499E+03  0.10566000000E+00 0. -1.
        994    1    1    2    0    0 -0.63873886644E+02 -0.70471713533E+02  0.35355978625E+02  0.19901161028E+03  0.17120000000E+03 0.  0.
        998    1    1    2    0    0  0.27110399991E+02  0.50366692935E+02  0.13278875490E+04  0.13291565447E+04  0.10000000000E+02 0. -1.
</event>
<event>
 5    1  0.1072898E-008  0.3812911E+03  0.7957747E-01  0.3445556E+00
         13   -1    0    0    0    0  0.00000000000E+00  0.00000000000E+00  0.14999999963E+04  0.15000000000E+04  0.10566000000E+00 0.  1.
        994   -1    0    0    0    0 -0.00000000000E+00 -0.00000000000E+00  0.11368683772E-12  0.17120000000E+03  0.17120000000E+03 0.  0.
         13    1    1    2    0    0  0.70453184752E+01  0.15069548447E+02  0.39499446644E+02  0.42859599299E+02  0.10566000000E+00 0.  1.
        994    1    1    2    0    0 -0.27151374981E+01 -0.27951210809E+01  0.35333939823E+01  0.17128079153E+03  0.17120000000E+03 0.  0.
        998    1    1    2    0    0 -0.43301809772E+01 -0.12274427366E+02  0.14569671557E+04  0.14570596092E+04  0.10000000000E+02 0.  1.
</event>
<event>
 5    1  0.1072898E-008  0.3693001E+03  0.7957747E-01  0.3499114E+00
         13   -1    0    0    0    0  0.00000000000E+00  0.00000000000E+00  0.14999999963E+04  0.15000000000E+04  0.10566000000E+00 0.  1.
        994   -1    0    0    0    0 -0.00000000000E+00 -0.00000000000E+00  0.11368683772E-12  0.17120000000E+03  0.17120000000E+03 0.  0.
         13    1    1    2    0    0  0.34922154763E+02 -0.36866796328E+01  0.59234799378E+02  0.68861608472E+02  0.10566000000E+00 0. -1.
        994    1    1    2    0    0 -0.29623632017E+02 -0.10080115144E+00  0.12683068840E+02  0.17420640049E+03  0.17120000000E+03 0.  0.
        998    1    1    2    0    0 -0.52985227453E+01  0.37874807842E+01  0.14280821281E+04  0.14281319910E+04  0.10000000000E+02 0.  1.
</event>
<event>
 5    1  0.1072898E-008  0.3752497E+03  0.7957747E-01  0.3472107E+00
         13   -1    0    0    0    0  0.00000000000E+00  0.00000000000E+00  0.14999999963E+04  0.15000000000E+04  0.10566000000E+00 0.  1.
        994   -1    0    0    0    0 -0.00000000000E+00 -0.00000000000E+00  0.11368683772E-12  0.17120000000E+03  0.17120000000E+03 0.  0.
         13    1    1    2    0    0 -0.38667664224E+02  0.12502265920E+02  0.11329429504E+03  0.12036238350E+03  0.10566000000E+00 0.  1.
        994    1    1    2    0    0  0.40028161161E+02 -0.20065472994E+02  0.13390410905E+02  0.17746441896E+03  0.17120000000E+03 0.  0.
        998    1    1    2    0    0 -0.13604969371E+01  0.75632070733E+01  0.13733152903E+04  0.13733731975E+04  0.10000000000E+02 0.  1.
</event>
<event>
 5    1  0.1072898E-008  0.3829502E+03  0.7957747E-01  0.3438413E+00
         13   -1    0    0    0    0  0.00000000000E+00  0.00000000000E+00  0.14999999963E+04  0.15000000000E+04  0.10566000000E+00 0.  1.
        994   -1    0    0    0    0 -0.00000000000E+00 -0.00000000000E+00  0.11368683772E-12  0.17120000000E+03  0.17120000000E+03 0.  0.
         13    1    1    2    0    0  0.25616230063E+01  0.27999315431E+02  0.14645453745E+03  0.14912902561E+03  0.10566000000E+00 0.  1.
        994    1    1    2    0    0 -0.21033939384E+02 -0.17189948081E+02  0.50980978302E+01  0.17341669909E+03  0.17120000000E+03 0.  0.
        998    1    1    2    0    0  0.18472316378E+02 -0.10809367350E+02  0.13484473610E+04  0.13486542753E+04  0.10000000000E+02 0.  1.
</event>
<event>
 5    1  0.1072898E-008  0.3857780E+03  0.7957747E-01  0.3426379E+00
         13   -1    0    0    0    0  0.00000000000E+00  0.00000000000E+00  0.14999999963E+04  0.15000000000E+04  0.10566000000E+00 0.  1.
        994   -1    0    0    0    0 -0.00000000000E+00 -0.00000000000E+00  0.11368683772E-12  0.17120000000E+03  0.17120000000E+03 0.  0.
         13    1    1    2    0    0 -0.11223387542E+02  0.42320956521E+00  0.49009282339E+02  0.50279861313E+02  0.10566000000E+00 0.  1.
        994    1    1    2    0    0  0.14657738045E+02  0.79435634746E+01  0.21566859621E+01  0.17202337277E+03  0.17120000000E+03 0.  0.
        998    1    1    2    0    0 -0.34343505026E+01 -0.83667730399E+01  0.14488340280E+04  0.14488967659E+04  0.10000000000E+02 0.  1.
</event>
<event>
 5    1  0.1072898E-008  0.3813291E+03  0.7957747E-01  0.3445392E+00
         13   -1    0    0    0    0  0.00000000000E+00  0.00000000000E+00  0.14999999963E+04  0.15000000000E+04  0.10566000000E+00 0.  1.
        994   -1    0    0    0    0 -0.00000000000E+00 -0.00000000000E+00  0.11368683772E-12  0.17120000000E+03  0.17120000000E+03 0.  0.
         13    1    1    2    0    0  0.11152505806E+02  0.14477527479E+02  0.47731459751E+02  0.51110474481E+02  0.10566000000E+00 0.  1.
        994    1    1    2    0    0 -0.92663877131E+01 -0.29158833746E+01  0.37778956688E+01  0.17151699861E+03  0.17120000000E+03 0.  0.
        998    1    1    2    0    0 -0.18861180925E+01 -0.11561644104E+02  0.14484906409E+04  0.14485725269E+04  0.10000000000E+02 0.  1.
</event>
<event>
 5    1  0.1072898E-008  0.3709844E+03  0.7957747E-01  0.3491379E+00
         13   -1    0    0    0    0  0.00000000000E+00  0.00000000000E+00  0.14999999963E+04  0.15000000000E+04  0.10566000000E+00 0.  1.
        994   -1    0    0    0    0 -0.00000000000E+00 -0.00000000000E+00  0.11368683772E-12  0.17120000000E+03  0.17120000000E+03 0.  0.
         13    1    1    2    0    0  0.16934868236E+03 -0.98699510727E+02  0.79941295223E+03  0.82309273414E+03  0.10566000000E+00 0.  1.
        994    1    1    2    0    0 -0.16102890828E+03  0.11765003254E+03  0.16140635384E+03  0.30843685013E+03  0.17120000000E+03 0.  0.
        998    1    1    2    0    0 -0.83197740741E+01 -0.18950521818E+02  0.53918069021E+03  0.53967041573E+03  0.10000000000E+02 0.  1.
</event>
<event>
 5    1  0.1072898E-008  0.3803116E+03  0.7957747E-01  0.3449803E+00
         13   -1    0    0    0    0  0.00000000000E+00  0.00000000000E+00  0.14999999963E+04  0.15000000000E+04  0.10566000000E+00 0.  1.
        994   -1    0    0    0    0 -0.00000000000E+00 -0.00000000000E+00  0.11368683772E-12  0.17120000000E+03  0.17120000000E+03 0.  0.
         13    1    1    2    0    0 -0.40323981814E+02 -0.36053731356E+02  0.93311961739E+02  0.10785651775E+03  0.10566000000E+00 0.  1.
        994    1    1    2    0    0 -0.14968975412E+02  0.13770532457E+02  0.18000680448E+02  0.17334117308E+03  0.17120000000E+03 0.  0.
        998    1    1    2    0    0  0.55292957226E+02  0.22283198898E+02  0.13886873541E+04  0.13900023092E+04  0.10000000000E+02 0.  1.
</event>
<event>
 5    1  0.1072898E-008  0.3852329E+03  0.7957747E-01  0.3428685E+00
         13   -1    0    0    0    0  0.00000000000E+00  0.00000000000E+00  0.14999999963E+04  0.15000000000E+04  0.10566000000E+00 0.  1.
        994   -1    0    0    0    0 -0.00000000000E+00 -0.00000000000E+00  0.11368683772E-12  0.17120000000E+03  0.17120000000E+03 0.  0.
         13    1    1    2    0    0  0.64991727807E+01  0.11111670906E+02  0.51793594905E+02  0.53369430524E+02  0.10566000000E+00 0.  1.
        994    1    1    2    0    0 -0.41368417509E+01 -0.18814542663E+02  0.27349964815E+01  0.17230212036E+03  0.17120000000E+03 0.  0.
        998    1    1    2    0    0 -0.23623310298E+01  0.77028717569E+01  0.14454714049E+04  0.14455284491E+04  0.10000000000E+02 0.  1.
</event>
<event>
 5    1  0.1072898E-008  0.3755872E+03  0.7957747E-01  0.3470601E+00
         13   -1    0    0    0    0  0.00000000000E+00  0.00000000000E+00  0.14999999963E+04  0.15000000000E+04  0.10566000000E+00 0. -1.
        994   -1    0    0    0    0 -0.00000000000E+00 -0.00000000000E+00  0.11368683772E-12  0.17120000000E+03  0.17120000000E+03 0.  0.
         13    1    1    2    0    0  0.47665216991E+01 -0.55984995138E+02  0.31832578546E+03  0.32324658739E+03  0.10566000000E+00 0. -1.
        994    1    1    2    0    0 -0.37153951817E+01  0.69249981815E+00  0.64259707234E+01  0.17136223860E+03  0.17120000000E+03 0.  0.
        998    1    1    2    0    0 -0.10511265174E+01  0.55292495320E+02  0.11752482401E+04  0.11765911740E+04  0.10000000000E+02 0. -1.
</event>
<event>
 5    1  0.1072898E-008  0.3789574E+03  0.7957747E-01  0.3455711E+00
         13   -1    0    0    0    0  0.00000000000E+00  0.00000000000E+00  0.14999999963E+04  0.15000000000E+04  0.10566000000E+00 0.  1.
        994   -1    0    0    0    0 -0.00000000000E+00 -0.00000000000E+00  0.11368683772E-12  0.17120000000E+03  0.17120000000E+03 0.  0.
         13    1    1    2    0    0 -0.63158614142E+02 -0.67405514078E+02  0.32653157231E+03  0.33934553592E+03  0.10566000000E+00 0.  1.
        994    1    1    2    0    0  0.84492527165E+01  0.18462286000E+02  0.17245168471E+02  0.17326015616E+03  0.17120000000E+03 0.  0.
        998    1    1    2    0    0  0.54709361425E+02  0.48943228078E+02  0.11562232555E+04  0.11585943079E+04  0.10000000000E+02 0.  1.
</event>
<event>
 5    1  0.1072898E-008  0.2829746E+03  0.7957747E-01  0.4025599E+00
         13   -1    0    0    0    0  0.00000000000E+00  0.00000000000E+00  0.14999999963E+04  0.15000000000E+04  0.10566000000E+00 0.  1.
        994   -1    0    0    0    0 -0.00000000000E+00 -0.00000000000E+00  0.11368683772E-12  0.17120000000E+03  0.17120000000E+03 0.  0.
         13    1    1    2    0    0  0.14635346849E+03  0.62199691263E+02  0.67511275503E+03  0.69358877045E+03  0.10566000000E+00 0.  1.
        994    1    1    2    0    0 -0.62009991558E+02 -0.35792750054E+02  0.42745544784E+02  0.19042841597E+03  0.17120000000E+03 0.  0.
        998    1    1    2    0    0 -0.84343476927E+02 -0.26406941209E+02  0.78214169646E+03  0.78718281358E+03  0.10000000000E+02 0.  1.
</event>
<event>
 5    1  0.1072898E-008  0.3789109E+03  0.7957747E-01  0.3455915E+00
         13   -1    0    0    0    0  0.00000000000E+00  0.00000000000E+00  0.14999999963E+04  0.15000000000E+04  0.10566000000E+00 0.  1.
        994   -1    0    0    0    0 -0.00000000000E+00 -0.00000000000E+00  0.11368683772E-12  0.17120000000E+03  0.17120000000E+03 0.  0.
         13    1    1    2    0    0 -0.30264932410E+01 -0.12091048239E+02  0.14874230330E+02  0.19406364956E+02  0.10566000000E+00 0.  1.
        994    1    1    2    0    0  0.93062976575E+01 -0.25802037079E+01  0.49969015017E+01  0.17154496102E+03  0.17120000000E+03 0.  0.
        998    1    1    2    0    0 -0.62798044164E+01  0.14671251947E+02  0.14801288644E+04  0.14802486740E+04  0.10000000000E+02 0.  1.
</event>
<event>
 5    1  0.1072898E-008  0.3857092E+03  0.7957747E-01  0.3426670E+00
         13   -1    0    0    0    0  0.00000000000E+00  0.00000000000E+00  0.14999999963E+04  0.15000000000E+04  0.10566000000E+00 0.  1.
        994   -1    0    0    0    0 -0.00000000000E+00 -0.00000000000E+00  0.11368683772E-12  0.17120000000E+03  0.17120000000E+03 0.  0.
         13    1    1    2    0    0 -0.70290555249E+01  0.10996093044E+02  0.67702664064E+02  0.68949137553E+02  0.10566000000E+00 0.  1.
        994    1    1    2    0    0  0.13260874682E+02 -0.58188733034E+00  0.18567450288E+01  0.17172383903E+03  0.17120000000E+03 0.  0.
        998    1    1    2    0    0 -0.62318191574E+01 -0.10414205713E+02  0.14304405872E+04  0.14305270234E+04  0.10000000000E+02 0.  1.
</event>
<event>
 5    1  0.1072898E-008  0.3801371E+03  0.7957747E-01  0.3450562E+00
         13   -1    0    0    0    0  0.00000000000E+00  0.00000000000E+00  0.14999999963E+04  0.15000000000E+04  0.10566000000E+00 0. -1.
        994   -1    0    0    0    0 -0.00000000000E+00 -0.00000000000E+00  0.11368683772E-12  0.17120000000E+03  0.17120000000E+03 0.  0.
         13    1    1    2    0    0 -0.14674383561E+02  0.98617764974E+01  0.36850558649E+02  0.40872570330E+02  0.10566000000E+00 0. -1.
        994    1    1    2    0    0  0.80610626098E+01 -0.98592576558E+01  0.46060813788E+01  0.17173480043E+03  0.17120000000E+03 0.  0.
        998    1    1    2    0    0  0.66133209511E+01 -0.25188415469E-02  0.14585433563E+04  0.14585926292E+04  0.10000000000E+02 0. -1.
</event>
<event>
 5    1  0.1072898E-008  0.3762826E+03  0.7957747E-01  0.3467506E+00
         13   -1    0    0    0    0  0.00000000000E+00  0.00000000000E+00  0.14999999963E+04  0.15000000000E+04  0.10566000000E+00 0.  1.
        994   -1    0    0    0    0 -0.00000000000E+00 -0.00000000000E+00  0.11368683772E-12  0.17120000000E+03  0.17120000000E+03 0.  0.
         13    1    1    2    0    0  0.16569550129E+02 -0.14959381396E+02  0.38008719012E+02  0.44079552723E+02  0.10566000000E+00 0.  1.
        994    1    1    2    0    0 -0.15816951933E+02  0.17382270855E+02  0.78931538143E+01  0.17298572538E+03  0.17120000000E+03 0.  0.
        998    1    1    2    0    0 -0.75259819610E+00 -0.24228894586E+01  0.14540981235E+04  0.14541347219E+04  0.10000000000E+02 0.  1.
</event>
<event>
 5    1  0.1072898E-008  0.3840267E+03  0.7957747E-01  0.3433811E+00
         13   -1    0    0    0    0  0.00000000000E+00  0.00000000000E+00  0.14999999963E+04  0.15000000000E+04  0.10566000000E+00 0. -1.
        994   -1    0    0    0    0 -0.00000000000E+00 -0.00000000000E+00  0.11368683772E-12  0.17120000000E+03  0.17120000000E+03 0.  0.
         13    1    1    2    0    0 -0.25004617440E+01  0.25270988509E+02  0.14551579151E+03  0.14771503617E+03  0.10566000000E+00 0. -1.
        994    1    1    2    0    0  0.17626121691E+01 -0.20533886443E+02  0.35166511272E+01  0.17247189374E+03  0.17120000000E+03 0.  0.
        998    1    1    2    0    0  0.73784957496E+00 -0.47371020656E+01  0.13509675536E+04  0.13510130701E+04  0.10000000000E+02 0. -1.
</event>
<event>
 5    1  0.1072898E-008  0.3705670E+03  0.7957747E-01  0.3493289E+00
         13   -1    0    0    0    0  0.00000000000E+00  0.00000000000E+00  0.14999999963E+04  0.15000000000E+04  0.10566000000E+00 0.  1.
        994   -1    0    0    0    0 -0.00000000000E+00 -0.00000000000E+00  0.11368683772E-12  0.17120000000E+03  0.17120000000E+03 0.  0.
         13    1    1    2    0    0 -0.10818426043E+03  0.39330833857E+01  0.34562851582E+03  0.36218556772E+03  0.10566000000E+00 0.  1.
        994    1    1    2    0    0  0.15368443104E+03  0.32389734332E+01  0.95536110267E+02  0.24913045510E+03  0.17120000000E+03 0.  0.
        998    1    1    2    0    0 -0.45500170606E+02 -0.71720568189E+01  0.10588353702E+04  0.10598839772E+04  0.10000000000E+02 0.  1.
</event>
<event>
 5    1  0.1072898E-008  0.3689871E+03  0.7957747E-01  0.3500559E+00
         13   -1    0    0    0    0  0.00000000000E+00  0.00000000000E+00  0.14999999963E+04  0.15000000000E+04  0.10566000000E+00 0.  1.
        994   -1    0    0    0    0 -0.00000000000E+00 -0.00000000000E+00  0.11368683772E-12  0.17120000000E+03  0.17120000000E+03 0.  0.
         13    1    1    2    0    0 -0.35160984666E+00 -0.30239586614E+02  0.53153281214E+02  0.61154220590E+02  0.10566000000E+00 0.  1.
        994    1    1    2    0    0  0.32626092281E+01 -0.83926918558E+02  0.35399886247E+02  0.19395093252E+03  0.17120000000E+03 0.  0.
        998    1    1    2    0    0 -0.29109993814E+01  0.11416650517E+03  0.14114468288E+04  0.14160948469E+04  0.10000000000E+02 0.  1.
</event>
<event>
 5    1  0.1072898E-008  0.3820899E+03  0.7957747E-01  0.3442109E+00
         13   -1    0    0    0    0  0.00000000000E+00  0.00000000000E+00  0.14999999963E+04  0.15000000000E+04  0.10566000000E+00 0. -1.
        994   -1    0    0    0    0 -0.00000000000E+00 -0.00000000000E+00  0.11368683772E-12  0.17120000000E+03  0.17120000000E+03 0.  0.
         13    1    1    2    0    0 -0.89485431327E+02  0.42874136789E+02  0.46448745211E+03  0.47496782876E+03  0.10566000000E+00 0. -1.
        994    1    1    2    0    0  0.13377280079E+03 -0.11087442457E+03  0.11079245273E+03  0.26790428857E+03  0.17120000000E+03 0.  0.
        998    1    1    2    0    0 -0.44287369458E+02  0.68000287779E+02  0.92472009144E+03  0.92832788267E+03  0.10000000000E+02 0. -1.
</event>
<event>
 5    1  0.2284574E-008  0.3858593E+03  0.7957747E-01  0.3426036E+00
         13   -1    0    0    0    0  0.00000000000E+00  0.00000000000E+00  0.14999999963E+04  0.15000000000E+04  0.10566000000E+00 0. -1.
        994   -1    0    0    0    0 -0.00000000000E+00 -0.00000000000E+00  0.11368683772E-12  0.17120000000E+03  0.17120000000E+03 0.  0.
         13    1    1    2    0    0 -0.37009753000E+01  0.93867324423E+01  0.42115853729E+02  0.43307785253E+02  0.10566000000E+00 0. -1.
        994    1    1    2    0    0  0.50918795222E+01 -0.76022932764E+01  0.14787339588E+01  0.17145071815E+03  0.17120000000E+03 0.  0.
        998    1    1    2    0    0 -0.13909042222E+01 -0.17844391659E+01  0.14564054086E+04  0.14564414966E+04  0.10000000000E+02 0. -1.
</event>
<event>
 5    1  0.1072898E-008  0.3838664E+03  0.7957747E-01  0.3434494E+00
         13   -1    0    0    0    0  0.00000000000E+00  0.00000000000E+00  0.14999999963E+04  0.15000000000E+04  0.10566000000E+00 0. -1.
        994   -1    0    0    0    0 -0.00000000000E+00 -0.00000000000E+00  0.11368683772E-12  0.17120000000E+03  0.17120000000E+03 0.  0.
         13    1    1    2    0    0  0.72272128547E+01 -0.75105477804E+01  0.22966580043E+02  0.25221338119E+02  0.10566000000E+00 0. -1.
        994    1    1    2    0    0 -0.17456488948E+02  0.11844720486E+02  0.36643192935E+01  0.17253374640E+03  0.17120000000E+03 0.  0.
        998    1    1    2    0    0  0.10229276093E+02 -0.43341727056E+01  0.14733690969E+04  0.14734449155E+04  0.10000000000E+02 0. -1.
</event>
<event>
 5    1  0.1072898E-008  0.3843636E+03  0.7957747E-01  0.3432376E+00
         13   -1    0    0    0    0  0.00000000000E+00  0.00000000000E+00  0.14999999963E+04  0.15000000000E+04  0.10566000000E+00 0. -1.
        994   -1    0    0    0    0 -0.00000000000E+00 -0.00000000000E+00  0.11368683772E-12  0.17120000000E+03  0.17120000000E+03 0.  0.
         13    1    1    2    0    0  0.91828207479E+01  0.41826438016E+01  0.27484446187E+02  0.29278399073E+02  0.10566000000E+00 0. -1.
        994    1    1    2    0    0  0.12775489532E+02 -0.26149785565E+01  0.25070153900E+01  0.17171422880E+03  0.17120000000E+03 0.  0.
        998    1    1    2    0    0 -0.21958310280E+02 -0.15676652451E+01  0.14700085347E+04  0.14702073721E+04  0.10000000000E+02 0. -1.
</event>
<event>
 5    1  0.1072898E-008  0.3825179E+03  0.7957747E-01  0.3440268E+00
         13   -1    0    0    0    0  0.00000000000E+00  0.00000000000E+00  0.14999999963E+04  0.15000000000E+04  0.10566000000E+00 0.  1.
        994   -1    0    0    0    0 -0.00000000000E+00 -0.00000000000E+00  0.11368683772E-12  0.17120000000E+03  0.17120000000E+03 0.  0.
         13    1    1    2    0    0  0.18752536749E+02 -0.64361893240E+01  0.68976293876E+02  0.71769230513E+02  0.10566000000E+00 0.  1.
        994    1    1    2    0    0 -0.10245485108E+02 -0.24992763441E+01  0.32362876471E+01  0.17155503462E+03  0.17120000000E+03 0.  0.
        998    1    1    2    0    0 -0.85070516412E+01  0.89354656681E+01  0.14277874148E+04  0.14278757349E+04  0.10000000000E+02 0.  1.
</event>
<event>
 5    1  0.1072898E-008  0.3838779E+03  0.7957747E-01  0.3434445E+00
         13   -1    0    0    0    0  0.00000000000E+00  0.00000000000E+00  0.14999999963E+04  0.15000000000E+04  0.10566000000E+00 0.  1.
        994   -1    0    0    0    0 -0.00000000000E+00 -0.00000000000E+00  0.11368683772E-12  0.17120000000E+03  0.17120000000E+03 0.  0.
         13    1    1    2    0    0 -0.30049671225E+01  0.12716142506E+02  0.37813906536E+02  0.40007909208E+02  0.10566000000E+00 0.  1.
        994    1    1    2    0    0  0.93329998558E+00 -0.12771118207E+02  0.27296520810E+01  0.17169992286E+03  0.17120000000E+03 0.  0.
        998    1    1    2    0    0  0.20716671369E+01  0.54975701155E-01  0.14594564377E+04  0.14594921679E+04  0.10000000000E+02 0.  1.
</event>
<event>
 5    1  0.1072898E-008  0.3841424E+03  0.7957747E-01  0.3433317E+00
         13   -1    0    0    0    0  0.00000000000E+00  0.00000000000E+00  0.14999999963E+04  0.15000000000E+04  0.10566000000E+00 0. -1.
        994   -1    0    0    0    0 -0.00000000000E+00 -0.00000000000E+00  0.11368683772E-12  0.17120000000E+03  0.17120000000E+03 0.  0.
         13    1    1    2    0    0 -0.71038887767E+01 -0.86322511763E+01  0.29991880395E+02  0.32007890431E+02  0.10566000000E+00 0. -1.
        994    1    1    2    0    0  0.64500503647E+00  0.77433581232E+01  0.22556351467E+01  0.17139108354E+03  0.17120000000E+03 0.  0.
        998    1    1    2    0    0  0.64588837403E+01  0.88889305310E+00  0.14677524807E+04  0.14678010260E+04  0.10000000000E+02 0. -1.
</event>
<event>
 5    1  0.1072898E-008  0.3792411E+03  0.7957747E-01  0.3454469E+00
         13   -1    0    0    0    0  0.00000000000E+00  0.00000000000E+00  0.14999999963E+04  0.15000000000E+04  0.10566000000E+00 0.  1.
        994   -1    0    0    0    0 -0.00000000000E+00 -0.00000000000E+00  0.11368683772E-12  0.17120000000E+03  0.17120000000E+03 0.  0.
         13    1    1    2    0    0 -0.98084397279E+01 -0.30620058413E+01  0.95566696428E+01  0.14032906626E+02  0.10566000000E+00 0.  1.
        994    1    1    2    0    0  0.22974974299E+02 -0.37122259993E+02  0.10930659383E+02  0.17701647083E+03  0.17120000000E+03 0.  0.
        998    1    1    2    0    0 -0.13166534571E+02  0.40184265834E+02  0.14795126673E+04  0.14801506225E+04  0.10000000000E+02 0.  1.
</event>
<event>
 5    1  0.1271216E-008  0.3863832E+03  0.7957747E-01  0.3423827E+00
         13   -1    0    0    0    0  0.00000000000E+00  0.00000000000E+00  0.14999999963E+04  0.15000000000E+04  0.10566000000E+00 0. -1.
        994   -1    0    0    0    0 -0.00000000000E+00 -0.00000000000E+00  0.11368683772E-12  0.17120000000E+03  0.17120000000E+03 0.  0.
         13    1    1    2    0    0 -0.19321965324E+01  0.10227630802E+02  0.58584798343E+02  0.59502332528E+02  0.10566000000E+00 0. -1.
        994    1    1    2    0    0  0.88621645566E+01 -0.51899630865E+01  0.12903528217E+01  0.17151261962E+03  0.17120000000E+03 0.  0.
        998    1    1    2    0    0 -0.69299680242E+01 -0.50376677154E+01  0.14401248451E+04  0.14401850479E+04  0.10000000000E+02 0. -1.
</event>
<event>
 5    1  0.1072898E-008  0.3859577E+03  0.7957747E-01  0.3425620E+00
         13   -1    0    0    0    0  0.00000000000E+00  0.00000000000E+00  0.14999999963E+04  0.15000000000E+04  0.10566000000E+00 0. -1.
        994   -1    0    0    0    0 -0.00000000000E+00 -0.00000000000E+00  0.11368683772E-12  0.17120000000E+03  0.17120000000E+03 0.  0.
         13    1    1    2    0    0 -0.13142021673E+02 -0.12816456937E+01  0.72318141585E+02  0.73513809014E+02  0.10566000000E+00 0. -1.
        994    1    1    2    0    0  0.15587606220E+02  0.31410841468E+00  0.19526897392E+01  0.17191953097E+03  0.17120000000E+03 0.  0.
        998    1    1    2    0    0 -0.24455845466E+01  0.96753727899E+00  0.14257291650E+04  0.14257666600E+04  0.10000000000E+02 0. -1.
</event>
<event>
 5    1  0.1072898E-008  0.3734349E+03  0.7957747E-01  0.3480252E+00
         13   -1    0    0    0    0  0.00000000000E+00  0.00000000000E+00  0.14999999963E+04  0.15000000000E+04  0.10566000000E+00 0. -1.
        994   -1    0    0    0    0 -0.00000000000E+00 -0.00000000000E+00  0.11368683772E-12  0.17120000000E+03  0.17120000000E+03 0.  0.
         13    1    1    2    0    0  0.67335526701E+01 -0.40689626424E+02  0.63920784669E+02  0.76071442124E+02  0.10566000000E+00 0. -1.
        994    1    1    2    0    0 -0.37958327252E+01  0.16469456464E+02  0.13778148612E+02  0.17258310671E+03  0.17120000000E+03 0.  0.
        998    1    1    2    0    0 -0.29377199449E+01  0.24220169960E+02  0.14223010630E+04  0.14225454512E+04  0.10000000000E+02 0. -1.
</event>
<event>
 5    1  0.1072898E-008  0.3845205E+03  0.7957747E-01  0.3431708E+00
         13   -1    0    0    0    0  0.00000000000E+00  0.00000000000E+00  0.14999999963E+04  0.15000000000E+04  0.10566000000E+00 0. -1.
        994   -1    0    0    0    0 -0.00000000000E+00 -0.00000000000E+00  0.11368683772E-12  0.17120000000E+03  0.17120000000E+03 0.  0.
         13    1    1    2    0    0 -0.14030252765E+02  0.66076508894E+01  0.65063912859E+02  0.66886717392E+02  0.10566000000E+00 0. -1.
        994    1    1    2    0    0  0.85179609882E+01 -0.18777890206E+00  0.21075116949E+01  0.17142483054E+03  0.17120000000E+03 0.  0.
        998    1    1    2    0    0  0.55122917771E+01 -0.64198719874E+01  0.14328285717E+04  0.14328884521E+04  0.10000000000E+02 0. -1.
</event>
<event>
 5    1  0.1072898E-008  0.3751474E+03  0.7957747E-01  0.3472564E+00
         13   -1    0    0    0    0  0.00000000000E+00  0.00000000000E+00  0.14999999963E+04  0.15000000000E+04  0.10566000000E+00 0. -1.
        994   -1    0    0    0    0 -0.00000000000E+00 -0.00000000000E+00  0.11368683772E-12  0.17120000000E+03  0.17120000000E+03 0.  0.
         13    1    1    2    0    0  0.40229474030E+02 -0.62428799190E+01  0.11601220973E+03  0.12294807075E+03  0.10566000000E+00 0. -1.
        994    1    1    2    0    0 -0.37979554550E+02  0.19654400402E+01  0.11532765246E+02  0.17575196782E+03  0.17120000000E+03 0.  0.
        998    1    1    2    0    0 -0.22499194803E+01  0.42774398788E+01  0.13724550213E+04  0.13724999614E+04  0.10000000000E+02 0. -1.
</event>
<event>
 5    1  0.1072898E-008  0.3724299E+03  0.7957747E-01  0.3484797E+00
         13   -1    0    0    0    0  0.00000000000E+00  0.00000000000E+00  0.14999999963E+04  0.15000000000E+04  0.10566000000E+00 0.  1.
        994   -1    0    0    0    0 -0.00000000000E+00 -0.00000000000E+00  0.11368683772E-12  0.17120000000E+03  0.17120000000E+03 0.  0.
         13    1    1    2    0    0 -0.29340405622E+02 -0.22480322751E+02  0.93198085404E+02  0.10026025434E+03  0.10566000000E+00 0.  1.
        994    1    1    2    0    0 -0.12386738006E+02  0.18454509239E+01  0.85424277184E+01  0.17186986367E+03  0.17120000000E+03 0.  0.
        998    1    1    2    0    0  0.41727143629E+02  0.20634871827E+02  0.13982594832E+04  0.13990698820E+04  0.10000000000E+02 0.  1.
</event>
<event>
 5    1  0.1072898E-008  0.3811242E+03  0.7957747E-01  0.3446278E+00
         13   -1    0    0    0    0  0.00000000000E+00  0.00000000000E+00  0.14999999963E+04  0.15000000000E+04  0.10566000000E+00 0.  1.
        994   -1    0    0    0    0 -0.00000000000E+00 -0.00000000000E+00  0.11368683772E-12  0.17120000000E+03  0.17120000000E+03 0.  0.
         13    1    1    2    0    0 -0.18783865605E+02  0.15967905882E+02  0.81651469839E+02  0.85292328589E+02  0.10566000000E+00 0.  1.
        994    1    1    2    0    0  0.21126624179E+02 -0.77056555965E+01  0.52528583888E+01  0.17275052503E+03  0.17120000000E+03 0.  0.
        998    1    1    2    0    0 -0.23427585741E+01 -0.82622502856E+01  0.14130956681E+04  0.14131571464E+04  0.10000000000E+02 0.  1.
</event>
<event>
 5    1  0.1072898E-008  0.4026658E+03  0.7957747E-01  0.3358039E+00
         13   -1    0    0    0    0  0.00000000000E+00  0.00000000000E+00  0.14999999963E+04  0.15000000000E+04  0.10566000000E+00 0.  1.
        994   -1    0    0    0    0 -0.00000000000E+00 -0.00000000000E+00  0.11368683772E-12  0.17120000000E+03  0.17120000000E+03 0.  0.
         13    1    1    2    0    0 -0.86664519791E+02  0.98927621141E+02  0.35543038693E+03  0.37898309241E+03  0.10566000000E+00 0.  1.
        994    1    1    2    0    0 -0.84475799173E+02 -0.14286047454E+03  0.14928197764E+03  0.28131801343E+03  0.17120000000E+03 0.  0.
        998    1    1    2    0    0  0.17114031896E+03  0.43932853402E+02  0.99528763171E+03  0.10108988942E+04  0.10000000000E+02 0.  1.
</event>
<event>
 5    1  0.1072898E-008  0.3006688E+03  0.7957747E-01  0.3891256E+00
         13   -1    0    0    0    0  0.00000000000E+00  0.00000000000E+00  0.14999999963E+04  0.15000000000E+04  0.10566000000E+00 0. -1.
        994   -1    0    0    0    0 -0.00000000000E+00 -0.00000000000E+00  0.11368683772E-12  0.17120000000E+03  0.17120000000E+03 0.  0.
         13    1    1    2    0    0 -0.11879136102E+03 -0.15480495598E+03  0.59412062979E+03  0.62534414186E+03  0.10566000000E+00 0. -1.
        994    1    1    2    0    0  0.12469983525E+03  0.17470960033E+03  0.20019548157E+03  0.33979576837E+03  0.17120000000E+03 0.  0.
        998    1    1    2    0    0 -0.59084742282E+01 -0.19904644352E+02  0.70568388491E+03  0.70606008977E+03  0.10000000000E+02 0. -1.
</event>
<event>
 5    1  0.1072898E-008  0.3760917E+03  0.7957747E-01  0.3468355E+00
         13   -1    0    0    0    0  0.00000000000E+00  0.00000000000E+00  0.14999999963E+04  0.15000000000E+04  0.10566000000E+00 0.  1.
        994   -1    0    0    0    0 -0.00000000000E+00 -0.00000000000E+00  0.11368683772E-12  0.17120000000E+03  0.17120000000E+03 0.  0.
         13    1    1    2    0    0  0.26896283663E+02 -0.44934053471E+02  0.19806603785E+03  0.20487226691E+03  0.10566000000E+00 0.  1.
        994    1    1    2    0    0 -0.26203311875E+02  0.41491180368E+02  0.14318813067E+02  0.17866896767E+03  0.17120000000E+03 0.  0.
        998    1    1    2    0    0 -0.69297178832E+00  0.34428731030E+01  0.12876151454E+04  0.12876587654E+04  0.10000000000E+02 0.  1.
</event>
<event>
 5    1  0.1072898E-008  0.3848176E+03  0.7957747E-01  0.3430446E+00
         13   -1    0    0    0    0  0.00000000000E+00  0.00000000000E+00  0.14999999963E+04  0.15000000000E+04  0.10566000000E+00 0.  1.
        994   -1    0    0    0    0 -0.00000000000E+00 -0.00000000000E+00  0.11368683772E-12  0.17120000000E+03  0.17120000000E+03 0.  0.
         13    1    1    2    0    0  0.29298196369E+01  0.10524207121E+02  0.35494775752E+02  0.37138026985E+02  0.10566000000E+00 0.  1.
        994    1    1    2    0    0  0.45753656390E+01 -0.21421958093E+01  0.18047333348E+01  0.17128403322E+03  0.17120000000E+03 0.  0.
        998    1    1    2    0    0 -0.75051852759E+01 -0.83820113119E+01  0.14627004872E+04  0.14627779398E+04  0.10000000000E+02 0.  1.
</event>
<event>
 5    1  0.1072898E-008  0.3817795E+03  0.7957747E-01  0.3443447E+00
         13   -1    0    0    0    0  0.00000000000E+00  0.00000000000E+00  0.14999999963E+04  0.15000000000E+04  0.10566000000E+00 0. -1.
        994   -1    0    0    0    0 -0.00000000000E+00 -0.00000000000E+00  0.11368683772E-12  0.17120000000E+03  0.17120000000E+03 0.  0.
         13    1    1    2    0    0 -0.22243519847E+02 -0.13614661953E+02  0.99595345272E+02  0.10295327658E+03  0.10566000000E+00 0. -1.
        994    1    1    2    0    0  0.29717741422E+02 -0.28436277675E+01  0.62051052720E+01  0.17389414512E+03  0.17120000000E+03 0.  0.
        998    1    1    2    0    0 -0.74742215757E+01  0.16458289721E+02  0.13941995457E+04  0.13943525783E+04  0.10000000000E+02 0. -1.
</event>
<event>
 5    1  0.1072898E-008  0.3707465E+03  0.7957747E-01  0.3492467E+00
         13   -1    0    0    0    0  0.00000000000E+00  0.00000000000E+00  0.14999999963E+04  0.15000000000E+04  0.10566000000E+00 0.  1.
        994   -1    0    0    0    0 -0.00000000000E+00 -0.00000000000E+00  0.11368683772E-12  0.17120000000E+03  0.17120000000E+03 0.  0.
         13    1    1    2    0    0  0.13504399855E+02  0.32642054086E+01  0.67657988579E+01  0.15453512565E+02  0.10566000000E+00 0.  1.
        994    1    1    2    0    0 -0.13321722279E+02 -0.56580771313E+01  0.96021841148E+01  0.17207883095E+03  0.17120000000E+03 0.  0.
        998    1    1    2    0    0 -0.18267757555E+00  0.23938717227E+01  0.14836320133E+04  0.14836676565E+04  0.10000000000E+02 0.  1.
</event>
<event>
 5    1  0.1072898E-008  0.3828811E+03  0.7957747E-01  0.3438709E+00
         13   -1    0    0    0    0  0.00000000000E+00  0.00000000000E+00  0.14999999963E+04  0.15000000000E+04  0.10566000000E+00 0. -1.
        994   -1    0    0    0    0 -0.00000000000E+00 -0.00000000000E+00  0.11368683772E-12  0.17120000000E+03  0.17120000000E+03 0.  0.
         13    1    1    2    0    0 -0.52412011443E+01 -0.29649954850E+02  0.14829817684E+03  0.15132399159E+03  0.10566000000E+00 0. -1.
        994    1    1    2    0    0  0.12486663066E+02  0.32924517192E+02  0.68026315948E+01  0.17491614100E+03  0.17120000000E+03 0.  0.
        998    1    1    2    0    0 -0.72454619214E+01 -0.32745623423E+01  0.13448991878E+04  0.13449598674E+04  0.10000000000E+02 0. -1.
</event>
<event>
 5    1  0.1072898E-008  0.3817248E+03  0.7957747E-01  0.3443682E+00
         13   -1    0    0    0    0  0.00000000000E+00  0.00000000000E+00  0.14999999963E+04  0.15000000000E+04  0.10566000000E+00 0. -1.
        994   -1    0    0    0    0 -0.00000000000E+00 -0.00000000000E+00  0.11368683772E-12  0.17120000000E+03  0.17120000000E+03 0.  0.
         13    1    1    2    0    0 -0.26018147696E+02  0.16419663045E+02  0.16292508442E+03  0.16580453444E+03  0.10566000000E+00 0. -1.
        994    1    1    2    0    0 -0.15231885587E+01 -0.55836009020E+01  0.33763480175E+01  0.17133107257E+03  0.17120000000E+03 0.  0.
        998    1    1    2    0    0  0.27541336254E+02 -0.10836062143E+02  0.13336985638E+04  0.13340643930E+04  0.10000000000E+02 0. -1.
</event>
<event>
 5    1  0.1072898E-008  0.3861356E+03  0.7957747E-01  0.3424870E+00
         13   -1    0    0    0    0  0.00000000000E+00  0.00000000000E+00  0.14999999963E+04  0.15000000000E+04  0.10566000000E+00 0.  1.
        994   -1    0    0    0    0 -0.00000000000E+00 -0.00000000000E+00  0.11368683772E-12  0.17120000000E+03  0.17120000000E+03 0.  0.
         13    1    1    2    0    0  0.32958447223E+01  0.11674169783E+02  0.64584099604E+02  0.65713513970E+02  0.10566000000E+00 0.  1.
        994    1    1    2    0    0 -0.68958805040E+01 -0.17212695690E+02  0.21947536374E+01  0.17221523453E+03  0.17120000000E+03 0.  0.
        998    1    1    2    0    0  0.36000357817E+01  0.55385259068E+01  0.14332211430E+04  0.14332712515E+04  0.10000000000E+02 0.  1.
</event>
<event>
 5    1  0.1072898E-008  0.3843229E+03  0.7957747E-01  0.3432549E+00
         13   -1    0    0    0    0  0.00000000000E+00  0.00000000000E+00  0.14999999963E+04  0.15000000000E+04  0.10566000000E+00 0.  1.
        994   -1    0    0    0    0 -0.00000000000E+00 -0.00000000000E+00  0.11368683772E-12  0.17120000000E+03  0.17120000000E+03 0.  0.
         13    1    1    2    0    0  0.13041215266E+02  0.15436047050E+02  0.98832289081E+02  0.10087704086E+03  0.10566000000E+00 0.  1.
        994    1    1    2    0    0 -0.15293328612E+02 -0.12327721932E+02  0.32394696774E+01  0.17235368517E+03  0.17120000000E+03 0.  0.
        998    1    1    2    0    0  0.22521133453E+01 -0.31083251181E+01  0.13979282375E+04  0.13979692740E+04  0.10000000000E+02 0.  1.
</event>
<event>
 5    1  0.1072898E-008  0.3815291E+03  0.7957747E-01  0.3444527E+00
         13   -1    0    0    0    0  0.00000000000E+00  0.00000000000E+00  0.14999999963E+04  0.15000000000E+04  0.10566000000E+00 0. -1.
        994   -1    0    0    0    0 -0.00000000000E+00 -0.00000000000E+00  0.11368683772E-12  0.17120000000E+03  0.17120000000E+03 0.  0.
         13    1    1    2    0    0 -0.21298240523E+02  0.12764145043E+02  0.92425028088E+02  0.95702327187E+02  0.10566000000E+00 0. -1.
        994    1    1    2    0    0  0.10055550668E+02 -0.56926397285E+01  0.38074917242E+01  0.17163174893E+03  0.17120000000E+03 0.  0.
        998    1    1    2    0    0  0.11242689855E+02 -0.70715053149E+01  0.14037674765E+04  0.14038659239E+04  0.10000000000E+02 0. -1.
</event>
<event>
 5    1  0.1072898E-008  0.3832855E+03  0.7957747E-01  0.3436976E+00
         13   -1    0    0    0    0  0.00000000000E+00  0.00000000000E+00  0.14999999963E+04  0.15000000000E+04  0.10566000000E+00 0.  1.
        994   -1    0    0    0    0 -0.00000000000E+00 -0.00000000000E+00  0.11368683772E-12  0.17120000000E+03  0.17120000000E+03 0.  0.
         13    1    1    2    0    0  0.23300566852E+02 -0.43868512805E+01  0.11791374477E+03  0.12027395084E+03  0.10566000000E+00 0.  1.
        994    1    1    2    0    0 -0.86230299490E+01 -0.29052776781E+01  0.27576342628E+01  0.17146382076E+03  0.17120000000E+03 0.  0.
        998    1    1    2    0    0 -0.14677536903E+02  0.72921289586E+01  0.13793286172E+04  0.13794622284E+04  0.10000000000E+02 0.  1.
</event>
<event>
 5    1  0.1072898E-008  0.3782029E+03  0.7957747E-01  0.3459021E+00
         13   -1    0    0    0    0  0.00000000000E+00  0.00000000000E+00  0.14999999963E+04  0.15000000000E+04  0.10566000000E+00 0.  1.
        994   -1    0    0    0    0 -0.00000000000E+00 -0.00000000000E+00  0.11368683772E-12  0.17120000000E+03  0.17120000000E+03 0.  0.
         13    1    1    2    0    0  0.37566702179E+02  0.43192850519E+02  0.26433901751E+03  0.27046627662E+03  0.10566000000E+00 0.  1.
        994    1    1    2    0    0 -0.15588408951E+02 -0.66426661862E+02  0.20862150541E+02  0.18547282611E+03  0.17120000000E+03 0.  0.
        998    1    1    2    0    0 -0.21978293228E+02  0.23233811342E+02  0.12147988282E+04  0.12152608973E+04  0.10000000000E+02 0.  1.
</event>
<event>
 5    1  0.1072898E-008  0.3855904E+03  0.7957747E-01  0.3427172E+00
         13   -1    0    0    0    0  0.00000000000E+00  0.00000000000E+00  0.14999999963E+04  0.15000000000E+04  0.10566000000E+00 0. -1.
        994   -1    0    0    0    0 -0.00000000000E+00 -0.00000000000E+00  0.11368683772E-12  0.17120000000E+03  0.17120000000E+03 0.  0.
         13    1    1    2    0    0  0.68873414214E+01 -0.11560720206E+02  0.66773125728E+02  0.68115689874E+02  0.10566000000E+00 0. -1.
        994    1    1    2    0    0 -0.34695683984E+01  0.11623517157E+02  0.18204315790E+01  0.17163885932E+03  0.17120000000E+03 0.  0.
        998    1    1    2    0    0 -0.34177730231E+01 -0.62796950704E-01  0.14314064390E+04  0.14314454508E+04  0.10000000000E+02 0. -1.
</event>
<event>
 5    1  0.1072898E-008  0.3831965E+03  0.7957747E-01  0.3437357E+00
         13   -1    0    0    0    0  0.00000000000E+00  0.00000000000E+00  0.14999999963E+04  0.15000000000E+04  0.10566000000E+00 0.  1.
        994   -1    0    0    0    0 -0.00000000000E+00 -0.00000000000E+00  0.11368683772E-12  0.17120000000E+03  0.17120000000E+03 0.  0.
         13    1    1    2    0    0  0.11440200625E+02  0.28528952642E+01  0.26872844944E+02  0.29345837203E+02  0.10566000000E+00 0.  1.
        994    1    1    2    0    0 -0.61470329602E+01  0.15663185814E+01  0.26613086993E+01  0.17133815084E+03  0.17120000000E+03 0.  0.
        998    1    1    2    0    0 -0.52931676644E+01 -0.44192138456E+01  0.14704658426E+04  0.14705160120E+04  0.10000000000E+02 0.  1.
</event>
<event>
 5    1  0.1072898E-008  0.3849111E+03  0.7957747E-01  0.3430050E+00
         13   -1    0    0    0    0  0.00000000000E+00  0.00000000000E+00  0.14999999963E+04  0.15000000000E+04  0.10566000000E+00 0. -1.
        994   -1    0    0    0    0 -0.00000000000E+00 -0.00000000000E+00  0.11368683772E-12  0.17120000000E+03  0.17120000000E+03 0.  0.
         13    1    1    2    0    0  0.11110117370E+02  0.45623744081E+00  0.34749558850E+02  0.36485419895E+02  0.10566000000E+00 0. -1.
        994    1    1    2    0    0 -0.19912478331E+02  0.91587724994E+01  0.32561882889E+01  0.17262801820E+03  0.17120000000E+03 0.  0.
        998    1    1    2    0    0  0.88023609613E+01 -0.96150099402E+01  0.14619942491E+04  0.14620865619E+04  0.10000000000E+02 0. -1.
</event>
<event>
 5    1  0.1072898E-008  0.3853841E+03  0.7957747E-01  0.3428045E+00
         13   -1    0    0    0    0  0.00000000000E+00  0.00000000000E+00  0.14999999963E+04  0.15000000000E+04  0.10566000000E+00 0. -1.
        994   -1    0    0    0    0 -0.00000000000E+00 -0.00000000000E+00  0.11368683772E-12  0.17120000000E+03  0.17120000000E+03 0.  0.
         13    1    1    2    0    0 -0.85631451980E+01  0.12714202536E+02  0.74863298274E+02  0.76416640820E+02  0.10566000000E+00 0. -1.
        994    1    1    2    0    0  0.81615426041E+01 -0.21987489730E+02  0.32483445875E+01  0.17282954674E+03  0.17120000000E+03 0.  0.
        998    1    1    2    0    0  0.40160259390E+00  0.92732871939E+01  0.14218883534E+04  0.14219538124E+04  0.10000000000E+02 0. -1.
</event>
<event>
 5    1  0.1072898E-008  0.3764596E+03  0.7957747E-01  0.3466720E+00
         13   -1    0    0    0    0  0.00000000000E+00  0.00000000000E+00  0.14999999963E+04  0.15000000000E+04  0.10566000000E+00 0.  1.
        994   -1    0    0    0    0 -0.00000000000E+00 -0.00000000000E+00  0.11368683772E-12  0.17120000000E+03  0.17120000000E+03 0.  0.
         13    1    1    2    0    0 -0.18207271444E+01  0.12886825338E+03  0.64699391222E+03  0.65970559751E+03  0.10566000000E+00 0.  1.
        994    1    1    2    0    0 -0.10850766035E+01 -0.13908912623E+03  0.74458279777E+02  0.23280987491E+03  0.17120000000E+03 0.  0.
        998    1    1    2    0    0  0.29058037478E+01  0.10220872857E+02  0.77854780428E+03  0.77868452758E+03  0.10000000000E+02 0. -1.
</event>
<event>
 5    1  0.1072898E-008  0.3824762E+03  0.7957747E-01  0.3440447E+00
         13   -1    0    0    0    0  0.00000000000E+00  0.00000000000E+00  0.14999999963E+04  0.15000000000E+04  0.10566000000E+00 0. -1.
        994   -1    0    0    0    0 -0.00000000000E+00 -0.00000000000E+00  0.11368683772E-12  0.17120000000E+03  0.17120000000E+03 0.  0.
         13    1    1    2    0    0  0.22729548075E+02  0.10010641313E+01  0.91371438831E+02  0.94161486199E+02  0.10566000000E+00 0. -1.
        994    1    1    2    0    0 -0.95049602958E+01  0.77414266120E+01  0.33867756521E+01  0.17167173386E+03  0.17120000000E+03 0.  0.
        998    1    1    2    0    0 -0.13224587779E+02 -0.87424907433E+01  0.14052417818E+04  0.14053667799E+04  0.10000000000E+02 0. -1.
</event>
<event>
 5    1  0.1072898E-008  0.3861395E+03  0.7957747E-01  0.3424854E+00
         13   -1    0    0    0    0  0.00000000000E+00  0.00000000000E+00  0.14999999963E+04  0.15000000000E+04  0.10566000000E+00 0.  1.
        994   -1    0    0    0    0 -0.00000000000E+00 -0.00000000000E+00  0.11368683772E-12  0.17120000000E+03  0.17120000000E+03 0.  0.
         13    1    1    2    0    0 -0.86262870640E+01 -0.62516247206E+01  0.54272469740E+02  0.55308297532E+02  0.10566000000E+00 0.  1.
        994    1    1    2    0    0  0.66533587114E+01  0.19363677371E+01  0.12227717469E+01  0.17134454142E+03  0.17120000000E+03 0.  0.
        998    1    1    2    0    0  0.19729283526E+01  0.43152569836E+01  0.14445047548E+04  0.14445471611E+04  0.10000000000E+02 0.  1.
</event>
<event>
 5    1  0.1072898E-008  0.3840925E+03  0.7957747E-01  0.3433530E+00
         13   -1    0    0    0    0  0.00000000000E+00  0.00000000000E+00  0.14999999963E+04  0.15000000000E+04  0.10566000000E+00 0.  1.
        994   -1    0    0    0    0 -0.00000000000E+00 -0.00000000000E+00  0.11368683772E-12  0.17120000000E+03  0.17120000000E+03 0.  0.
         13    1    1    2    0    0 -0.14115989039E+02 -0.57430981615E+01  0.52463615862E+02  0.54632284195E+02  0.10566000000E+00 0.  1.
        994    1    1    2    0    0  0.15054533571E+02  0.18177716032E+02  0.39209222889E+01  0.17286376709E+03  0.17120000000E+03 0.  0.
        998    1    1    2    0    0 -0.93854453188E+00 -0.12434617871E+02  0.14436154581E+04  0.14437039487E+04  0.10000000000E+02 0.  1.
</event>
<event>
 5    1  0.1072898E-008  0.3739724E+03  0.7957747E-01  0.3477831E+00
         13   -1    0    0    0    0  0.00000000000E+00  0.00000000000E+00  0.14999999963E+04  0.15000000000E+04  0.10566000000E+00 0.  1.
        994   -1    0    0    0    0 -0.00000000000E+00 -0.00000000000E+00  0.11368683772E-12  0.17120000000E+03  0.17120000000E+03 0.  0.
         13    1    1    2    0    0 -0.83661264294E+00  0.26366432256E+02  0.47186870882E+02  0.54060157402E+02  0.10566000000E+00 0.  1.
        994    1    1    2    0    0  0.12781721186E+02 -0.46519396637E+01  0.78386841966E+01  0.17191828847E+03  0.17120000000E+03 0.  0.
        998    1    1    2    0    0 -0.11945108543E+02 -0.21714492593E+02  0.14449744412E+04  0.14452215541E+04  0.10000000000E+02 0.  1.
</event>
<event>
 5    1  0.1072898E-008  0.3837345E+03  0.7957747E-01  0.3435057E+00
         13   -1    0    0    0    0  0.00000000000E+00  0.00000000000E+00  0.14999999963E+04  0.15000000000E+04  0.10566000000E+00 0.  1.
        994   -1    0    0    0    0 -0.00000000000E+00 -0.00000000000E+00  0.11368683772E-12  0.17120000000E+03  0.17120000000E+03 0.  0.
         13    1    1    2    0    0  0.15077092865E+02  0.10262585548E+01  0.48964904484E+02  0.51243974973E+02  0.10566000000E+00 0.  1.
        994    1    1    2    0    0 -0.14536130100E+02  0.31289129430E+01  0.29901624968E+01  0.17187050429E+03  0.17120000000E+03 0.  0.
        998    1    1    2    0    0 -0.54096276507E+00 -0.41551714978E+01  0.14480449293E+04  0.14480855207E+04  0.10000000000E+02 0.  1.
</event>
<event>
 5    1  0.1072898E-008  0.3855726E+03  0.7957747E-01  0.3427247E+00
         13   -1    0    0    0    0  0.00000000000E+00  0.00000000000E+00  0.14999999963E+04  0.15000000000E+04  0.10566000000E+00 0. -1.
        994   -1    0    0    0    0 -0.00000000000E+00 -0.00000000000E+00  0.11368683772E-12  0.17120000000E+03  0.17120000000E+03 0.  0.
         13    1    1    2    0    0  0.12480748428E+01 -0.99989944111E+01  0.38148232579E+02  0.39456766124E+02  0.10566000000E+00 0. -1.
        994    1    1    2    0    0 -0.70521193349E+01  0.45411188712E+01  0.15771087040E+01  0.17141260578E+03  0.17120000000E+03 0.  0.
        998    1    1    2    0    0  0.58040444921E+01  0.54578755400E+01  0.14602746550E+04  0.14603306281E+04  0.10000000000E+02 0. -1.
</event>
<event>
 5    1  0.1072898E-008  0.3811099E+03  0.7957747E-01  0.3446340E+00
         13   -1    0    0    0    0  0.00000000000E+00  0.00000000000E+00  0.14999999963E+04  0.15000000000E+04  0.10566000000E+00 0.  1.
        994   -1    0    0    0    0 -0.00000000000E+00 -0.00000000000E+00  0.11368683772E-12  0.17120000000E+03  0.17120000000E+03 0.  0.
         13    1    1    2    0    0 -0.22980310029E+02 -0.45705638585E+00  0.68808013296E+02  0.72545554015E+02  0.10566000000E+00 0.  1.
        994    1    1    2    0    0  0.26537499076E+02 -0.49112536022E+00  0.59238817094E+01  0.17334650973E+03  0.17120000000E+03 0.  0.
        998    1    1    2    0    0 -0.35571890469E+01  0.94818174607E+00  0.14252681013E+04  0.14253079363E+04  0.10000000000E+02 0.  1.
</event>
<event>
 5    1  0.1212236E-008  0.3835744E+03  0.7957747E-01  0.3435741E+00
         13   -1    0    0    0    0  0.00000000000E+00  0.00000000000E+00  0.14999999963E+04  0.15000000000E+04  0.10566000000E+00 0. -1.
        994   -1    0    0    0    0 -0.00000000000E+00 -0.00000000000E+00  0.11368683772E-12  0.17120000000E+03  0.17120000000E+03 0.  0.
         13    1    1    2    0    0  0.12227062755E+02  0.43314337784E+01  0.34435228238E+02  0.36797533750E+02  0.10566000000E+00 0. -1.
        994    1    1    2    0    0 -0.14419008541E+02 -0.35698176829E+01  0.30689499362E+01  0.17187061953E+03  0.17120000000E+03 0.  0.
        998    1    1    2    0    0  0.21919457863E+01 -0.76161609542E+00  0.14624958181E+04  0.14625318467E+04  0.10000000000E+02 0. -1.
</event>
<event>
 5    1  0.1072898E-008  0.3846601E+03  0.7957747E-01  0.3431115E+00
         13   -1    0    0    0    0  0.00000000000E+00  0.00000000000E+00  0.14999999963E+04  0.15000000000E+04  0.10566000000E+00 0.  1.
        994   -1    0    0    0    0 -0.00000000000E+00 -0.00000000000E+00  0.11368683772E-12  0.17120000000E+03  0.17120000000E+03 0.  0.
         13    1    1    2    0    0  0.13107313679E+02 -0.63032200430E+01  0.63463112124E+02  0.65108448141E+02  0.10566000000E+00 0.  1.
        994    1    1    2    0    0  0.11203021897E+00 -0.77270271618E+01  0.19956404136E+01  0.17138594482E+03  0.17120000000E+03 0.  0.
        998    1    1    2    0    0 -0.13219343898E+02  0.14030247205E+02  0.14345412437E+04  0.14347056070E+04  0.10000000000E+02 0.  1.
</event>
<event>
 5    1  0.1072898E-008  0.3842800E+03  0.7957747E-01  0.3432731E+00
         13   -1    0    0    0    0  0.00000000000E+00  0.00000000000E+00  0.14999999963E+04  0.15000000000E+04  0.10566000000E+00 0. -1.
        994   -1    0    0    0    0 -0.00000000000E+00 -0.00000000000E+00  0.11368683772E-12  0.17120000000E+03  0.17120000000E+03 0.  0.
         13    1    1    2    0    0  0.13300894494E+02  0.10422861173E+02  0.71059868717E+02  0.73041535687E+02  0.10566000000E+00 0. -1.
        994    1    1    2    0    0 -0.17786645886E+02  0.29273662098E+01  0.30598453830E+01  0.17217356620E+03  0.17120000000E+03 0.  0.
        998    1    1    2    0    0  0.44857513919E+01 -0.13350227383E+02  0.14258802822E+04  0.14259848981E+04  0.10000000000E+02 0. -1.
</event>
<event>
 5    1  0.1072898E-008  0.3826137E+03  0.7957747E-01  0.3439856E+00
         13   -1    0    0    0    0  0.00000000000E+00  0.00000000000E+00  0.14999999963E+04  0.15000000000E+04  0.10566000000E+00 0.  1.
        994   -1    0    0    0    0 -0.00000000000E+00 -0.00000000000E+00  0.11368683772E-12  0.17120000000E+03  0.17120000000E+03 0.  0.
         13    1    1    2    0    0 -0.10134781991E+01 -0.10104787349E+02  0.16205726237E+02  0.19125129865E+02  0.10566000000E+00 0.  1.
        994    1    1    2    0    0 -0.14743950267E+01  0.27989451282E+02  0.54275437232E+01  0.17356405577E+03  0.17120000000E+03 0.  0.
        998    1    1    2    0    0  0.24878732258E+01 -0.17884663933E+02  0.14783667263E+04  0.14785108144E+04  0.10000000000E+02 0.  1.
</event>
<event>
 5    1  0.1072898E-008  0.3805987E+03  0.7957747E-01  0.3448556E+00
         13   -1    0    0    0    0  0.00000000000E+00  0.00000000000E+00  0.14999999963E+04  0.15000000000E+04  0.10566000000E+00 0.  1.
        994   -1    0    0    0    0 -0.00000000000E+00 -0.00000000000E+00  0.11368683772E-12  0.17120000000E+03  0.17120000000E+03 0.  0.
         13    1    1    2    0    0  0.35548603382E+02  0.16116099061E+02  0.22161520554E+03  0.22502609258E+03  0.10566000000E+00 0.  1.
        994    1    1    2    0    0 -0.74971727971E+01 -0.42756164227E+01  0.40797685783E+01  0.17146595291E+03  0.17120000000E+03 0.  0.
        998    1    1    2    0    0 -0.28051430585E+02 -0.11840482638E+02  0.12743050222E+04  0.12747079545E+04  0.10000000000E+02 0.  1.
</event>
<event>
 5    1  0.1072898E-008  0.3780380E+03  0.7957747E-01  0.3459746E+00
         13   -1    0    0    0    0  0.00000000000E+00  0.00000000000E+00  0.14999999963E+04  0.15000000000E+04  0.10566000000E+00 0.  1.
        994   -1    0    0    0    0 -0.00000000000E+00 -0.00000000000E+00  0.11368683772E-12  0.17120000000E+03  0.17120000000E+03 0.  0.
         13    1    1    2    0    0 -0.14451442746E+02 -0.22881959641E+02  0.68809091121E+02  0.73940046385E+02  0.10566000000E+00 0.  1.
        994    1    1    2    0    0  0.46327787779E+01  0.20461781807E+02  0.66092076956E+01  0.17260726746E+03  0.17120000000E+03 0.  0.
        998    1    1    2    0    0  0.98186639678E+01  0.24201778340E+01  0.14245816975E+04  0.14246526862E+04  0.10000000000E+02 0.  1.
</event>
<event>
 5    1  0.1072898E-008  0.3693296E+03  0.7957747E-01  0.3498977E+00
         13   -1    0    0    0    0  0.00000000000E+00  0.00000000000E+00  0.14999999963E+04  0.15000000000E+04  0.10566000000E+00 0.  1.
        994   -1    0    0    0    0 -0.00000000000E+00 -0.00000000000E+00  0.11368683772E-12  0.17120000000E+03  0.17120000000E+03 0.  0.
         13    1    1    2    0    0 -0.82130101111E+02  0.23266206139E+03  0.11277424286E+04  0.11544175955E+04  0.10566000000E+00 0.  1.
        994    1    1    2    0    0  0.81860597473E+02 -0.21535129829E+03  0.21593424136E+03  0.35918571198E+03  0.17120000000E+03 0.  0.
        998    1    1    2    0    0  0.26950363738E+00 -0.17310763094E+02  0.15632332628E+03  0.15759669252E+03  0.10000000000E+02 0. -1.
</event>
<event>
 5    1  0.1072898E-008  0.3843444E+03  0.7957747E-01  0.3432457E+00
         13   -1    0    0    0    0  0.00000000000E+00  0.00000000000E+00  0.14999999963E+04  0.15000000000E+04  0.10566000000E+00 0. -1.
        994   -1    0    0    0    0 -0.00000000000E+00 -0.00000000000E+00  0.11368683772E-12  0.17120000000E+03  0.17120000000E+03 0.  0.
         13    1    1    2    0    0  0.21334307626E+02 -0.94722682302E+01  0.13884864494E+03  0.14079713744E+03  0.10566000000E+00 0. -1.
        994    1    1    2    0    0 -0.16181949623E+02 -0.73572191677E+00  0.28212034722E+01  0.17198777855E+03  0.17120000000E+03 0.  0.
        998    1    1    2    0    0 -0.51523580024E+01  0.10207990147E+02  0.13583301479E+04  0.13584150840E+04  0.10000000000E+02 0. -1.
</event>
<event>
 5    1  0.1072898E-008  0.3822874E+03  0.7957747E-01  0.3441259E+00
         13   -1    0    0    0    0  0.00000000000E+00  0.00000000000E+00  0.14999999963E+04  0.15000000000E+04  0.10566000000E+00 0.  1.
        994   -1    0    0    0    0 -0.00000000000E+00 -0.00000000000E+00  0.11368683772E-12  0.17120000000E+03  0.17120000000E+03 0.  0.
         13    1    1    2    0    0  0.13690221370E+02 -0.78151546771E+00  0.30626054960E+02  0.33555913547E+02  0.10566000000E+00 0.  1.
        994    1    1    2    0    0 -0.75190477477E+01  0.18480701944E+01  0.31818693967E+01  0.17140453826E+03  0.17120000000E+03 0.  0.
        998    1    1    2    0    0 -0.61711736220E+01 -0.10665547267E+01  0.14661920719E+04  0.14662395482E+04  0.10000000000E+02 0.  1.
</event>
<event>
 5    1  0.1072898E-008  0.3822242E+03  0.7957747E-01  0.3441530E+00
         13   -1    0    0    0    0  0.00000000000E+00  0.00000000000E+00  0.14999999963E+04  0.15000000000E+04  0.10566000000E+00 0. -1.
        994   -1    0    0    0    0 -0.00000000000E+00 -0.00000000000E+00  0.11368683772E-12  0.17120000000E+03  0.17120000000E+03 0.  0.
         13    1    1    2    0    0 -0.24723924234E+02  0.17010550030E+02  0.16613484503E+03  0.16882366285E+03  0.10566000000E+00 0. -1.
        994    1    1    2    0    0  0.13886715720E+02  0.13140833728E+02  0.42284899583E+01  0.17231611217E+03  0.17120000000E+03 0.  0.
        998    1    1    2    0    0  0.10837208514E+02 -0.30151383758E+02  0.13296366613E+04  0.13300602250E+04  0.10000000000E+02 0. -1.
</event>
<event>
 5    1  0.1072898E-008  0.3828385E+03  0.7957747E-01  0.3438892E+00
         13   -1    0    0    0    0  0.00000000000E+00  0.00000000000E+00  0.14999999963E+04  0.15000000000E+04  0.10566000000E+00 0.  1.
        994   -1    0    0    0    0 -0.00000000000E+00 -0.00000000000E+00  0.11368683772E-12  0.17120000000E+03  0.17120000000E+03 0.  0.
         13    1    1    2    0    0  0.69500094191E+01  0.75138736979E+01  0.18016484657E+02  0.20721144087E+02  0.10566000000E+00 0.  1.
        994    1    1    2    0    0 -0.75598990626E+01 -0.10320044633E+02  0.32493032335E+01  0.17170804689E+03  0.17120000000E+03 0.  0.
        998    1    1    2    0    0  0.60988964346E+00  0.28061709352E+01  0.14787342084E+04  0.14787708090E+04  0.10000000000E+02 0.  1.
</event>
<event>
 5    1  0.1072898E-008  0.3818235E+03  0.7957747E-01  0.3443257E+00
         13   -1    0    0    0    0  0.00000000000E+00  0.00000000000E+00  0.14999999963E+04  0.15000000000E+04  0.10566000000E+00 0. -1.
        994   -1    0    0    0    0 -0.00000000000E+00 -0.00000000000E+00  0.11368683772E-12  0.17120000000E+03  0.17120000000E+03 0.  0.
         13    1    1    2    0    0 -0.19513844798E+02  0.15809612101E+02  0.87565136770E+02  0.91095544979E+02  0.10566000000E+00 0. -1.
        994    1    1    2    0    0  0.24448396084E+02 -0.25202035430E+02  0.73229737818E+01  0.17491693059E+03  0.17120000000E+03 0.  0.
        998    1    1    2    0    0 -0.49345512858E+01  0.93924233294E+01  0.14051118857E+04  0.14051875244E+04  0.10000000000E+02 0. -1.
</event>
<event>
 5    1  0.1072898E-008  0.3814722E+03  0.7957747E-01  0.3444773E+00
         13   -1    0    0    0    0  0.00000000000E+00  0.00000000000E+00  0.14999999963E+04  0.15000000000E+04  0.10566000000E+00 0.  1.
        994   -1    0    0    0    0 -0.00000000000E+00 -0.00000000000E+00  0.11368683772E-12  0.17120000000E+03  0.17120000000E+03 0.  0.
         13    1    1    2    0    0  0.93064922427E+02  0.10638662607E+03  0.83879656412E+03  0.85062264321E+03  0.10566000000E+00 0.  1.
        994    1    1    2    0    0 -0.94676051438E+02 -0.12474311147E+03  0.89805353228E+02  0.24879477495E+03  0.17120000000E+03 0.  0.
        998    1    1    2    0    0  0.16111290107E+01  0.18356485399E+02  0.57139807893E+03  0.57178258184E+03  0.10000000000E+02 0.  1.
</event>
<event>
 5    1  0.1072898E-008  0.3854376E+03  0.7957747E-01  0.3427818E+00
         13   -1    0    0    0    0  0.00000000000E+00  0.00000000000E+00  0.14999999963E+04  0.15000000000E+04  0.10566000000E+00 0. -1.
        994   -1    0    0    0    0 -0.00000000000E+00 -0.00000000000E+00  0.11368683772E-12  0.17120000000E+03  0.17120000000E+03 0.  0.
         13    1    1    2    0    0 -0.12022408815E+02  0.67470589019E+01  0.79358274783E+02  0.80546930780E+02  0.10566000000E+00 0. -1.
        994    1    1    2    0    0 -0.12016082395E+02  0.25470930176E+01  0.19086448193E+01  0.17165068262E+03  0.17120000000E+03 0.  0.
        998    1    1    2    0    0  0.24038491210E+02 -0.92941519196E+01  0.14187330767E+04  0.14190023866E+04  0.10000000000E+02 0. -1.
</event>
<event>
 5    1  0.1072898E-008  0.3755239E+03  0.7957747E-01  0.3470883E+00
         13   -1    0    0    0    0  0.00000000000E+00  0.00000000000E+00  0.14999999963E+04  0.15000000000E+04  0.10566000000E+00 0.  1.
        994   -1    0    0    0    0 -0.00000000000E+00 -0.00000000000E+00  0.11368683772E-12  0.17120000000E+03  0.17120000000E+03 0.  0.
         13    1    1    2    0    0  0.17140444536E+02  0.30488938979E+02  0.39734241117E+02  0.52935728201E+02  0.10566000000E+00 0.  1.
        994    1    1    2    0    0 -0.36678809676E+00 -0.15302751699E+02  0.14725742420E+02  0.17251259732E+03  0.17120000000E+03 0.  0.
        998    1    1    2    0    0 -0.16773656439E+02 -0.15186187280E+02  0.14455400127E+04  0.14457516745E+04  0.10000000000E+02 0.  1.
</event>
<event>
 5    1  0.1072898E-008  0.3837527E+03  0.7957747E-01  0.3434980E+00
         13   -1    0    0    0    0  0.00000000000E+00  0.00000000000E+00  0.14999999963E+04  0.15000000000E+04  0.10566000000E+00 0. -1.
        994   -1    0    0    0    0 -0.00000000000E+00 -0.00000000000E+00  0.11368683772E-12  0.17120000000E+03  0.17120000000E+03 0.  0.
         13    1    1    2    0    0  0.91682185925E+01  0.92046437951E+01  0.35544977703E+02  0.37844924409E+02  0.10566000000E+00 0. -1.
        994    1    1    2    0    0 -0.10861757508E+02 -0.14135792148E+02  0.33007567824E+01  0.17215729259E+03  0.17120000000E+03 0.  0.
        998    1    1    2    0    0  0.16935389153E+01  0.49311483530E+01  0.14611542618E+04  0.14611977830E+04  0.10000000000E+02 0. -1.
</event>
<event>
 5    1  0.1072898E-008  0.3749479E+03  0.7957747E-01  0.3473456E+00
         13   -1    0    0    0    0  0.00000000000E+00  0.00000000000E+00  0.14999999963E+04  0.15000000000E+04  0.10566000000E+00 0.  1.
        994   -1    0    0    0    0 -0.00000000000E+00 -0.00000000000E+00  0.11368683772E-12  0.17120000000E+03  0.17120000000E+03 0.  0.
         13    1    1    2    0    0 -0.99644698692E+02 -0.11925708441E+03  0.82807607409E+03  0.84253267818E+03  0.10566000000E+00 0.  1.
        994    1    1    2    0    0  0.10516930535E+03  0.10547911240E+03  0.86320171942E+02  0.24279011105E+03  0.17120000000E+03 0.  0.
        998    1    1    2    0    0 -0.55246066578E+01  0.13777972003E+02  0.58560375025E+03  0.58587721077E+03  0.10000000000E+02 0.  0.
</event>
<event>
 5    1  0.1072898E-008  0.3842272E+03  0.7957747E-01  0.3432956E+00
         13   -1    0    0    0    0  0.00000000000E+00  0.00000000000E+00  0.14999999963E+04  0.15000000000E+04  0.10566000000E+00 0. -1.
        994   -1    0    0    0    0 -0.00000000000E+00 -0.00000000000E+00  0.11368683772E-12  0.17120000000E+03  0.17120000000E+03 0.  0.
         13    1    1    2    0    0 -0.61715585508E+00 -0.17250785105E+02  0.82080420627E+02  0.83875962482E+02  0.10566000000E+00 0. -1.
        994    1    1    2    0    0  0.18069983688E+02 -0.56296778138E+01  0.31961918501E+01  0.17227267115E+03  0.17120000000E+03 0.  0.
        998    1    1    2    0    0 -0.17452827833E+02  0.22880462919E+02  0.14147233838E+04  0.14150513664E+04  0.10000000000E+02 0. -1.
</event>
<event>
 5    1  0.1072898E-008  0.3845226E+03  0.7957747E-01  0.3431699E+00
         13   -1    0    0    0    0  0.00000000000E+00  0.00000000000E+00  0.14999999963E+04  0.15000000000E+04  0.10566000000E+00 0.  1.
        994   -1    0    0    0    0 -0.00000000000E+00 -0.00000000000E+00  0.11368683772E-12  0.17120000000E+03  0.17120000000E+03 0.  0.
         13    1    1    2    0    0  0.34371568872E+01  0.16909388342E+02  0.86095709424E+02  0.87807880095E+02  0.10566000000E+00 0.  1.
        994    1    1    2    0    0  0.50883929082E+01 -0.72499397049E+00  0.19543519454E+01  0.17128828579E+03  0.17120000000E+03 0.  0.
        998    1    1    2    0    0 -0.85255497954E+01 -0.16184394371E+02  0.14119499349E+04  0.14121038341E+04  0.10000000000E+02 0.  1.
</event>
<event>
 5    1  0.1072898E-008  0.3860771E+03  0.7957747E-01  0.3425117E+00
         13   -1    0    0    0    0  0.00000000000E+00  0.00000000000E+00  0.14999999963E+04  0.15000000000E+04  0.10566000000E+00 0.  1.
        994   -1    0    0    0    0 -0.00000000000E+00 -0.00000000000E+00  0.11368683772E-12  0.17120000000E+03  0.17120000000E+03 0.  0.
         13    1    1    2    0    0 -0.70986384526E+02 -0.76801038733E+02  0.30117989676E+03  0.31882096499E+03  0.10566000000E+00 0.  1.
        994    1    1    2    0    0  0.86067778705E+02 -0.16377769956E+02  0.48749711188E+02  0.19839825660E+03  0.17120000000E+03 0.  0.
        998    1    1    2    0    0 -0.15081394179E+02  0.93178808689E+02  0.11500703883E+04  0.11539807784E+04  0.10000000000E+02 0.  1.
</event>
<event>
 5    1  0.1072898E-008  0.3762679E+03  0.7957747E-01  0.3467571E+00
         13   -1    0    0    0    0  0.00000000000E+00  0.00000000000E+00  0.14999999963E+04  0.15000000000E+04  0.10566000000E+00 0. -1.
        994   -1    0    0    0    0 -0.00000000000E+00 -0.00000000000E+00  0.11368683772E-12  0.17120000000E+03  0.17120000000E+03 0.  0.
         13    1    1    2    0    0 -0.20653027039E+02 -0.53741218963E+02  0.26622321430E+03  0.27237745343E+03  0.10566000000E+00 0. -1.
        994    1    1    2    0    0  0.40548765765E+02  0.24564382461E+02  0.13674767636E+02  0.17816860150E+03  0.17120000000E+03 0.  0.
        998    1    1    2    0    0 -0.19895738726E+02  0.29176836502E+02  0.12201020143E+04  0.12206539451E+04  0.10000000000E+02 0. -1.
</event>
<event>
 5    1  0.1072898E-008  0.3791070E+03  0.7957747E-01  0.3455056E+00
         13   -1    0    0    0    0  0.00000000000E+00  0.00000000000E+00  0.14999999963E+04  0.15000000000E+04  0.10566000000E+00 0.  1.
        994   -1    0    0    0    0 -0.00000000000E+00 -0.00000000000E+00  0.11368683772E-12  0.17120000000E+03  0.17120000000E+03 0.  0.
         13    1    1    2    0    0  0.54696031868E+02 -0.68991183273E+02  0.50324228471E+03  0.51088574805E+03  0.10566000000E+00 0.  1.
        994    1    1    2    0    0 -0.45360566348E+02  0.87180714473E+02  0.37679195469E+02  0.20096571779E+03  0.17120000000E+03 0.  0.
        998    1    1    2    0    0 -0.93354655200E+01 -0.18189531200E+02  0.95907851610E+03  0.95934853416E+03  0.10000000000E+02 0.  1.
</event>
<event>
 5    1  0.1072898E-008  0.3849828E+03  0.7957747E-01  0.3429745E+00
         13   -1    0    0    0    0  0.00000000000E+00  0.00000000000E+00  0.14999999963E+04  0.15000000000E+04  0.10566000000E+00 0. -1.
        994   -1    0    0    0    0 -0.00000000000E+00 -0.00000000000E+00  0.11368683772E-12  0.17120000000E+03  0.17120000000E+03 0.  0.
         13    1    1    2    0    0 -0.14543227161E+02 -0.10516351329E+02  0.94477309402E+02  0.96166897929E+02  0.10566000000E+00 0. -1.
        994    1    1    2    0    0  0.11247831680E+02  0.13119055833E+02  0.26214136065E+01  0.17208990427E+03  0.17120000000E+03 0.  0.
        998    1    1    2    0    0  0.32953954811E+01 -0.26027045041E+01  0.14029012733E+04  0.14029431978E+04  0.10000000000E+02 0. -1.
</event>
<event>
 5    1  0.1072898E-008  0.4022904E+03  0.7957747E-01  0.3359496E+00
         13   -1    0    0    0    0  0.00000000000E+00  0.00000000000E+00  0.14999999963E+04  0.15000000000E+04  0.10566000000E+00 0. -1.
        994   -1    0    0    0    0 -0.00000000000E+00 -0.00000000000E+00  0.11368683772E-12  0.17120000000E+03  0.17120000000E+03 0.  0.
         13    1    1    2    0    0  0.11550838356E+02  0.52142338195E+02  0.38020255682E+02  0.65557580075E+02  0.10566000000E+00 0. -1.
        994    1    1    2    0    0 -0.61370179062E+01 -0.46638520746E+02  0.37948756743E+02  0.18155539856E+03  0.17120000000E+03 0.  0.
        998    1    1    2    0    0 -0.54138204499E+01 -0.55038174485E+01  0.14240309839E+04  0.14240870214E+04  0.10000000000E+02 0. -1.
</event>
<event>
 5    1  0.1072898E-008  0.3793524E+03  0.7957747E-01  0.3453983E+00
         13   -1    0    0    0    0  0.00000000000E+00  0.00000000000E+00  0.14999999963E+04  0.15000000000E+04  0.10566000000E+00 0.  1.
        994   -1    0    0    0    0 -0.00000000000E+00 -0.00000000000E+00  0.11368683772E-12  0.17120000000E+03  0.17120000000E+03 0.  0.
         13    1    1    2    0    0 -0.54923418930E+02 -0.31971799672E+01  0.78282092206E+02  0.95681247017E+02  0.10566000000E+00 0.  1.
        994    1    1    2    0    0  0.81939216338E+02 -0.34190223362E+02  0.45054294440E+02  0.19804629761E+03  0.17120000000E+03 0.  0.
        998    1    1    2    0    0 -0.27015797408E+02  0.37387403329E+02  0.13766636096E+04  0.13774724554E+04  0.10000000000E+02 0.  1.
</event>
<event>
 5    1  0.1072898E-008  0.3780952E+03  0.7957747E-01  0.3459495E+00
         13   -1    0    0    0    0  0.00000000000E+00  0.00000000000E+00  0.14999999963E+04  0.15000000000E+04  0.10566000000E+00 0.  1.
        994   -1    0    0    0    0 -0.00000000000E+00 -0.00000000000E+00  0.11368683772E-12  0.17120000000E+03  0.17120000000E+03 0.  0.
         13    1    1    2    0    0 -0.33078384609E+02  0.98951476632E+00  0.98064836758E+02  0.10349822240E+03  0.10566000000E+00 0.  1.
        994    1    1    2    0    0  0.36132893822E+02  0.19569282933E+00  0.95026048623E+01  0.17522946045E+03  0.17120000000E+03 0.  0.
        998    1    1    2    0    0 -0.30545092124E+01 -0.11852075957E+01  0.13924325547E+04  0.13924723171E+04  0.10000000000E+02 0.  1.
</event>
<event>
 5    1  0.1072898E-008  0.3819940E+03  0.7957747E-01  0.3442522E+00
         13   -1    0    0    0    0  0.00000000000E+00  0.00000000000E+00  0.14999999963E+04  0.15000000000E+04  0.10566000000E+00 0.  1.
        994   -1    0    0    0    0 -0.00000000000E+00 -0.00000000000E+00  0.11368683772E-12  0.17120000000E+03  0.17120000000E+03 0.  0.
         13    1    1    2    0    0 -0.25204716626E+01  0.26257779642E+02  0.12341231483E+03  0.12619997775E+03  0.10566000000E+00 0.  1.
        994    1    1    2    0    0  0.15557571633E+02  0.24320765415E+01  0.39538641394E+01  0.17196809609E+03  0.17120000000E+03 0.  0.
        998    1    1    2    0    0 -0.13037099971E+02 -0.28689856183E+02  0.13726338173E+04  0.13730319262E+04  0.10000000000E+02 0.  1.
</event>
<event>
 5    1  0.1072898E-008  0.3856661E+03  0.7957747E-01  0.3426852E+00
         13   -1    0    0    0    0  0.00000000000E+00  0.00000000000E+00  0.14999999963E+04  0.15000000000E+04  0.10566000000E+00 0.  1.
        994   -1    0    0    0    0 -0.00000000000E+00 -0.00000000000E+00  0.11368683772E-12  0.17120000000E+03  0.17120000000E+03 0.  0.
         13    1    1    2    0    0 -0.30134502015E+01 -0.13930233266E+02  0.81032511854E+02  0.82276432971E+02  0.10566000000E+00 0.  1.
        994    1    1    2    0    0 -0.25376242099E+01  0.63247608950E+01  0.14521985431E+01  0.17134173752E+03  0.17120000000E+03 0.  0.
        998    1    1    2    0    0  0.55510744113E+01  0.76054723710E+01  0.14175152859E+04  0.14175818295E+04  0.10000000000E+02 0.  1.
</event>
<event>
 5    1  0.1072898E-008  0.3841247E+03  0.7957747E-01  0.3433393E+00
         13   -1    0    0    0    0  0.00000000000E+00  0.00000000000E+00  0.14999999963E+04  0.15000000000E+04  0.10566000000E+00 0. -1.
        994   -1    0    0    0    0 -0.00000000000E+00 -0.00000000000E+00  0.11368683772E-12  0.17120000000E+03  0.17120000000E+03 0.  0.
         13    1    1    2    0    0  0.20358226068E+02  0.41995041185E+01  0.11985132617E+03  0.12164063775E+03  0.10566000000E+00 0. -1.
        994    1    1    2    0    0  0.43548704988E+01  0.18534457809E+01  0.21392287717E+01  0.17127876826E+03  0.17120000000E+03 0.  0.
        998    1    1    2    0    0 -0.24713096567E+02 -0.60529498994E+01  0.13780094413E+04  0.13782805940E+04  0.10000000000E+02 0. -1.
</event>
<event>
 5    1  0.1072898E-008  0.3849477E+03  0.7957747E-01  0.3429894E+00
         13   -1    0    0    0    0  0.00000000000E+00  0.00000000000E+00  0.14999999963E+04  0.15000000000E+04  0.10566000000E+00 0. -1.
        994   -1    0    0    0    0 -0.00000000000E+00 -0.00000000000E+00  0.11368683772E-12  0.17120000000E+03  0.17120000000E+03 0.  0.
         13    1    1    2    0    0 -0.16179940894E+02 -0.34789277930E+01  0.82459508119E+02  0.84103953945E+02  0.10566000000E+00 0. -1.
        994    1    1    2    0    0  0.79132249197E+01  0.17986695441E+02  0.29272456330E+01  0.17234891676E+03  0.17120000000E+03 0.  0.
        998    1    1    2    0    0  0.82667159743E+01 -0.14507767649E+02  0.14146132425E+04  0.14147471293E+04  0.10000000000E+02 0. -1.
</event>
<event>
 5    1  0.1072898E-008  0.3725665E+03  0.7957747E-01  0.3484178E+00
         13   -1    0    0    0    0  0.00000000000E+00  0.00000000000E+00  0.14999999963E+04  0.15000000000E+04  0.10566000000E+00 0.  1.
        994   -1    0    0    0    0 -0.00000000000E+00 -0.00000000000E+00  0.11368683772E-12  0.17120000000E+03  0.17120000000E+03 0.  0.
         13    1    1    2    0    0 -0.84246073069E+01  0.10861774246E+03  0.62413885934E+03  0.63357565838E+03  0.10566000000E+00 0.  1.
        994    1    1    2    0    0  0.81880315966E+02 -0.45621135334E+02  0.43979162039E+02  0.20007318867E+03  0.17120000000E+03 0.  0.
        998    1    1    2    0    0 -0.73455708659E+02 -0.62996607131E+02  0.83188197490E+03  0.83755115295E+03  0.10000000000E+02 0.  1.
</event>
<event>
 5    1  0.1072898E-008  0.3749949E+03  0.7957747E-01  0.3473245E+00
         13   -1    0    0    0    0  0.00000000000E+00  0.00000000000E+00  0.14999999963E+04  0.15000000000E+04  0.10566000000E+00 0.  1.
        994   -1    0    0    0    0 -0.00000000000E+00 -0.00000000000E+00  0.11368683772E-12  0.17120000000E+03  0.17120000000E+03 0.  0.
         13    1    1    2    0    0 -0.11323307450E+02 -0.55960871147E+02  0.30750692927E+03  0.31276246435E+03  0.10566000000E+00 0.  1.
        994    1    1    2    0    0  0.94523915445E+01  0.78697317603E+00  0.69872088825E+01  0.17160486042E+03  0.17120000000E+03 0.  0.
        998    1    1    2    0    0  0.18709159053E+01  0.55173897971E+02  0.11855058581E+04  0.11868326752E+04  0.10000000000E+02 0.  1.
</event>
<event>
 5    1  0.1072898E-008  0.3858103E+03  0.7957747E-01  0.3426243E+00
         13   -1    0    0    0    0  0.00000000000E+00  0.00000000000E+00  0.14999999963E+04  0.15000000000E+04  0.10566000000E+00 0. -1.
        994   -1    0    0    0    0 -0.00000000000E+00 -0.00000000000E+00  0.11368683772E-12  0.17120000000E+03  0.17120000000E+03 0.  0.
         13    1    1    2    0    0  0.13298292535E+02  0.66635410278E+01  0.85158922957E+02  0.86448254388E+02  0.10566000000E+00 0. -1.
        994    1    1    2    0    0 -0.12080673709E+02 -0.15277682165E+02  0.24736304754E+01  0.17232210856E+03  0.17120000000E+03 0.  0.
        998    1    1    2    0    0 -0.12176188257E+01  0.86141411369E+01  0.14123674428E+04  0.14124296371E+04  0.10000000000E+02 0. -1.
</event>
<event>
 5    1  0.1125041E-008  0.3863651E+03  0.7957747E-01  0.3423903E+00
         13   -1    0    0    0    0  0.00000000000E+00  0.00000000000E+00  0.14999999963E+04  0.15000000000E+04  0.10566000000E+00 0.  1.
        994   -1    0    0    0    0 -0.00000000000E+00 -0.00000000000E+00  0.11368683772E-12  0.17120000000E+03  0.17120000000E+03 0.  0.
         13    1    1    2    0    0 -0.57148126895E+01 -0.84903245522E+01  0.53224212215E+02  0.54199378456E+02  0.10566000000E+00 0.  1.
        994    1    1    2    0    0  0.21890627123E+01  0.15065724413E+02  0.17131202019E+01  0.17188409708E+03  0.17120000000E+03 0.  0.
        998    1    1    2    0    0  0.35257499772E+01 -0.65753998605E+01  0.14450626639E+04  0.14451165245E+04  0.10000000000E+02 0.  1.
</event>
<event>
 5    1  0.1072898E-008  0.3833467E+03  0.7957747E-01  0.3436715E+00
         13   -1    0    0    0    0  0.00000000000E+00  0.00000000000E+00  0.14999999963E+04  0.15000000000E+04  0.10566000000E+00 0. -1.
        994   -1    0    0    0    0 -0.00000000000E+00 -0.00000000000E+00  0.11368683772E-12  0.17120000000E+03  0.17120000000E+03 0.  0.
         13    1    1    2    0    0  0.16788717703E+03  0.27261610963E+03  0.97387441553E+03  0.10251522013E+04  0.10566000000E+00 0. -1.
        994    1    1    2    0    0 -0.16569805605E+03 -0.27464257267E+03  0.50270983476E+03  0.62041196512E+03  0.17120000000E+03 0.  0.
        998    1    1    2    0    0 -0.21891209857E+01  0.20264630385E+01  0.23415745984E+02  0.25635833576E+02  0.10000000000E+02 0.  1.
</event>
<event>
 5    1  0.1072898E-008  0.3812617E+03  0.7957747E-01  0.3445683E+00
         13   -1    0    0    0    0  0.00000000000E+00  0.00000000000E+00  0.14999999963E+04  0.15000000000E+04  0.10566000000E+00 0. -1.
        994   -1    0    0    0    0 -0.00000000000E+00 -0.00000000000E+00  0.11368683772E-12  0.17120000000E+03  0.17120000000E+03 0.  0.
         13    1    1    2    0    0  0.85034088393E+02 -0.80298775584E+02  0.33758280488E+03  0.35726859764E+03  0.10566000000E+00 0. -1.
        994    1    1    2    0    0 -0.76568332449E+02  0.62339434549E+02  0.53437477898E+02  0.20472889068E+03  0.17120000000E+03 0.  0.
        998    1    1    2    0    0 -0.84657559441E+01  0.17959341035E+02  0.11089797135E+04  0.11092025117E+04  0.10000000000E+02 0. -1.
</event>
<event>
 5    1  0.1072898E-008  0.3837186E+03  0.7957747E-01  0.3435125E+00
         13   -1    0    0    0    0  0.00000000000E+00  0.00000000000E+00  0.14999999963E+04  0.15000000000E+04  0.10566000000E+00 0. -1.
        994   -1    0    0    0    0 -0.00000000000E+00 -0.00000000000E+00  0.11368683772E-12  0.17120000000E+03  0.17120000000E+03 0.  0.
         13    1    1    2    0    0 -0.11807084038E+02  0.17821453779E+02  0.10373620322E+03  0.10591611053E+03  0.10566000000E+00 0. -1.
        994    1    1    2    0    0  0.26553998925E-01 -0.10083962961E+02  0.26035325039E+01  0.17151648724E+03  0.17120000000E+03 0.  0.
        998    1    1    2    0    0  0.11780530039E+02 -0.77374908181E+01  0.13936602606E+04  0.13937674022E+04  0.10000000000E+02 0. -1.
</event>
<event>
 5    1  0.1072898E-008  0.3769650E+03  0.7957747E-01  0.3464481E+00
         13   -1    0    0    0    0  0.00000000000E+00  0.00000000000E+00  0.14999999963E+04  0.15000000000E+04  0.10566000000E+00 0.  1.
        994   -1    0    0    0    0 -0.00000000000E+00 -0.00000000000E+00  0.11368683772E-12  0.17120000000E+03  0.17120000000E+03 0.  0.
         13    1    1    2    0    0 -0.20958002315E+02 -0.15230188433E+02  0.63132119137E+02  0.68241278795E+02  0.10566000000E+00 0.  1.
        994    1    1    2    0    0 -0.14981945283E+02  0.18566851490E+01  0.64430793340E+01  0.17198505527E+03  0.17120000000E+03 0.  0.
        998    1    1    2    0    0  0.35939947599E+02  0.13373503284E+02  0.14304247978E+04  0.14309736659E+04  0.10000000000E+02 0.  1.
</event>
<event>
 5    1  0.1072898E-008  0.3785350E+03  0.7957747E-01  0.3457562E+00
         13   -1    0    0    0    0  0.00000000000E+00  0.00000000000E+00  0.14999999963E+04  0.15000000000E+04  0.10566000000E+00 0. -1.
        994   -1    0    0    0    0 -0.00000000000E+00 -0.00000000000E+00  0.11368683772E-12  0.17120000000E+03  0.17120000000E+03 0.  0.
         13    1    1    2    0    0  0.24397739963E+00  0.24035804164E+02  0.55447638590E+02  0.60433692556E+02  0.10566000000E+00 0. -1.
        994    1    1    2    0    0 -0.32446505340E+01 -0.25010040385E+02  0.70139746221E+01  0.17318968132E+03  0.17120000000E+03 0.  0.
        998    1    1    2    0    0  0.30006731343E+01  0.97423622111E+00  0.14375383831E+04  0.14375766261E+04  0.10000000000E+02 0. -1.
</event>
<event>
 5    1  0.1072898E-008  0.3722526E+03  0.7957747E-01  0.3485602E+00
         13   -1    0    0    0    0  0.00000000000E+00  0.00000000000E+00  0.14999999963E+04  0.15000000000E+04  0.10566000000E+00 0. -1.
        994   -1    0    0    0    0 -0.00000000000E+00 -0.00000000000E+00  0.11368683772E-12  0.17120000000E+03  0.17120000000E+03 0.  0.
         13    1    1    2    0    0 -0.80016994863E+02 -0.42366340465E+02  0.34516464542E+03  0.35684207975E+03  0.10566000000E+00 0. -1.
        994    1    1    2    0    0  0.62391761391E+02  0.12121531301E+03  0.74831547671E+02  0.23129004415E+03  0.17120000000E+03 0.  0.
        998    1    1    2    0    0  0.17625233472E+02 -0.78848972543E+02  0.10800038032E+04  0.10830678761E+04  0.10000000000E+02 0. -1.
</event>
<event>
 5    1  0.1072898E-008  0.3769620E+03  0.7957747E-01  0.3464494E+00
         13   -1    0    0    0    0  0.00000000000E+00  0.00000000000E+00  0.14999999963E+04  0.15000000000E+04  0.10566000000E+00 0.  1.
        994   -1    0    0    0    0 -0.00000000000E+00 -0.00000000000E+00  0.11368683772E-12  0.17120000000E+03  0.17120000000E+03 0.  0.
         13    1    1    2    0    0 -0.12268139748E+02 -0.17665833964E+02  0.36438552782E+02  0.42312743179E+02  0.10566000000E+00 0.  1.
        994    1    1    2    0    0  0.30901939154E+02  0.18304934916E+02  0.10043187183E+02  0.17521502816E+03  0.17120000000E+03 0.  0.
        998    1    1    2    0    0 -0.18633799406E+02 -0.63910095189E+00  0.14535182563E+04  0.14536722287E+04  0.10000000000E+02 0.  1.
</event>
<event>
 5    1  0.1072898E-008  0.3802124E+03  0.7957747E-01  0.3450234E+00
         13   -1    0    0    0    0  0.00000000000E+00  0.00000000000E+00  0.14999999963E+04  0.15000000000E+04  0.10566000000E+00 0.  1.
        994   -1    0    0    0    0 -0.00000000000E+00 -0.00000000000E+00  0.11368683772E-12  0.17120000000E+03  0.17120000000E+03 0.  0.
         13    1    1    2    0    0  0.19596828148E+03 -0.90862809017E+02  0.10147952503E+04  0.10375302543E+04  0.10566000000E+00 0.  1.
        994    1    1    2    0    0 -0.19712934033E+03  0.10101183033E+03  0.19050192461E+03  0.33862042166E+03  0.17120000000E+03 0.  0.
        998    1    1    2    0    0  0.11610588506E+01 -0.10149021308E+02  0.29470282137E+03  0.29504932404E+03  0.10000000000E+02 0. -1.
</event>
<event>
 5    1  0.1072898E-008  0.3790797E+03  0.7957747E-01  0.3455176E+00
         13   -1    0    0    0    0  0.00000000000E+00  0.00000000000E+00  0.14999999963E+04  0.15000000000E+04  0.10566000000E+00 0.  1.
        994   -1    0    0    0    0 -0.00000000000E+00 -0.00000000000E+00  0.11368683772E-12  0.17120000000E+03  0.17120000000E+03 0.  0.
         13    1    1    2    0    0 -0.10014386476E+02  0.11818659028E+02  0.25394949313E+02  0.29746987282E+02  0.10566000000E+00 0.  1.
        994    1    1    2    0    0  0.34999055446E+02  0.39272717785E+02  0.13934003508E+02  0.17964096609E+03  0.17120000000E+03 0.  0.
        998    1    1    2    0    0 -0.24984668970E+02 -0.51091376813E+02  0.14606710435E+04  0.14618120466E+04  0.10000000000E+02 0.  1.
</event>
<event>
 5    1  0.1072898E-008  0.3798689E+03  0.7957747E-01  0.3451729E+00
         13   -1    0    0    0    0  0.00000000000E+00  0.00000000000E+00  0.14999999963E+04  0.15000000000E+04  0.10566000000E+00 0. -1.
        994   -1    0    0    0    0 -0.00000000000E+00 -0.00000000000E+00  0.11368683772E-12  0.17120000000E+03  0.17120000000E+03 0.  0.
         13    1    1    2    0    0 -0.85672956697E+00 -0.11668401686E+02  0.14341010048E+02  0.18508412052E+02  0.10566000000E+00 0. -1.
        994    1    1    2    0    0 -0.47199595808E+00  0.12565997619E+02  0.47283346842E+01  0.17172630615E+03  0.17120000000E+03 0.  0.
        998    1    1    2    0    0  0.13287255251E+01 -0.89759593288E+00  0.14809306515E+04  0.14809652818E+04  0.10000000000E+02 0. -1.
</event>
<event>
 5    1  0.1072898E-008  0.3803875E+03  0.7957747E-01  0.3449473E+00
         13   -1    0    0    0    0  0.00000000000E+00  0.00000000000E+00  0.14999999963E+04  0.15000000000E+04  0.10566000000E+00 0.  1.
        994   -1    0    0    0    0 -0.00000000000E+00 -0.00000000000E+00  0.11368683772E-12  0.17120000000E+03  0.17120000000E+03 0.  0.
         13    1    1    2    0    0 -0.53067433444E+02  0.36376594542E+02  0.12122864505E+03  0.13724359608E+03  0.10566000000E+00 0.  1.
        994    1    1    2    0    0  0.42521312263E+02 -0.60466713314E+01  0.23263761707E+02  0.17803164561E+03  0.17120000000E+03 0.  0.
        998    1    1    2    0    0  0.10546121181E+02 -0.30329923210E+02  0.13555075895E+04  0.13559247583E+04  0.10000000000E+02 0.  1.
</event>
<event>
 5    1  0.1072898E-008  0.3848816E+03  0.7957747E-01  0.3430175E+00
         13   -1    0    0    0    0  0.00000000000E+00  0.00000000000E+00  0.14999999963E+04  0.15000000000E+04  0.10566000000E+00 0. -1.
        994   -1    0    0    0    0 -0.00000000000E+00 -0.00000000000E+00  0.11368683772E-12  0.17120000000E+03  0.17120000000E+03 0.  0.
         13    1    1    2    0    0  0.11637038084E+02  0.13621748743E+02  0.94319840669E+02  0.96006334177E+02  0.10566000000E+00 0. -1.
        994    1    1    2    0    0 -0.11807137523E+02 -0.63251110458E+01  0.22794173904E+01  0.17173832208E+03  0.17120000000E+03 0.  0.
        998    1    1    2    0    0  0.17009943903E+00 -0.72966376970E+01  0.14034007382E+04  0.14034553437E+04  0.10000000000E+02 0. -1.
</event>
<event>
 5    1  0.1072898E-008  0.3857295E+03  0.7957747E-01  0.3426584E+00
         13   -1    0    0    0    0  0.00000000000E+00  0.00000000000E+00  0.14999999963E+04  0.15000000000E+04  0.10566000000E+00 0. -1.
        994   -1    0    0    0    0 -0.00000000000E+00 -0.00000000000E+00  0.11368683772E-12  0.17120000000E+03  0.17120000000E+03 0.  0.
         13    1    1    2    0    0 -0.39400686739E+01 -0.11096892334E+02  0.54143687516E+02  0.55409522850E+02  0.10566000000E+00 0. -1.
        994    1    1    2    0    0  0.29599266705E+01  0.10129968970E+02  0.16338658371E+01  0.17153275767E+03  0.17120000000E+03 0.  0.
        998    1    1    2    0    0  0.98014200335E+00  0.96692336406E+00  0.14442224429E+04  0.14442577195E+04  0.10000000000E+02 0. -1.
</event>
<event>
 5    1  0.1072898E-008  0.3811601E+03  0.7957747E-01  0.3446123E+00
         13   -1    0    0    0    0  0.00000000000E+00  0.00000000000E+00  0.14999999963E+04  0.15000000000E+04  0.10566000000E+00 0. -1.
        994   -1    0    0    0    0 -0.00000000000E+00 -0.00000000000E+00  0.11368683772E-12  0.17120000000E+03  0.17120000000E+03 0.  0.
         13    1    1    2    0    0 -0.83029979575E+02 -0.18208582234E+03  0.10430208811E+04  0.10620460413E+04  0.10566000000E+00 0. -1.
        994    1    1    2    0    0  0.57051674204E+02  0.21092640785E+03  0.18350672388E+03  0.33275967419E+03  0.17120000000E+03 0.  0.
        998    1    1    2    0    0  0.25978305371E+02 -0.28840585513E+02  0.27347239128E+03  0.27639428452E+03  0.10000000000E+02 0.  1.
</event>
<event>
 5    1  0.1072898E-008  0.3802895E+03  0.7957747E-01  0.3449899E+00
         13   -1    0    0    0    0  0.00000000000E+00  0.00000000000E+00  0.14999999963E+04  0.15000000000E+04  0.10566000000E+00 0.  1.
        994   -1    0    0    0    0 -0.00000000000E+00 -0.00000000000E+00  0.11368683772E-12  0.17120000000E+03  0.17120000000E+03 0.  0.
         13    1    1    2    0    0 -0.24546407246E+02 -0.12159284371E+02  0.87157974570E+02  0.91361359448E+02  0.10566000000E+00 0.  1.
        994    1    1    2    0    0  0.28098692166E+02  0.99433334166E+01  0.69597700914E+01  0.17391459048E+03  0.17120000000E+03 0.  0.
        998    1    1    2    0    0 -0.35522849203E+01  0.22159509546E+01  0.14058822516E+04  0.14059240501E+04  0.10000000000E+02 0.  1.
</event>
<event>
 5    1  0.1072898E-008  0.3735681E+03  0.7957747E-01  0.3479652E+00
         13   -1    0    0    0    0  0.00000000000E+00  0.00000000000E+00  0.14999999963E+04  0.15000000000E+04  0.10566000000E+00 0. -1.
        994   -1    0    0    0    0 -0.00000000000E+00 -0.00000000000E+00  0.11368683772E-12  0.17120000000E+03  0.17120000000E+03 0.  0.
         13    1    1    2    0    0  0.26871531782E+02  0.93989824444E+01  0.50969227529E+02  0.58380591041E+02  0.10566000000E+00 0. -1.
        994    1    1    2    0    0 -0.24838314538E+02 -0.10256166652E+01  0.95296311075E+01  0.17325774911E+03  0.17120000000E+03 0.  0.
        998    1    1    2    0    0 -0.20332172447E+01 -0.83733657792E+01  0.14395011376E+04  0.14395616598E+04  0.10000000000E+02 0. -1.
</event>
<event>
 5    1  0.1072898E-008  0.3840319E+03  0.7957747E-01  0.3433789E+00
         13   -1    0    0    0    0  0.00000000000E+00  0.00000000000E+00  0.14999999963E+04  0.15000000000E+04  0.10566000000E+00 0. -1.
        994   -1    0    0    0    0 -0.00000000000E+00 -0.00000000000E+00  0.11368683772E-12  0.17120000000E+03  0.17120000000E+03 0.  0.
         13    1    1    2    0    0 -0.83394470972E+01 -0.20584026700E+02  0.12008873400E+03  0.12212519696E+03  0.10566000000E+00 0. -1.
        994    1    1    2    0    0  0.92467345976E+01  0.67283103691E+01  0.25430947246E+01  0.17160034846E+03  0.17120000000E+03 0.  0.
        998    1    1    2    0    0 -0.90728750043E+00  0.13855716331E+02  0.13773681675E+04  0.13774744546E+04  0.10000000000E+02 0. -1.
</event>
<event>
 5    1  0.1072898E-008  0.3713368E+03  0.7957747E-01  0.3489770E+00
         13   -1    0    0    0    0  0.00000000000E+00  0.00000000000E+00  0.14999999963E+04  0.15000000000E+04  0.10566000000E+00 0. -1.
        994   -1    0    0    0    0 -0.00000000000E+00 -0.00000000000E+00  0.11368683772E-12  0.17120000000E+03  0.17120000000E+03 0.  0.
         13    1    1    2    0    0  0.57003260252E+01 -0.29289854461E+02  0.47625521103E+02  0.56201340870E+02  0.10566000000E+00 0. -1.
        994    1    1    2    0    0 -0.30509083364E+01  0.26828522065E+02  0.11085433778E+02  0.17367039034E+03  0.17120000000E+03 0.  0.
        998    1    1    2    0    0 -0.26494176888E+01  0.24613323965E+01  0.14412890414E+04  0.14413282688E+04  0.10000000000E+02 0. -1.
</event>
<event>
 5    1  0.1072898E-008  0.3799423E+03  0.7957747E-01  0.3451410E+00
         13   -1    0    0    0    0  0.00000000000E+00  0.00000000000E+00  0.14999999963E+04  0.15000000000E+04  0.10566000000E+00 0. -1.
        994   -1    0    0    0    0 -0.00000000000E+00 -0.00000000000E+00  0.11368683772E-12  0.17120000000E+03  0.17120000000E+03 0.  0.
         13    1    1    2    0    0  0.56989607124E+01 -0.16981420263E+02  0.36841898215E+02  0.40965637008E+02  0.10566000000E+00 0. -1.
        994    1    1    2    0    0 -0.60027922067E+01  0.11414868976E+02  0.47186009214E+01  0.17174992851E+03  0.17120000000E+03 0.  0.
        998    1    1    2    0    0  0.30383149432E+00  0.55665512869E+01  0.14584394971E+04  0.14584844345E+04  0.10000000000E+02 0. -1.
</event>
<event>
 5    1  0.1072898E-008  0.3726235E+03  0.7957747E-01  0.3483920E+00
         13   -1    0    0    0    0  0.00000000000E+00  0.00000000000E+00  0.14999999963E+04  0.15000000000E+04  0.10566000000E+00 0. -1.
        994   -1    0    0    0    0 -0.00000000000E+00 -0.00000000000E+00  0.11368683772E-12  0.17120000000E+03  0.17120000000E+03 0.  0.
         13    1    1    2    0    0 -0.31091538837E+02  0.35444585172E+02  0.18195562176E+03  0.18796505489E+03  0.10566000000E+00 0. -1.
        994    1    1    2    0    0 -0.82114961544E+01  0.22622978895E+02  0.98915896688E+01  0.17316613811E+03  0.17120000000E+03 0.  0.
        998    1    1    2    0    0  0.39303034992E+02 -0.58067564067E+02  0.13081527848E+04  0.13100688070E+04  0.10000000000E+02 0. -1.
</event>
<event>
 5    1  0.1072898E-008  0.3838860E+03  0.7957747E-01  0.3434410E+00
         13   -1    0    0    0    0  0.00000000000E+00  0.00000000000E+00  0.14999999963E+04  0.15000000000E+04  0.10566000000E+00 0.  1.
        994   -1    0    0    0    0 -0.00000000000E+00 -0.00000000000E+00  0.11368683772E-12  0.17120000000E+03  0.17120000000E+03 0.  0.
         13    1    1    2    0    0 -0.30423043342E+02  0.42515999643E+02  0.65276058469E+02  0.83631015569E+02  0.10566000000E+00 0.  1.
        994    1    1    2    0    0  0.66995470358E+01 -0.54905235797E+02  0.29812332992E+02  0.18236689405E+03  0.17120000000E+03 0.  0.
        998    1    1    2    0    0  0.23723496306E+02  0.12389236154E+02  0.14049116048E+04  0.14052020904E+04  0.10000000000E+02 0.  1.
</event>
<event>
 5    1  0.1072898E-008  0.3824296E+03  0.7957747E-01  0.3440647E+00
         13   -1    0    0    0    0  0.00000000000E+00  0.00000000000E+00  0.14999999963E+04  0.15000000000E+04  0.10566000000E+00 0.  1.
        994   -1    0    0    0    0 -0.00000000000E+00 -0.00000000000E+00  0.11368683772E-12  0.17120000000E+03  0.17120000000E+03 0.  0.
         13    1    1    2    0    0  0.41428525861E+01  0.21210439294E+02  0.72392432601E+02  0.75549463430E+02  0.10566000000E+00 0.  1.
        994    1    1    2    0    0 -0.73541920477E+01 -0.30788517696E+02  0.62418134188E+01  0.17421371128E+03  0.17120000000E+03 0.  0.
        998    1    1    2    0    0  0.32113394616E+01  0.95780784024E+01  0.14213657503E+04  0.14214368253E+04  0.10000000000E+02 0.  1.
</event>
<event>
 5    1  0.1072898E-008  0.3792348E+03  0.7957747E-01  0.3454497E+00
         13   -1    0    0    0    0  0.00000000000E+00  0.00000000000E+00  0.14999999963E+04  0.15000000000E+04  0.10566000000E+00 0. -1.
        994   -1    0    0    0    0 -0.00000000000E+00 -0.00000000000E+00  0.11368683772E-12  0.17120000000E+03  0.17120000000E+03 0.  0.
         13    1    1    2    0    0  0.28829938916E+01 -0.17787817223E+02  0.31770439080E+02  0.36525197586E+02  0.10566000000E+00 0. -1.
        994    1    1    2    0    0 -0.67702236784E+01  0.34829546408E+02  0.87506612915E+01  0.17505698302E+03  0.17120000000E+03 0.  0.
        998    1    1    2    0    0  0.38872297868E+01 -0.17041729185E+02  0.14594788959E+04  0.14596178194E+04  0.10000000000E+02 0. -1.
</event>
<event>
 5    1  0.1072898E-008  0.3835087E+03  0.7957747E-01  0.3436022E+00
         13   -1    0    0    0    0  0.00000000000E+00  0.00000000000E+00  0.14999999963E+04  0.15000000000E+04  0.10566000000E+00 0.  1.
        994   -1    0    0    0    0 -0.00000000000E+00 -0.00000000000E+00  0.11368683772E-12  0.17120000000E+03  0.17120000000E+03 0.  0.
         13    1    1    2    0    0 -0.27080813512E+02 -0.19176080547E+02  0.19094281037E+03  0.19380469685E+03  0.10566000000E+00 0.  1.
        994    1    1    2    0    0  0.33144970410E+02  0.23884115280E+02  0.79075466982E+01  0.17618458877E+03  0.17120000000E+03 0.  0.
        998    1    1    2    0    0 -0.60641568981E+01 -0.47080347332E+01  0.13011496392E+04  0.13012107144E+04  0.10000000000E+02 0.  1.
</event>
<event>
 5    1  0.1072898E-008  0.3843402E+03  0.7957747E-01  0.3432475E+00
         13   -1    0    0    0    0  0.00000000000E+00  0.00000000000E+00  0.14999999963E+04  0.15000000000E+04  0.10566000000E+00 0. -1.
        994   -1    0    0    0    0 -0.00000000000E+00 -0.00000000000E+00  0.11368683772E-12  0.17120000000E+03  0.17120000000E+03 0.  0.
         13    1    1    2    0    0  0.44828473912E+01 -0.16851007157E+02  0.71919242794E+02  0.74002979744E+02  0.10566000000E+00 0. -1.
        994    1    1    2    0    0 -0.37363599855E+01  0.23169185543E+02  0.37753586291E+01  0.17284231217E+03  0.17120000000E+03 0.  0.
        998    1    1    2    0    0 -0.74648740563E+00 -0.63181783861E+01  0.14243053949E+04  0.14243547081E+04  0.10000000000E+02 0. -1.
</event>
<event>
 5    1  0.1072898E-008  0.3810595E+03  0.7957747E-01  0.3446558E+00
         13   -1    0    0    0    0  0.00000000000E+00  0.00000000000E+00  0.14999999963E+04  0.15000000000E+04  0.10566000000E+00 0.  1.
        994   -1    0    0    0    0 -0.00000000000E+00 -0.00000000000E+00  0.11368683772E-12  0.17120000000E+03  0.17120000000E+03 0.  0.
         13    1    1    2    0    0 -0.10136758710E+02 -0.74129886813E+01  0.20853104647E+02  0.24342748731E+02  0.10566000000E+00 0.  1.
        994    1    1    2    0    0 -0.22122490435E+01  0.60955422637E+01  0.37393631789E+01  0.17136356824E+03  0.17120000000E+03 0.  0.
        998    1    1    2    0    0  0.12349007753E+02  0.13174464177E+01  0.14754075285E+04  0.14754936830E+04  0.10000000000E+02 0.  1.
</event>
<event>
 5    1  0.1072898E-008  0.3812590E+03  0.7957747E-01  0.3445695E+00
         13   -1    0    0    0    0  0.00000000000E+00  0.00000000000E+00  0.14999999963E+04  0.15000000000E+04  0.10566000000E+00 0. -1.
        994   -1    0    0    0    0 -0.00000000000E+00 -0.00000000000E+00  0.11368683772E-12  0.17120000000E+03  0.17120000000E+03 0.  0.
         13    1    1    2    0    0 -0.77098603784E+01 -0.32671780726E+02  0.16061020259E+03  0.16408088110E+03  0.10566000000E+00 0. -1.
        994    1    1    2    0    0  0.14750419175E+02  0.16255192206E+02  0.51045803180E+01  0.17267687419E+03  0.17120000000E+03 0.  0.
        998    1    1    2    0    0 -0.70405587962E+01  0.16416588519E+02  0.13342852134E+04  0.13344422447E+04  0.10000000000E+02 0. -1.
</event>
<event>
 5    1  0.1072898E-008  0.3714317E+03  0.7957747E-01  0.3489337E+00
         13   -1    0    0    0    0  0.00000000000E+00  0.00000000000E+00  0.14999999963E+04  0.15000000000E+04  0.10566000000E+00 0.  1.
        994   -1    0    0    0    0 -0.00000000000E+00 -0.00000000000E+00  0.11368683772E-12  0.17120000000E+03  0.17120000000E+03 0.  0.
         13    1    1    2    0    0 -0.13209755487E+02  0.98225860627E+01  0.12031114390E+02  0.20389696283E+02  0.10566000000E+00 0.  1.
        994    1    1    2    0    0  0.87937589434E+01 -0.13694651300E+02  0.94344965476E+01  0.17223043690E+03  0.17120000000E+03 0.  0.
        998    1    1    2    0    0  0.44159965436E+01  0.38720652375E+01  0.14785343853E+04  0.14785798668E+04  0.10000000000E+02 0.  1.
</event>
<event>
 5    1  0.1072898E-008  0.3796492E+03  0.7957747E-01  0.3452687E+00
         13   -1    0    0    0    0  0.00000000000E+00  0.00000000000E+00  0.14999999963E+04  0.15000000000E+04  0.10566000000E+00 0. -1.
        994   -1    0    0    0    0 -0.00000000000E+00 -0.00000000000E+00  0.11368683772E-12  0.17120000000E+03  0.17120000000E+03 0.  0.
         13    1    1    2    0    0  0.52382717055E+02  0.36254640715E+02  0.12497713935E+03  0.14027702785E+03  0.10566000000E+00 0. -1.
        994    1    1    2    0    0 -0.43486722645E+02  0.85309916896E+01  0.23275600687E+02  0.17836778424E+03  0.17120000000E+03 0.  0.
        998    1    1    2    0    0 -0.88959944098E+01 -0.44785632405E+02  0.13517472562E+04  0.13525551879E+04  0.10000000000E+02 0. -1.
</event>
<event>
 5    1  0.1072898E-008  0.3985310E+03  0.7957747E-01  0.3374237E+00
         13   -1    0    0    0    0  0.00000000000E+00  0.00000000000E+00  0.14999999963E+04  0.15000000000E+04  0.10566000000E+00 0. -1.
        994   -1    0    0    0    0 -0.00000000000E+00 -0.00000000000E+00  0.11368683772E-12  0.17120000000E+03  0.17120000000E+03 0.  0.
         13    1    1    2    0    0  0.13505712646E+02 -0.62892455149E+02  0.71836844015E+02  0.96428255770E+02  0.10566000000E+00 0. -1.
        994    1    1    2    0    0 -0.85303866824E+01  0.26406808243E+02  0.29905958874E+02  0.17599401522E+03  0.17120000000E+03 0.  0.
        998    1    1    2    0    0 -0.49753259636E+01  0.36485646906E+02  0.13982571934E+04  0.13987777290E+04  0.10000000000E+02 0. -1.
</event>
<event>
 5    1  0.1072898E-008  0.3848261E+03  0.7957747E-01  0.3430410E+00
         13   -1    0    0    0    0  0.00000000000E+00  0.00000000000E+00  0.14999999963E+04  0.15000000000E+04  0.10566000000E+00 0.  1.
        994   -1    0    0    0    0 -0.00000000000E+00 -0.00000000000E+00  0.11368683772E-12  0.17120000000E+03  0.17120000000E+03 0.  0.
         13    1    1    2    0    0 -0.16467489937E+02  0.13635509389E+02  0.12343021739E+03  0.12526825244E+03  0.10566000000E+00 0.  1.
        994    1    1    2    0    0  0.20072042449E+02 -0.10680940663E+02  0.34194420267E+01  0.17273708914E+03  0.17120000000E+03 0.  0.
        998    1    1    2    0    0 -0.36045525114E+01 -0.29545687263E+01  0.13731503369E+04  0.13731946584E+04  0.10000000000E+02 0.  1.
</event>
<event>
 5    1  0.1072898E-008  0.3731473E+03  0.7957747E-01  0.3481550E+00
         13   -1    0    0    0    0  0.00000000000E+00  0.00000000000E+00  0.14999999963E+04  0.15000000000E+04  0.10566000000E+00 0. -1.
        994   -1    0    0    0    0 -0.00000000000E+00 -0.00000000000E+00  0.11368683772E-12  0.17120000000E+03  0.17120000000E+03 0.  0.
         13    1    1    2    0    0 -0.19014828241E+02  0.34060087063E+01  0.23643137905E+02  0.30531520145E+02  0.10566000000E+00 0. -1.
        994    1    1    2    0    0 -0.27780692952E+02  0.29583296549E+02  0.13287676113E+02  0.17644529088E+03  0.17120000000E+03 0.  0.
        998    1    1    2    0    0  0.46795521193E+02 -0.32989305256E+02  0.14630691823E+04  0.14642231890E+04  0.10000000000E+02 0. -1.
</event>
<event>
 5    1  0.1072898E-008  0.3799624E+03  0.7957747E-01  0.3451322E+00
         13   -1    0    0    0    0  0.00000000000E+00  0.00000000000E+00  0.14999999963E+04  0.15000000000E+04  0.10566000000E+00 0. -1.
        994   -1    0    0    0    0 -0.00000000000E+00 -0.00000000000E+00  0.11368683772E-12  0.17120000000E+03  0.17120000000E+03 0.  0.
         13    1    1    2    0    0  0.36417495995E+02 -0.32711422899E+01  0.16633349508E+03  0.17030495335E+03  0.10566000000E+00 0. -1.
        994    1    1    2    0    0 -0.14965875044E+02  0.32772908558E+01  0.49372669724E+01  0.17195503673E+03  0.17120000000E+03 0.  0.
        998    1    1    2    0    0 -0.21451620950E+02 -0.61485659082E-02  0.13287292342E+04  0.13289400099E+04  0.10000000000E+02 0. -1.
</event>
<event>
 5    1  0.1072898E-008  0.3831561E+03  0.7957747E-01  0.3437530E+00
         13   -1    0    0    0    0  0.00000000000E+00  0.00000000000E+00  0.14999999963E+04  0.15000000000E+04  0.10566000000E+00 0.  1.
        994   -1    0    0    0    0 -0.00000000000E+00 -0.00000000000E+00  0.11368683772E-12  0.17120000000E+03  0.17120000000E+03 0.  0.
         13    1    1    2    0    0 -0.10360485905E+02 -0.52137318898E+00  0.20075548736E+02  0.22597573305E+02  0.10566000000E+00 0.  1.
        994    1    1    2    0    0  0.89169429218E+01  0.82334002509E+00  0.28137348994E+01  0.17145712836E+03  0.17120000000E+03 0.  0.
        998    1    1    2    0    0  0.14435429834E+01 -0.30196683611E+00  0.14771107126E+04  0.14771452983E+04  0.10000000000E+02 0.  1.
</event>
<event>
 5    1  0.1072898E-008  0.3776098E+03  0.7957747E-01  0.3461632E+00
         13   -1    0    0    0    0  0.00000000000E+00  0.00000000000E+00  0.14999999963E+04  0.15000000000E+04  0.10566000000E+00 0. -1.
        994   -1    0    0    0    0 -0.00000000000E+00 -0.00000000000E+00  0.11368683772E-12  0.17120000000E+03  0.17120000000E+03 0.  0.
         13    1    1    2    0    0  0.14918010050E+03  0.99201590719E+02  0.93052390289E+03  0.94761300277E+03  0.10566000000E+00 0. -1.
        994    1    1    2    0    0 -0.13827484545E+03 -0.11966460855E+03  0.12784650395E+03  0.28123605742E+03  0.17120000000E+03 0.  0.
        998    1    1    2    0    0 -0.10905255051E+02  0.20463017826E+02  0.44162958944E+03  0.44235093981E+03  0.10000000000E+02 0. -1.
</event>
<event>
 5    1  0.1072898E-008  0.3849523E+03  0.7957747E-01  0.3429875E+00
         13   -1    0    0    0    0  0.00000000000E+00  0.00000000000E+00  0.14999999963E+04  0.15000000000E+04  0.10566000000E+00 0.  1.
        994   -1    0    0    0    0 -0.00000000000E+00 -0.00000000000E+00  0.11368683772E-12  0.17120000000E+03  0.17120000000E+03 0.  0.
         13    1    1    2    0    0 -0.15809300533E+02 -0.14187494461E+02  0.12566594202E+03  0.12744865291E+03  0.10566000000E+00 0.  1.
        994    1    1    2    0    0  0.16310830254E+02  0.15844004546E+02  0.33564303934E+01  0.17273616092E+03  0.17120000000E+03 0.  0.
        998    1    1    2    0    0 -0.50152972134E+00 -0.16565100845E+01  0.13709776239E+04  0.13710151862E+04  0.10000000000E+02 0.  1.
</event>
<event>
 5    1  0.1072898E-008  0.3821124E+03  0.7957747E-01  0.3442012E+00
         13   -1    0    0    0    0  0.00000000000E+00  0.00000000000E+00  0.14999999963E+04  0.15000000000E+04  0.10566000000E+00 0.  1.
        994   -1    0    0    0    0 -0.00000000000E+00 -0.00000000000E+00  0.11368683772E-12  0.17120000000E+03  0.17120000000E+03 0.  0.
         13    1    1    2    0    0  0.18249026107E+02  0.17294758153E+02  0.97102894776E+02  0.10030512924E+03  0.10566000000E+00 0.  1.
        994    1    1    2    0    0 -0.10646308140E+02 -0.23735703223E+02  0.53203847897E+01  0.17324685850E+03  0.17120000000E+03 0.  0.
        998    1    1    2    0    0 -0.76027179669E+01  0.64409450699E+01  0.13975767167E+04  0.13976480123E+04  0.10000000000E+02 0.  1.
</event>
<event>
 5    1  0.1164865E-008  0.3859622E+03  0.7957747E-01  0.3425602E+00
         13   -1    0    0    0    0  0.00000000000E+00  0.00000000000E+00  0.14999999963E+04  0.15000000000E+04  0.10566000000E+00 0.  1.
        994   -1    0    0    0    0 -0.00000000000E+00 -0.00000000000E+00  0.11368683772E-12  0.17120000000E+03  0.17120000000E+03 0.  0.
         13    1    1    2    0    0 -0.23975015709E+00  0.11873979350E+02  0.61167113862E+02  0.62309516512E+02  0.10566000000E+00 0.  1.
        994    1    1    2    0    0  0.11947102992E+01 -0.94236472183E+01  0.14490393365E+01  0.17146944968E+03  0.17120000000E+03 0.  0.
        998    1    1    2    0    0 -0.95496014212E+00 -0.24503321318E+01  0.14373838431E+04  0.14374210338E+04  0.10000000000E+02 0.  1.
</event>
<event>
 5    1  0.1072898E-008  0.3860722E+03  0.7957747E-01  0.3425138E+00
         13   -1    0    0    0    0  0.00000000000E+00  0.00000000000E+00  0.14999999963E+04  0.15000000000E+04  0.10566000000E+00 0.  1.
        994   -1    0    0    0    0 -0.00000000000E+00 -0.00000000000E+00  0.11368683772E-12  0.17120000000E+03  0.17120000000E+03 0.  0.
         13    1    1    2    0    0 -0.68780532776E+01 -0.86442421197E+01  0.54885878294E+02  0.55986617498E+02  0.10566000000E+00 0.  1.
        994    1    1    2    0    0  0.13647376051E+02  0.32485136420E+01  0.17440032995E+01  0.17178266869E+03  0.17120000000E+03 0.  0.
        998    1    1    2    0    0 -0.67693227735E+01  0.53957284777E+01  0.14433701147E+04  0.14434307138E+04  0.10000000000E+02 0.  1.
</event>
<event>
 5    1  0.1072898E-008  0.3798097E+03  0.7957747E-01  0.3451987E+00
         13   -1    0    0    0    0  0.00000000000E+00  0.00000000000E+00  0.14999999963E+04  0.15000000000E+04  0.10566000000E+00 0.  1.
        994   -1    0    0    0    0 -0.00000000000E+00 -0.00000000000E+00  0.11368683772E-12  0.17120000000E+03  0.17120000000E+03 0.  0.
         13    1    1    2    0    0  0.14199414563E+02  0.27631816209E+02  0.11344410886E+03  0.11762107651E+03  0.10566000000E+00 0.  1.
        994    1    1    2    0    0  0.65881026206E+00 -0.19991975632E+02  0.55687540667E+01  0.17245452775E+03  0.17120000000E+03 0.  0.
        998    1    1    2    0    0 -0.14858224825E+02 -0.76398405765E+01  0.13809871334E+04  0.13811243957E+04  0.10000000000E+02 0.  1.
</event>
<event>
 5    1  0.1072898E-008  0.4079202E+03  0.7957747E-01  0.3337925E+00
         13   -1    0    0    0    0  0.00000000000E+00  0.00000000000E+00  0.14999999963E+04  0.15000000000E+04  0.10566000000E+00 0. -1.
        994   -1    0    0    0    0 -0.00000000000E+00 -0.00000000000E+00  0.11368683772E-12  0.17120000000E+03  0.17120000000E+03 0.  0.
         13    1    1    2    0    0  0.14643611432E+03 -0.31065517990E+02  0.28707984469E+03  0.32376449832E+03  0.10566000000E+00 0. -1.
        994    1    1    2    0    0 -0.12609791584E+03  0.30796074787E+02  0.10472775662E+03  0.23901135037E+03  0.17120000000E+03 0.  0.
        998    1    1    2    0    0 -0.20338198485E+02  0.26944320237E+00  0.11081923950E+04  0.11084241513E+04  0.10000000000E+02 0.  1.
</event>
<event>
 5    1  0.1072898E-008  0.3700702E+03  0.7957747E-01  0.3495568E+00
         13   -1    0    0    0    0  0.00000000000E+00  0.00000000000E+00  0.14999999963E+04  0.15000000000E+04  0.10566000000E+00 0.  1.
        994   -1    0    0    0    0 -0.00000000000E+00 -0.00000000000E+00  0.11368683772E-12  0.17120000000E+03  0.17120000000E+03 0.  0.
         13    1    1    2    0    0 -0.56800006356E+01 -0.11814430168E+02  0.50598515133E+01  0.14051919043E+02  0.10566000000E+00 0.  1.
        994    1    1    2    0    0  0.38087456716E+01  0.10457304603E+02  0.96606727268E+01  0.17183314686E+03  0.17120000000E+03 0.  0.
        998    1    1    2    0    0  0.18712549641E+01  0.13571255649E+01  0.14852794720E+04  0.14853149341E+04  0.10000000000E+02 0.  1.
</event>
<event>
 5    1  0.1072898E-008  0.3847823E+03  0.7957747E-01  0.3430596E+00
         13   -1    0    0    0    0  0.00000000000E+00  0.00000000000E+00  0.14999999963E+04  0.15000000000E+04  0.10566000000E+00 0.  1.
        994   -1    0    0    0    0 -0.00000000000E+00 -0.00000000000E+00  0.11368683772E-12  0.17120000000E+03  0.17120000000E+03 0.  0.
         13    1    1    2    0    0  0.17489274512E+02 -0.62070103717E+01  0.10275904439E+03  0.10442142533E+03  0.10566000000E+00 0.  1.
        994    1    1    2    0    0 -0.10035211745E+02 -0.68442909355E+01  0.22239763960E+01  0.17164479562E+03  0.17120000000E+03 0.  0.
        998    1    1    2    0    0 -0.74540627671E+01  0.13051301307E+02  0.13950169755E+04  0.13951337790E+04  0.10000000000E+02 0.  1.
</event>
<event>
 5    1  0.1072898E-008  0.3828536E+03  0.7957747E-01  0.3438827E+00
         13   -1    0    0    0    0  0.00000000000E+00  0.00000000000E+00  0.14999999963E+04  0.15000000000E+04  0.10566000000E+00 0. -1.
        994   -1    0    0    0    0 -0.00000000000E+00 -0.00000000000E+00  0.11368683772E-12  0.17120000000E+03  0.17120000000E+03 0.  0.
         13    1    1    2    0    0 -0.21436456192E+02  0.79530799176E+00  0.86596958006E+02  0.89214340040E+02  0.10566000000E+00 0. -1.
        994    1    1    2    0    0  0.90269493300E+01 -0.33433520930E+01  0.30064931227E+01  0.17149677203E+03  0.17120000000E+03 0.  0.
        998    1    1    2    0    0  0.12409506862E+02  0.25480441012E+01  0.14103965452E+04  0.14104888879E+04  0.10000000000E+02 0. -1.
</event>
<event>
 5    1  0.1072898E-008  0.3782827E+03  0.7957747E-01  0.3458670E+00
         13   -1    0    0    0    0  0.00000000000E+00  0.00000000000E+00  0.14999999963E+04  0.15000000000E+04  0.10566000000E+00 0.  1.
        994   -1    0    0    0    0 -0.00000000000E+00 -0.00000000000E+00  0.11368683772E-12  0.17120000000E+03  0.17120000000E+03 0.  0.
         13    1    1    2    0    0 -0.13701686537E+02  0.23621205114E+01  0.18247640872E+02  0.22941303117E+02  0.10566000000E+00 0.  1.
        994    1    1    2    0    0 -0.15157688980E+02 -0.17945212837E+01  0.57861915733E+01  0.17197643982E+03  0.17120000000E+03 0.  0.
        998    1    1    2    0    0  0.28859375517E+02 -0.56759922775E+00  0.14759661638E+04  0.14762822571E+04  0.10000000000E+02 0.  1.
</event>
<event>
 5    1  0.1072898E-008  0.4220026E+03  0.7957747E-01  0.3286456E+00
         13   -1    0    0    0    0  0.00000000000E+00  0.00000000000E+00  0.14999999963E+04  0.15000000000E+04  0.10566000000E+00 0. -1.
        994   -1    0    0    0    0 -0.00000000000E+00 -0.00000000000E+00  0.11368683772E-12  0.17120000000E+03  0.17120000000E+03 0.  0.
         13    1    1    2    0    0  0.59368201349E+02 -0.13677109131E+03  0.39557168582E+03  0.42273855341E+03  0.10566000000E+00 0. -1.
        994    1    1    2    0    0  0.46044951719E+02  0.29008042408E+02  0.54510748874E+02  0.18772976814E+03  0.17120000000E+03 0.  0.
        998    1    1    2    0    0 -0.10541315307E+03  0.10776304891E+03  0.10499175616E+04  0.10607316785E+04  0.10000000000E+02 0. -1.
</event>
<event>
 5    1  0.1072898E-008  0.3837291E+03  0.7957747E-01  0.3435080E+00
         13   -1    0    0    0    0  0.00000000000E+00  0.00000000000E+00  0.14999999963E+04  0.15000000000E+04  0.10566000000E+00 0.  1.
        994   -1    0    0    0    0 -0.00000000000E+00 -0.00000000000E+00  0.11368683772E-12  0.17120000000E+03  0.17120000000E+03 0.  0.
         13    1    1    2    0    0 -0.12225498560E+02 -0.17350930015E+02  0.93977372087E+02  0.96344565056E+02  0.10566000000E+00 0.  1.
        994    1    1    2    0    0  0.13932468226E+02  0.16392053591E+02  0.37922611258E+01  0.17258804807E+03  0.17120000000E+03 0.  0.
        998    1    1    2    0    0 -0.17069696668E+01  0.95887642438E+00  0.14022303631E+04  0.14022673869E+04  0.10000000000E+02 0.  1.
</event>
<event>
 5    1  0.1072898E-008  0.3825017E+03  0.7957747E-01  0.3440337E+00
         13   -1    0    0    0    0  0.00000000000E+00  0.00000000000E+00  0.14999999963E+04  0.15000000000E+04  0.10566000000E+00 0. -1.
        994   -1    0    0    0    0 -0.00000000000E+00 -0.00000000000E+00  0.11368683772E-12  0.17120000000E+03  0.17120000000E+03 0.  0.
         13    1    1    2    0    0  0.14697360370E+02  0.15469891772E+02  0.93595995640E+02  0.95997664123E+02  0.10566000000E+00 0. -1.
        994    1    1    2    0    0  0.25999038495E+02 -0.29292383758E+01  0.51484490791E+01  0.17326418259E+03  0.17120000000E+03 0.  0.
        998    1    1    2    0    0 -0.40696398865E+02 -0.12540653396E+02  0.14012555516E+04  0.14019381533E+04  0.10000000000E+02 0. -1.
</event>
<event>
 5    1  0.1072898E-008  0.3726952E+03  0.7957747E-01  0.3483595E+00
         13   -1    0    0    0    0  0.00000000000E+00  0.00000000000E+00  0.14999999963E+04  0.15000000000E+04  0.10566000000E+00 0.  1.
        994   -1    0    0    0    0 -0.00000000000E+00 -0.00000000000E+00  0.11368683772E-12  0.17120000000E+03  0.17120000000E+03 0.  0.
         13    1    1    2    0    0 -0.12007436341E+02  0.91864507783E+01  0.35894978543E+01  0.15539146188E+02  0.10566000000E+00 0.  1.
        994    1    1    2    0    0  0.97642825850E+01 -0.84785416024E+01  0.12961481170E+02  0.17217626688E+03  0.17120000000E+03 0.  0.
        998    1    1    2    0    0  0.22431537558E+01 -0.70790917590E+00  0.14834490173E+04  0.14834845869E+04  0.10000000000E+02 0.  1.
</event>
<event>
 5    1  0.1201205E-008  0.3852371E+03  0.7957747E-01  0.3428667E+00
         13   -1    0    0    0    0  0.00000000000E+00  0.00000000000E+00  0.14999999963E+04  0.15000000000E+04  0.10566000000E+00 0.  1.
        994   -1    0    0    0    0 -0.00000000000E+00 -0.00000000000E+00  0.11368683772E-12  0.17120000000E+03  0.17120000000E+03 0.  0.
         13    1    1    2    0    0  0.70675649342E+00 -0.14384281331E+02  0.67750924855E+02  0.69264753208E+02  0.10566000000E+00 0.  1.
        994    1    1    2    0    0 -0.38624779222E+01  0.11480452672E+02  0.19947723151E+01  0.17163956026E+03  0.17120000000E+03 0.  0.
        998    1    1    2    0    0  0.31557214288E+01  0.29038286588E+01  0.14302542991E+04  0.14302956865E+04  0.10000000000E+02 0.  1.
</event>
<event>
 5    1  0.1072898E-008  0.3847562E+03  0.7957747E-01  0.3430707E+00
         13   -1    0    0    0    0  0.00000000000E+00  0.00000000000E+00  0.14999999963E+04  0.15000000000E+04  0.10566000000E+00 0. -1.
        994   -1    0    0    0    0 -0.00000000000E+00 -0.00000000000E+00  0.11368683772E-12  0.17120000000E+03  0.17120000000E+03 0.  0.
         13    1    1    2    0    0 -0.58488666770E+00  0.19363808314E+02  0.10721485391E+03  0.10895106805E+03  0.10566000000E+00 0. -1.
        994    1    1    2    0    0 -0.10998888647E+02 -0.12618413282E+02  0.26739810028E+01  0.17203717645E+03  0.17120000000E+03 0.  0.
        998    1    1    2    0    0  0.11583775314E+02 -0.67453950324E+01  0.13901111614E+04  0.13902117555E+04  0.10000000000E+02 0. -1.
</event>
<event>
 5    1  0.1072898E-008  0.3789792E+03  0.7957747E-01  0.3455616E+00
         13   -1    0    0    0    0  0.00000000000E+00  0.00000000000E+00  0.14999999963E+04  0.15000000000E+04  0.10566000000E+00 0. -1.
        994   -1    0    0    0    0 -0.00000000000E+00 -0.00000000000E+00  0.11368683772E-12  0.17120000000E+03  0.17120000000E+03 0.  0.
         13    1    1    2    0    0 -0.19365698403E+02  0.71094745179E+01  0.46641985862E+02  0.51000597171E+02  0.10566000000E+00 0. -1.
        994    1    1    2    0    0 -0.34818403044E+01 -0.64852057945E-01  0.46900325744E+01  0.17129963171E+03  0.17120000000E+03 0.  0.
        998    1    1    2    0    0  0.22847538708E+02 -0.70446224600E+01  0.14486679778E+04  0.14488997711E+04  0.10000000000E+02 0. -1.
</event>
<event>
 5    1  0.1908604E-008  0.3860396E+03  0.7957747E-01  0.3425275E+00
         13   -1    0    0    0    0  0.00000000000E+00  0.00000000000E+00  0.14999999963E+04  0.15000000000E+04  0.10566000000E+00 0.  1.
        994   -1    0    0    0    0 -0.00000000000E+00 -0.00000000000E+00  0.11368683772E-12  0.17120000000E+03  0.17120000000E+03 0.  0.
         13    1    1    2    0    0  0.12201171812E+02 -0.27899481520E+01  0.68683228844E+02  0.69814393163E+02  0.10566000000E+00 0.  1.
        994    1    1    2    0    0 -0.13297078749E+02 -0.69543268138E+00  0.16962031335E+01  0.17172540009E+03  0.17120000000E+03 0.  0.
        998    1    1    2    0    0  0.10959069366E+01  0.34853808334E+01  0.14296205643E+04  0.14296602068E+04  0.10000000000E+02 0.  1.
</event>
<event>
 5    1  0.1072898E-008  0.3847616E+03  0.7957747E-01  0.3430684E+00
         13   -1    0    0    0    0  0.00000000000E+00  0.00000000000E+00  0.14999999963E+04  0.15000000000E+04  0.10566000000E+00 0. -1.
        994   -1    0    0    0    0 -0.00000000000E+00 -0.00000000000E+00  0.11368683772E-12  0.17120000000E+03  0.17120000000E+03 0.  0.
         13    1    1    2    0    0  0.80933175239E+01 -0.12105848173E+02  0.58971105310E+02  0.60742536777E+02  0.10566000000E+00 0. -1.
        994    1    1    2    0    0  0.19438995313E+01  0.18380711473E+02  0.28737438162E+01  0.17221883667E+03  0.17120000000E+03 0.  0.
        998    1    1    2    0    0 -0.10037217055E+02 -0.62748633002E+01  0.14381551472E+04  0.14382386266E+04  0.10000000000E+02 0. -1.
</event>
<event>
 5    1  0.1072898E-008  0.3716550E+03  0.7957747E-01  0.3488319E+00
         13   -1    0    0    0    0  0.00000000000E+00  0.00000000000E+00  0.14999999963E+04  0.15000000000E+04  0.10566000000E+00 0. -1.
        994   -1    0    0    0    0 -0.00000000000E+00 -0.00000000000E+00  0.11368683772E-12  0.17120000000E+03  0.17120000000E+03 0.  0.
         13    1    1    2    0    0 -0.14897478147E+02 -0.13362093945E+02  0.20188482735E+02  0.28426508912E+02  0.10566000000E+00 0. -1.
        994    1    1    2    0    0  0.96759048408E+01  0.11775157469E+02  0.92055314222E+01  0.17212338388E+03  0.17120000000E+03 0.  0.
        998    1    1    2    0    0  0.52215733058E+01  0.15869364762E+01  0.14706059821E+04  0.14706501072E+04  0.10000000000E+02 0. -1.
</event>
<event>
 5    1  0.1072898E-008  0.3838362E+03  0.7957747E-01  0.3434623E+00
         13   -1    0    0    0    0  0.00000000000E+00  0.00000000000E+00  0.14999999963E+04  0.15000000000E+04  0.10566000000E+00 0. -1.
        994   -1    0    0    0    0 -0.00000000000E+00 -0.00000000000E+00  0.11368683772E-12  0.17120000000E+03  0.17120000000E+03 0.  0.
         13    1    1    2    0    0  0.10931566797E+02  0.10619493735E+02  0.51726147694E+02  0.53924746816E+02  0.10566000000E+00 0. -1.
        994    1    1    2    0    0 -0.10746020771E+02 -0.52466066439E+01  0.26812666821E+01  0.17163808737E+03  0.17120000000E+03 0.  0.
        998    1    1    2    0    0 -0.18554602602E+00 -0.53728870915E+01  0.14455925819E+04  0.14456371658E+04  0.10000000000E+02 0. -1.
</event>
<event>
 5    1  0.1072898E-008  0.3809962E+03  0.7957747E-01  0.3446832E+00
         13   -1    0    0    0    0  0.00000000000E+00  0.00000000000E+00  0.14999999963E+04  0.15000000000E+04  0.10566000000E+00 0. -1.
        994   -1    0    0    0    0 -0.00000000000E+00 -0.00000000000E+00  0.11368683772E-12  0.17120000000E+03  0.17120000000E+03 0.  0.
         13    1    1    2    0    0 -0.79109445005E+00 -0.11159464077E+02  0.15449187753E+02  0.19074801051E+02  0.10566000000E+00 0. -1.
        994    1    1    2    0    0 -0.23179599382E+01  0.14525342779E+02  0.43523180173E+01  0.17188583768E+03  0.17120000000E+03 0.  0.
        998    1    1    2    0    0  0.31090543883E+01 -0.33658787029E+01  0.14801984905E+04  0.14802393613E+04  0.10000000000E+02 0. -1.
</event>
<event>
 5    1  0.1072898E-008  0.3785803E+03  0.7957747E-01  0.3457363E+00
         13   -1    0    0    0    0  0.00000000000E+00  0.00000000000E+00  0.14999999963E+04  0.15000000000E+04  0.10566000000E+00 0.  1.
        994   -1    0    0    0    0 -0.00000000000E+00 -0.00000000000E+00  0.11368683772E-12  0.17120000000E+03  0.17120000000E+03 0.  0.
         13    1    1    2    0    0 -0.36578881626E+02  0.90267093270E+01  0.13027655590E+03  0.13561522128E+03  0.10566000000E+00 0.  1.
        994    1    1    2    0    0  0.40917431363E+02 -0.79429582628E+01  0.10708860040E+02  0.17652605037E+03  0.17120000000E+03 0.  0.
        998    1    1    2    0    0 -0.43385497372E+01 -0.10837510641E+01  0.13590145803E+04  0.13590587284E+04  0.10000000000E+02 0.  1.
</event>
<event>
 5    1  0.1072898E-008  0.3824987E+03  0.7957747E-01  0.3440350E+00
         13   -1    0    0    0    0  0.00000000000E+00  0.00000000000E+00  0.14999999963E+04  0.15000000000E+04  0.10566000000E+00 0. -1.
        994   -1    0    0    0    0 -0.00000000000E+00 -0.00000000000E+00  0.11368683772E-12  0.17120000000E+03  0.17120000000E+03 0.  0.
         13    1    1    2    0    0 -0.17927329956E+02  0.25695573453E+01  0.61116618574E+02  0.63743580181E+02  0.10566000000E+00 0. -1.
        994    1    1    2    0    0 -0.49782613026E+01  0.78521253627E+01  0.31637563342E+01  0.17148145180E+03  0.17120000000E+03 0.  0.
        998    1    1    2    0    0  0.22905591259E+02 -0.10421682708E+02  0.14357196214E+04  0.14359749680E+04  0.10000000000E+02 0. -1.
</event>
<event>
 5    1  0.1072898E-008  0.3859151E+03  0.7957747E-01  0.3425801E+00
         13   -1    0    0    0    0  0.00000000000E+00  0.00000000000E+00  0.14999999963E+04  0.15000000000E+04  0.10566000000E+00 0.  1.
        994   -1    0    0    0    0 -0.00000000000E+00 -0.00000000000E+00  0.11368683772E-12  0.17120000000E+03  0.17120000000E+03 0.  0.
         13    1    1    2    0    0 -0.13232774640E+02 -0.21908432001E+01  0.79481192679E+02  0.80605069768E+02  0.10566000000E+00 0.  1.
        994    1    1    2    0    0  0.50023475010E+01  0.25249171949E+01  0.12794620939E+01  0.17129645563E+03  0.17120000000E+03 0.  0.
        998    1    1    2    0    0  0.82304271387E+01 -0.33407399486E+00  0.14192393415E+04  0.14192984746E+04  0.10000000000E+02 0.  1.
</event>
<event>
 5    1  0.1072898E-008  0.3822518E+03  0.7957747E-01  0.3441412E+00
         13   -1    0    0    0    0  0.00000000000E+00  0.00000000000E+00  0.14999999963E+04  0.15000000000E+04  0.10566000000E+00 0. -1.
        994   -1    0    0    0    0 -0.00000000000E+00 -0.00000000000E+00  0.11368683772E-12  0.17120000000E+03  0.17120000000E+03 0.  0.
         13    1    1    2    0    0  0.42954015859E-01  0.21454646135E+02  0.73431921313E+02  0.76502038650E+02  0.10566000000E+00 0. -1.
        994    1    1    2    0    0  0.27824737677E+01 -0.19701804770E+02  0.43155567634E+01  0.17240640157E+03  0.17120000000E+03 0.  0.
        998    1    1    2    0    0 -0.28254277836E+01 -0.17528413644E+01  0.14222525182E+04  0.14222915598E+04  0.10000000000E+02 0. -1.
</event>
<event>
 5    1  0.1072898E-008  0.3827114E+03  0.7957747E-01  0.3439437E+00
         13   -1    0    0    0    0  0.00000000000E+00  0.00000000000E+00  0.14999999963E+04  0.15000000000E+04  0.10566000000E+00 0.  1.
        994   -1    0    0    0    0 -0.00000000000E+00 -0.00000000000E+00  0.11368683772E-12  0.17120000000E+03  0.17120000000E+03 0.  0.
         13    1    1    2    0    0  0.66224703505E+01  0.75503478358E+01  0.17469840215E+02  0.20151212052E+02  0.10566000000E+00 0.  1.
        994    1    1    2    0    0 -0.11955531421E+02  0.10355783682E+02  0.35999730711E+01  0.17196678980E+03  0.17120000000E+03 0.  0.
        998    1    1    2    0    0  0.53330610704E+01 -0.17906131518E+02  0.14789301830E+04  0.14790819982E+04  0.10000000000E+02 0.  1.
</event>
<event>
 5    1  0.1072898E-008  0.3844996E+03  0.7957747E-01  0.3431797E+00
         13   -1    0    0    0    0  0.00000000000E+00  0.00000000000E+00  0.14999999963E+04  0.15000000000E+04  0.10566000000E+00 0.  1.
        994   -1    0    0    0    0 -0.00000000000E+00 -0.00000000000E+00  0.11368683772E-12  0.17120000000E+03  0.17120000000E+03 0.  0.
         13    1    1    2    0    0 -0.61570524781E+01  0.16169389408E+02  0.76626484493E+02  0.78555634673E+02  0.10566000000E+00 0.  1.
        994    1    1    2    0    0  0.26791227672E+01 -0.17032234735E+02  0.28586268884E+01  0.17208976282E+03  0.17120000000E+03 0.  0.
        998    1    1    2    0    0  0.34779297108E+01  0.86284532684E+00  0.14205148849E+04  0.14205546025E+04  0.10000000000E+02 0.  1.
</event>
<event>
 5    1  0.1072898E-008  0.3803345E+03  0.7957747E-01  0.3449703E+00
         13   -1    0    0    0    0  0.00000000000E+00  0.00000000000E+00  0.14999999963E+04  0.15000000000E+04  0.10566000000E+00 0. -1.
        994   -1    0    0    0    0 -0.00000000000E+00 -0.00000000000E+00  0.11368683772E-12  0.17120000000E+03  0.17120000000E+03 0.  0.
         13    1    1    2    0    0 -0.34517368533E+02 -0.11145650442E+02  0.18950993139E+03  0.19294999227E+03  0.10566000000E+00 0. -1.
        994    1    1    2    0    0  0.11288447742E+01  0.40000234511E+01  0.40220936546E+01  0.17129766991E+03  0.17120000000E+03 0.  0.
        998    1    1    2    0    0  0.33388523758E+02  0.71456269914E+01  0.13064679712E+04  0.13069523378E+04  0.10000000000E+02 0. -1.
</event>
<event>
 5    1  0.1072898E-008  0.3845329E+03  0.7957747E-01  0.3431656E+00
         13   -1    0    0    0    0  0.00000000000E+00  0.00000000000E+00  0.14999999963E+04  0.15000000000E+04  0.10566000000E+00 0. -1.
        994   -1    0    0    0    0 -0.00000000000E+00 -0.00000000000E+00  0.11368683772E-12  0.17120000000E+03  0.17120000000E+03 0.  0.
         13    1    1    2    0    0 -0.18134645523E+02  0.15306247197E+01  0.92838676871E+02  0.94605704202E+02  0.10566000000E+00 0. -1.
        994    1    1    2    0    0  0.53615920461E+01  0.28369304016E+00  0.19571783197E+01  0.17129535224E+03  0.17120000000E+03 0.  0.
        998    1    1    2    0    0  0.12773053477E+02 -0.18143177599E+01  0.14052041411E+04  0.14052989436E+04  0.10000000000E+02 0. -1.
</event>
<event>
 5    1  0.1072898E-008  0.3860611E+03  0.7957747E-01  0.3425184E+00
         13   -1    0    0    0    0  0.00000000000E+00  0.00000000000E+00  0.14999999963E+04  0.15000000000E+04  0.10566000000E+00 0. -1.
        994   -1    0    0    0    0 -0.00000000000E+00 -0.00000000000E+00  0.11368683772E-12  0.17120000000E+03  0.17120000000E+03 0.  0.
         13    1    1    2    0    0 -0.13199938586E+02  0.27755512962E+01  0.80346430222E+02  0.81470866431E+02  0.10566000000E+00 0. -1.
        994    1    1    2    0    0  0.12382318688E+02 -0.56208380187E+01  0.17105110501E+01  0.17174772629E+03  0.17120000000E+03 0.  0.
        998    1    1    2    0    0  0.81761989821E+00  0.28452867226E+01  0.14179430550E+04  0.14179814073E+04  0.10000000000E+02 0. -1.
</event>
<event>
 5    1  0.1072898E-008  0.3782609E+03  0.7957747E-01  0.3458766E+00
         13   -1    0    0    0    0  0.00000000000E+00  0.00000000000E+00  0.14999999963E+04  0.15000000000E+04  0.10566000000E+00 0. -1.
        994   -1    0    0    0    0 -0.00000000000E+00 -0.00000000000E+00  0.11368683772E-12  0.17120000000E+03  0.17120000000E+03 0.  0.
         13    1    1    2    0    0 -0.12979025938E+02  0.23001537437E+02  0.64545998035E+02  0.69740396222E+02  0.10566000000E+00 0. -1.
        994    1    1    2    0    0  0.20339466336E+02 -0.21918549198E+02  0.80257300816E+01  0.17397692098E+03  0.17120000000E+03 0.  0.
        998    1    1    2    0    0 -0.73604403986E+01 -0.10829882387E+01  0.14274282682E+04  0.14274826828E+04  0.10000000000E+02 0. -1.
</event>
<event>
 5    1  0.1072898E-008  0.3785358E+03  0.7957747E-01  0.3457559E+00
         13   -1    0    0    0    0  0.00000000000E+00  0.00000000000E+00  0.14999999963E+04  0.15000000000E+04  0.10566000000E+00 0. -1.
        994   -1    0    0    0    0 -0.00000000000E+00 -0.00000000000E+00  0.11368683772E-12  0.17120000000E+03  0.17120000000E+03 0.  0.
         13    1    1    2    0    0 -0.11964706139E+02  0.85073637845E+01  0.20089145784E+02  0.24882009041E+02  0.10566000000E+00 0. -1.
        994    1    1    2    0    0  0.39217790882E+01 -0.10851883380E+02  0.53214758790E+01  0.17167091143E+03  0.17120000000E+03 0.  0.
        998    1    1    2    0    0  0.80429270505E+01  0.23445195952E+01  0.14745893746E+04  0.14746470795E+04  0.10000000000E+02 0. -1.
</event>
<event>
 5    1  0.1072898E-008  0.3734040E+03  0.7957747E-01  0.3480392E+00
         13   -1    0    0    0    0  0.00000000000E+00  0.00000000000E+00  0.14999999963E+04  0.15000000000E+04  0.10566000000E+00 0. -1.
        994   -1    0    0    0    0 -0.00000000000E+00 -0.00000000000E+00  0.11368683772E-12  0.17120000000E+03  0.17120000000E+03 0.  0.
         13    1    1    2    0    0  0.37451691826E+02  0.83950275730E+02  0.42567269989E+03  0.43548540344E+03  0.10566000000E+00 0. -1.
        994    1    1    2    0    0 -0.31210222411E+02 -0.78775180864E+02  0.32449931809E+02  0.19375769708E+03  0.17120000000E+03 0.  0.
        998    1    1    2    0    0 -0.62414694143E+01 -0.51750948661E+01  0.10418773646E+04  0.10419568995E+04  0.10000000000E+02 0. -1.
</event>
<event>
 5    1  0.1072898E-008  0.3937554E+03  0.7957747E-01  0.3393368E+00
         13   -1    0    0    0    0  0.00000000000E+00  0.00000000000E+00  0.14999999963E+04  0.15000000000E+04  0.10566000000E+00 0. -1.
        994   -1    0    0    0    0 -0.00000000000E+00 -0.00000000000E+00  0.11368683772E-12  0.17120000000E+03  0.17120000000E+03 0.  0.
         13    1    1    2    0    0  0.44513795535E+02 -0.50930036552E+02  0.83751712122E+02  0.10765550178E+03  0.10566000000E+00 0. -1.
        994    1    1    2    0    0 -0.39203200007E+02  0.48601038198E+02  0.39139855728E+02  0.18638755353E+03  0.17120000000E+03 0.  0.
        998    1    1    2    0    0 -0.53105955275E+01  0.23289983543E+01  0.13771084284E+04  0.13771569447E+04  0.10000000000E+02 0. -1.
</event>
<event>
 5    1  0.1072898E-008  0.3758128E+03  0.7957747E-01  0.3469595E+00
         13   -1    0    0    0    0  0.00000000000E+00  0.00000000000E+00  0.14999999963E+04  0.15000000000E+04  0.10566000000E+00 0. -1.
        994   -1    0    0    0    0 -0.00000000000E+00 -0.00000000000E+00  0.11368683772E-12  0.17120000000E+03  0.17120000000E+03 0.  0.
         13    1    1    2    0    0  0.23867722261E+02  0.41722335861E+02  0.16554909530E+03  0.17238600754E+03  0.10566000000E+00 0. -1.
        994    1    1    2    0    0 -0.26166891076E+02 -0.37722289739E+02  0.13440407494E+02  0.17775759305E+03  0.17120000000E+03 0.  0.
        998    1    1    2    0    0  0.22991688150E+01 -0.40000461220E+01  0.13210104935E+04  0.13210563994E+04  0.10000000000E+02 0. -1.
</event>
<event>
 5    1  0.1072898E-008  0.3831751E+03  0.7957747E-01  0.3437449E+00
         13   -1    0    0    0    0  0.00000000000E+00  0.00000000000E+00  0.14999999963E+04  0.15000000000E+04  0.10566000000E+00 0. -1.
        994   -1    0    0    0    0 -0.00000000000E+00 -0.00000000000E+00  0.11368683772E-12  0.17120000000E+03  0.17120000000E+03 0.  0.
         13    1    1    2    0    0 -0.47594452554E+01 -0.14339550447E+02  0.43536502761E+02  0.46083763549E+02  0.10566000000E+00 0. -1.
        994    1    1    2    0    0 -0.20212470084E+01  0.14987891337E+02  0.32959280514E+01  0.17189829978E+03  0.17120000000E+03 0.  0.
        998    1    1    2    0    0  0.67806922638E+01 -0.64834089035E+00  0.14531675655E+04  0.14532179367E+04  0.10000000000E+02 0. -1.
</event>
<event>
 5    1  0.1072898E-008  0.3729932E+03  0.7957747E-01  0.3482247E+00
         13   -1    0    0    0    0  0.00000000000E+00  0.00000000000E+00  0.14999999963E+04  0.15000000000E+04  0.10566000000E+00 0. -1.
        994   -1    0    0    0    0 -0.00000000000E+00 -0.00000000000E+00  0.11368683772E-12  0.17120000000E+03  0.17120000000E+03 0.  0.
         13    1    1    2    0    0  0.42481552832E+02  0.41666904401E+02  0.20055018554E+03  0.20919178124E+03  0.10566000000E+00 0. -1.
        994    1    1    2    0    0 -0.38596221261E+02 -0.41935205523E+02  0.18912440342E+02  0.18142588062E+03  0.17120000000E+03 0.  0.
        998    1    1    2    0    0 -0.38853315716E+01  0.26830112223E+00  0.12805373704E+04  0.12805823381E+04  0.10000000000E+02 0. -1.
</event>
<event>
 5    1  0.1072898E-008  0.3797569E+03  0.7957747E-01  0.3452218E+00
         13   -1    0    0    0    0  0.00000000000E+00  0.00000000000E+00  0.14999999963E+04  0.15000000000E+04  0.10566000000E+00 0. -1.
        994   -1    0    0    0    0 -0.00000000000E+00 -0.00000000000E+00  0.11368683772E-12  0.17120000000E+03  0.17120000000E+03 0.  0.
         13    1    1    2    0    0 -0.26604395856E+01  0.10811190715E+02  0.12561425579E+02  0.16785718932E+02  0.10566000000E+00 0. -1.
        994    1    1    2    0    0  0.10211487912E+01 -0.12890917784E+02  0.48155768345E+01  0.17175519872E+03  0.17120000000E+03 0.  0.
        998    1    1    2    0    0  0.16392907943E+01  0.20797270689E+01  0.14826229939E+04  0.14826590824E+04  0.10000000000E+02 0. -1.
</event>
<event>
 5    1  0.1072898E-008  0.3834478E+03  0.7957747E-01  0.3436282E+00
         13   -1    0    0    0    0  0.00000000000E+00  0.00000000000E+00  0.14999999963E+04  0.15000000000E+04  0.10566000000E+00 0. -1.
        994   -1    0    0    0    0 -0.00000000000E+00 -0.00000000000E+00  0.11368683772E-12  0.17120000000E+03  0.17120000000E+03 0.  0.
         13    1    1    2    0    0  0.72693871154E+01  0.11034928025E+02 -0.36090650801E+01  0.13698545190E+02  0.10566000000E+00 0. -1.
        994    1    1    2    0    0 -0.94507606908E+01 -0.10715407073E+02  0.18983774792E+02  0.17284085319E+03  0.17120000000E+03 0.  0.
        998    1    1    2    0    0  0.21813735753E+01 -0.31952095162E+00  0.14846252866E+04  0.14846606016E+04  0.10000000000E+02 0. -1.
</event>
<event>
 5    1  0.1072898E-008  0.3742238E+03  0.7957747E-01  0.3476702E+00
         13   -1    0    0    0    0  0.00000000000E+00  0.00000000000E+00  0.14999999963E+04  0.15000000000E+04  0.10566000000E+00 0.  1.
        994   -1    0    0    0    0 -0.00000000000E+00 -0.00000000000E+00  0.11368683772E-12  0.17120000000E+03  0.17120000000E+03 0.  0.
         13    1    1    2    0    0  0.10452508081E+02  0.14353114628E+02  0.18880500369E+02  0.25918165115E+02  0.10566000000E+00 0.  1.
        994    1    1    2    0    0 -0.10576516632E+02 -0.17226462214E+02  0.84717086007E+01  0.17259728721E+03  0.17120000000E+03 0.  0.
        998    1    1    2    0    0  0.12400855024E+00  0.28733475857E+01  0.14726477873E+04  0.14726845477E+04  0.10000000000E+02 0.  1.
</event>
<event>
 5    1  0.1072898E-008  0.3808672E+03  0.7957747E-01  0.3447391E+00
         13   -1    0    0    0    0  0.00000000000E+00  0.00000000000E+00  0.14999999963E+04  0.15000000000E+04  0.10566000000E+00 0. -1.
        994   -1    0    0    0    0 -0.00000000000E+00 -0.00000000000E+00  0.11368683772E-12  0.17120000000E+03  0.17120000000E+03 0.  0.
         13    1    1    2    0    0  0.42769300350E+02  0.28922430837E+02  0.30180206777E+03  0.30618657602E+03  0.10566000000E+00 0. -1.
        994    1    1    2    0    0 -0.55783741367E+02 -0.52232932163E+01  0.14231513082E+02  0.18069611107E+03  0.17120000000E+03 0.  0.
        998    1    1    2    0    0  0.13014441017E+02 -0.23699137621E+02  0.11839664154E+04  0.11843173129E+04  0.10000000000E+02 0. -1.
</event>
<event>
 5    1  0.1072898E-008  0.3815664E+03  0.7957747E-01  0.3444366E+00
         13   -1    0    0    0    0  0.00000000000E+00  0.00000000000E+00  0.14999999963E+04  0.15000000000E+04  0.10566000000E+00 0.  1.
        994   -1    0    0    0    0 -0.00000000000E+00 -0.00000000000E+00  0.11368683772E-12  0.17120000000E+03  0.17120000000E+03 0.  0.
         13    1    1    2    0    0  0.90239796640E+01  0.49029215104E+01  0.14397906944E+02  0.17685636452E+02  0.10566000000E+00 0.  1.
        994    1    1    2    0    0 -0.54155625344E+01 -0.36484529708E+01  0.34863390647E+01  0.17135995473E+03  0.17120000000E+03 0.  0.
        998    1    1    2    0    0 -0.36084171296E+01 -0.12544685396E+01  0.14821157503E+04  0.14821544088E+04  0.10000000000E+02 0.  1.
</event>
<event>
 5    1  0.1072898E-008  0.3829346E+03  0.7957747E-01  0.3438479E+00
         13   -1    0    0    0    0  0.00000000000E+00  0.00000000000E+00  0.14999999963E+04  0.15000000000E+04  0.10566000000E+00 0.  1.
        994   -1    0    0    0    0 -0.00000000000E+00 -0.00000000000E+00  0.11368683772E-12  0.17120000000E+03  0.17120000000E+03 0.  0.
         13    1    1    2    0    0  0.52019903223E+01  0.86529869332E+01  0.17736669037E+02  0.20409200835E+02  0.10566000000E+00 0.  1.
        994    1    1    2    0    0 -0.55809393664E+01 -0.14096420130E+02  0.34204338565E+01  0.17190402937E+03  0.17120000000E+03 0.  0.
        998    1    1    2    0    0  0.37894904408E+00  0.54434331971E+01  0.14788428934E+04  0.14788867698E+04  0.10000000000E+02 0.  1.
</event>
<event>
 5    1  0.1072898E-008  0.3857169E+03  0.7957747E-01  0.3426637E+00
         13   -1    0    0    0    0  0.00000000000E+00  0.00000000000E+00  0.14999999963E+04  0.15000000000E+04  0.10566000000E+00 0.  1.
        994   -1    0    0    0    0 -0.00000000000E+00 -0.00000000000E+00  0.11368683772E-12  0.17120000000E+03  0.17120000000E+03 0.  0.
         13    1    1    2    0    0  0.33913700039E+01  0.12300088910E+02  0.63904749748E+02  0.65166109152E+02  0.10566000000E+00 0.  1.
        994    1    1    2    0    0  0.15020001138E+01 -0.10258669181E+02  0.16273926832E+01  0.17152138265E+03  0.17120000000E+03 0.  0.
        998    1    1    2    0    0 -0.48933701176E+01 -0.20414197289E+01  0.14344678538E+04  0.14345125082E+04  0.10000000000E+02 0.  1.
</event>
<event>
 5    1  0.1072898E-008  0.3786495E+03  0.7957747E-01  0.3457060E+00
         13   -1    0    0    0    0  0.00000000000E+00  0.00000000000E+00  0.14999999963E+04  0.15000000000E+04  0.10566000000E+00 0.  1.
        994   -1    0    0    0    0 -0.00000000000E+00 -0.00000000000E+00  0.11368683772E-12  0.17120000000E+03  0.17120000000E+03 0.  0.
         13    1    1    2    0    0  0.17565045123E+02  0.52671951527E+02  0.27622446543E+03  0.28174959051E+03  0.10566000000E+00 0.  1.
        994    1    1    2    0    0 -0.17934983912E+02 -0.45816566510E+02  0.12988700385E+02  0.17860282123E+03  0.17120000000E+03 0.  0.
        998    1    1    2    0    0  0.36993878901E+00 -0.68553850175E+01  0.12107868305E+04  0.12108475883E+04  0.10000000000E+02 0.  1.
</event>
<event>
 5    1  0.1072898E-008  0.3790161E+03  0.7957747E-01  0.3455454E+00
         13   -1    0    0    0    0  0.00000000000E+00  0.00000000000E+00  0.14999999963E+04  0.15000000000E+04  0.10566000000E+00 0. -1.
        994   -1    0    0    0    0 -0.00000000000E+00 -0.00000000000E+00  0.11368683772E-12  0.17120000000E+03  0.17120000000E+03 0.  0.
         13    1    1    2    0    0 -0.17686936566E+02  0.11845704842E+02  0.48949230617E+02  0.53377774310E+02  0.10566000000E+00 0. -1.
        994    1    1    2    0    0  0.28909099949E+01 -0.20001055689E+01  0.46721054722E+01  0.17129981422E+03  0.17120000000E+03 0.  0.
        998    1    1    2    0    0  0.14796026571E+02 -0.98455992735E+01  0.14463786602E+04  0.14465224115E+04  0.10000000000E+02 0. -1.
</event>
<event>
 5    1  0.1072898E-008  0.3772921E+03  0.7957747E-01  0.3463035E+00
         13   -1    0    0    0    0  0.00000000000E+00  0.00000000000E+00  0.14999999963E+04  0.15000000000E+04  0.10566000000E+00 0. -1.
        994   -1    0    0    0    0 -0.00000000000E+00 -0.00000000000E+00  0.11368683772E-12  0.17120000000E+03  0.17120000000E+03 0.  0.
         13    1    1    2    0    0  0.58277099739E+01 -0.22109781460E+02  0.43876264320E+02  0.49476685160E+02  0.10566000000E+00 0. -1.
        994    1    1    2    0    0 -0.11621624393E+02  0.22945188835E+02  0.77410476901E+01  0.17329428053E+03  0.17120000000E+03 0.  0.
        998    1    1    2    0    0  0.57939144187E+01 -0.83540737577E+00  0.14483826843E+04  0.14484290343E+04  0.10000000000E+02 0. -1.
</event>
<event>
 5    1  0.1072898E-008  0.3922174E+03  0.7957747E-01  0.3399628E+00
         13   -1    0    0    0    0  0.00000000000E+00  0.00000000000E+00  0.14999999963E+04  0.15000000000E+04  0.10566000000E+00 0. -1.
        994   -1    0    0    0    0 -0.00000000000E+00 -0.00000000000E+00  0.11368683772E-12  0.17120000000E+03  0.17120000000E+03 0.  0.
         13    1    1    2    0    0 -0.31632225656E+02  0.12306628723E+02  0.15677543120E+02  0.37387796576E+02  0.10566000000E+00 0. -1.
        994    1    1    2    0    0 -0.26020532921E+01 -0.51108368723E+02  0.33212205696E+02  0.18174522454E+03  0.17120000000E+03 0.  0.
        998    1    1    2    0    0  0.34234278949E+02  0.38801740000E+02  0.14511102475E+04  0.14520669789E+04  0.10000000000E+02 0. -1.
</event>
<event>
 5    1  0.1072898E-008  0.3819450E+03  0.7957747E-01  0.3442733E+00
         13   -1    0    0    0    0  0.00000000000E+00  0.00000000000E+00  0.14999999963E+04  0.15000000000E+04  0.10566000000E+00 0.  1.
        994   -1    0    0    0    0 -0.00000000000E+00 -0.00000000000E+00  0.11368683772E-12  0.17120000000E+03  0.17120000000E+03 0.  0.
         13    1    1    2    0    0 -0.36139439081E+02 -0.33280018349E+01  0.17970382581E+03  0.18333196892E+03  0.10566000000E+00 0.  1.
        994    1    1    2    0    0  0.39956189991E+02  0.22322561766E+01  0.84922589793E+01  0.17601999474E+03  0.17120000000E+03 0.  0.
        998    1    1    2    0    0 -0.38167509104E+01  0.10957456583E+01  0.13118039115E+04  0.13118480363E+04  0.10000000000E+02 0.  1.
</event>
<event>
 5    1  0.1072898E-008  0.3832105E+03  0.7957747E-01  0.3437297E+00
         13   -1    0    0    0    0  0.00000000000E+00  0.00000000000E+00  0.14999999963E+04  0.15000000000E+04  0.10566000000E+00 0.  1.
        994   -1    0    0    0    0 -0.00000000000E+00 -0.00000000000E+00  0.11368683772E-12  0.17120000000E+03  0.17120000000E+03 0.  0.
         13    1    1    2    0    0 -0.15365906881E+02  0.20822941901E+02  0.12404293678E+03  0.12671372196E+03  0.10566000000E+00 0.  1.
        994    1    1    2    0    0  0.14561662887E+02 -0.19819262934E+02  0.45244776158E+01  0.17301663535E+03  0.17120000000E+03 0.  0.
        998    1    1    2    0    0  0.80424399439E+00 -0.10036789676E+01  0.13714325819E+04  0.13714696427E+04  0.10000000000E+02 0.  0.
</event>
<event>
 5    1  0.1072898E-008  0.3842360E+03  0.7957747E-01  0.3432919E+00
         13   -1    0    0    0    0  0.00000000000E+00  0.00000000000E+00  0.14999999963E+04  0.15000000000E+04  0.10566000000E+00 0.  1.
        994   -1    0    0    0    0 -0.00000000000E+00 -0.00000000000E+00  0.11368683772E-12  0.17120000000E+03  0.17120000000E+03 0.  0.
         13    1    1    2    0    0 -0.15446375215E+02  0.88370696732E+01  0.82850324971E+02  0.84740024897E+02  0.10566000000E+00 0.  1.
        994    1    1    2    0    0  0.67639020686E+00 -0.50945972968E+01  0.20970160395E+01  0.17128995855E+03  0.17120000000E+03 0.  0.
        998    1    1    2    0    0  0.14769985008E+02 -0.37424723764E+01  0.14150526553E+04  0.14151700165E+04  0.10000000000E+02 0.  1.
</event>
<event>
 5    1  0.1072898E-008  0.3842703E+03  0.7957747E-01  0.3432773E+00
         13   -1    0    0    0    0  0.00000000000E+00  0.00000000000E+00  0.14999999963E+04  0.15000000000E+04  0.10566000000E+00 0. -1.
        994   -1    0    0    0    0 -0.00000000000E+00 -0.00000000000E+00  0.11368683772E-12  0.17120000000E+03  0.17120000000E+03 0.  0.
         13    1    1    2    0    0  0.22064046742E+02  0.12842128923E+02  0.13886099179E+03  0.14118827373E+03  0.10566000000E+00 0. -1.
        994    1    1    2    0    0 -0.33865821886E+02 -0.11713133445E+02  0.62372900623E+01  0.17502124207E+03  0.17120000000E+03 0.  0.
        998    1    1    2    0    0  0.11801775144E+02 -0.11289954777E+01  0.13549017144E+04  0.13549904842E+04  0.10000000000E+02 0. -1.
</event>
<event>
 5    1  0.1072898E-008  0.3814778E+03  0.7957747E-01  0.3444749E+00
         13   -1    0    0    0    0  0.00000000000E+00  0.00000000000E+00  0.14999999963E+04  0.15000000000E+04  0.10566000000E+00 0. -1.
        994   -1    0    0    0    0 -0.00000000000E+00 -0.00000000000E+00  0.11368683772E-12  0.17120000000E+03  0.17120000000E+03 0.  0.
         13    1    1    2    0    0 -0.20480078949E+02 -0.30094086791E+02  0.21990864631E+03  0.22290112512E+03  0.10566000000E+00 0. -1.
        994    1    1    2    0    0  0.28606351217E+01  0.64374857572E+01  0.35541102369E+01  0.17138172643E+03  0.17120000000E+03 0.  0.
        998    1    1    2    0    0  0.17619443828E+02  0.23656601034E+02  0.12765372397E+04  0.12769171484E+04  0.10000000000E+02 0. -1.
</event>
<event>
 5    1  0.1072898E-008  0.3708543E+03  0.7957747E-01  0.3491974E+00
         13   -1    0    0    0    0  0.00000000000E+00  0.00000000000E+00  0.14999999963E+04  0.15000000000E+04  0.10566000000E+00 0. -1.
        994   -1    0    0    0    0 -0.00000000000E+00 -0.00000000000E+00  0.11368683772E-12  0.17120000000E+03  0.17120000000E+03 0.  0.
         13    1    1    2    0    0  0.42005216702E+02  0.22720931176E+02  0.11070127493E+03  0.12056310538E+03  0.10566000000E+00 0. -1.
        994    1    1    2    0    0 -0.47966631809E+02 -0.42137148449E+02  0.23010315588E+02  0.18416093959E+03  0.17120000000E+03 0.  0.
        998    1    1    2    0    0  0.59614151066E+01  0.19416217274E+02  0.13662884058E+04  0.13664759550E+04  0.10000000000E+02 0. -1.
</event>
<event>
 5    1  0.1072898E-008  0.3803849E+03  0.7957747E-01  0.3449484E+00
         13   -1    0    0    0    0  0.00000000000E+00  0.00000000000E+00  0.14999999963E+04  0.15000000000E+04  0.10566000000E+00 0. -1.
        994   -1    0    0    0    0 -0.00000000000E+00 -0.00000000000E+00  0.11368683772E-12  0.17120000000E+03  0.17120000000E+03 0.  0.
         13    1    1    2    0    0  0.42864329806E+02 -0.22440440324E+01  0.22549326039E+03  0.22954217074E+03  0.10566000000E+00 0. -1.
        994    1    1    2    0    0 -0.28961187166E+02 -0.68258327066E+01  0.69004529320E+01  0.17390341746E+03  0.17120000000E+03 0.  0.
        998    1    1    2    0    0 -0.13903142640E+02  0.90698767390E+01  0.12676062830E+04  0.12677544118E+04  0.10000000000E+02 0. -1.
</event>
<event>
 5    1  0.1072898E-008  0.3732295E+03  0.7957747E-01  0.3481179E+00
         13   -1    0    0    0    0  0.00000000000E+00  0.00000000000E+00  0.14999999963E+04  0.15000000000E+04  0.10566000000E+00 0. -1.
        994   -1    0    0    0    0 -0.00000000000E+00 -0.00000000000E+00  0.11368683772E-12  0.17120000000E+03  0.17120000000E+03 0.  0.
         13    1    1    2    0    0  0.13925372657E+03 -0.30026424351E+02  0.61840998709E+03  0.63460547573E+03  0.10566000000E+00 0. -1.
        994    1    1    2    0    0 -0.14664393569E+03  0.78888397210E+02  0.10927789968E+03  0.26263838723E+03  0.17120000000E+03 0.  0.
        998    1    1    2    0    0  0.73902091197E+01 -0.48861972859E+02  0.77231210950E+03  0.77395613704E+03  0.10000000000E+02 0. -1.
</event>
<event>
 5    1  0.1072898E-008  0.3749311E+03  0.7957747E-01  0.3473531E+00
         13   -1    0    0    0    0  0.00000000000E+00  0.00000000000E+00  0.14999999963E+04  0.15000000000E+04  0.10566000000E+00 0. -1.
        994   -1    0    0    0    0 -0.00000000000E+00 -0.00000000000E+00  0.11368683772E-12  0.17120000000E+03  0.17120000000E+03 0.  0.
         13    1    1    2    0    0  0.60112481380E+02 -0.49861074809E+02  0.35546525352E+03  0.36394394461E+03  0.10566000000E+00 0. -1.
        994    1    1    2    0    0 -0.55573325605E+02  0.49400929029E+02  0.25750806650E+02  0.18841812639E+03  0.17120000000E+03 0.  0.
        998    1    1    2    0    0 -0.45391557751E+01  0.46014578032E+00  0.11187839361E+04  0.11188379290E+04  0.10000000000E+02 0.  0.
</event>
<event>
 5    1  0.1072898E-008  0.3857342E+03  0.7957747E-01  0.3426564E+00
         13   -1    0    0    0    0  0.00000000000E+00  0.00000000000E+00  0.14999999963E+04  0.15000000000E+04  0.10566000000E+00 0.  1.
        994   -1    0    0    0    0 -0.00000000000E+00 -0.00000000000E+00  0.11368683772E-12  0.17120000000E+03  0.17120000000E+03 0.  0.
         13    1    1    2    0    0 -0.11980154384E+02  0.46320560696E+01  0.64779664048E+02  0.66040866747E+02  0.10566000000E+00 0.  1.
        994    1    1    2    0    0  0.10398238408E+02 -0.20906374384E+01  0.16352271900E+01  0.17153602565E+03  0.17120000000E+03 0.  0.
        998    1    1    2    0    0  0.15819159754E+01 -0.25414186312E+01  0.14335851050E+04  0.14336231076E+04  0.10000000000E+02 0.  1.
</event>
<event>
 5    1  0.1072898E-008  0.3841649E+03  0.7957747E-01  0.3433222E+00
         13   -1    0    0    0    0  0.00000000000E+00  0.00000000000E+00  0.14999999963E+04  0.15000000000E+04  0.10566000000E+00 0. -1.
        994   -1    0    0    0    0 -0.00000000000E+00 -0.00000000000E+00  0.11368683772E-12  0.17120000000E+03  0.17120000000E+03 0.  0.
         13    1    1    2    0    0 -0.17164843812E+02  0.41524718636E+01  0.79683860633E+02  0.81617422743E+02  0.10566000000E+00 0. -1.
        994    1    1    2    0    0  0.24848136003E+01 -0.55076403411E+01  0.21657202467E+01  0.17132028118E+03  0.17120000000E+03 0.  0.
        998    1    1    2    0    0  0.14680030212E+02  0.13551684775E+01  0.14181504154E+04  0.14182622961E+04  0.10000000000E+02 0. -1.
</event>
<event>
 5    1  0.1072898E-008  0.3699031E+03  0.7957747E-01  0.3496336E+00
         13   -1    0    0    0    0  0.00000000000E+00  0.00000000000E+00  0.14999999963E+04  0.15000000000E+04  0.10566000000E+00 0. -1.
        994   -1    0    0    0    0 -0.00000000000E+00 -0.00000000000E+00  0.11368683772E-12  0.17120000000E+03  0.17120000000E+03 0.  0.
         13    1    1    2    0    0 -0.31986946130E+00 -0.10876925721E+02  0.45695761452E+00  0.10891730988E+02  0.10566000000E+00 0. -1.
        994    1    1    2    0    0 -0.77566349266E+01 -0.46181792846E+01  0.11172430749E+02  0.17180150225E+03  0.17120000000E+03 0.  0.
        998    1    1    2    0    0  0.80765043879E+01  0.15495105006E+02  0.14883706079E+04  0.14885067668E+04  0.10000000000E+02 0. -1.
</event>
<event>
 5    1  0.1072898E-008  0.3842518E+03  0.7957747E-01  0.3432852E+00
         13   -1    0    0    0    0  0.00000000000E+00  0.00000000000E+00  0.14999999963E+04  0.15000000000E+04  0.10566000000E+00 0.  1.
        994   -1    0    0    0    0 -0.00000000000E+00 -0.00000000000E+00  0.11368683772E-12  0.17120000000E+03  0.17120000000E+03 0.  0.
         13    1    1    2    0    0  0.73338292977E+01 -0.70825850962E+01  0.25737721509E+02  0.27683741372E+02  0.10566000000E+00 0.  1.
        994    1    1    2    0    0 -0.11973929774E+02 -0.71362040007E+01  0.26428538862E+01  0.17178685945E+03  0.17120000000E+03 0.  0.
        998    1    1    2    0    0  0.46401004762E+01  0.14218789097E+02  0.14716194209E+04  0.14717293992E+04  0.10000000000E+02 0.  1.
</event>
<event>
 5    1  0.1072898E-008  0.3832825E+03  0.7957747E-01  0.3436989E+00
         13   -1    0    0    0    0  0.00000000000E+00  0.00000000000E+00  0.14999999963E+04  0.15000000000E+04  0.10566000000E+00 0.  1.
        994   -1    0    0    0    0 -0.00000000000E+00 -0.00000000000E+00  0.11368683772E-12  0.17120000000E+03  0.17120000000E+03 0.  0.
         13    1    1    2    0    0  0.41865905135E+02  0.51817439331E+01  0.21145533354E+03  0.21562229413E+03  0.10566000000E+00 0.  1.
        994    1    1    2    0    0 -0.81816073877E+02 -0.30795814458E+02  0.28182936750E+02  0.19428322124E+03  0.17120000000E+03 0.  0.
        998    1    1    2    0    0  0.39950168742E+02  0.25614070525E+02  0.12603617260E+04  0.12612944846E+04  0.10000000000E+02 0.  1.
</event>
<event>
 5    1  0.1072898E-008  0.3762003E+03  0.7957747E-01  0.3467872E+00
         13   -1    0    0    0    0  0.00000000000E+00  0.00000000000E+00  0.14999999963E+04  0.15000000000E+04  0.10566000000E+00 0.  1.
        994   -1    0    0    0    0 -0.00000000000E+00 -0.00000000000E+00  0.11368683772E-12  0.17120000000E+03  0.17120000000E+03 0.  0.
         13    1    1    2    0    0 -0.87335576339E+01 -0.83659667997E+01  0.96821415603E+01  0.15492561398E+02  0.10566000000E+00 0.  1.
        994    1    1    2    0    0 -0.10592496948E+02 -0.30328861302E+00  0.64439205196E+01  0.17164864429E+03  0.17120000000E+03 0.  0.
        998    1    1    2    0    0  0.19326054582E+02  0.86692554127E+01  0.14838739342E+04  0.14840587943E+04  0.10000000000E+02 0.  1.
</event>
<event>
 5    1  0.1072898E-008  0.3706890E+03  0.7957747E-01  0.3492730E+00
         13   -1    0    0    0    0  0.00000000000E+00  0.00000000000E+00  0.14999999963E+04  0.15000000000E+04  0.10566000000E+00 0. -1.
        994   -1    0    0    0    0 -0.00000000000E+00 -0.00000000000E+00  0.11368683772E-12  0.17120000000E+03  0.17120000000E+03 0.  0.
         13    1    1    2    0    0 -0.47669836786E+02  0.12068999082E+02  0.12700995457E+03  0.13619696694E+03  0.10566000000E+00 0. -1.
        994    1    1    2    0    0 -0.23801760496E+02 -0.22463914610E+01  0.13309162898E+02  0.17337284647E+03  0.17120000000E+03 0.  0.
        998    1    1    2    0    0  0.71471597281E+02 -0.98226076211E+01  0.13596808788E+04  0.13616301866E+04  0.10000000000E+02 0. -1.
</event>
<event>
 5    1  0.1072898E-008  0.3832740E+03  0.7957747E-01  0.3437025E+00
         13   -1    0    0    0    0  0.00000000000E+00  0.00000000000E+00  0.14999999963E+04  0.15000000000E+04  0.10566000000E+00 0. -1.
        994   -1    0    0    0    0 -0.00000000000E+00 -0.00000000000E+00  0.11368683772E-12  0.17120000000E+03  0.17120000000E+03 0.  0.
         13    1    1    2    0    0  0.34922322156E+01  0.21610681828E+02  0.10918774190E+03  0.11136063667E+03  0.10566000000E+00 0. -1.
        994    1    1    2    0    0  0.30445944843E+01  0.52335500106E+01  0.26107395364E+01  0.17132692597E+03  0.17120000000E+03 0.  0.
        998    1    1    2    0    0 -0.65368266999E+01 -0.26844231838E+02  0.13882015148E+04  0.13885124374E+04  0.10000000000E+02 0. -1.
</event>
<event>
 5    1  0.1072898E-008  0.4054123E+03  0.7957747E-01  0.3347461E+00
         13   -1    0    0    0    0  0.00000000000E+00  0.00000000000E+00  0.14999999963E+04  0.15000000000E+04  0.10566000000E+00 0.  1.
        994   -1    0    0    0    0 -0.00000000000E+00 -0.00000000000E+00  0.11368683772E-12  0.17120000000E+03  0.17120000000E+03 0.  0.
         13    1    1    2    0    0  0.13774873497E+03  0.59849358925E+02  0.18755029876E+03  0.24027439622E+03  0.10566000000E+00 0.  1.
        994    1    1    2    0    0 -0.20008394912E+03 -0.11845648980E+03  0.30574196730E+03  0.42053907933E+03  0.17120000000E+03 0.  0.
        998    1    1    2    0    0  0.62335214155E+02  0.58607130875E+02  0.10067077302E+04  0.10103865245E+04  0.10000000000E+02 0.  1.
</event>
<event>
 5    1  0.1072898E-008  0.4127229E+03  0.7957747E-01  0.3319983E+00
         13   -1    0    0    0    0  0.00000000000E+00  0.00000000000E+00  0.14999999963E+04  0.15000000000E+04  0.10566000000E+00 0.  1.
        994   -1    0    0    0    0 -0.00000000000E+00 -0.00000000000E+00  0.11368683772E-12  0.17120000000E+03  0.17120000000E+03 0.  0.
         13    1    1    2    0    0 -0.34769983704E+02  0.24788935574E+01  0.25513452556E+01  0.34951640973E+02  0.10566000000E+00 0.  1.
        994    1    1    2    0    0  0.33473343560E+02 -0.39436507619E+01  0.40320185040E+02  0.17908426629E+03  0.17120000000E+03 0.  0.
        998    1    1    2    0    0  0.12966401438E+01  0.14647572045E+01  0.14571284660E+04  0.14571640927E+04  0.10000000000E+02 0.  1.
</event>
<event>
 5    1  0.1072898E-008  0.3845050E+03  0.7957747E-01  0.3431774E+00
         13   -1    0    0    0    0  0.00000000000E+00  0.00000000000E+00  0.14999999963E+04  0.15000000000E+04  0.10566000000E+00 0. -1.
        994   -1    0    0    0    0 -0.00000000000E+00 -0.00000000000E+00  0.11368683772E-12  0.17120000000E+03  0.17120000000E+03 0.  0.
         13    1    1    2    0    0  0.15227290220E+02 -0.51472397892E+01  0.77703730588E+02  0.79348883774E+02  0.10566000000E+00 0. -1.
        994    1    1    2    0    0  0.12089805504E+02  0.10766113365E+02  0.27398155583E+01  0.17198552027E+03  0.17120000000E+03 0.  0.
        998    1    1    2    0    0 -0.27317095724E+02 -0.56188735755E+01  0.14195564501E+04  0.14198655960E+04  0.10000000000E+02 0. -1.
</event>
<event>
 5    1  0.1072898E-008  0.3761658E+03  0.7957747E-01  0.3468025E+00
         13   -1    0    0    0    0  0.00000000000E+00  0.00000000000E+00  0.14999999963E+04  0.15000000000E+04  0.10566000000E+00 0. -1.
        994   -1    0    0    0    0 -0.00000000000E+00 -0.00000000000E+00  0.11368683772E-12  0.17120000000E+03  0.17120000000E+03 0.  0.
         13    1    1    2    0    0 -0.30891216408E+02  0.47361574393E+02  0.25850895123E+03  0.26462100259E+03  0.10566000000E+00 0. -1.
        994    1    1    2    0    0  0.19988842395E+02 -0.27098544303E+02  0.99300711863E+01  0.17476249952E+03  0.17120000000E+03 0.  0.
        998    1    1    2    0    0  0.10902374013E+02 -0.20263030090E+02  0.12315609739E+04  0.12318164979E+04  0.10000000000E+02 0. -1.
</event>
<event>
 5    1  0.1072898E-008  0.3850345E+03  0.7957747E-01  0.3429526E+00
         13   -1    0    0    0    0  0.00000000000E+00  0.00000000000E+00  0.14999999963E+04  0.15000000000E+04  0.10566000000E+00 0. -1.
        994   -1    0    0    0    0 -0.00000000000E+00 -0.00000000000E+00  0.11368683772E-12  0.17120000000E+03  0.17120000000E+03 0.  0.
         13    1    1    2    0    0 -0.12295650507E+02  0.16216804236E+01  0.47296378259E+02  0.48895515431E+02  0.10566000000E+00 0. -1.
        994    1    1    2    0    0  0.95215260119E+01 -0.10829591663E+01  0.19150348853E+01  0.17147868560E+03  0.17120000000E+03 0.  0.
        998    1    1    2    0    0  0.27741244955E+01 -0.53872125729E+00  0.14507885831E+04  0.14508257990E+04  0.10000000000E+02 0. -1.
</event>
<event>
 5    1  0.1072898E-008  0.3765223E+03  0.7957747E-01  0.3466442E+00
         13   -1    0    0    0    0  0.00000000000E+00  0.00000000000E+00  0.14999999963E+04  0.15000000000E+04  0.10566000000E+00 0. -1.
        994   -1    0    0    0    0 -0.00000000000E+00 -0.00000000000E+00  0.11368683772E-12  0.17120000000E+03  0.17120000000E+03 0.  0.
         13    1    1    2    0    0  0.38233425434E+02  0.65876089044E+02  0.39825722978E+03  0.40547538293E+03  0.10566000000E+00 0. -1.
        994    1    1    2    0    0 -0.36751811501E+02 -0.54831386247E+02  0.20779355160E+02  0.18465751587E+03  0.17120000000E+03 0.  0.
        998    1    1    2    0    0 -0.14816139328E+01 -0.11044702797E+02  0.10809634113E+04  0.10810671012E+04  0.10000000000E+02 0. -1.
</event>
<event>
 5    1  0.1072898E-008  0.3854868E+03  0.7957747E-01  0.3427610E+00
         13   -1    0    0    0    0  0.00000000000E+00  0.00000000000E+00  0.14999999963E+04  0.15000000000E+04  0.10566000000E+00 0.  1.
        994   -1    0    0    0    0 -0.00000000000E+00 -0.00000000000E+00  0.11368683772E-12  0.17120000000E+03  0.17120000000E+03 0.  0.
         13    1    1    2    0    0  0.11359574140E+02  0.62987122055E+01  0.62084843498E+02  0.63429115210E+02  0.10566000000E+00 0.  1.
        994    1    1    2    0    0 -0.60610080876E+01 -0.16665335803E+01  0.15184086570E+01  0.17132209057E+03  0.17120000000E+03 0.  0.
        998    1    1    2    0    0 -0.52985660525E+01 -0.46321786252E+01  0.14363967441E+04  0.14364487942E+04  0.10000000000E+02 0.  1.
</event>
<event>
 5    1  0.1072898E-008  0.3855744E+03  0.7957747E-01  0.3427240E+00
         13   -1    0    0    0    0  0.00000000000E+00  0.00000000000E+00  0.14999999963E+04  0.15000000000E+04  0.10566000000E+00 0. -1.
        994   -1    0    0    0    0 -0.00000000000E+00 -0.00000000000E+00  0.11368683772E-12  0.17120000000E+03  0.17120000000E+03 0.  0.
         13    1    1    2    0    0  0.10506526825E+02 -0.11042666893E+01  0.40367797128E+02  0.41727409695E+02  0.10566000000E+00 0. -1.
        994    1    1    2    0    0 -0.13476580601E+02 -0.47038100562E+01  0.20143332644E+01  0.17180582526E+03  0.17120000000E+03 0.  0.
        998    1    1    2    0    0  0.29700537757E+01  0.58080767455E+01  0.14576178659E+04  0.14576667650E+04  0.10000000000E+02 0. -1.
</event>
<event>
 5    1  0.1072898E-008  0.3842905E+03  0.7957747E-01  0.3432687E+00
         13   -1    0    0    0    0  0.00000000000E+00  0.00000000000E+00  0.14999999963E+04  0.15000000000E+04  0.10566000000E+00 0. -1.
        994   -1    0    0    0    0 -0.00000000000E+00 -0.00000000000E+00  0.11368683772E-12  0.17120000000E+03  0.17120000000E+03 0.  0.
         13    1    1    2    0    0 -0.17093494591E+02  0.14952495981E+02  0.12881365578E+03  0.13080035846E+03  0.10566000000E+00 0. -1.
        994    1    1    2    0    0  0.12886922169E+02 -0.78415938024E+01  0.27332360637E+01  0.17188506025E+03  0.17120000000E+03 0.  0.
        998    1    1    2    0    0  0.42065724228E+01 -0.71109021784E+01  0.13684531044E+04  0.13685145813E+04  0.10000000000E+02 0. -1.
</event>
<event>
 5    1  0.1072898E-008  0.3738802E+03  0.7957747E-01  0.3478246E+00
         13   -1    0    0    0    0  0.00000000000E+00  0.00000000000E+00  0.14999999963E+04  0.15000000000E+04  0.10566000000E+00 0. -1.
        994   -1    0    0    0    0 -0.00000000000E+00 -0.00000000000E+00  0.11368683772E-12  0.17120000000E+03  0.17120000000E+03 0.  0.
         13    1    1    2    0    0 -0.52971945544E+02  0.36435865609E+02  0.25613855814E+03  0.26408440213E+03  0.10566000000E+00 0. -1.
        994    1    1    2    0    0  0.40552182348E+02 -0.32677702408E+02  0.16566619277E+02  0.17971144817E+03  0.17120000000E+03 0.  0.
        998    1    1    2    0    0  0.12419763196E+02 -0.37581632007E+01  0.12272948189E+04  0.12274041497E+04  0.10000000000E+02 0. -1.
</event>
<event>
 5    1  0.1072898E-008  0.2116206E+03  0.7957747E-01  0.4838213E+00
         13   -1    0    0    0    0  0.00000000000E+00  0.00000000000E+00  0.14999999963E+04  0.15000000000E+04  0.10566000000E+00 0. -1.
        994   -1    0    0    0    0 -0.00000000000E+00 -0.00000000000E+00  0.11368683772E-12  0.17120000000E+03  0.17120000000E+03 0.  0.
         13    1    1    2    0    0  0.23962530109E+02 -0.11857517825E+03  0.69995932524E+02  0.13976307624E+03  0.10566000000E+00 0. -1.
        994    1    1    2    0    0 -0.33071630455E+02  0.11034246184E+03  0.15942306850E+03  0.26075725569E+03  0.17120000000E+03 0.  0.
        998    1    1    2    0    0  0.91091003458E+01  0.82327164169E+01  0.12705809953E+04  0.12706796681E+04  0.10000000000E+02 0.  0.
</event>
<event>
 5    1  0.1072898E-008  0.3697068E+03  0.7957747E-01  0.3497240E+00
         13   -1    0    0    0    0  0.00000000000E+00  0.00000000000E+00  0.14999999963E+04  0.15000000000E+04  0.10566000000E+00 0.  1.
        994   -1    0    0    0    0 -0.00000000000E+00 -0.00000000000E+00  0.11368683772E-12  0.17120000000E+03  0.17120000000E+03 0.  0.
         13    1    1    2    0    0 -0.49531095048E+02 -0.19861733497E+02  0.15018098073E+03  0.15938053825E+03  0.10566000000E+00 0.  1.
        994    1    1    2    0    0  0.85382415313E+01 -0.29849616775E+02  0.14157594137E+02  0.17456740435E+03  0.17120000000E+03 0.  0.
        998    1    1    2    0    0  0.40992853517E+02  0.49711350272E+02  0.13356614214E+04  0.13372520574E+04  0.10000000000E+02 0.  1.
</event>
<event>
 5    1  0.1286200E-008  0.3859639E+03  0.7957747E-01  0.3425595E+00
         13   -1    0    0    0    0  0.00000000000E+00  0.00000000000E+00  0.14999999963E+04  0.15000000000E+04  0.10566000000E+00 0.  1.
        994   -1    0    0    0    0 -0.00000000000E+00 -0.00000000000E+00  0.11368683772E-12  0.17120000000E+03  0.17120000000E+03 0.  0.
         13    1    1    2    0    0 -0.13670457162E+02 -0.44039725029E+01  0.77445403203E+02  0.78765969899E+02  0.10566000000E+00 0.  1.
        994    1    1    2    0    0  0.20304708440E+02  0.35842807340E+02  0.67356209251E+01  0.17621519972E+03  0.17120000000E+03 0.  0.
        998    1    1    2    0    0 -0.66342512782E+01 -0.31438834838E+02  0.14158189722E+04  0.14162188304E+04  0.10000000000E+02 0.  1.
</event>
<event>
 5    1  0.1072898E-008  0.3714978E+03  0.7957747E-01  0.3489035E+00
         13   -1    0    0    0    0  0.00000000000E+00  0.00000000000E+00  0.14999999963E+04  0.15000000000E+04  0.10566000000E+00 0. -1.
        994   -1    0    0    0    0 -0.00000000000E+00 -0.00000000000E+00  0.11368683772E-12  0.17120000000E+03  0.17120000000E+03 0.  0.
         13    1    1    2    0    0 -0.21708575916E+01 -0.11984408948E+02  0.48189155802E+01  0.13098541595E+02  0.10566000000E+00 0. -1.
        994    1    1    2    0    0  0.39730802277E+01  0.96277518986E+01  0.88615152295E+01  0.17174529229E+03  0.17120000000E+03 0.  0.
        998    1    1    2    0    0 -0.18022226361E+01  0.23566570494E+01  0.14863195655E+04  0.14863561661E+04  0.10000000000E+02 0. -1.
</event>
<event>
 5    1  0.1072898E-008  0.3838559E+03  0.7957747E-01  0.3434539E+00
         13   -1    0    0    0    0  0.00000000000E+00  0.00000000000E+00  0.14999999963E+04  0.15000000000E+04  0.10566000000E+00 0.  1.
        994   -1    0    0    0    0 -0.00000000000E+00 -0.00000000000E+00  0.11368683772E-12  0.17120000000E+03  0.17120000000E+03 0.  0.
         13    1    1    2    0    0  0.15825257518E+02 -0.13956574441E+01  0.58484890764E+02  0.60604292314E+02  0.10566000000E+00 0.  1.
        994    1    1    2    0    0 -0.52754485919E+01 -0.10707102119E+01  0.22948969415E+01  0.17129998053E+03  0.17120000000E+03 0.  0.
        998    1    1    2    0    0 -0.10549808927E+02  0.24663676560E+01  0.14392202086E+04  0.14392957272E+04  0.10000000000E+02 0.  1.
</event>
<event>
 5    1  0.1072898E-008  0.3827523E+03  0.7957747E-01  0.3439261E+00
         13   -1    0    0    0    0  0.00000000000E+00  0.00000000000E+00  0.14999999963E+04  0.15000000000E+04  0.10566000000E+00 0. -1.
        994   -1    0    0    0    0 -0.00000000000E+00 -0.00000000000E+00  0.11368683772E-12  0.17120000000E+03  0.17120000000E+03 0.  0.
         13    1    1    2    0    0  0.14660521482E+01 -0.39728241482E+02  0.23382660677E+03  0.23718215717E+03  0.10566000000E+00 0. -1.
        994    1    1    2    0    0 -0.32999660705E+01  0.44462462717E+02  0.93634646134E+01  0.17715788110E+03  0.17120000000E+03 0.  0.
        998    1    1    2    0    0  0.18339139223E+01 -0.47342212347E+01  0.12568099249E+04  0.12568599617E+04  0.10000000000E+02 0. -1.
</event>
<event>
 5    1  0.1230577E-008  0.3860166E+03  0.7957747E-01  0.3425372E+00
         13   -1    0    0    0    0  0.00000000000E+00  0.00000000000E+00  0.14999999963E+04  0.15000000000E+04  0.10566000000E+00 0.  1.
        994   -1    0    0    0    0 -0.00000000000E+00 -0.00000000000E+00  0.11368683772E-12  0.17120000000E+03  0.17120000000E+03 0.  0.
         13    1    1    2    0    0 -0.69993403259E+01 -0.91491925877E+01  0.57592783558E+02  0.58733622159E+02  0.10566000000E+00 0.  1.
        994    1    1    2    0    0  0.11423491437E+02  0.71767243622E+01  0.17230509869E+01  0.17173936775E+03  0.17120000000E+03 0.  0.
        998    1    1    2    0    0 -0.44241511109E+01  0.19724682255E+01  0.14406841617E+04  0.14407270101E+04  0.10000000000E+02 0.  1.
</event>
<event>
 5    1  0.1072898E-008  0.3787826E+03  0.7957747E-01  0.3456476E+00
         13   -1    0    0    0    0  0.00000000000E+00  0.00000000000E+00  0.14999999963E+04  0.15000000000E+04  0.10566000000E+00 0. -1.
        994   -1    0    0    0    0 -0.00000000000E+00 -0.00000000000E+00  0.11368683772E-12  0.17120000000E+03  0.17120000000E+03 0.  0.
         13    1    1    2    0    0  0.14358253739E+03  0.20844673052E+03  0.10173317353E+04  0.10483462478E+04  0.10566000000E+00 0. -1.
        994    1    1    2    0    0 -0.14147577501E+03 -0.21023715929E+03  0.26419135848E+03  0.40413063724E+03  0.17120000000E+03 0.  0.
        998    1    1    2    0    0 -0.21067623799E+01  0.17904287706E+01  0.21847690254E+03  0.21872311498E+03  0.10000000000E+02 0. -1.
</event>
<event>
 5    1  0.1072898E-008  0.3807859E+03  0.7957747E-01  0.3447744E+00
         13   -1    0    0    0    0  0.00000000000E+00  0.00000000000E+00  0.14999999963E+04  0.15000000000E+04  0.10566000000E+00 0. -1.
        994   -1    0    0    0    0 -0.00000000000E+00 -0.00000000000E+00  0.11368683772E-12  0.17120000000E+03  0.17120000000E+03 0.  0.
         13    1    1    2    0    0 -0.16992949743E+02  0.23848460186E+02  0.12306297387E+03  0.12649907548E+03  0.10566000000E+00 0. -1.
        994    1    1    2    0    0  0.19125689121E+01 -0.37573020962E+01  0.37962542583E+01  0.17129397767E+03  0.17120000000E+03 0.  0.
        998    1    1    2    0    0  0.15080380831E+02 -0.20091158090E+02  0.13731407681E+04  0.13734069469E+04  0.10000000000E+02 0. -1.
</event>
<event>
 5    1  0.1072898E-008  0.3777286E+03  0.7957747E-01  0.3461109E+00
         13   -1    0    0    0    0  0.00000000000E+00  0.00000000000E+00  0.14999999963E+04  0.15000000000E+04  0.10566000000E+00 0.  1.
        994   -1    0    0    0    0 -0.00000000000E+00 -0.00000000000E+00  0.11368683772E-12  0.17120000000E+03  0.17120000000E+03 0.  0.
         13    1    1    2    0    0  0.16057755338E+02 -0.27182264883E+01  0.22722668357E+02  0.27956592836E+02  0.10566000000E+00 0.  1.
        994    1    1    2    0    0 -0.13243721094E+02  0.52959708187E+01  0.59696840234E+01  0.17189683122E+03  0.17120000000E+03 0.  0.
        998    1    1    2    0    0 -0.28140342440E+01 -0.25777443305E+01  0.14713076439E+04  0.14713465759E+04  0.10000000000E+02 0.  1.
</event>
<event>
 5    1  0.1072898E-008  0.3840693E+03  0.7957747E-01  0.3433629E+00
         13   -1    0    0    0    0  0.00000000000E+00  0.00000000000E+00  0.14999999963E+04  0.15000000000E+04  0.10566000000E+00 0.  1.
        994   -1    0    0    0    0 -0.00000000000E+00 -0.00000000000E+00  0.11368683772E-12  0.17120000000E+03  0.17120000000E+03 0.  0.
         13    1    1    2    0    0  0.99148052975E+01  0.10252074010E+02  0.46924522117E+02  0.49044167090E+02  0.10566000000E+00 0.  1.
        994    1    1    2    0    0 -0.13319971043E+01 -0.19453629947E+02  0.33481331900E+01  0.17233939750E+03  0.17120000000E+03 0.  0.
        998    1    1    2    0    0 -0.85828081932E+01  0.92015559370E+01  0.14497273410E+04  0.14498164354E+04  0.10000000000E+02 0.  1.
</event>
<event>
 5    1  0.1072898E-008  0.3800174E+03  0.7957747E-01  0.3451083E+00
         13   -1    0    0    0    0  0.00000000000E+00  0.00000000000E+00  0.14999999963E+04  0.15000000000E+04  0.10566000000E+00 0.  1.
        994   -1    0    0    0    0 -0.00000000000E+00 -0.00000000000E+00  0.11368683772E-12  0.17120000000E+03  0.17120000000E+03 0.  0.
         13    1    1    2    0    0 -0.30252597282E+02 -0.41954547249E+02  0.29229414062E+03  0.29683544176E+03  0.10566000000E+00 0.  1.
        994    1    1    2    0    0  0.20712407517E+02  0.34935335842E+02  0.96579099645E+01  0.17621633506E+03  0.17120000000E+03 0.  0.
        998    1    1    2    0    0  0.95401897643E+01  0.70192114077E+01  0.11980479457E+04  0.11981482232E+04  0.10000000000E+02 0.  1.
</event>
<event>
 5    1  0.1072898E-008  0.3696489E+03  0.7957747E-01  0.3497506E+00
         13   -1    0    0    0    0  0.00000000000E+00  0.00000000000E+00  0.14999999963E+04  0.15000000000E+04  0.10566000000E+00 0.  1.
        994   -1    0    0    0    0 -0.00000000000E+00 -0.00000000000E+00  0.11368683772E-12  0.17120000000E+03  0.17120000000E+03 0.  0.
         13    1    1    2    0    0 -0.48965291133E+02  0.56401359502E+01  0.11882278674E+03  0.12864010526E+03  0.10566000000E+00 0.  1.
        994    1    1    2    0    0  0.38563858386E+02 -0.49734732644E+02  0.23291894944E+02  0.18388221006E+03  0.17120000000E+03 0.  0.
        998    1    1    2    0    0  0.10401432746E+02  0.44094596694E+02  0.13578853146E+04  0.13586776847E+04  0.10000000000E+02 0.  1.
</event>
<event>
 5    1  0.1072898E-008  0.3850420E+03  0.7957747E-01  0.3429494E+00
         13   -1    0    0    0    0  0.00000000000E+00  0.00000000000E+00  0.14999999963E+04  0.15000000000E+04  0.10566000000E+00 0.  1.
        994   -1    0    0    0    0 -0.00000000000E+00 -0.00000000000E+00  0.11368683772E-12  0.17120000000E+03  0.17120000000E+03 0.  0.
         13    1    1    2    0    0 -0.49407571767E+01 -0.96418249112E+01  0.34714835975E+02  0.36366287546E+02  0.10566000000E+00 0.  1.
        994    1    1    2    0    0  0.44305761775E+02 -0.24845746063E+01  0.81113207247E+01  0.17704351770E+03  0.17120000000E+03 0.  0.
        998    1    1    2    0    0 -0.39365004598E+02  0.12126399518E+02  0.14571738396E+04  0.14577901947E+04  0.10000000000E+02 0.  1.
</event>
<event>
 5    1  0.1072898E-008  0.3684338E+03  0.7957747E-01  0.3503120E+00
         13   -1    0    0    0    0  0.00000000000E+00  0.00000000000E+00  0.14999999963E+04  0.15000000000E+04  0.10566000000E+00 0. -1.
        994   -1    0    0    0    0 -0.00000000000E+00 -0.00000000000E+00  0.11368683772E-12  0.17120000000E+03  0.17120000000E+03 0.  0.
         13    1    1    2    0    0 -0.13015495074E+02 -0.39524081639E+01  0.44807099220E+01  0.14321751561E+02  0.10566000000E+00 0. -1.
        994    1    1    2    0    0  0.12756316661E+02  0.27218906092E+01  0.10704790707E+02  0.17202954644E+03  0.17120000000E+03 0.  0.
        998    1    1    2    0    0  0.25917841331E+00  0.12305175547E+01  0.14848144956E+04  0.14848487020E+04  0.10000000000E+02 0. -1.
</event>
<event>
 5    1  0.1072898E-008  0.3798569E+03  0.7957747E-01  0.3451782E+00
         13   -1    0    0    0    0  0.00000000000E+00  0.00000000000E+00  0.14999999963E+04  0.15000000000E+04  0.10566000000E+00 0.  1.
        994   -1    0    0    0    0 -0.00000000000E+00 -0.00000000000E+00  0.11368683772E-12  0.17120000000E+03  0.17120000000E+03 0.  0.
         13    1    1    2    0    0  0.85884575761E+01 -0.89552070378E+01  0.16524139991E+02  0.20664358280E+02  0.10566000000E+00 0.  1.
        994    1    1    2    0    0 -0.79810182374E+01  0.42232414294E+01  0.44781473282E+01  0.17149643210E+03  0.17120000000E+03 0.  0.
        998    1    1    2    0    0 -0.60743933875E+00  0.47319656084E+01  0.14789977090E+04  0.14790392096E+04  0.10000000000E+02 0.  1.
</event>
<event>
 5    1  0.1072898E-008  0.3933512E+03  0.7957747E-01  0.3395008E+00
         13   -1    0    0    0    0  0.00000000000E+00  0.00000000000E+00  0.14999999963E+04  0.15000000000E+04  0.10566000000E+00 0.  1.
        994   -1    0    0    0    0 -0.00000000000E+00 -0.00000000000E+00  0.11368683772E-12  0.17120000000E+03  0.17120000000E+03 0.  0.
         13    1    1    2    0    0 -0.34481281712E+02 -0.20602749373E+02  0.24603315088E+02  0.47103782731E+02  0.10566000000E+00 0.  1.
        994    1    1    2    0    0  0.22889229325E+02  0.20671673764E+02  0.27497185951E+02  0.17611578620E+03  0.17120000000E+03 0.  0.
        998    1    1    2    0    0  0.11592052387E+02 -0.68924390625E-01  0.14478994952E+04  0.14479804311E+04  0.10000000000E+02 0.  1.
</event>
<event>
 5    1  0.1072898E-008  0.3850246E+03  0.7957747E-01  0.3429568E+00
         13   -1    0    0    0    0  0.00000000000E+00  0.00000000000E+00  0.14999999963E+04  0.15000000000E+04  0.10566000000E+00 0. -1.
        994   -1    0    0    0    0 -0.00000000000E+00 -0.00000000000E+00  0.11368683772E-12  0.17120000000E+03  0.17120000000E+03 0.  0.
         13    1    1    2    0    0 -0.15454674012E+01  0.16776758822E+02  0.86255167563E+02  0.87885227436E+02  0.10566000000E+00 0. -1.
        994    1    1    2    0    0 -0.22115169249E+01 -0.13582348601E+02  0.22408904241E+01  0.17176679711E+03  0.17120000000E+03 0.  0.
        998    1    1    2    0    0  0.37569843261E+01 -0.31944102210E+01  0.14115039383E+04  0.14115479755E+04  0.10000000000E+02 0. -1.
</event>
<event>
 5    1  0.1072898E-008  0.3848980E+03  0.7957747E-01  0.3430105E+00
         13   -1    0    0    0    0  0.00000000000E+00  0.00000000000E+00  0.14999999963E+04  0.15000000000E+04  0.10566000000E+00 0.  1.
        994   -1    0    0    0    0 -0.00000000000E+00 -0.00000000000E+00  0.11368683772E-12  0.17120000000E+03  0.17120000000E+03 0.  0.
         13    1    1    2    0    0 -0.82123196894E+00  0.13782999783E+02  0.56729518393E+02  0.58385742490E+02  0.10566000000E+00 0.  1.
        994    1    1    2    0    0 -0.60872412361E+01 -0.93255657526E+01  0.20889086638E+01  0.17157454421E+03  0.17120000000E+03 0.  0.
        998    1    1    2    0    0  0.69084732051E+01 -0.44574340300E+01  0.14411815692E+04  0.14412397133E+04  0.10000000000E+02 0.  1.
</event>
<event>
 5    1  0.1072898E-008  0.3904458E+03  0.7957747E-01  0.3406899E+00
         13   -1    0    0    0    0  0.00000000000E+00  0.00000000000E+00  0.14999999963E+04  0.15000000000E+04  0.10566000000E+00 0.  1.
        994   -1    0    0    0    0 -0.00000000000E+00 -0.00000000000E+00  0.11368683772E-12  0.17120000000E+03  0.17120000000E+03 0.  0.
         13    1    1    2    0    0  0.52983254303E+01  0.15755714564E+02 -0.35766011996E+01  0.17003471233E+02  0.10566000000E+00 0.  1.
        994    1    1    2    0    0  0.25961160577E+02 -0.10254302503E+01  0.24735602697E+02  0.17491804769E+03  0.17120000000E+03 0.  0.
        998    1    1    2    0    0 -0.31259486007E+02 -0.14730284314E+02  0.14788409948E+04  0.14792784811E+04  0.10000000000E+02 0.  1.
</event>
<event>
 5    1  0.1072898E-008  0.3765845E+03  0.7957747E-01  0.3466166E+00
         13   -1    0    0    0    0  0.00000000000E+00  0.00000000000E+00  0.14999999963E+04  0.15000000000E+04  0.10566000000E+00 0. -1.
        994   -1    0    0    0    0 -0.00000000000E+00 -0.00000000000E+00  0.11368683772E-12  0.17120000000E+03  0.17120000000E+03 0.  0.
         13    1    1    2    0    0 -0.22000921196E+02 -0.21338785296E+02  0.69529610573E+02  0.75985276218E+02  0.10566000000E+00 0. -1.
        994    1    1    2    0    0  0.48445577716E+02  0.20974829108E+02  0.15348969699E+02  0.17981086821E+03  0.17120000000E+03 0.  0.
        998    1    1    2    0    0 -0.26444656520E+02  0.36395618808E+00  0.14151214160E+04  0.14154038556E+04  0.10000000000E+02 0. -1.
</event>
<event>
 5    1  0.1072898E-008  0.3843544E+03  0.7957747E-01  0.3432415E+00
         13   -1    0    0    0    0  0.00000000000E+00  0.00000000000E+00  0.14999999963E+04  0.15000000000E+04  0.10566000000E+00 0.  1.
        994   -1    0    0    0    0 -0.00000000000E+00 -0.00000000000E+00  0.11368683772E-12  0.17120000000E+03  0.17120000000E+03 0.  0.
         13    1    1    2    0    0  0.47718559706E+01 -0.11953700250E+02  0.41299260493E+02  0.43258544132E+02  0.10566000000E+00 0.  1.
        994    1    1    2    0    0 -0.79242406206E+01  0.10427767671E+02  0.25165064580E+01  0.17171867904E+03  0.17120000000E+03 0.  0.
        998    1    1    2    0    0  0.31523846500E+01  0.15259325788E+01  0.14561842293E+04  0.14562227768E+04  0.10000000000E+02 0.  1.
</event>
<event>
 5    1  0.1072898E-008  0.3840339E+03  0.7957747E-01  0.3433780E+00
         13   -1    0    0    0    0  0.00000000000E+00  0.00000000000E+00  0.14999999963E+04  0.15000000000E+04  0.10566000000E+00 0.  1.
        994   -1    0    0    0    0 -0.00000000000E+00 -0.00000000000E+00  0.11368683772E-12  0.17120000000E+03  0.17120000000E+03 0.  0.
         13    1    1    2    0    0 -0.11221970326E+03  0.14875395506E+03  0.10735203759E+04  0.10895719387E+04  0.10566000000E+00 0.  1.
        994    1    1    2    0    0  0.13300841731E+03 -0.14934276665E+03  0.14763030183E+03  0.30182552418E+03  0.17120000000E+03 0.  0.
        998    1    1    2    0    0 -0.20788714042E+02  0.58881159639E+00  0.27884931857E+03  0.27980253716E+03  0.10000000000E+02 0. -1.
</event>
<event>
 5    1  0.1072898E-008  0.3848159E+03  0.7957747E-01  0.3430454E+00
         13   -1    0    0    0    0  0.00000000000E+00  0.00000000000E+00  0.14999999963E+04  0.15000000000E+04  0.10566000000E+00 0.  1.
        994   -1    0    0    0    0 -0.00000000000E+00 -0.00000000000E+00  0.11368683772E-12  0.17120000000E+03  0.17120000000E+03 0.  0.
         13    1    1    2    0    0  0.13321037782E+02 -0.13320163396E+02  0.10326353034E+03  0.10496782680E+03  0.10566000000E+00 0.  1.
        994    1    1    2    0    0 -0.19170464025E+02 -0.21696034630E+01  0.29473591699E+01  0.17230885292E+03  0.17120000000E+03 0.  0.
        998    1    1    2    0    0  0.58494262426E+01  0.15489766859E+02  0.13937891068E+04  0.13939233203E+04  0.10000000000E+02 0.  1.
</event>
<event>
 5    1  0.1072898E-008  0.3835742E+03  0.7957747E-01  0.3435742E+00
         13   -1    0    0    0    0  0.00000000000E+00  0.00000000000E+00  0.14999999963E+04  0.15000000000E+04  0.10566000000E+00 0. -1.
        994   -1    0    0    0    0 -0.00000000000E+00 -0.00000000000E+00  0.11368683772E-12  0.17120000000E+03  0.17120000000E+03 0.  0.
         13    1    1    2    0    0  0.15282311492E+02  0.34935798235E+01  0.92317653274E+02  0.93639278161E+02  0.10566000000E+00 0. -1.
        994    1    1    2    0    0  0.69400843179E+02  0.11119512764E+02  0.18836083538E+02  0.18602246811E+03  0.17120000000E+03 0.  0.
        998    1    1    2    0    0 -0.84683154671E+02 -0.14613092587E+02  0.13888462595E+04  0.13915382537E+04  0.10000000000E+02 0. -1.
</event>
<event>
 5    1  0.1072898E-008  0.3780175E+03  0.7957747E-01  0.3459836E+00
         13   -1    0    0    0    0  0.00000000000E+00  0.00000000000E+00  0.14999999963E+04  0.15000000000E+04  0.10566000000E+00 0.  1.
        994   -1    0    0    0    0 -0.00000000000E+00 -0.00000000000E+00  0.11368683772E-12  0.17120000000E+03  0.17120000000E+03 0.  0.
         13    1    1    2    0    0  0.10875403292E+02 -0.25631236463E+01  0.97384327344E+01  0.14822018613E+02  0.10566000000E+00 0.  1.
        994    1    1    2    0    0 -0.12478096842E+02  0.36743111094E+01  0.57068172698E+01  0.17178827441E+03  0.17120000000E+03 0.  0.
        998    1    1    2    0    0  0.16026935496E+01 -0.11111874630E+01  0.14845547463E+04  0.14845897070E+04  0.10000000000E+02 0.  1.
</event>
<event>
 5    1  0.1072898E-008  0.3803474E+03  0.7957747E-01  0.3449647E+00
         13   -1    0    0    0    0  0.00000000000E+00  0.00000000000E+00  0.14999999963E+04  0.15000000000E+04  0.10566000000E+00 0. -1.
        994   -1    0    0    0    0 -0.00000000000E+00 -0.00000000000E+00  0.11368683772E-12  0.17120000000E+03  0.17120000000E+03 0.  0.
         13    1    1    2    0    0  0.89198465055E+01  0.77317298305E+02  0.18836193551E+03  0.20380814065E+03  0.10566000000E+00 0. -1.
        994    1    1    2    0    0  0.38221025178E+02 -0.40378899210E+02  0.27820536861E+02  0.18213929982E+03  0.17120000000E+03 0.  0.
        998    1    1    2    0    0 -0.47140871684E+02 -0.36938399095E+02  0.12838175239E+04  0.12852525595E+04  0.10000000000E+02 0. -1.
</event>
<event>
 5    1  0.1072898E-008  0.3775744E+03  0.7957747E-01  0.3461788E+00
         13   -1    0    0    0    0  0.00000000000E+00  0.00000000000E+00  0.14999999963E+04  0.15000000000E+04  0.10566000000E+00 0.  1.
        994   -1    0    0    0    0 -0.00000000000E+00 -0.00000000000E+00  0.11368683772E-12  0.17120000000E+03  0.17120000000E+03 0.  0.
         13    1    1    2    0    0 -0.18672862311E+02 -0.10695635182E+02  0.40676231903E+02  0.46017816166E+02  0.10566000000E+00 0.  1.
        994    1    1    2    0    0  0.13723811737E+02  0.10858543185E+02  0.63953225820E+01  0.17221089141E+03  0.17120000000E+03 0.  0.
        998    1    1    2    0    0  0.49490505734E+01 -0.16290800295E+00  0.14529284418E+04  0.14529712924E+04  0.10000000000E+02 0.  1.
</event>
<event>
 5    1  0.1072898E-008  0.3820365E+03  0.7957747E-01  0.3442339E+00
         13   -1    0    0    0    0  0.00000000000E+00  0.00000000000E+00  0.14999999963E+04  0.15000000000E+04  0.10566000000E+00 0. -1.
        994   -1    0    0    0    0 -0.00000000000E+00 -0.00000000000E+00  0.11368683772E-12  0.17120000000E+03  0.17120000000E+03 0.  0.
         13    1    1    2    0    0 -0.19966629361E+02  0.13410841779E+00  0.66881383535E+02  0.69798387522E+02  0.10566000000E+00 0. -1.
        994    1    1    2    0    0  0.76684325357E+00 -0.39156748932E+01  0.31615246519E+01  0.17127567193E+03  0.17120000000E+03 0.  0.
        998    1    1    2    0    0  0.19199786107E+02  0.37815664754E+01  0.14299570881E+04  0.14301259405E+04  0.10000000000E+02 0. -1.
</event>
<event>
 5    1  0.1072898E-008  0.3832459E+03  0.7957747E-01  0.3437146E+00
         13   -1    0    0    0    0  0.00000000000E+00  0.00000000000E+00  0.14999999963E+04  0.15000000000E+04  0.10566000000E+00 0.  1.
        994   -1    0    0    0    0 -0.00000000000E+00 -0.00000000000E+00  0.11368683772E-12  0.17120000000E+03  0.17120000000E+03 0.  0.
         13    1    1    2    0    0 -0.20696573109E+02  0.14071009226E+01  0.91516093405E+02  0.93837810011E+02  0.10566000000E+00 0.  1.
        994    1    1    2    0    0  0.46821751201E+01  0.29006261296E+02  0.53640609592E+01  0.17378578512E+03  0.17120000000E+03 0.  0.
        998    1    1    2    0    0  0.16014397989E+02 -0.30413362218E+02  0.14031198419E+04  0.14035764049E+04  0.10000000000E+02 0.  1.
</event>
<event>
 5    1  0.1072898E-008  0.3722617E+03  0.7957747E-01  0.3485561E+00
         13   -1    0    0    0    0  0.00000000000E+00  0.00000000000E+00  0.14999999963E+04  0.15000000000E+04  0.10566000000E+00 0.  1.
        994   -1    0    0    0    0 -0.00000000000E+00 -0.00000000000E+00  0.11368683772E-12  0.17120000000E+03  0.17120000000E+03 0.  0.
         13    1    1    2    0    0  0.42756803796E+01 -0.48095060781E+02  0.13538729870E+03  0.14373986269E+03  0.10566000000E+00 0.  1.
        994    1    1    2    0    0  0.41792838089E+02  0.43403405750E+02  0.20652114238E+02  0.18266484820E+03  0.17120000000E+03 0.  0.
        998    1    1    2    0    0 -0.46068518469E+02  0.46916550309E+01  0.13439605833E+04  0.13447952891E+04  0.10000000000E+02 0.  1.
</event>
<event>
 5    1  0.1072898E-008  0.3791862E+03  0.7957747E-01  0.3454710E+00
         13   -1    0    0    0    0  0.00000000000E+00  0.00000000000E+00  0.14999999963E+04  0.15000000000E+04  0.10566000000E+00 0. -1.
        994   -1    0    0    0    0 -0.00000000000E+00 -0.00000000000E+00  0.11368683772E-12  0.17120000000E+03  0.17120000000E+03 0.  0.
         13    1    1    2    0    0  0.19478199981E+01  0.31299302754E+02  0.95240970425E+02  0.10027110235E+03  0.10566000000E+00 0. -1.
        994    1    1    2    0    0 -0.28836038368E+01 -0.42572046452E+02  0.10671658512E+02  0.17675977655E+03  0.17120000000E+03 0.  0.
        998    1    1    2    0    0  0.93578383870E+00  0.11272743698E+02  0.13940873673E+04  0.13941691211E+04  0.10000000000E+02 0. -1.
</event>
<event>
 5    1  0.1072898E-008  0.3715244E+03  0.7957747E-01  0.3488914E+00
         13   -1    0    0    0    0  0.00000000000E+00  0.00000000000E+00  0.14999999963E+04  0.15000000000E+04  0.10566000000E+00 0.  1.
        994   -1    0    0    0    0 -0.00000000000E+00 -0.00000000000E+00  0.11368683772E-12  0.17120000000E+03  0.17120000000E+03 0.  0.
         13    1    1    2    0    0 -0.30324750401E+02  0.46603822553E+02  0.11220107061E+03  0.12522219522E+03  0.10566000000E+00 0.  1.
        994    1    1    2    0    0  0.50837252041E+02 -0.50555855036E+02  0.30040402253E+02  0.18802177119E+03  0.17120000000E+03 0.  0.
        998    1    1    2    0    0 -0.20512501640E+02  0.39520324831E+01  0.13577585234E+04  0.13579560336E+04  0.10000000000E+02 0.  1.
</event>
<event>
 5    1  0.1072898E-008  0.3739088E+03  0.7957747E-01  0.3478117E+00
         13   -1    0    0    0    0  0.00000000000E+00  0.00000000000E+00  0.14999999963E+04  0.15000000000E+04  0.10566000000E+00 0.  1.
        994   -1    0    0    0    0 -0.00000000000E+00 -0.00000000000E+00  0.11368683772E-12  0.17120000000E+03  0.17120000000E+03 0.  0.
         13    1    1    2    0    0 -0.77893518647E+02  0.32205702707E+02  0.27888679796E+03  0.29134595376E+03  0.10566000000E+00 0.  1.
        994    1    1    2    0    0  0.42023890450E+02 -0.11332602761E+02  0.19765971333E+02  0.17774861146E+03  0.17120000000E+03 0.  0.
        998    1    1    2    0    0  0.35869628197E+02 -0.20873099945E+02  0.12013472270E+04  0.12021054348E+04  0.10000000000E+02 0.  1.
</event>
<event>
 5    1  0.1072898E-008  0.3816292E+03  0.7957747E-01  0.3444095E+00
         13   -1    0    0    0    0  0.00000000000E+00  0.00000000000E+00  0.14999999963E+04  0.15000000000E+04  0.10566000000E+00 0. -1.
        994   -1    0    0    0    0 -0.00000000000E+00 -0.00000000000E+00  0.11368683772E-12  0.17120000000E+03  0.17120000000E+03 0.  0.
         13    1    1    2    0    0  0.12155685959E+02  0.62526936717E+01  0.26532262140E+02  0.29846758243E+02  0.10566000000E+00 0. -1.
        994    1    1    2    0    0 -0.13571464579E+02 -0.44097197509E+01  0.39903780529E+01  0.17184002268E+03  0.17120000000E+03 0.  0.
        998    1    1    2    0    0  0.14157786194E+01 -0.18429739208E+01  0.14694773561E+04  0.14695132191E+04  0.10000000000E+02 0. -1.
</event>
<event>
 5    1  0.1072898E-008  0.3851300E+03  0.7957747E-01  0.3429121E+00
         13   -1    0    0    0    0  0.00000000000E+00  0.00000000000E+00  0.14999999963E+04  0.15000000000E+04  0.10566000000E+00 0. -1.
        994   -1    0    0    0    0 -0.00000000000E+00 -0.00000000000E+00  0.11368683772E-12  0.17120000000E+03  0.17120000000E+03 0.  0.
         13    1    1    2    0    0 -0.13185903198E+02 -0.10340649063E+02  0.98392107040E+02  0.99808892179E+02  0.10566000000E+00 0. -1.
        994    1    1    2    0    0  0.35836685665E+01 -0.52262022398E+01  0.16976203235E+01  0.17132564836E+03  0.17120000000E+03 0.  0.
        998    1    1    2    0    0  0.96022346318E+01  0.15566851303E+02  0.13999102689E+04  0.14000654595E+04  0.10000000000E+02 0. -1.
</event>
<event>
 5    1  0.1072898E-008  0.3850032E+03  0.7957747E-01  0.3429659E+00
         13   -1    0    0    0    0  0.00000000000E+00  0.00000000000E+00  0.14999999963E+04  0.15000000000E+04  0.10566000000E+00 0. -1.
        994   -1    0    0    0    0 -0.00000000000E+00 -0.00000000000E+00  0.11368683772E-12  0.17120000000E+03  0.17120000000E+03 0.  0.
         13    1    1    2    0    0  0.10994461857E+02 -0.16006289403E+02  0.11730776291E+03  0.11890417105E+03  0.10566000000E+00 0. -1.
        994    1    1    2    0    0 -0.65520882799E+01  0.85496352549E+01  0.20102039602E+01  0.17155030470E+03  0.17120000000E+03 0.  0.
        998    1    1    2    0    0 -0.44423735767E+01  0.74566541483E+01  0.13806820294E+04  0.13807455242E+04  0.10000000000E+02 0. -1.
</event>
<event>
 5    1  0.1072898E-008  0.3713857E+03  0.7957747E-01  0.3489547E+00
         13   -1    0    0    0    0  0.00000000000E+00  0.00000000000E+00  0.14999999963E+04  0.15000000000E+04  0.10566000000E+00 0.  1.
        994   -1    0    0    0    0 -0.00000000000E+00 -0.00000000000E+00  0.11368683772E-12  0.17120000000E+03  0.17120000000E+03 0.  0.
         13    1    1    2    0    0 -0.48790238191E+01 -0.10800310093E+02  0.54783189063E+00  0.11864352293E+02  0.10566000000E+00 0.  1.
        994    1    1    2    0    0  0.46405114993E+01  0.13919002731E+02  0.12430004079E+02  0.17227657411E+03  0.17120000000E+03 0.  0.
        998    1    1    2    0    0  0.23851231979E+00 -0.31186926382E+01  0.14870221603E+04  0.14870590736E+04  0.10000000000E+02 0.  1.
</event>
<event>
 5    1  0.1072898E-008  0.3842229E+03  0.7957747E-01  0.3432975E+00
         13   -1    0    0    0    0  0.00000000000E+00  0.00000000000E+00  0.14999999963E+04  0.15000000000E+04  0.10566000000E+00 0. -1.
        994   -1    0    0    0    0 -0.00000000000E+00 -0.00000000000E+00  0.11368683772E-12  0.17120000000E+03  0.17120000000E+03 0.  0.
         13    1    1    2    0    0  0.48965188027E+01 -0.17325126876E+02  0.91669962692E+02  0.93421245665E+02  0.10566000000E+00 0. -1.
        994    1    1    2    0    0  0.59588061975E+01 -0.65232600291E+01  0.22738724217E+01  0.17144290825E+03  0.17120000000E+03 0.  0.
        998    1    1    2    0    0 -0.10855325000E+02  0.23848386905E+02  0.14060561612E+04  0.14063358461E+04  0.10000000000E+02 0. -1.
</event>
<event>
 5    1  0.1072898E-008  0.3797738E+03  0.7957747E-01  0.3452144E+00
         13   -1    0    0    0    0  0.00000000000E+00  0.00000000000E+00  0.14999999963E+04  0.15000000000E+04  0.10566000000E+00 0. -1.
        994   -1    0    0    0    0 -0.00000000000E+00 -0.00000000000E+00  0.11368683772E-12  0.17120000000E+03  0.17120000000E+03 0.  0.
         13    1    1    2    0    0  0.89025071540E+01  0.18010525392E+02  0.44473608942E+02  0.48801093378E+02  0.10566000000E+00 0. -1.
        994    1    1    2    0    0 -0.95610728346E+01 -0.20015291587E+02  0.58951455959E+01  0.17273163796E+03  0.17120000000E+03 0.  0.
        998    1    1    2    0    0  0.65856568056E+00  0.20047661944E+01  0.14496312417E+04  0.14496672687E+04  0.10000000000E+02 0. -1.
</event>
<event>
 5    1  0.1072898E-008  0.3812470E+03  0.7957747E-01  0.3445747E+00
         13   -1    0    0    0    0  0.00000000000E+00  0.00000000000E+00  0.14999999963E+04  0.15000000000E+04  0.10566000000E+00 0.  1.
        994   -1    0    0    0    0 -0.00000000000E+00 -0.00000000000E+00  0.11368683772E-12  0.17120000000E+03  0.17120000000E+03 0.  0.
         13    1    1    2    0    0  0.19979102972E+02  0.39000884009E+01  0.57756895374E+02  0.61239246994E+02  0.10566000000E+00 0.  1.
        994    1    1    2    0    0 -0.95491510451E+01 -0.23440503111E+02  0.56407177575E+01  0.17315282605E+03  0.17120000000E+03 0.  0.
        998    1    1    2    0    0 -0.10429951927E+02  0.19540414710E+02  0.14366023831E+04  0.14368079270E+04  0.10000000000E+02 0.  1.
</event>
<event>
 5    1  0.1072898E-008  0.3810660E+03  0.7957747E-01  0.3446530E+00
         13   -1    0    0    0    0  0.00000000000E+00  0.00000000000E+00  0.14999999963E+04  0.15000000000E+04  0.10566000000E+00 0. -1.
        994   -1    0    0    0    0 -0.00000000000E+00 -0.00000000000E+00  0.11368683772E-12  0.17120000000E+03  0.17120000000E+03 0.  0.
         13    1    1    2    0    0  0.49475834529E+01 -0.14189428866E+02  0.30423228785E+02  0.33932322162E+02  0.10566000000E+00 0. -1.
        994    1    1    2    0    0 -0.71185636750E+01  0.39199405112E+01  0.38160241329E+01  0.17143524119E+03  0.17120000000E+03 0.  0.
        998    1    1    2    0    0  0.21709802221E+01  0.10269488354E+02  0.14657607434E+04  0.14658324366E+04  0.10000000000E+02 0. -1.
</event>
<event>
 5    1  0.1072898E-008  0.3843673E+03  0.7957747E-01  0.3432360E+00
         13   -1    0    0    0    0  0.00000000000E+00  0.00000000000E+00  0.14999999963E+04  0.15000000000E+04  0.10566000000E+00 0. -1.
        994   -1    0    0    0    0 -0.00000000000E+00 -0.00000000000E+00  0.11368683772E-12  0.17120000000E+03  0.17120000000E+03 0.  0.
         13    1    1    2    0    0  0.20586792998E+02 -0.63298976714E+01  0.12575406882E+03  0.12758518973E+03  0.10566000000E+00 0. -1.
        994    1    1    2    0    0 -0.74542014241E+01 -0.15670913574E+01  0.21358022830E+01  0.17138267866E+03  0.17120000000E+03 0.  0.
        998    1    1    2    0    0 -0.13132591574E+02  0.78969890287E+01  0.13721101252E+04  0.13722321316E+04  0.10000000000E+02 0. -1.
</event>
<event>
 5    1  0.1072898E-008  0.3845971E+03  0.7957747E-01  0.3431383E+00
         13   -1    0    0    0    0  0.00000000000E+00  0.00000000000E+00  0.14999999963E+04  0.15000000000E+04  0.10566000000E+00 0. -1.
        994   -1    0    0    0    0 -0.00000000000E+00 -0.00000000000E+00  0.11368683772E-12  0.17120000000E+03  0.17120000000E+03 0.  0.
         13    1    1    2    0    0  0.14104723495E+02 -0.12275990989E+02  0.93868815435E+02  0.95713159256E+02  0.10566000000E+00 0. -1.
        994    1    1    2    0    0 -0.12431660763E+02  0.71939179830E+01  0.25099437500E+01  0.17181978484E+03  0.17120000000E+03 0.  0.
        998    1    1    2    0    0 -0.16730627324E+01  0.50820730059E+01  0.14036212371E+04  0.14036670559E+04  0.10000000000E+02 0. -1.
</event>
<event>
 5    1  0.1072898E-008  0.2609760E+03  0.7957747E-01  0.4221157E+00
         13   -1    0    0    0    0  0.00000000000E+00  0.00000000000E+00  0.14999999963E+04  0.15000000000E+04  0.10566000000E+00 0.  1.
        994   -1    0    0    0    0 -0.00000000000E+00 -0.00000000000E+00  0.11368683772E-12  0.17120000000E+03  0.17120000000E+03 0.  0.
         13    1    1    2    0    0  0.16459086286E+03  0.48171949985E+02  0.36877152938E+03  0.40669784970E+03  0.10566000000E+00 0.  1.
        994    1    1    2    0    0 -0.16902028735E+03 -0.45664890175E+02  0.15846511625E+03  0.29167408661E+03  0.17120000000E+03 0.  0.
        998    1    1    2    0    0  0.44294244842E+01 -0.25070598106E+01  0.97276335065E+03  0.97282806370E+03  0.10000000000E+02 0.  1.
</event>
<event>
 5    1  0.1072898E-008  0.3719530E+03  0.7957747E-01  0.3486963E+00
         13   -1    0    0    0    0  0.00000000000E+00  0.00000000000E+00  0.14999999963E+04  0.15000000000E+04  0.10566000000E+00 0.  1.
        994   -1    0    0    0    0 -0.00000000000E+00 -0.00000000000E+00  0.11368683772E-12  0.17120000000E+03  0.17120000000E+03 0.  0.
         13    1    1    2    0    0 -0.57908311303E+02  0.18936863919E+02  0.14552358259E+03  0.15776280166E+03  0.10566000000E+00 0.  1.
        994    1    1    2    0    0  0.45956096669E+02 -0.10095358697E+02  0.19809197620E+02  0.17864972264E+03  0.17120000000E+03 0.  0.
        998    1    1    2    0    0  0.11952214634E+02 -0.88415052226E+01  0.13346672161E+04  0.13347874757E+04  0.10000000000E+02 0.  1.
</event>
<event>
 5    1  0.1072898E-008  0.3806476E+03  0.7957747E-01  0.3448343E+00
         13   -1    0    0    0    0  0.00000000000E+00  0.00000000000E+00  0.14999999963E+04  0.15000000000E+04  0.10566000000E+00 0.  1.
        994   -1    0    0    0    0 -0.00000000000E+00 -0.00000000000E+00  0.11368683772E-12  0.17120000000E+03  0.17120000000E+03 0.  0.
         13    1    1    2    0    0  0.34575564763E+01  0.15045249472E+02  0.29134912176E+02  0.32972238322E+02  0.10566000000E+00 0. -1.
        994    1    1    2    0    0 -0.97445760093E+01 -0.16090603973E+02  0.49878779243E+01  0.17230259204E+03  0.17120000000E+03 0.  0.
        998    1    1    2    0    0  0.62870195330E+01  0.10453545007E+01  0.14658772062E+04  0.14659251696E+04  0.10000000000E+02 0.  1.
</event>
<event>
 5    1  0.1072898E-008  0.3778124E+03  0.7957747E-01  0.3460739E+00
         13   -1    0    0    0    0  0.00000000000E+00  0.00000000000E+00  0.14999999963E+04  0.15000000000E+04  0.10566000000E+00 0.  1.
        994   -1    0    0    0    0 -0.00000000000E+00 -0.00000000000E+00  0.11368683772E-12  0.17120000000E+03  0.17120000000E+03 0.  0.
         13    1    1    2    0    0 -0.35574726748E+02 -0.12209959615E+02  0.12530919411E+03  0.13083214280E+03  0.10566000000E+00 0.  1.
        994    1    1    2    0    0  0.27096737316E+02  0.26798260742E+02  0.10147693168E+02  0.17568379444E+03  0.17120000000E+03 0.  0.
        998    1    1    2    0    0  0.84779894322E+01 -0.14588301127E+02  0.13645431090E+04  0.13646840628E+04  0.10000000000E+02 0.  1.
</event>
<event>
 5    1  0.1072898E-008  0.3856924E+03  0.7957747E-01  0.3426741E+00
         13   -1    0    0    0    0  0.00000000000E+00  0.00000000000E+00  0.14999999963E+04  0.15000000000E+04  0.10566000000E+00 0.  1.
        994   -1    0    0    0    0 -0.00000000000E+00 -0.00000000000E+00  0.11368683772E-12  0.17120000000E+03  0.17120000000E+03 0.  0.
         13    1    1    2    0    0 -0.12443217306E+02  0.42898676876E+01  0.71795517099E+02  0.72992082182E+02  0.10566000000E+00 0.  1.
        994    1    1    2    0    0  0.31769407690E+01  0.55621170827E+01  0.14213912794E+01  0.17132568533E+03  0.17120000000E+03 0.  0.
        998    1    1    2    0    0  0.92662765372E+01 -0.98519847702E+01  0.14267830879E+04  0.14268822325E+04  0.10000000000E+02 0.  1.
</event>
<event>
 5    1  0.1072898E-008  0.3791803E+03  0.7957747E-01  0.3454736E+00
         13   -1    0    0    0    0  0.00000000000E+00  0.00000000000E+00  0.14999999963E+04  0.15000000000E+04  0.10566000000E+00 0.  1.
        994   -1    0    0    0    0 -0.00000000000E+00 -0.00000000000E+00  0.11368683772E-12  0.17120000000E+03  0.17120000000E+03 0.  0.
         13    1    1    2    0    0 -0.55681220131E+01  0.17338605393E+02  0.33264942764E+02  0.37923591614E+02  0.10566000000E+00 0.  1.
        994    1    1    2    0    0  0.39194190905E+01 -0.25551137546E+02  0.67906212064E+01  0.17327369971E+03  0.17120000000E+03 0.  0.
        998    1    1    2    0    0  0.16487029227E+01  0.82125321529E+01  0.14599444323E+04  0.14600027087E+04  0.10000000000E+02 0.  1.
</event>
<event>
 5    1  0.1072898E-008  0.3801814E+03  0.7957747E-01  0.3450369E+00
         13   -1    0    0    0    0  0.00000000000E+00  0.00000000000E+00  0.14999999963E+04  0.15000000000E+04  0.10566000000E+00 0.  1.
        994   -1    0    0    0    0 -0.00000000000E+00 -0.00000000000E+00  0.11368683772E-12  0.17120000000E+03  0.17120000000E+03 0.  0.
         13    1    1    2    0    0  0.10088784126E+02  0.10563490657E+02  0.24387089800E+02  0.28427314558E+02  0.10566000000E+00 0.  1.
        994    1    1    2    0    0 -0.10192342765E+02 -0.11462303897E+02  0.48280291660E+01  0.17195353479E+03  0.17120000000E+03 0.  0.
        998    1    1    2    0    0  0.10355863841E+00  0.89881323979E+00  0.14707848773E+04  0.14708191507E+04  0.10000000000E+02 0.  1.
</event>
<event>
 5    1  0.1072898E-008  0.3403380E+03  0.7957747E-01  0.3644405E+00
         13   -1    0    0    0    0  0.00000000000E+00  0.00000000000E+00  0.14999999963E+04  0.15000000000E+04  0.10566000000E+00 0. -1.
        994   -1    0    0    0    0 -0.00000000000E+00 -0.00000000000E+00  0.11368683772E-12  0.17120000000E+03  0.17120000000E+03 0.  0.
         13    1    1    2    0    0  0.16275918982E+03 -0.10700519412E+03  0.98934592853E+03  0.10083382582E+04  0.10566000000E+00 0. -1.
        994    1    1    2    0    0 -0.12418118034E+03  0.12063030527E+03  0.12273796870E+03  0.27266588540E+03  0.17120000000E+03 0.  0.
        998    1    1    2    0    0 -0.38578009474E+02 -0.13625111151E+02  0.38791609905E+03  0.39019585642E+03  0.10000000000E+02 0.  1.
</event>
<event>
 5    1  0.1094827E-008  0.3861563E+03  0.7957747E-01  0.3424783E+00
         13   -1    0    0    0    0  0.00000000000E+00  0.00000000000E+00  0.14999999963E+04  0.15000000000E+04  0.10566000000E+00 0. -1.
        994   -1    0    0    0    0 -0.00000000000E+00 -0.00000000000E+00  0.11368683772E-12  0.17120000000E+03  0.17120000000E+03 0.  0.
         13    1    1    2    0    0 -0.69441591750E+01  0.93941685119E+01  0.66978942609E+02  0.67990158594E+02  0.10566000000E+00 0. -1.
        994    1    1    2    0    0  0.57904424047E+01 -0.18826211289E+01  0.11785945561E+01  0.17131229545E+03  0.17120000000E+03 0.  0.
        998    1    1    2    0    0  0.11537167703E+01 -0.75115473829E+01  0.14318424591E+04  0.14318975460E+04  0.10000000000E+02 0. -1.
</event>
<event>
 5    1  0.1072898E-008  0.3858472E+03  0.7957747E-01  0.3426087E+00
         13   -1    0    0    0    0  0.00000000000E+00  0.00000000000E+00  0.14999999963E+04  0.15000000000E+04  0.10566000000E+00 0. -1.
        994   -1    0    0    0    0 -0.00000000000E+00 -0.00000000000E+00  0.11368683772E-12  0.17120000000E+03  0.17120000000E+03 0.  0.
         13    1    1    2    0    0  0.36750752991E+01 -0.10972951553E+02  0.53547962729E+02  0.54784188602E+02  0.10566000000E+00 0. -1.
        994    1    1    2    0    0  0.14615498915E+01  0.15467612238E+02  0.20021503874E+01  0.17191518770E+03  0.17120000000E+03 0.  0.
        998    1    1    2    0    0 -0.51366251905E+01 -0.44946606857E+01  0.14444498832E+04  0.14445006237E+04  0.10000000000E+02 0. -1.
</event>
<event>
 5    1  0.1072898E-008  0.3042826E+03  0.7957747E-01  0.3865911E+00
         13   -1    0    0    0    0  0.00000000000E+00  0.00000000000E+00  0.14999999963E+04  0.15000000000E+04  0.10566000000E+00 0.  1.
        994   -1    0    0    0    0 -0.00000000000E+00 -0.00000000000E+00  0.11368683772E-12  0.17120000000E+03  0.17120000000E+03 0.  0.
         13    1    1    2    0    0 -0.75603413281E+02  0.13477559887E+03  0.77228321781E+03  0.78759235511E+03  0.10566000000E+00 0.  1.
        994    1    1    2    0    0  0.56300001264E+02 -0.96659569812E+02  0.58159484336E+02  0.21261403575E+03  0.17120000000E+03 0.  0.
        998    1    1    2    0    0  0.19303412016E+02 -0.38116029055E+02  0.66955729413E+03  0.67099360914E+03  0.10000000000E+02 0.  1.
</event>
<event>
 5    1  0.1072898E-008  0.3811486E+03  0.7957747E-01  0.3446173E+00
         13   -1    0    0    0    0  0.00000000000E+00  0.00000000000E+00  0.14999999963E+04  0.15000000000E+04  0.10566000000E+00 0.  1.
        994   -1    0    0    0    0 -0.00000000000E+00 -0.00000000000E+00  0.11368683772E-12  0.17120000000E+03  0.17120000000E+03 0.  0.
         13    1    1    2    0    0 -0.66722015795E+02 -0.38560511148E+02  0.13029682302E+03  0.15138036090E+03  0.10566000000E+00 0.  1.
        994    1    1    2    0    0  0.10663906251E+03  0.59362167752E+02  0.73396479213E+02  0.22269315161E+03  0.17120000000E+03 0.  0.
        998    1    1    2    0    0 -0.39917046712E+02 -0.20801656604E+02  0.12963066940E+04  0.12971264875E+04  0.10000000000E+02 0.  1.
</event>
<event>
 5    1  0.1072898E-008  0.3714988E+03  0.7957747E-01  0.3489031E+00
         13   -1    0    0    0    0  0.00000000000E+00  0.00000000000E+00  0.14999999963E+04  0.15000000000E+04  0.10566000000E+00 0.  1.
        994   -1    0    0    0    0 -0.00000000000E+00 -0.00000000000E+00  0.11368683772E-12  0.17120000000E+03  0.17120000000E+03 0.  0.
         13    1    1    2    0    0  0.12531300241E+03  0.52729977240E+01  0.64489393861E+03  0.65697743972E+03  0.10566000000E+00 0.  1.
        994    1    1    2    0    0 -0.10784337073E+03  0.13906175193E+02  0.50327411403E+02  0.20896378312E+03  0.17120000000E+03 0.  0.
        998    1    1    2    0    0 -0.17469631684E+02 -0.19179172917E+02  0.80477864626E+03  0.80525877715E+03  0.10000000000E+02 0. -1.
</event>
<event>
 5    1  0.1072898E-008  0.3697337E+03  0.7957747E-01  0.3497116E+00
         13   -1    0    0    0    0  0.00000000000E+00  0.00000000000E+00  0.14999999963E+04  0.15000000000E+04  0.10566000000E+00 0. -1.
        994   -1    0    0    0    0 -0.00000000000E+00 -0.00000000000E+00  0.11368683772E-12  0.17120000000E+03  0.17120000000E+03 0.  0.
         13    1    1    2    0    0  0.10048474012E+02  0.97540057927E+01  0.41112324251E+01  0.14595405272E+02  0.10566000000E+00 0. -1.
        994    1    1    2    0    0 -0.88467660988E+01 -0.95233271213E+01  0.11388381629E+02  0.17207002722E+03  0.17120000000E+03 0.  0.
        998    1    1    2    0    0 -0.12017079129E+01 -0.23067867135E+00  0.14845003822E+04  0.14845345675E+04  0.10000000000E+02 0. -1.
</event>
<event>
 5    1  0.1072898E-008  0.3845747E+03  0.7957747E-01  0.3431478E+00
         13   -1    0    0    0    0  0.00000000000E+00  0.00000000000E+00  0.14999999963E+04  0.15000000000E+04  0.10566000000E+00 0. -1.
        994   -1    0    0    0    0 -0.00000000000E+00 -0.00000000000E+00  0.11368683772E-12  0.17120000000E+03  0.17120000000E+03 0.  0.
         13    1    1    2    0    0  0.18751091588E+02  0.15909605762E+02  0.12990750513E+03  0.13221456063E+03  0.10566000000E+00 0. -1.
        994    1    1    2    0    0 -0.32334283353E+02 -0.29384903123E+02  0.81535279182E+01  0.17687537542E+03  0.17120000000E+03 0.  0.
        998    1    1    2    0    0  0.13583191765E+02  0.13475297361E+02  0.13619389632E+04  0.13621100639E+04  0.10000000000E+02 0. -1.
</event>
<event>
 5    1  0.1129568E-008  0.3846990E+03  0.7957747E-01  0.3430950E+00
         13   -1    0    0    0    0  0.00000000000E+00  0.00000000000E+00  0.14999999963E+04  0.15000000000E+04  0.10566000000E+00 0. -1.
        994   -1    0    0    0    0 -0.00000000000E+00 -0.00000000000E+00  0.11368683772E-12  0.17120000000E+03  0.17120000000E+03 0.  0.
         13    1    1    2    0    0  0.25322712639E+01 -0.11059890376E+02  0.35974691358E+02  0.37721653665E+02  0.10566000000E+00 0. -1.
        994    1    1    2    0    0 -0.17314003995E+01  0.68784173927E+01  0.19452678930E+01  0.17135791327E+03  0.17120000000E+03 0.  0.
        998    1    1    2    0    0 -0.80087086441E+00  0.41814729834E+01  0.14620800370E+04  0.14621204331E+04  0.10000000000E+02 0. -1.
</event>
<event>
 5    1  0.1072898E-008  0.3703925E+03  0.7957747E-01  0.3494089E+00
         13   -1    0    0    0    0  0.00000000000E+00  0.00000000000E+00  0.14999999963E+04  0.15000000000E+04  0.10566000000E+00 0.  1.
        994   -1    0    0    0    0 -0.00000000000E+00 -0.00000000000E+00  0.11368683772E-12  0.17120000000E+03  0.17120000000E+03 0.  0.
         13    1    1    2    0    0  0.46577544471E+02 -0.30150488709E+02  0.14589466045E+03  0.15608902181E+03  0.10566000000E+00 0.  1.
        994    1    1    2    0    0 -0.60628407193E+02  0.22955861163E+02  0.23719243245E+02  0.18459365596E+03  0.17120000000E+03 0.  0.
        998    1    1    2    0    0  0.14050862722E+02  0.71946275459E+01  0.13303860926E+04  0.13305173222E+04  0.10000000000E+02 0.  1.
</event>
<event>
 5    1  0.1072898E-008  0.3839023E+03  0.7957747E-01  0.3434341E+00
         13   -1    0    0    0    0  0.00000000000E+00  0.00000000000E+00  0.14999999963E+04  0.15000000000E+04  0.10566000000E+00 0.  1.
        994   -1    0    0    0    0 -0.00000000000E+00 -0.00000000000E+00  0.11368683772E-12  0.17120000000E+03  0.17120000000E+03 0.  0.
         13    1    1    2    0    0  0.52586383092E+01  0.13389807910E+02  0.49028883823E+02  0.51095820237E+02  0.10566000000E+00 0.  1.
        994    1    1    2    0    0 -0.56703661786E+01  0.10538300925E+01  0.22858762149E+01  0.17131237212E+03  0.17120000000E+03 0.  0.
        998    1    1    2    0    0  0.41172786943E+00 -0.14443638002E+02  0.14486852362E+04  0.14487918076E+04  0.10000000000E+02 0.  1.
</event>
<event>
 5    1  0.1072898E-008  0.3851544E+03  0.7957747E-01  0.3429018E+00
         13   -1    0    0    0    0  0.00000000000E+00  0.00000000000E+00  0.14999999963E+04  0.15000000000E+04  0.10566000000E+00 0.  1.
        994   -1    0    0    0    0 -0.00000000000E+00 -0.00000000000E+00  0.11368683772E-12  0.17120000000E+03  0.17120000000E+03 0.  0.
         13    1    1    2    0    0 -0.79760143025E+01 -0.89713935194E+01  0.46987635849E+02  0.48496925599E+02  0.10566000000E+00 0.  1.
        994    1    1    2    0    0  0.45585443458E+01  0.35823270817E+01  0.16639882875E+01  0.17130622362E+03  0.17120000000E+03 0.  0.
        998    1    1    2    0    0  0.34174699567E+01  0.53890664378E+01  0.14513483721E+04  0.14513968508E+04  0.10000000000E+02 0.  1.
</event>
<event>
 5    1  0.1072898E-008  0.3837828E+03  0.7957747E-01  0.3434851E+00
         13   -1    0    0    0    0  0.00000000000E+00  0.00000000000E+00  0.14999999963E+04  0.15000000000E+04  0.10566000000E+00 0.  1.
        994   -1    0    0    0    0 -0.00000000000E+00 -0.00000000000E+00  0.11368683772E-12  0.17120000000E+03  0.17120000000E+03 0.  0.
         13    1    1    2    0    0  0.10911116802E+02  0.46533261094E+01  0.30873477860E+02  0.33073988464E+02  0.10566000000E+00 0.  1.
        994    1    1    2    0    0 -0.74371508605E+01 -0.19960062318E+01  0.24314538085E+01  0.17139033585E+03  0.17120000000E+03 0.  0.
        998    1    1    2    0    0 -0.34739659413E+01 -0.26573198776E+01  0.14666950646E+04  0.14667356757E+04  0.10000000000E+02 0.  1.
</event>
<event>
 5    1  0.1072898E-008  0.3814148E+03  0.7957747E-01  0.3445021E+00
         13   -1    0    0    0    0  0.00000000000E+00  0.00000000000E+00  0.14999999963E+04  0.15000000000E+04  0.10566000000E+00 0.  1.
        994   -1    0    0    0    0 -0.00000000000E+00 -0.00000000000E+00  0.11368683772E-12  0.17120000000E+03  0.17120000000E+03 0.  0.
         13    1    1    2    0    0 -0.55423934490E+01 -0.17875497619E+02  0.48445181171E+02  0.51934557695E+02  0.10566000000E+00 0.  1.
        994    1    1    2    0    0  0.41675422245E+01  0.19775288282E+02  0.47808318862E+01  0.17245499931E+03  0.17120000000E+03 0.  0.
        998    1    1    2    0    0  0.13748512245E+01 -0.18997906629E+01  0.14467739832E+04  0.14468104430E+04  0.10000000000E+02 0.  1.
</event>
<event>
 5    1  0.1072898E-008  0.3687585E+03  0.7957747E-01  0.3501616E+00
         13   -1    0    0    0    0  0.00000000000E+00  0.00000000000E+00  0.14999999963E+04  0.15000000000E+04  0.10566000000E+00 0. -1.
        994   -1    0    0    0    0 -0.00000000000E+00 -0.00000000000E+00  0.11368683772E-12  0.17120000000E+03  0.17120000000E+03 0.  0.
         13    1    1    2    0    0  0.32850345596E+02  0.12164359493E+02  0.55077398623E+02  0.65273638253E+02  0.10566000000E+00 0. -1.
        994    1    1    2    0    0 -0.26058058666E+02 -0.94649373911E+01  0.12963893581E+02  0.17391408798E+03  0.17120000000E+03 0.  0.
        998    1    1    2    0    0 -0.67922869302E+01 -0.26994221021E+01  0.14319587041E+04  0.14320122738E+04  0.10000000000E+02 0. -1.
</event>
<event>
 5    1  0.1072898E-008  0.3827487E+03  0.7957747E-01  0.3439277E+00
         13   -1    0    0    0    0  0.00000000000E+00  0.00000000000E+00  0.14999999963E+04  0.15000000000E+04  0.10566000000E+00 0.  1.
        994   -1    0    0    0    0 -0.00000000000E+00 -0.00000000000E+00  0.11368683772E-12  0.17120000000E+03  0.17120000000E+03 0.  0.
         13    1    1    2    0    0 -0.68932401858E+01  0.30979018130E+02  0.20270475338E+02  0.37657929563E+02  0.10566000000E+00 0.  1.
        994    1    1    2    0    0  0.96920432771E+01 -0.35667413046E+02  0.22862178980E+02  0.17663017660E+03  0.17120000000E+03 0.  0.
        998    1    1    2    0    0 -0.27988030914E+01  0.46883949166E+01  0.14568673420E+04  0.14569118938E+04  0.10000000000E+02 0.  1.
</event>
<event>
 5    1  0.1072898E-008  0.3808401E+03  0.7957747E-01  0.3447509E+00
         13   -1    0    0    0    0  0.00000000000E+00  0.00000000000E+00  0.14999999963E+04  0.15000000000E+04  0.10566000000E+00 0. -1.
        994   -1    0    0    0    0 -0.00000000000E+00 -0.00000000000E+00  0.11368683772E-12  0.17120000000E+03  0.17120000000E+03 0.  0.
         13    1    1    2    0    0 -0.10324586109E+02  0.15937367062E+02  0.46360436927E+02  0.50098882456E+02  0.10566000000E+00 0. -1.
        994    1    1    2    0    0  0.13873947124E+02 -0.11832952357E+02  0.48189023118E+01  0.17223578893E+03  0.17120000000E+03 0.  0.
        998    1    1    2    0    0 -0.35493610155E+01 -0.41044147049E+01  0.14488206570E+04  0.14488653286E+04  0.10000000000E+02 0. -1.
</event>
<event>
 5    1  0.1072898E-008  0.3819488E+03  0.7957747E-01  0.3442716E+00
         13   -1    0    0    0    0  0.00000000000E+00  0.00000000000E+00  0.14999999963E+04  0.15000000000E+04  0.10566000000E+00 0.  1.
        994   -1    0    0    0    0 -0.00000000000E+00 -0.00000000000E+00  0.11368683772E-12  0.17120000000E+03  0.17120000000E+03 0.  0.
         13    1    1    2    0    0 -0.19051049671E+02 -0.45566332885E+01  0.64453425308E+02  0.67364386722E+02  0.10566000000E+00 0.  1.
        994    1    1    2    0    0 -0.85438946758E+01  0.23820014105E+02  0.52825785085E+01  0.17314080063E+03  0.17120000000E+03 0.  0.
        998    1    1    2    0    0  0.27594944347E+02 -0.19263380817E+02  0.14302639925E+04  0.14306948126E+04  0.10000000000E+02 0.  1.
</event>
<event>
 5    1  0.1072898E-008  0.3761572E+03  0.7957747E-01  0.3468063E+00
         13   -1    0    0    0    0  0.00000000000E+00  0.00000000000E+00  0.14999999963E+04  0.15000000000E+04  0.10566000000E+00 0. -1.
        994   -1    0    0    0    0 -0.00000000000E+00 -0.00000000000E+00  0.11368683772E-12  0.17120000000E+03  0.17120000000E+03 0.  0.
         13    1    1    2    0    0  0.23339788790E+01 -0.47376736143E+02  0.72118105273E+02  0.86319377067E+02  0.10566000000E+00 0. -1.
        994    1    1    2    0    0  0.33269149841E+01  0.40969520261E+02  0.20293814930E+02  0.17723106070E+03  0.17120000000E+03 0.  0.
        998    1    1    2    0    0 -0.56608938632E+01  0.64072158821E+01  0.14075880761E+04  0.14076495622E+04  0.10000000000E+02 0. -1.
</event>
<event>
 5    1  0.1072898E-008  0.3825196E+03  0.7957747E-01  0.3440260E+00
         13   -1    0    0    0    0  0.00000000000E+00  0.00000000000E+00  0.14999999963E+04  0.15000000000E+04  0.10566000000E+00 0. -1.
        994   -1    0    0    0    0 -0.00000000000E+00 -0.00000000000E+00  0.11368683772E-12  0.17120000000E+03  0.17120000000E+03 0.  0.
         13    1    1    2    0    0 -0.18066702295E+02  0.30746701870E+00  0.54609019978E+02  0.57520922236E+02  0.10566000000E+00 0. -1.
        994    1    1    2    0    0  0.17460005644E+02 -0.25321291939E+01  0.38992569920E+01  0.17215082829E+03  0.17120000000E+03 0.  0.
        998    1    1    2    0    0  0.60669665090E+00  0.22246621752E+01  0.14414917193E+04  0.14415282495E+04  0.10000000000E+02 0. -1.
</event>
<event>
 5    1  0.1132015E-008  0.3852175E+03  0.7957747E-01  0.3428750E+00
         13   -1    0    0    0    0  0.00000000000E+00  0.00000000000E+00  0.14999999963E+04  0.15000000000E+04  0.10566000000E+00 0. -1.
        994   -1    0    0    0    0 -0.00000000000E+00 -0.00000000000E+00  0.11368683772E-12  0.17120000000E+03  0.17120000000E+03 0.  0.
         13    1    1    2    0    0 -0.26123145101E+01  0.11041974535E+02  0.41961112130E+02  0.43468327366E+02  0.10566000000E+00 0. -1.
        994    1    1    2    0    0  0.48193267260E+00 -0.92335104323E+01  0.18032065375E+01  0.17145897914E+03  0.17120000000E+03 0.  0.
        998    1    1    2    0    0  0.21303818375E+01 -0.18084641029E+01  0.14562356776E+04  0.14562726935E+04  0.10000000000E+02 0. -1.
</event>
<event>
 5    1  0.1072898E-008  0.3825125E+03  0.7957747E-01  0.3440291E+00
         13   -1    0    0    0    0  0.00000000000E+00  0.00000000000E+00  0.14999999963E+04  0.15000000000E+04  0.10566000000E+00 0.  1.
        994   -1    0    0    0    0 -0.00000000000E+00 -0.00000000000E+00  0.11368683772E-12  0.17120000000E+03  0.17120000000E+03 0.  0.
         13    1    1    2    0    0 -0.41485333006E+01 -0.12777080924E+02  0.30765113492E+02  0.33570336575E+02  0.10566000000E+00 0.  1.
        994    1    1    2    0    0 -0.67568006827E+01  0.84895378496E+01  0.32606248691E+01  0.17157446862E+03  0.17120000000E+03 0.  0.
        998    1    1    2    0    0  0.10905333983E+02  0.42875430746E+01  0.14659742579E+04  0.14660551948E+04  0.10000000000E+02 0.  1.
</event>
<event>
 5    1  0.1072898E-008  0.3826518E+03  0.7957747E-01  0.3439692E+00
         13   -1    0    0    0    0  0.00000000000E+00  0.00000000000E+00  0.14999999963E+04  0.15000000000E+04  0.10566000000E+00 0.  1.
        994   -1    0    0    0    0 -0.00000000000E+00 -0.00000000000E+00  0.11368683772E-12  0.17120000000E+03  0.17120000000E+03 0.  0.
         13    1    1    2    0    0 -0.12811338321E+02 -0.11532405204E+03  0.69572046611E+03  0.70533023861E+03  0.10566000000E+00 0.  1.
        994    1    1    2    0    0 -0.78669181239E+01  0.14936587530E+03  0.80863459053E+02  0.24128902195E+03  0.17120000000E+03 0.  0.
        998    1    1    2    0    0  0.20678256445E+02 -0.34041823252E+02  0.72341607111E+03  0.72458073944E+03  0.10000000000E+02 0.  1.
</event>
<event>
 5    1  0.1072898E-008  0.3803964E+03  0.7957747E-01  0.3449434E+00
         13   -1    0    0    0    0  0.00000000000E+00  0.00000000000E+00  0.14999999963E+04  0.15000000000E+04  0.10566000000E+00 0. -1.
        994   -1    0    0    0    0 -0.00000000000E+00 -0.00000000000E+00  0.11368683772E-12  0.17120000000E+03  0.17120000000E+03 0.  0.
         13    1    1    2    0    0 -0.14298980316E+02 -0.48014970593E+01  0.26509478532E+02  0.30500472590E+02  0.10566000000E+00 0. -1.
        994    1    1    2    0    0  0.20066819932E+02  0.56082438983E+01  0.53838549984E+01  0.17254725601E+03  0.17120000000E+03 0.  0.
        998    1    1    2    0    0 -0.57678396158E+01 -0.80674683906E+00  0.14681066627E+04  0.14681522714E+04  0.10000000000E+02 0. -1.
</event>
<event>
 5    1  0.1072898E-008  0.3854088E+03  0.7957747E-01  0.3427940E+00
         13   -1    0    0    0    0  0.00000000000E+00  0.00000000000E+00  0.14999999963E+04  0.15000000000E+04  0.10566000000E+00 0.  1.
        994   -1    0    0    0    0 -0.00000000000E+00 -0.00000000000E+00  0.11368683772E-12  0.17120000000E+03  0.17120000000E+03 0.  0.
         13    1    1    2    0    0 -0.11159526504E+02 -0.72717299766E+01  0.59417883389E+02  0.60892603156E+02  0.10566000000E+00 0.  1.
        994    1    1    2    0    0  0.60004385423E+01  0.21494320011E+02  0.30646524980E+01  0.17267554300E+03  0.17120000000E+03 0.  0.
        998    1    1    2    0    0  0.51590879618E+01 -0.14222590034E+02  0.14375174604E+04  0.14376318538E+04  0.10000000000E+02 0.  1.
</event>
<event>
 5    1  0.1072898E-008  0.3729122E+03  0.7957747E-01  0.3482613E+00
         13   -1    0    0    0    0  0.00000000000E+00  0.00000000000E+00  0.14999999963E+04  0.15000000000E+04  0.10566000000E+00 0. -1.
        994   -1    0    0    0    0 -0.00000000000E+00 -0.00000000000E+00  0.11368683772E-12  0.17120000000E+03  0.17120000000E+03 0.  0.
         13    1    1    2    0    0 -0.83734396950E+02 -0.10342871641E+03  0.55707361376E+03  0.57274773759E+03  0.10566000000E+00 0. -1.
        994    1    1    2    0    0  0.67425673769E+02  0.80967042032E+02  0.52809453270E+02  0.20784648598E+03  0.17120000000E+03 0.  0.
        998    1    1    2    0    0  0.16308723181E+02  0.22461674376E+02  0.89011692925E+03  0.89060577643E+03  0.10000000000E+02 0. -1.
</event>
<event>
 5    1  0.1072898E-008  0.3836456E+03  0.7957747E-01  0.3435437E+00
         13   -1    0    0    0    0  0.00000000000E+00  0.00000000000E+00  0.14999999963E+04  0.15000000000E+04  0.10566000000E+00 0.  1.
        994   -1    0    0    0    0 -0.00000000000E+00 -0.00000000000E+00  0.11368683772E-12  0.17120000000E+03  0.17120000000E+03 0.  0.
         13    1    1    2    0    0  0.13470646372E+02  0.11441844806E+02  0.70411537689E+02  0.72595936044E+02  0.10566000000E+00 0.  1.
        994    1    1    2    0    0  0.10671681192E+01 -0.63420378726E+01  0.24407197824E+01  0.17133813763E+03  0.17120000000E+03 0.  0.
        998    1    1    2    0    0 -0.14537814491E+02 -0.50998069336E+01  0.14271477388E+04  0.14272659263E+04  0.10000000000E+02 0.  1.
</event>
<event>
 5    1  0.1072898E-008  0.3852083E+03  0.7957747E-01  0.3428789E+00
         13   -1    0    0    0    0  0.00000000000E+00  0.00000000000E+00  0.14999999963E+04  0.15000000000E+04  0.10566000000E+00 0. -1.
        994   -1    0    0    0    0 -0.00000000000E+00 -0.00000000000E+00  0.11368683772E-12  0.17120000000E+03  0.17120000000E+03 0.  0.
         13    1    1    2    0    0 -0.23891589321E+01  0.97706708835E+01  0.32596040041E+02  0.34112857990E+02  0.10566000000E+00 0. -1.
        994    1    1    2    0    0 -0.20056015982E+01 -0.10388793989E+02  0.18947598432E+01  0.17153710850E+03  0.17120000000E+03 0.  0.
        998    1    1    2    0    0  0.43947605303E+01  0.61812310518E+00  0.14655091964E+04  0.14655500335E+04  0.10000000000E+02 0. -1.
</event>
<event>
 5    1  0.1072898E-008  0.3770370E+03  0.7957747E-01  0.3464162E+00
         13   -1    0    0    0    0  0.00000000000E+00  0.00000000000E+00  0.14999999963E+04  0.15000000000E+04  0.10566000000E+00 0. -1.
        994   -1    0    0    0    0 -0.00000000000E+00 -0.00000000000E+00  0.11368683772E-12  0.17120000000E+03  0.17120000000E+03 0.  0.
         13    1    1    2    0    0  0.29579523969E+02 -0.36576298425E+01  0.75209982547E+02  0.80900427273E+02  0.10566000000E+00 0. -1.
        994    1    1    2    0    0 -0.23526508239E+02  0.31514766168E+01  0.75408544114E+01  0.17300211814E+03  0.17120000000E+03 0.  0.
        998    1    1    2    0    0 -0.60530157292E+01  0.50615322577E+00  0.14172491593E+04  0.14172974546E+04  0.10000000000E+02 0. -1.
</event>
<event>
 5    1  0.1072898E-008  0.4016625E+03  0.7957747E-01  0.3361939E+00
         13   -1    0    0    0    0  0.00000000000E+00  0.00000000000E+00  0.14999999963E+04  0.15000000000E+04  0.10566000000E+00 0. -1.
        994   -1    0    0    0    0 -0.00000000000E+00 -0.00000000000E+00  0.11368683772E-12  0.17120000000E+03  0.17120000000E+03 0.  0.
         13    1    1    2    0    0  0.11306237809E+03 -0.18748976650E+02  0.19874683089E+03  0.22942305773E+03  0.10566000000E+00 0. -1.
        994    1    1    2    0    0 -0.10078760874E+03  0.20001480187E+02  0.71746738412E+02  0.21216794234E+03  0.17120000000E+03 0.  0.
        998    1    1    2    0    0 -0.12274769348E+02 -0.12525035371E+01  0.12295064270E+04  0.12296089999E+04  0.10000000000E+02 0. -1.
</event>
<event>
 5    1  0.1182521E-008  0.3843353E+03  0.7957747E-01  0.3432496E+00
         13   -1    0    0    0    0  0.00000000000E+00  0.00000000000E+00  0.14999999963E+04  0.15000000000E+04  0.10566000000E+00 0.  1.
        994   -1    0    0    0    0 -0.00000000000E+00 -0.00000000000E+00  0.11368683772E-12  0.17120000000E+03  0.17120000000E+03 0.  0.
         13    1    1    2    0    0 -0.16521688522E+01 -0.99100180154E+01  0.25109102970E+02  0.27044709926E+02  0.10566000000E+00 0.  1.
        994    1    1    2    0    0  0.29108407320E+01  0.76398186824E+01  0.21808137033E+01  0.17140897226E+03  0.17120000000E+03 0.  0.
        998    1    1    2    0    0 -0.12586718798E+01  0.22701993330E+01  0.14727100796E+04  0.14727463178E+04  0.10000000000E+02 0.  1.
</event>
<event>
 5    1  0.1072898E-008  0.3699710E+03  0.7957747E-01  0.3496024E+00
         13   -1    0    0    0    0  0.00000000000E+00  0.00000000000E+00  0.14999999963E+04  0.15000000000E+04  0.10566000000E+00 0.  1.
        994   -1    0    0    0    0 -0.00000000000E+00 -0.00000000000E+00  0.11368683772E-12  0.17120000000E+03  0.17120000000E+03 0.  0.
         13    1    1    2    0    0 -0.95361016424E+01  0.10060266205E+03  0.60033534174E+03  0.60878104976E+03  0.10566000000E+00 0.  1.
        994    1    1    2    0    0 -0.90387306969E+02 -0.64902859130E+02  0.55556124779E+02  0.21160852862E+03  0.17120000000E+03 0.  0.
        998    1    1    2    0    0  0.99923408611E+02 -0.35699802917E+02  0.84410852976E+03  0.85081042162E+03  0.10000000000E+02 0.  1.
</event>
<event>
 5    1  0.1072898E-008  0.3702215E+03  0.7957747E-01  0.3494873E+00
         13   -1    0    0    0    0  0.00000000000E+00  0.00000000000E+00  0.14999999963E+04  0.15000000000E+04  0.10566000000E+00 0.  1.
        994   -1    0    0    0    0 -0.00000000000E+00 -0.00000000000E+00  0.11368683772E-12  0.17120000000E+03  0.17120000000E+03 0.  0.
         13    1    1    2    0    0  0.35469113728E+02  0.17274311020E+02  0.62268620717E+02  0.73714667061E+02  0.10566000000E+00 0.  1.
        994    1    1    2    0    0 -0.43051769409E+02 -0.19427749770E+02  0.18902246398E+02  0.17859906839E+03  0.17120000000E+03 0.  0.
        998    1    1    2    0    0  0.75826556806E+01  0.21534387507E+01  0.14188291292E+04  0.14188862646E+04  0.10000000000E+02 0.  1.
</event>
<event>
 5    1  0.1072898E-008  0.4193392E+03  0.7957747E-01  0.3295929E+00
         13   -1    0    0    0    0  0.00000000000E+00  0.00000000000E+00  0.14999999963E+04  0.15000000000E+04  0.10566000000E+00 0. -1.
        994   -1    0    0    0    0 -0.00000000000E+00 -0.00000000000E+00  0.11368683772E-12  0.17120000000E+03  0.17120000000E+03 0.  0.
         13    1    1    2    0    0 -0.10817384501E+02  0.11135228072E+03  0.13771117804E+03  0.17742808670E+03  0.10566000000E+00 0. -1.
        994    1    1    2    0    0  0.70878009966E+01 -0.99707158299E+02  0.83871661925E+02  0.21525717180E+03  0.17120000000E+03 0.  0.
        998    1    1    2    0    0  0.37295835039E+01 -0.11645122417E+02  0.12784171563E+04  0.12785147415E+04  0.10000000000E+02 0. -1.
</event>
<event>
 5    1  0.1072898E-008  0.3840550E+03  0.7957747E-01  0.3433690E+00
         13   -1    0    0    0    0  0.00000000000E+00  0.00000000000E+00  0.14999999963E+04  0.15000000000E+04  0.10566000000E+00 0. -1.
        994   -1    0    0    0    0 -0.00000000000E+00 -0.00000000000E+00  0.11368683772E-12  0.17120000000E+03  0.17120000000E+03 0.  0.
         13    1    1    2    0    0  0.20690015531E+01  0.22561692865E+02  0.12774074477E+03  0.12973442023E+03  0.10566000000E+00 0. -1.
        994    1    1    2    0    0 -0.51619473268E+00 -0.79708235883E+01  0.23105520132E+01  0.17140180611E+03  0.17120000000E+03 0.  0.
        998    1    1    2    0    0 -0.15528068204E+01 -0.14590869277E+02  0.13699486995E+04  0.13700637737E+04  0.10000000000E+02 0. -1.
</event>
<event>
 5    1  0.1072898E-008  0.3848059E+03  0.7957747E-01  0.3430496E+00
         13   -1    0    0    0    0  0.00000000000E+00  0.00000000000E+00  0.14999999963E+04  0.15000000000E+04  0.10566000000E+00 0.  1.
        994   -1    0    0    0    0 -0.00000000000E+00 -0.00000000000E+00  0.11368683772E-12  0.17120000000E+03  0.17120000000E+03 0.  0.
         13    1    1    2    0    0  0.11139307892E+02  0.12928565972E+02  0.87283526656E+02  0.88936253507E+02  0.10566000000E+00 0.  1.
        994    1    1    2    0    0 -0.24466925946E+00 -0.79331676736E+01  0.19338646094E+01  0.17139479235E+03  0.17120000000E+03 0.  0.
        998    1    1    2    0    0 -0.10894638632E+02 -0.49953982985E+01  0.14107826050E+04  0.14108689541E+04  0.10000000000E+02 0.  1.
</event>
<event>
 5    1  0.1072898E-008  0.3712358E+03  0.7957747E-01  0.3490231E+00
         13   -1    0    0    0    0  0.00000000000E+00  0.00000000000E+00  0.14999999963E+04  0.15000000000E+04  0.10566000000E+00 0.  1.
        994   -1    0    0    0    0 -0.00000000000E+00 -0.00000000000E+00  0.11368683772E-12  0.17120000000E+03  0.17120000000E+03 0.  0.
         13    1    1    2    0    0 -0.63030321408E+02  0.82142258407E+02  0.42600855006E+03  0.43841015947E+03  0.10566000000E+00 0.  1.
        994    1    1    2    0    0  0.13421583728E+03 -0.43013288195E+02  0.80465655853E+02  0.23589869798E+03  0.17120000000E+03 0.  0.
        998    1    1    2    0    0 -0.71185515872E+02 -0.39128970212E+02  0.99352579036E+03  0.99689114255E+03  0.10000000000E+02 0. -1.
</event>
<event>
 5    1  0.1072898E-008  0.3736398E+03  0.7957747E-01  0.3479329E+00
         13   -1    0    0    0    0  0.00000000000E+00  0.00000000000E+00  0.14999999963E+04  0.15000000000E+04  0.10566000000E+00 0. -1.
        994   -1    0    0    0    0 -0.00000000000E+00 -0.00000000000E+00  0.11368683772E-12  0.17120000000E+03  0.17120000000E+03 0.  0.
         13    1    1    2    0    0  0.28927804606E+02  0.69068889173E+01  0.30774745425E+02  0.42797419476E+02  0.10566000000E+00 0. -1.
        994    1    1    2    0    0  0.65435492161E+01 -0.19000637671E+02  0.14307801840E+02  0.17296819205E+03  0.17120000000E+03 0.  0.
        998    1    1    2    0    0 -0.35471353822E+02  0.12093748753E+02  0.14549174490E+04  0.14554343885E+04  0.10000000000E+02 0. -1.
</event>
<event>
 5    1  0.1072898E-008  0.3957351E+03  0.7957747E-01  0.3385382E+00
         13   -1    0    0    0    0  0.00000000000E+00  0.00000000000E+00  0.14999999963E+04  0.15000000000E+04  0.10566000000E+00 0. -1.
        994   -1    0    0    0    0 -0.00000000000E+00 -0.00000000000E+00  0.11368683772E-12  0.17120000000E+03  0.17120000000E+03 0.  0.
         13    1    1    2    0    0  0.18544278666E+02  0.48262522029E+02  0.42817625885E+02  0.67130630522E+02  0.10566000000E+00 0. -1.
        994    1    1    2    0    0 -0.73426490893E+00 -0.51701665352E+02  0.35613441571E+02  0.18234955049E+03  0.17120000000E+03 0.  0.
        998    1    1    2    0    0 -0.17810013757E+02  0.34391433224E+01  0.14215689288E+04  0.14217198190E+04  0.10000000000E+02 0. -1.
</event>
<event>
 5    1  0.1072898E-008  0.3857454E+03  0.7957747E-01  0.3426517E+00
         13   -1    0    0    0    0  0.00000000000E+00  0.00000000000E+00  0.14999999963E+04  0.15000000000E+04  0.10566000000E+00 0. -1.
        994   -1    0    0    0    0 -0.00000000000E+00 -0.00000000000E+00  0.11368683772E-12  0.17120000000E+03  0.17120000000E+03 0.  0.
         13    1    1    2    0    0 -0.13818486681E+02 -0.10253609139E+01  0.73775657330E+02  0.75065709333E+02  0.10566000000E+00 0. -1.
        994    1    1    2    0    0  0.14008728826E+02  0.58071688790E+01  0.20153327435E+01  0.17188213770E+03  0.17120000000E+03 0.  0.
        998    1    1    2    0    0 -0.19024214440E+00 -0.47818079651E+01  0.14242090062E+04  0.14242521530E+04  0.10000000000E+02 0. -1.
</event>
<event>
 5    1  0.1072898E-008  0.3845298E+03  0.7957747E-01  0.3431669E+00
         13   -1    0    0    0    0  0.00000000000E+00  0.00000000000E+00  0.14999999963E+04  0.15000000000E+04  0.10566000000E+00 0.  1.
        994   -1    0    0    0    0 -0.00000000000E+00 -0.00000000000E+00  0.11368683772E-12  0.17120000000E+03  0.17120000000E+03 0.  0.
         13    1    1    2    0    0  0.13594742603E+02 -0.12221584435E+02  0.92960024007E+02  0.94740494932E+02  0.10566000000E+00 0.  1.
        994    1    1    2    0    0 -0.44339716310E+01  0.45030294436E+01  0.19953344221E+01  0.17132821933E+03  0.17120000000E+03 0.  0.
        998    1    1    2    0    0 -0.91607709720E+01  0.77185549916E+01  0.14050446378E+04  0.14051312857E+04  0.10000000000E+02 0.  1.
</event>
<event>
 5    1  0.1214244E-008  0.3861673E+03  0.7957747E-01  0.3424736E+00
         13   -1    0    0    0    0  0.00000000000E+00  0.00000000000E+00  0.14999999963E+04  0.15000000000E+04  0.10566000000E+00 0. -1.
        994   -1    0    0    0    0 -0.00000000000E+00 -0.00000000000E+00  0.11368683772E-12  0.17120000000E+03  0.17120000000E+03 0.  0.
         13    1    1    2    0    0 -0.10208950167E+02  0.45145884772E+01  0.56352915725E+02  0.57447945545E+02  0.10566000000E+00 0. -1.
        994    1    1    2    0    0  0.15920186560E+02 -0.47169489102E+01  0.19554684002E+01  0.17201443487E+03  0.17120000000E+03 0.  0.
        998    1    1    2    0    0 -0.57112363933E+01  0.20236043302E+00  0.14416916122E+04  0.14417376196E+04  0.10000000000E+02 0. -1.
</event>
<event>
 5    1  0.1072898E-008  0.3715684E+03  0.7957747E-01  0.3488714E+00
         13   -1    0    0    0    0  0.00000000000E+00  0.00000000000E+00  0.14999999963E+04  0.15000000000E+04  0.10566000000E+00 0. -1.
        994   -1    0    0    0    0 -0.00000000000E+00 -0.00000000000E+00  0.11368683772E-12  0.17120000000E+03  0.17120000000E+03 0.  0.
         13    1    1    2    0    0  0.10804755490E+03 -0.38285562645E+02  0.39006637231E+03  0.40656099714E+03  0.10566000000E+00 0. -1.
        994    1    1    2    0    0 -0.11543761915E+03  0.27593807277E+02  0.63084025582E+02  0.21766096664E+03  0.17120000000E+03 0.  0.
        998    1    1    2    0    0  0.73900642472E+01  0.10691755368E+02  0.10468495984E+04  0.10469780362E+04  0.10000000000E+02 0. -1.
</event>
<event>
 5    1  0.1072898E-008  0.3842072E+03  0.7957747E-01  0.3433041E+00
         13   -1    0    0    0    0  0.00000000000E+00  0.00000000000E+00  0.14999999963E+04  0.15000000000E+04  0.10566000000E+00 0. -1.
        994   -1    0    0    0    0 -0.00000000000E+00 -0.00000000000E+00  0.11368683772E-12  0.17120000000E+03  0.17120000000E+03 0.  0.
         13    1    1    2    0    0  0.80921301414E+01 -0.12406826844E+02  0.56093824054E+02  0.58016723310E+02  0.10566000000E+00 0. -1.
        994    1    1    2    0    0 -0.60555847867E+01 -0.14255199913E+01  0.21518740028E+01  0.17132650926E+03  0.17120000000E+03 0.  0.
        998    1    1    2    0    0 -0.20365453547E+01  0.13832346836E+02  0.14417542982E+04  0.14418567674E+04  0.10000000000E+02 0. -1.
</event>
<event>
 5    1  0.1072898E-008  0.3823091E+03  0.7957747E-01  0.3441165E+00
         13   -1    0    0    0    0  0.00000000000E+00  0.00000000000E+00  0.14999999963E+04  0.15000000000E+04  0.10566000000E+00 0.  1.
        994   -1    0    0    0    0 -0.00000000000E+00 -0.00000000000E+00  0.11368683772E-12  0.17120000000E+03  0.17120000000E+03 0.  0.
         13    1    1    2    0    0 -0.21788343850E+01 -0.12061995342E+02  0.23597406707E+02  0.26591122922E+02  0.10566000000E+00 0.  1.
        994    1    1    2    0    0  0.11127404666E+02  0.14137667341E+02  0.40466523234E+01  0.17219032542E+03  0.17120000000E+03 0.  0.
        998    1    1    2    0    0 -0.89485702809E+01 -0.20756719987E+01  0.14723559372E+04  0.14724185517E+04  0.10000000000E+02 0.  1.
</event>
<event>
 5    1  0.1072898E-008  0.3784213E+03  0.7957747E-01  0.3458061E+00
         13   -1    0    0    0    0  0.00000000000E+00  0.00000000000E+00  0.14999999963E+04  0.15000000000E+04  0.10566000000E+00 0. -1.
        994   -1    0    0    0    0 -0.00000000000E+00 -0.00000000000E+00  0.11368683772E-12  0.17120000000E+03  0.17120000000E+03 0.  0.
         13    1    1    2    0    0 -0.26363288528E+02 -0.22833480001E+02  0.12470951549E+03  0.12949465320E+03  0.10566000000E+00 0. -1.
        994    1    1    2    0    0  0.10872617231E+02  0.12037909585E+02  0.58169037967E+01  0.17206510815E+03  0.17120000000E+03 0.  0.
        998    1    1    2    0    0  0.15490671297E+02  0.10795570415E+02  0.13694735770E+04  0.13696402386E+04  0.10000000000E+02 0. -1.
</event>
<event>
 5    1  0.1072898E-008  0.3845468E+03  0.7957747E-01  0.3431596E+00
         13   -1    0    0    0    0  0.00000000000E+00  0.00000000000E+00  0.14999999963E+04  0.15000000000E+04  0.10566000000E+00 0. -1.
        994   -1    0    0    0    0 -0.00000000000E+00 -0.00000000000E+00  0.11368683772E-12  0.17120000000E+03  0.17120000000E+03 0.  0.
         13    1    1    2    0    0 -0.16087316631E+02  0.37976018574E+01  0.71295969956E+02  0.73187089246E+02  0.10566000000E+00 0. -1.
        994    1    1    2    0    0  0.15312187967E+02 -0.26844331412E+01  0.26516324890E+01  0.17192481042E+03  0.17120000000E+03 0.  0.
        998    1    1    2    0    0  0.77512866391E+00 -0.11131687162E+01  0.14260523938E+04  0.14260881003E+04  0.10000000000E+02 0. -1.
</event>
<event>
 5    1  0.1072898E-008  0.3797503E+03  0.7957747E-01  0.3452246E+00
         13   -1    0    0    0    0  0.00000000000E+00  0.00000000000E+00  0.14999999963E+04  0.15000000000E+04  0.10566000000E+00 0.  1.
        994   -1    0    0    0    0 -0.00000000000E+00 -0.00000000000E+00  0.11368683772E-12  0.17120000000E+03  0.17120000000E+03 0.  0.
         13    1    1    2    0    0  0.91731012486E+02  0.25562491708E+01  0.43172708358E+03  0.44137217733E+03  0.10566000000E+00 0.  1.
        994    1    1    2    0    0 -0.13560277280E+03 -0.41992161388E+02  0.74925432024E+02  0.23468002466E+03  0.17120000000E+03 0.  0.
        998    1    1    2    0    0  0.43871760313E+02  0.39435912217E+02  0.99334748068E+03  0.99514779802E+03  0.10000000000E+02 0. -1.
</event>
<event>
 5    1  0.1072898E-008  0.3848692E+03  0.7957747E-01  0.3430227E+00
         13   -1    0    0    0    0  0.00000000000E+00  0.00000000000E+00  0.14999999963E+04  0.15000000000E+04  0.10566000000E+00 0. -1.
        994   -1    0    0    0    0 -0.00000000000E+00 -0.00000000000E+00  0.11368683772E-12  0.17120000000E+03  0.17120000000E+03 0.  0.
         13    1    1    2    0    0 -0.17348795788E+02  0.45538185179E+02  0.52758177326E+02  0.71820216259E+02  0.10566000000E+00 0. -1.
        994    1    1    2    0    0  0.20444953464E+02 -0.50638716981E+02  0.30114745586E+02  0.18220486734E+03  0.17120000000E+03 0.  0.
        998    1    1    2    0    0 -0.30961576767E+01  0.51005318027E+01  0.14171270734E+04  0.14171749164E+04  0.10000000000E+02 0. -1.
</event>
<event>
 5    1  0.1072898E-008  0.3793514E+03  0.7957747E-01  0.3453988E+00
         13   -1    0    0    0    0  0.00000000000E+00  0.00000000000E+00  0.14999999963E+04  0.15000000000E+04  0.10566000000E+00 0.  1.
        994   -1    0    0    0    0 -0.00000000000E+00 -0.00000000000E+00  0.11368683772E-12  0.17120000000E+03  0.17120000000E+03 0.  0.
         13    1    1    2    0    0 -0.69243787378E+01 -0.18040399743E+02  0.39562524188E+02  0.44029621029E+02  0.10566000000E+00 0.  1.
        994    1    1    2    0    0  0.18290103733E+01  0.17607339813E+02  0.55114312721E+01  0.17220098597E+03  0.17120000000E+03 0.  0.
        998    1    1    2    0    0  0.50953683645E+01  0.43305992999E+00  0.14549260408E+04  0.14549693930E+04  0.10000000000E+02 0.  1.
</event>
<event>
 5    1  0.1072898E-008  0.3713033E+03  0.7957747E-01  0.3489923E+00
         13   -1    0    0    0    0  0.00000000000E+00  0.00000000000E+00  0.14999999963E+04  0.15000000000E+04  0.10566000000E+00 0.  1.
        994   -1    0    0    0    0 -0.00000000000E+00 -0.00000000000E+00  0.11368683772E-12  0.17120000000E+03  0.17120000000E+03 0.  0.
         13    1    1    2    0    0  0.25524577992E+02  0.31590712948E+02  0.63205590264E+02  0.75129455148E+02  0.10566000000E+00 0.  1.
        994    1    1    2    0    0 -0.28661790046E+02 -0.34640969348E+02  0.18763023352E+02  0.17799715169E+03  0.17120000000E+03 0.  0.
        998    1    1    2    0    0  0.31372120539E+01  0.30502564006E+01  0.14180313827E+04  0.14180733932E+04  0.10000000000E+02 0.  1.
</event>
<event>
 5    1  0.1072898E-008  0.3764237E+03  0.7957747E-01  0.3466880E+00
         13   -1    0    0    0    0  0.00000000000E+00  0.00000000000E+00  0.14999999963E+04  0.15000000000E+04  0.10566000000E+00 0. -1.
        994   -1    0    0    0    0 -0.00000000000E+00 -0.00000000000E+00  0.11368683772E-12  0.17120000000E+03  0.17120000000E+03 0.  0.
         13    1    1    2    0    0 -0.42381248859E+02 -0.17281545569E+03  0.80724367082E+03  0.82662186472E+03  0.10566000000E+00 0. -1.
        994    1    1    2    0    0  0.60915492993E+02  0.18188195540E+03  0.14270833008E+03  0.29405246209E+03  0.17120000000E+03 0.  0.
        998    1    1    2    0    0 -0.18534244134E+02 -0.90664997113E+01  0.55004799538E+03  0.55052567319E+03  0.10000000000E+02 0. -1.
</event>
<event>
 5    1  0.1072898E-008  0.3775848E+03  0.7957747E-01  0.3461743E+00
         13   -1    0    0    0    0  0.00000000000E+00  0.00000000000E+00  0.14999999963E+04  0.15000000000E+04  0.10566000000E+00 0.  1.
        994   -1    0    0    0    0 -0.00000000000E+00 -0.00000000000E+00  0.11368683772E-12  0.17120000000E+03  0.17120000000E+03 0.  0.
         13    1    1    2    0    0  0.53342355394E+01  0.96867413040E+01  0.89347231922E+01  0.14217154020E+02  0.10566000000E+00 0.  1.
        994    1    1    2    0    0 -0.19667655955E+01 -0.11570422402E+02  0.58216399089E+01  0.17170053679E+03  0.17120000000E+03 0.  0.
        998    1    1    2    0    0 -0.33674699438E+01  0.18836810985E+01  0.14852436332E+04  0.14852823092E+04  0.10000000000E+02 0.  1.
</event>
<event>
 5    1  0.1072898E-008  0.3826524E+03  0.7957747E-01  0.3439690E+00
         13   -1    0    0    0    0  0.00000000000E+00  0.00000000000E+00  0.14999999963E+04  0.15000000000E+04  0.10566000000E+00 0. -1.
        994   -1    0    0    0    0 -0.00000000000E+00 -0.00000000000E+00  0.11368683772E-12  0.17120000000E+03  0.17120000000E+03 0.  0.
         13    1    1    2    0    0  0.20831129268E+01 -0.13685092271E+02  0.31915581811E+02  0.34788455503E+02  0.10566000000E+00 0. -1.
        994    1    1    2    0    0  0.38648794565E+01  0.21556189912E+02  0.43911651021E+01  0.17265088748E+03  0.17120000000E+03 0.  0.
        998    1    1    2    0    0 -0.59479923833E+01 -0.78710976412E+01  0.14636932494E+04  0.14637606570E+04  0.10000000000E+02 0. -1.
</event>
<event>
 5    1  0.1072898E-008  0.3017662E+03  0.7957747E-01  0.3883490E+00
         13   -1    0    0    0    0  0.00000000000E+00  0.00000000000E+00  0.14999999963E+04  0.15000000000E+04  0.10566000000E+00 0. -1.
        994   -1    0    0    0    0 -0.00000000000E+00 -0.00000000000E+00  0.11368683772E-12  0.17120000000E+03  0.17120000000E+03 0.  0.
         13    1    1    2    0    0 -0.19576284782E+03 -0.54474298610E+02  0.60388571269E+03  0.63715657962E+03  0.10566000000E+00 0. -1.
        994    1    1    2    0    0  0.19941373221E+03  0.62201390859E+02  0.19576090540E+03  0.33356651765E+03  0.17120000000E+03 0.  0.
        998    1    1    2    0    0 -0.36508843824E+01 -0.77270922490E+01  0.70035337819E+03  0.70047690273E+03  0.10000000000E+02 0. -1.
</event>
<event>
 5    1  0.1072898E-008  0.3721996E+03  0.7957747E-01  0.3485843E+00
         13   -1    0    0    0    0  0.00000000000E+00  0.00000000000E+00  0.14999999963E+04  0.15000000000E+04  0.10566000000E+00 0.  1.
        994   -1    0    0    0    0 -0.00000000000E+00 -0.00000000000E+00  0.11368683772E-12  0.17120000000E+03  0.17120000000E+03 0.  0.
         13    1    1    2    0    0 -0.13107164319E+02  0.15144795588E+03  0.47619065515E+03  0.49986581431E+03  0.10566000000E+00 0.  1.
        994    1    1    2    0    0  0.35801596511E+02 -0.17567155543E+03  0.13581093434E+03  0.28265933487E+03  0.17120000000E+03 0.  0.
        998    1    1    2    0    0 -0.22694432192E+02  0.24223599550E+02  0.88799840679E+03  0.88867485082E+03  0.10000000000E+02 0. -1.
</event>
<event>
 5    1  0.1072898E-008  0.3836615E+03  0.7957747E-01  0.3435369E+00
         13   -1    0    0    0    0  0.00000000000E+00  0.00000000000E+00  0.14999999963E+04  0.15000000000E+04  0.10566000000E+00 0.  1.
        994   -1    0    0    0    0 -0.00000000000E+00 -0.00000000000E+00  0.11368683772E-12  0.17120000000E+03  0.17120000000E+03 0.  0.
         13    1    1    2    0    0 -0.16631039288E+02 -0.22299861169E+01  0.68835748131E+02  0.70851504506E+02  0.10566000000E+00 0.  1.
        994    1    1    2    0    0 -0.10421790536E+02 -0.54690959196E+01  0.27538376047E+01  0.17162618783E+03  0.17120000000E+03 0.  0.
        998    1    1    2    0    0  0.27052829824E+02  0.76990820364E+01  0.14284104105E+04  0.14287223077E+04  0.10000000000E+02 0.  1.
</event>
<event>
 5    1  0.1072898E-008  0.3728360E+03  0.7957747E-01  0.3482958E+00
         13   -1    0    0    0    0  0.00000000000E+00  0.00000000000E+00  0.14999999963E+04  0.15000000000E+04  0.10566000000E+00 0. -1.
        994   -1    0    0    0    0 -0.00000000000E+00 -0.00000000000E+00  0.11368683772E-12  0.17120000000E+03  0.17120000000E+03 0.  0.
         13    1    1    2    0    0  0.19325223667E+02 -0.61280842612E+02  0.19213006662E+03  0.20259017647E+03  0.10566000000E+00 0. -1.
        994    1    1    2    0    0  0.91075869363E+01  0.49837245066E+01  0.12827016994E+02  0.17199348248E+03  0.17120000000E+03 0.  0.
        998    1    1    2    0    0 -0.28432810603E+02  0.56297118105E+02  0.12950429127E+04  0.12966163410E+04  0.10000000000E+02 0. -1.
</event>
<event>
 5    1  0.1072898E-008  0.3778406E+03  0.7957747E-01  0.3460615E+00
         13   -1    0    0    0    0  0.00000000000E+00  0.00000000000E+00  0.14999999963E+04  0.15000000000E+04  0.10566000000E+00 0. -1.
        994   -1    0    0    0    0 -0.00000000000E+00 -0.00000000000E+00  0.11368683772E-12  0.17120000000E+03  0.17120000000E+03 0.  0.
         13    1    1    2    0    0 -0.11389562269E+02  0.46083957354E+02  0.20388055255E+03  0.20933404914E+03  0.10566000000E+00 0. -1.
        994    1    1    2    0    0  0.19075460264E+02 -0.30941613545E+02  0.96886767338E+01  0.17528424655E+03  0.17120000000E+03 0.  0.
        998    1    1    2    0    0 -0.76858979948E+01 -0.15142343809E+02  0.12864307670E+04  0.12865817043E+04  0.10000000000E+02 0. -1.
</event>
<event>
 5    1  0.1072898E-008  0.3801592E+03  0.7957747E-01  0.3450466E+00
         13   -1    0    0    0    0  0.00000000000E+00  0.00000000000E+00  0.14999999963E+04  0.15000000000E+04  0.10566000000E+00 0. -1.
        994   -1    0    0    0    0 -0.00000000000E+00 -0.00000000000E+00  0.11368683772E-12  0.17120000000E+03  0.17120000000E+03 0.  0.
         13    1    1    2    0    0 -0.90414730459E+01  0.14907313554E+02  0.36434799304E+02  0.40391607997E+02  0.10566000000E+00 0. -1.
        994    1    1    2    0    0  0.13697431318E+01 -0.80182695039E+01  0.42739139129E+01  0.17144642073E+03  0.17120000000E+03 0.  0.
        998    1    1    2    0    0  0.76717299141E+01 -0.68890440504E+01  0.14592912831E+04  0.14593619713E+04  0.10000000000E+02 0. -1.
</event>
<event>
 5    1  0.1072898E-008  0.3779334E+03  0.7957747E-01  0.3460207E+00
         13   -1    0    0    0    0  0.00000000000E+00  0.00000000000E+00  0.14999999963E+04  0.15000000000E+04  0.10566000000E+00 0.  1.
        994   -1    0    0    0    0 -0.00000000000E+00 -0.00000000000E+00  0.11368683772E-12  0.17120000000E+03  0.17120000000E+03 0.  0.
         13    1    1    2    0    0 -0.46819292358E+02 -0.10555398920E+01  0.26290537866E+03  0.26704383459E+03  0.10566000000E+00 0.  1.
        994    1    1    2    0    0 -0.92892776953E+00  0.92815371807E+01  0.54729418147E+01  0.17154125723E+03  0.17120000000E+03 0.  0.
        998    1    1    2    0    0  0.47748220128E+02 -0.82259972887E+01  0.12316216758E+04  0.12326149082E+04  0.10000000000E+02 0.  1.
</event>
<event>
 5    1  0.1072898E-008  0.3146924E+03  0.7957747E-01  0.3796409E+00
         13   -1    0    0    0    0  0.00000000000E+00  0.00000000000E+00  0.14999999963E+04  0.15000000000E+04  0.10566000000E+00 0.  1.
        994   -1    0    0    0    0 -0.00000000000E+00 -0.00000000000E+00  0.11368683772E-12  0.17120000000E+03  0.17120000000E+03 0.  0.
         13    1    1    2    0    0  0.22267376921E+03 -0.86428511507E+02  0.63202910797E+03  0.67565841931E+03  0.10566000000E+00 0.  1.
        994    1    1    2    0    0 -0.21309967269E+03  0.90910102176E+02  0.26200122821E+03  0.38939722747E+03  0.17120000000E+03 0.  0.
        998    1    1    2    0    0 -0.95740965155E+01 -0.44815906692E+01  0.60596966010E+03  0.60614435322E+03  0.10000000000E+02 0.  0.
</event>
<event>
 5    1  0.1072898E-008  0.3794264E+03  0.7957747E-01  0.3453660E+00
         13   -1    0    0    0    0  0.00000000000E+00  0.00000000000E+00  0.14999999963E+04  0.15000000000E+04  0.10566000000E+00 0. -1.
        994   -1    0    0    0    0 -0.00000000000E+00 -0.00000000000E+00  0.11368683772E-12  0.17120000000E+03  0.17120000000E+03 0.  0.
         13    1    1    2    0    0  0.15985639500E+02  0.57450332569E+02  0.35838980649E+03  0.36331714237E+03  0.10566000000E+00 0. -1.
        994    1    1    2    0    0  0.21468207835E+01 -0.47873458762E+02  0.12153175113E+02  0.17819544483E+03  0.17120000000E+03 0.  0.
        998    1    1    2    0    0 -0.18132460283E+02 -0.95768738064E+01  0.11294570147E+04  0.11296874128E+04  0.10000000000E+02 0. -1.
</event>
<event>
 5    1  0.1072898E-008  0.3831881E+03  0.7957747E-01  0.3437393E+00
         13   -1    0    0    0    0  0.00000000000E+00  0.00000000000E+00  0.14999999963E+04  0.15000000000E+04  0.10566000000E+00 0. -1.
        994   -1    0    0    0    0 -0.00000000000E+00 -0.00000000000E+00  0.11368683772E-12  0.17120000000E+03  0.17120000000E+03 0.  0.
         13    1    1    2    0    0 -0.13588081898E+02  0.69588321525E+01  0.45992099734E+02  0.48459732940E+02  0.10566000000E+00 0. -1.
        994    1    1    2    0    0  0.71664563805E+01 -0.40083050302E+00  0.27028164968E+01  0.17137171289E+03  0.17120000000E+03 0.  0.
        998    1    1    2    0    0  0.64216255171E+01 -0.65580016495E+01  0.14513050800E+04  0.14513685542E+04  0.10000000000E+02 0. -1.
</event>
<event>
 5    1  0.1072898E-008  0.3842097E+03  0.7957747E-01  0.3433031E+00
         13   -1    0    0    0    0  0.00000000000E+00  0.00000000000E+00  0.14999999963E+04  0.15000000000E+04  0.10566000000E+00 0.  1.
        994   -1    0    0    0    0 -0.00000000000E+00 -0.00000000000E+00  0.11368683772E-12  0.17120000000E+03  0.17120000000E+03 0.  0.
         13    1    1    2    0    0  0.74178038909E+01  0.11530077326E+02  0.46419367838E+02  0.48401811663E+02  0.10566000000E+00 0.  1.
        994    1    1    2    0    0 -0.28630601667E+01 -0.70901379240E+01  0.22158243668E+01  0.17138499656E+03  0.17120000000E+03 0.  0.
        998    1    1    2    0    0 -0.45547437242E+01 -0.44399394018E+01  0.14513648041E+04  0.14514131918E+04  0.10000000000E+02 0.  1.
</event>
<event>
 5    1  0.1072898E-008  0.3771729E+03  0.7957747E-01  0.3463561E+00
         13   -1    0    0    0    0  0.00000000000E+00  0.00000000000E+00  0.14999999963E+04  0.15000000000E+04  0.10566000000E+00 0. -1.
        994   -1    0    0    0    0 -0.00000000000E+00 -0.00000000000E+00  0.11368683772E-12  0.17120000000E+03  0.17120000000E+03 0.  0.
         13    1    1    2    0    0  0.83333333548E+01 -0.90827204503E+01  0.11109978064E+02  0.16594668788E+02  0.10566000000E+00 0. -1.
        994    1    1    2    0    0 -0.27374721969E+01  0.12449089048E+02  0.61155378166E+01  0.17178275052E+03  0.17120000000E+03 0.  0.
        998    1    1    2    0    0 -0.55958611578E+01 -0.33663685977E+01  0.14827744804E+04  0.14828225807E+04  0.10000000000E+02 0. -1.
</event>
<event>
 5    1  0.1072898E-008  0.3832856E+03  0.7957747E-01  0.3436976E+00
         13   -1    0    0    0    0  0.00000000000E+00  0.00000000000E+00  0.14999999963E+04  0.15000000000E+04  0.10566000000E+00 0. -1.
        994   -1    0    0    0    0 -0.00000000000E+00 -0.00000000000E+00  0.11368683772E-12  0.17120000000E+03  0.17120000000E+03 0.  0.
         13    1    1    2    0    0  0.16694465661E+02 -0.16145827883E+01  0.57074988086E+02  0.59488465187E+02  0.10566000000E+00 0. -1.
        994    1    1    2    0    0 -0.71447276481E+01 -0.19783375546E+01  0.26655004146E+01  0.17138117121E+03  0.17120000000E+03 0.  0.
        998    1    1    2    0    0 -0.95497380126E+01  0.35929203430E+01  0.14402595078E+04  0.14403303636E+04  0.10000000000E+02 0. -1.
</event>
<event>
 5    1  0.1072898E-008  0.3827848E+03  0.7957747E-01  0.3439122E+00
         13   -1    0    0    0    0  0.00000000000E+00  0.00000000000E+00  0.14999999963E+04  0.15000000000E+04  0.10566000000E+00 0. -1.
        994   -1    0    0    0    0 -0.00000000000E+00 -0.00000000000E+00  0.11368683772E-12  0.17120000000E+03  0.17120000000E+03 0.  0.
         13    1    1    2    0    0 -0.35411250993E+00 -0.15231325467E+02  0.41661540486E+02  0.44360047237E+02  0.10566000000E+00 0. -1.
        994    1    1    2    0    0 -0.33752038005E+00  0.96474531443E+01  0.30426726582E+01  0.17149893623E+03  0.17120000000E+03 0.  0.
        998    1    1    2    0    0  0.69163288998E+00  0.55838723226E+01  0.14552957831E+04  0.14553410165E+04  0.10000000000E+02 0. -1.
</event>
<event>
 5    1  0.1072898E-008  0.3708388E+03  0.7957747E-01  0.3492045E+00
         13   -1    0    0    0    0  0.00000000000E+00  0.00000000000E+00  0.14999999963E+04  0.15000000000E+04  0.10566000000E+00 0.  1.
        994   -1    0    0    0    0 -0.00000000000E+00 -0.00000000000E+00  0.11368683772E-12  0.17120000000E+03  0.17120000000E+03 0.  0.
         13    1    1    2    0    0  0.45170733335E+02 -0.13193306704E+02  0.12578454391E+03  0.13429899904E+03  0.10566000000E+00 0.  1.
        994    1    1    2    0    0 -0.19999551035E+02  0.10713295356E+02  0.10607996778E+02  0.17302232901E+03  0.17120000000E+03 0.  0.
        998    1    1    2    0    0 -0.25171182299E+02  0.24800113477E+01  0.13636074556E+04  0.13638786720E+04  0.10000000000E+02 0.  1.
</event>
<event>
 5    1  0.1072898E-008  0.3838887E+03  0.7957747E-01  0.3434399E+00
         13   -1    0    0    0    0  0.00000000000E+00  0.00000000000E+00  0.14999999963E+04  0.15000000000E+04  0.10566000000E+00 0.  1.
        994   -1    0    0    0    0 -0.00000000000E+00 -0.00000000000E+00  0.11368683772E-12  0.17120000000E+03  0.17120000000E+03 0.  0.
         13    1    1    2    0    0 -0.14323213723E+02  0.18926939497E+02  0.13768050689E+03  0.13971154796E+03  0.10566000000E+00 0.  1.
        994    1    1    2    0    0  0.34537614442E+01 -0.50801253654E+01  0.23074328847E+01  0.17132571432E+03  0.17120000000E+03 0.  0.
        998    1    1    2    0    0  0.10869452279E+02 -0.13846814131E+02  0.13600120565E+04  0.13601627377E+04  0.10000000000E+02 0.  1.
</event>
<event>
 5    1  0.1384871E-008  0.3860741E+03  0.7957747E-01  0.3425130E+00
         13   -1    0    0    0    0  0.00000000000E+00  0.00000000000E+00  0.14999999963E+04  0.15000000000E+04  0.10566000000E+00 0.  1.
        994   -1    0    0    0    0 -0.00000000000E+00 -0.00000000000E+00  0.11368683772E-12  0.17120000000E+03  0.17120000000E+03 0.  0.
         13    1    1    2    0    0 -0.35767605505E+01  0.11376749749E+02  0.66466267197E+02  0.67527768289E+02  0.10566000000E+00 0.  1.
        994    1    1    2    0    0  0.22347809891E+01 -0.58791710720E+01  0.12274772310E+01  0.17131989260E+03  0.17120000000E+03 0.  0.
        998    1    1    2    0    0  0.13419795615E+01 -0.54975786774E+01  0.14323062519E+04  0.14323523391E+04  0.10000000000E+02 0.  1.
</event>
<event>
 5    1  0.1072898E-008  0.3862072E+03  0.7957747E-01  0.3424569E+00
         13   -1    0    0    0    0  0.00000000000E+00  0.00000000000E+00  0.14999999963E+04  0.15000000000E+04  0.10566000000E+00 0.  1.
        994   -1    0    0    0    0 -0.00000000000E+00 -0.00000000000E+00  0.11368683772E-12  0.17120000000E+03  0.17120000000E+03 0.  0.
         13    1    1    2    0    0 -0.22369295355E+01  0.10680169195E+02  0.61136285505E+02  0.62102547751E+02  0.10566000000E+00 0.  1.
        994    1    1    2    0    0  0.80631627922E+01 -0.24608984098E+00  0.12451802130E+01  0.17139447374E+03  0.17120000000E+03 0.  0.
        998    1    1    2    0    0 -0.58262332567E+01 -0.10434079354E+02  0.14376185306E+04  0.14377029785E+04  0.10000000000E+02 0.  1.
</event>
<event>
 5    1  0.1072898E-008  0.3826405E+03  0.7957747E-01  0.3439741E+00
         13   -1    0    0    0    0  0.00000000000E+00  0.00000000000E+00  0.14999999963E+04  0.15000000000E+04  0.10566000000E+00 0. -1.
        994   -1    0    0    0    0 -0.00000000000E+00 -0.00000000000E+00  0.11368683772E-12  0.17120000000E+03  0.17120000000E+03 0.  0.
         13    1    1    2    0    0 -0.68579199874E+00 -0.12118282976E+02  0.28331240556E+02  0.30821963734E+02  0.10566000000E+00 0. -1.
        994    1    1    2    0    0  0.12435524913E+01 -0.25200201099E+02  0.49186939776E+01  0.17311912115E+03  0.17120000000E+03 0.  0.
        998    1    1    2    0    0 -0.55776049257E+00  0.37318484075E+02  0.14667500617E+04  0.14672589151E+04  0.10000000000E+02 0. -1.
</event>
<event>
 5    1  0.1072898E-008  0.3847268E+03  0.7957747E-01  0.3430832E+00
         13   -1    0    0    0    0  0.00000000000E+00  0.00000000000E+00  0.14999999963E+04  0.15000000000E+04  0.10566000000E+00 0. -1.
        994   -1    0    0    0    0 -0.00000000000E+00 -0.00000000000E+00  0.11368683772E-12  0.17120000000E+03  0.17120000000E+03 0.  0.
         13    1    1    2    0    0 -0.15973864321E+02  0.89980286610E+01  0.10033554830E+03  0.10199687387E+03  0.10566000000E+00 0. -1.
        994    1    1    2    0    0  0.29303765006E+01 -0.42937714028E+01  0.18548095556E+01  0.17128894856E+03  0.17120000000E+03 0.  0.
        998    1    1    2    0    0  0.13043487820E+02 -0.47042572582E+01  0.13978096384E+04  0.13979141776E+04  0.10000000000E+02 0. -1.
</event>
<event>
 5    1  0.1072898E-008  0.3855723E+03  0.7957747E-01  0.3427249E+00
         13   -1    0    0    0    0  0.00000000000E+00  0.00000000000E+00  0.14999999963E+04  0.15000000000E+04  0.10566000000E+00 0. -1.
        994   -1    0    0    0    0 -0.00000000000E+00 -0.00000000000E+00  0.11368683772E-12  0.17120000000E+03  0.17120000000E+03 0.  0.
         13    1    1    2    0    0  0.43515581603E+01  0.12192836593E+02  0.69288791294E+02  0.70487935746E+02  0.10566000000E+00 0. -1.
        994    1    1    2    0    0 -0.31120769611E+01  0.66786202059E+01  0.15245089569E+01  0.17136526229E+03  0.17120000000E+03 0.  0.
        998    1    1    2    0    0 -0.12394811992E+01 -0.18871456798E+02  0.14291866960E+04  0.14293468020E+04  0.10000000000E+02 0. -1.
</event>
<event>
 5    1  0.1072898E-008  0.3761677E+03  0.7957747E-01  0.3468017E+00
         13   -1    0    0    0    0  0.00000000000E+00  0.00000000000E+00  0.14999999963E+04  0.15000000000E+04  0.10566000000E+00 0.  1.
        994   -1    0    0    0    0 -0.00000000000E+00 -0.00000000000E+00  0.11368683772E-12  0.17120000000E+03  0.17120000000E+03 0.  0.
         13    1    1    2    0    0  0.14469247189E+02  0.62519834871E+02  0.36325741066E+03  0.36888215792E+03  0.10566000000E+00 0.  1.
        994    1    1    2    0    0  0.11167157608E+01 -0.29194301493E+02  0.89757316066E+01  0.17390675102E+03  0.17120000000E+03 0.  0.
        998    1    1    2    0    0 -0.15585962950E+02 -0.33325533378E+02  0.11277668540E+04  0.11284110911E+04  0.10000000000E+02 0.  1.
</event>
<event>
 5    1  0.1072898E-008  0.3694230E+03  0.7957747E-01  0.3498547E+00
         13   -1    0    0    0    0  0.00000000000E+00  0.00000000000E+00  0.14999999963E+04  0.15000000000E+04  0.10566000000E+00 0.  1.
        994   -1    0    0    0    0 -0.00000000000E+00 -0.00000000000E+00  0.11368683772E-12  0.17120000000E+03  0.17120000000E+03 0.  0.
         13    1    1    2    0    0  0.31219326168E+02  0.22551449598E+02  0.59162962892E+02  0.70593778391E+02  0.10566000000E+00 0.  1.
        994    1    1    2    0    0 -0.41700343334E+02 -0.46257046008E+02  0.24291546626E+02  0.18378833526E+03  0.17120000000E+03 0.  0.
        998    1    1    2    0    0  0.10481017167E+02  0.23705596410E+02  0.14165454868E+04  0.14168178864E+04  0.10000000000E+02 0.  1.
</event>
<event>
 5    1  0.1072898E-008  0.3819523E+03  0.7957747E-01  0.3442702E+00
         13   -1    0    0    0    0  0.00000000000E+00  0.00000000000E+00  0.14999999963E+04  0.15000000000E+04  0.10566000000E+00 0. -1.
        994   -1    0    0    0    0 -0.00000000000E+00 -0.00000000000E+00  0.11368683772E-12  0.17120000000E+03  0.17120000000E+03 0.  0.
         13    1    1    2    0    0 -0.13473837141E+01 -0.18587651478E+02  0.57423938024E+02  0.60372477608E+02  0.10566000000E+00 0. -1.
        994    1    1    2    0    0  0.55465546858E+01 -0.17745451889E+01  0.32635240644E+01  0.17133010205E+03  0.17120000000E+03 0.  0.
        998    1    1    2    0    0 -0.41991709716E+01  0.20362196667E+02  0.14393125342E+04  0.14394974203E+04  0.10000000000E+02 0. -1.
</event>
<event>
 5    1  0.1072898E-008  0.3831719E+03  0.7957747E-01  0.3437463E+00
         13   -1    0    0    0    0  0.00000000000E+00  0.00000000000E+00  0.14999999963E+04  0.15000000000E+04  0.10566000000E+00 0. -1.
        994   -1    0    0    0    0 -0.00000000000E+00 -0.00000000000E+00  0.11368683772E-12  0.17120000000E+03  0.17120000000E+03 0.  0.
         13    1    1    2    0    0  0.83329552554E+01  0.16417671128E+02  0.72887623657E+02  0.75177090360E+02  0.10566000000E+00 0. -1.
        994    1    1    2    0    0  0.69832763546E+01  0.31716274450E+01  0.27351379458E+01  0.17139354232E+03  0.17120000000E+03 0.  0.
        998    1    1    2    0    0 -0.15316231610E+02 -0.19589298573E+02  0.14243772347E+04  0.14246293673E+04  0.10000000000E+02 0. -1.
</event>
<event>
 5    1  0.1072898E-008  0.3859578E+03  0.7957747E-01  0.3425620E+00
         13   -1    0    0    0    0  0.00000000000E+00  0.00000000000E+00  0.14999999963E+04  0.15000000000E+04  0.10566000000E+00 0.  1.
        994   -1    0    0    0    0 -0.00000000000E+00 -0.00000000000E+00  0.11368683772E-12  0.17120000000E+03  0.17120000000E+03 0.  0.
         13    1    1    2    0    0 -0.97653973647E+01 -0.39202805462E+01  0.49181544431E+02  0.50294801539E+02  0.10566000000E+00 0.  1.
        994    1    1    2    0    0  0.58646082908E+00  0.11768159093E+02  0.16106212118E+01  0.17161255084E+03  0.17120000000E+03 0.  0.
        998    1    1    2    0    0  0.91789365356E+01 -0.78478785469E+01  0.14492078306E+04  0.14492926476E+04  0.10000000000E+02 0.  1.
</event>
<event>
 5    1  0.1072898E-008  0.3823368E+03  0.7957747E-01  0.3441046E+00
         13   -1    0    0    0    0  0.00000000000E+00  0.00000000000E+00  0.14999999963E+04  0.15000000000E+04  0.10566000000E+00 0.  1.
        994   -1    0    0    0    0 -0.00000000000E+00 -0.00000000000E+00  0.11368683772E-12  0.17120000000E+03  0.17120000000E+03 0.  0.
         13    1    1    2    0    0 -0.19135170923E+02  0.66649346006E+01  0.60573777098E+02  0.63873075356E+02  0.10566000000E+00 0.  1.
        994    1    1    2    0    0  0.34068302096E+02 -0.22186546383E+02  0.84607821219E+01  0.17616445976E+03  0.17120000000E+03 0.  0.
        998    1    1    2    0    0 -0.14933131173E+02  0.15521611782E+02  0.14309654371E+04  0.14311624649E+04  0.10000000000E+02 0.  1.
</event>
<event>
 5    1  0.1072898E-008  0.3048893E+03  0.7957747E-01  0.3861720E+00
         13   -1    0    0    0    0  0.00000000000E+00  0.00000000000E+00  0.14999999963E+04  0.15000000000E+04  0.10566000000E+00 0.  1.
        994   -1    0    0    0    0 -0.00000000000E+00 -0.00000000000E+00  0.11368683772E-12  0.17120000000E+03  0.17120000000E+03 0.  0.
         13    1    1    2    0    0 -0.12596726231E+03 -0.61549854176E+02  0.82713217864E+03  0.83893014479E+03  0.10566000000E+00 0.  1.
        994    1    1    2    0    0  0.81386906029E+02  0.28029964302E-01  0.38677252870E+02  0.19346627393E+03  0.17120000000E+03 0.  0.
        998    1    1    2    0    0  0.44580356284E+02  0.61521824212E+02  0.63419056477E+03  0.63880358128E+03  0.10000000000E+02 0.  1.
</event>
<event>
 5    1  0.1072898E-008  0.3710600E+03  0.7957747E-01  0.3491033E+00
         13   -1    0    0    0    0  0.00000000000E+00  0.00000000000E+00  0.14999999963E+04  0.15000000000E+04  0.10566000000E+00 0. -1.
        994   -1    0    0    0    0 -0.00000000000E+00 -0.00000000000E+00  0.11368683772E-12  0.17120000000E+03  0.17120000000E+03 0.  0.
         13    1    1    2    0    0  0.60967565660E+02  0.39805850290E+02  0.24179906155E+03  0.25252395353E+03  0.10566000000E+00 0. -1.
        994    1    1    2    0    0 -0.40233723693E+02 -0.88960029709E+02  0.42310121116E+02  0.20157436781E+03  0.17120000000E+03 0.  0.
        998    1    1    2    0    0 -0.20733841968E+02  0.49154179419E+02  0.12158908136E+04  0.12171016787E+04  0.10000000000E+02 0. -1.
</event>
<event>
 5    1  0.1072898E-008  0.3767748E+03  0.7957747E-01  0.3465323E+00
         13   -1    0    0    0    0  0.00000000000E+00  0.00000000000E+00  0.14999999963E+04  0.15000000000E+04  0.10566000000E+00 0.  1.
        994   -1    0    0    0    0 -0.00000000000E+00 -0.00000000000E+00  0.11368683772E-12  0.17120000000E+03  0.17120000000E+03 0.  0.
         13    1    1    2    0    0 -0.12491756642E+02  0.12886698674E+00  0.11144815417E+02  0.16741525182E+02  0.10566000000E+00 0.  1.
        994    1    1    2    0    0  0.12116125880E+01  0.19797291393E+01  0.57883653102E+01  0.17131355027E+03  0.17120000000E+03 0.  0.
        998    1    1    2    0    0  0.11280144054E+02 -0.21085961260E+01  0.14830668156E+04  0.14831449245E+04  0.10000000000E+02 0.  1.
</event>
<event>
 5    1  0.1072898E-008  0.3721843E+03  0.7957747E-01  0.3485912E+00
         13   -1    0    0    0    0  0.00000000000E+00  0.00000000000E+00  0.14999999963E+04  0.15000000000E+04  0.10566000000E+00 0. -1.
        994   -1    0    0    0    0 -0.00000000000E+00 -0.00000000000E+00  0.11368683772E-12  0.17120000000E+03  0.17120000000E+03 0.  0.
         13    1    1    2    0    0  0.32082841540E+01 -0.21255119485E+02  0.24785774802E+02  0.32808824851E+02  0.10566000000E+00 0. -1.
        994    1    1    2    0    0 -0.14481733562E+01  0.18556158210E+02  0.93215909777E+01  0.17246089491E+03  0.17120000000E+03 0.  0.
        998    1    1    2    0    0 -0.17601107978E+01  0.26989612747E+01  0.14658926305E+04  0.14659302802E+04  0.10000000000E+02 0. -1.
</event>
<event>
 5    1  0.1072898E-008  0.3807140E+03  0.7957747E-01  0.3448056E+00
         13   -1    0    0    0    0  0.00000000000E+00  0.00000000000E+00  0.14999999963E+04  0.15000000000E+04  0.10566000000E+00 0. -1.
        994   -1    0    0    0    0 -0.00000000000E+00 -0.00000000000E+00  0.11368683772E-12  0.17120000000E+03  0.17120000000E+03 0.  0.
         13    1    1    2    0    0 -0.27282255154E+02  0.15341978850E+02  0.12346961907E+03  0.12737525567E+03  0.10566000000E+00 0. -1.
        994    1    1    2    0    0  0.27066127312E+02 -0.41184352256E+01  0.62769397185E+01  0.17348883748E+03  0.17120000000E+03 0.  0.
        998    1    1    2    0    0  0.21612784235E+00 -0.11223543625E+02  0.13702534375E+04  0.13703359068E+04  0.10000000000E+02 0. -1.
</event>
<event>
 5    1  0.1072898E-008  0.3799435E+03  0.7957747E-01  0.3451405E+00
         13   -1    0    0    0    0  0.00000000000E+00  0.00000000000E+00  0.14999999963E+04  0.15000000000E+04  0.10566000000E+00 0.  1.
        994   -1    0    0    0    0 -0.00000000000E+00 -0.00000000000E+00  0.11368683772E-12  0.17120000000E+03  0.17120000000E+03 0.  0.
         13    1    1    2    0    0 -0.25774926092E+02 -0.51690231738E+01  0.82260820042E+02  0.86359245560E+02  0.10566000000E+00 0.  1.
        994    1    1    2    0    0  0.11612322796E+02  0.16389125736E+02  0.55117759745E+01  0.17246237027E+03  0.17120000000E+03 0.  0.
        998    1    1    2    0    0  0.14162603296E+02 -0.11220102562E+02  0.14122274003E+04  0.14123783842E+04  0.10000000000E+02 0.  1.
</event>
<event>
 5    1  0.1072898E-008  0.3749739E+03  0.7957747E-01  0.3473339E+00
         13   -1    0    0    0    0  0.00000000000E+00  0.00000000000E+00  0.14999999963E+04  0.15000000000E+04  0.10566000000E+00 0.  1.
        994   -1    0    0    0    0 -0.00000000000E+00 -0.00000000000E+00  0.11368683772E-12  0.17120000000E+03  0.17120000000E+03 0.  0.
         13    1    1    2    0    0  0.46667611717E+02 -0.57984405050E+02  0.34170948023E+03  0.34972194278E+03  0.10566000000E+00 0.  1.
        994    1    1    2    0    0 -0.40768566542E+02  0.51775057821E+02  0.21601447365E+02  0.18471273686E+03  0.17120000000E+03 0.  0.
        998    1    1    2    0    0 -0.58990451756E+01  0.62093472288E+01  0.11366890687E+04  0.11367653204E+04  0.10000000000E+02 0.  0.
</event>
<event>
 5    1  0.1072898E-008  0.3705966E+03  0.7957747E-01  0.3493154E+00
         13   -1    0    0    0    0  0.00000000000E+00  0.00000000000E+00  0.14999999963E+04  0.15000000000E+04  0.10566000000E+00 0.  1.
        994   -1    0    0    0    0 -0.00000000000E+00 -0.00000000000E+00  0.11368683772E-12  0.17120000000E+03  0.17120000000E+03 0.  0.
         13    1    1    2    0    0 -0.61450448033E+01 -0.31219246338E+02  0.37713717070E+02  0.49343069795E+02  0.10566000000E+00 0.  1.
        994    1    1    2    0    0  0.11445347802E+02  0.48315507131E+02  0.19942035469E+02  0.17936696740E+03  0.17120000000E+03 0.  0.
        998    1    1    2    0    0 -0.53003029991E+01 -0.17096260793E+02  0.14423442437E+04  0.14424899628E+04  0.10000000000E+02 0.  1.
</event>
<event>
 5    1  0.1072898E-008  0.3786361E+03  0.7957747E-01  0.3457119E+00
         13   -1    0    0    0    0  0.00000000000E+00  0.00000000000E+00  0.14999999963E+04  0.15000000000E+04  0.10566000000E+00 0. -1.
        994   -1    0    0    0    0 -0.00000000000E+00 -0.00000000000E+00  0.11368683772E-12  0.17120000000E+03  0.17120000000E+03 0.  0.
         13    1    1    2    0    0 -0.26823750933E+02 -0.11658805158E+02  0.82778843482E+02  0.87794017132E+02  0.10566000000E+00 0. -1.
        994    1    1    2    0    0  0.30645989649E+02  0.30359626575E+01  0.80145391250E+01  0.17413232494E+03  0.17120000000E+03 0.  0.
        998    1    1    2    0    0 -0.38222387158E+01  0.86228425006E+01  0.14092066137E+04  0.14092736579E+04  0.10000000000E+02 0. -1.
</event>
<event>
 5    1  0.1072898E-008  0.2835283E+03  0.7957747E-01  0.4021114E+00
         13   -1    0    0    0    0  0.00000000000E+00  0.00000000000E+00  0.14999999963E+04  0.15000000000E+04  0.10566000000E+00 0.  1.
        994   -1    0    0    0    0 -0.00000000000E+00 -0.00000000000E+00  0.11368683772E-12  0.17120000000E+03  0.17120000000E+03 0.  0.
         13    1    1    2    0    0  0.17553554326E+03 -0.19652025484E+02  0.65115278492E+03  0.67468428878E+03  0.10566000000E+00 0.  1.
        994    1    1    2    0    0 -0.93875327770E+02  0.79560984817E+02  0.87295639908E+02  0.22819398812E+03  0.17120000000E+03 0.  0.
        998    1    1    2    0    0 -0.81660215491E+02 -0.59908959333E+02  0.76155157146E+03  0.76832172310E+03  0.10000000000E+02 0. -1.
</event>
<event>
 5    1  0.1072898E-008  0.3841318E+03  0.7957747E-01  0.3433363E+00
         13   -1    0    0    0    0  0.00000000000E+00  0.00000000000E+00  0.14999999963E+04  0.15000000000E+04  0.10566000000E+00 0. -1.
        994   -1    0    0    0    0 -0.00000000000E+00 -0.00000000000E+00  0.11368683772E-12  0.17120000000E+03  0.17120000000E+03 0.  0.
         13    1    1    2    0    0 -0.93586011309E+01  0.53544293694E+01  0.27550274594E+02  0.29585167284E+02  0.10566000000E+00 0. -1.
        994    1    1    2    0    0  0.58061513661E+01 -0.61067743795E+01  0.22960062141E+01  0.17142262316E+03  0.17120000000E+03 0.  0.
        998    1    1    2    0    0  0.35524497648E+01  0.75234501015E+00  0.14701537155E+04  0.14701922096E+04  0.10000000000E+02 0. -1.
</event>
<event>
 5    1  0.1072898E-008  0.3783061E+03  0.7957747E-01  0.3458567E+00
         13   -1    0    0    0    0  0.00000000000E+00  0.00000000000E+00  0.14999999963E+04  0.15000000000E+04  0.10566000000E+00 0. -1.
        994   -1    0    0    0    0 -0.00000000000E+00 -0.00000000000E+00  0.11368683772E-12  0.17120000000E+03  0.17120000000E+03 0.  0.
         13    1    1    2    0    0 -0.36129954150E+02 -0.54572153437E+02  0.12747540243E+03  0.14329509031E+03  0.10566000000E+00 0. -1.
        994    1    1    2    0    0  0.13270403580E+01  0.66559298622E+02  0.31537987379E+02  0.18637592633E+03  0.17120000000E+03 0.  0.
        998    1    1    2    0    0  0.34802913792E+02 -0.11987145185E+02  0.13409866065E+04  0.13415289834E+04  0.10000000000E+02 0. -1.
</event>
<event>
 5    1  0.1072898E-008  0.3860062E+03  0.7957747E-01  0.3425416E+00
         13   -1    0    0    0    0  0.00000000000E+00  0.00000000000E+00  0.14999999963E+04  0.15000000000E+04  0.10566000000E+00 0.  1.
        994   -1    0    0    0    0 -0.00000000000E+00 -0.00000000000E+00  0.11368683772E-12  0.17120000000E+03  0.17120000000E+03 0.  0.
         13    1    1    2    0    0 -0.11626193455E+02  0.47186926624E+01  0.68220715291E+02  0.69365060323E+02  0.10566000000E+00 0.  1.
        994    1    1    2    0    0  0.13365219520E+02 -0.14194955225E+00  0.17172346025E+01  0.17172954940E+03  0.17120000000E+03 0.  0.
        998    1    1    2    0    0 -0.17390260649E+01 -0.45767431101E+01  0.14300620464E+04  0.14301053903E+04  0.10000000000E+02 0.  1.
</event>
<event>
 5    1  0.1072898E-008  0.3707758E+03  0.7957747E-01  0.3492333E+00
         13   -1    0    0    0    0  0.00000000000E+00  0.00000000000E+00  0.14999999963E+04  0.15000000000E+04  0.10566000000E+00 0.  1.
        994   -1    0    0    0    0 -0.00000000000E+00 -0.00000000000E+00  0.11368683772E-12  0.17120000000E+03  0.17120000000E+03 0.  0.
         13    1    1    2    0    0 -0.11957915133E+02 -0.12556050662E+02  0.13286382094E+02  0.21844570395E+02  0.10566000000E+00 0.  1.
        994    1    1    2    0    0  0.10855139996E+02 -0.36289858526E+01  0.93159837119E+01  0.17183489505E+03  0.17120000000E+03 0.  0.
        998    1    1    2    0    0  0.11027751365E+01  0.16185036515E+02  0.14773976305E+04  0.14775205346E+04  0.10000000000E+02 0.  1.
</event>
<event>
 5    1  0.1072898E-008  0.3812542E+03  0.7957747E-01  0.3445716E+00
         13   -1    0    0    0    0  0.00000000000E+00  0.00000000000E+00  0.14999999963E+04  0.15000000000E+04  0.10566000000E+00 0. -1.
        994   -1    0    0    0    0 -0.00000000000E+00 -0.00000000000E+00  0.11368683772E-12  0.17120000000E+03  0.17120000000E+03 0.  0.
         13    1    1    2    0    0 -0.15576070570E+02 -0.10604985942E+02  0.49472456035E+02  0.52939727724E+02  0.10566000000E+00 0. -1.
        994    1    1    2    0    0  0.13056230840E+02  0.26166416440E+01  0.40919046782E+01  0.17176581633E+03  0.17120000000E+03 0.  0.
        998    1    1    2    0    0  0.25198397302E+01  0.79883442984E+01  0.14464356356E+04  0.14464944559E+04  0.10000000000E+02 0. -1.
</event>
<event>
 5    1  0.1072898E-008  0.3779600E+03  0.7957747E-01  0.3460090E+00
         13   -1    0    0    0    0  0.00000000000E+00  0.00000000000E+00  0.14999999963E+04  0.15000000000E+04  0.10566000000E+00 0. -1.
        994   -1    0    0    0    0 -0.00000000000E+00 -0.00000000000E+00  0.11368683772E-12  0.17120000000E+03  0.17120000000E+03 0.  0.
         13    1    1    2    0    0  0.11488628084E+03  0.95971475795E+02  0.87606511492E+03  0.88876289213E+03  0.10566000000E+00 0. -1.
        994    1    1    2    0    0 -0.11021920789E+03 -0.95619958217E+02  0.80540013678E+02  0.23893008182E+03  0.17120000000E+03 0.  0.
        998    1    1    2    0    0 -0.46670729499E+01 -0.35151757800E+00  0.54339486768E+03  0.54350702604E+03  0.10000000000E+02 0.  0.
</event>
<event>
 5    1  0.1072898E-008  0.3818887E+03  0.7957747E-01  0.3442976E+00
         13   -1    0    0    0    0  0.00000000000E+00  0.00000000000E+00  0.14999999963E+04  0.15000000000E+04  0.10566000000E+00 0.  1.
        994   -1    0    0    0    0 -0.00000000000E+00 -0.00000000000E+00  0.11368683772E-12  0.17120000000E+03  0.17120000000E+03 0.  0.
         13    1    1    2    0    0  0.69851415303E+01  0.68987493960E+02  0.12303718431E+03  0.14123110993E+03  0.10566000000E+00 0.  1.
        994    1    1    2    0    0 -0.44294429391E+01 -0.67761244782E+02  0.34393615228E+02  0.18735945940E+03  0.17120000000E+03 0.  0.
        998    1    1    2    0    0 -0.25556985912E+01 -0.12262491773E+01  0.13425691967E+04  0.13426094307E+04  0.10000000000E+02 0.  1.
</event>
<event>
 5    1  0.1072898E-008  0.3821801E+03  0.7957747E-01  0.3441720E+00
         13   -1    0    0    0    0  0.00000000000E+00  0.00000000000E+00  0.14999999963E+04  0.15000000000E+04  0.10566000000E+00 0. -1.
        994   -1    0    0    0    0 -0.00000000000E+00 -0.00000000000E+00  0.11368683772E-12  0.17120000000E+03  0.17120000000E+03 0.  0.
         13    1    1    2    0    0 -0.18454859838E+02  0.88544486731E+01  0.69117994830E+02  0.72085307007E+02  0.10566000000E+00 0. -1.
        994    1    1    2    0    0  0.84602083094E+01 -0.49895851494E+01  0.33569248261E+01  0.17151437266E+03  0.17120000000E+03 0.  0.
        998    1    1    2    0    0  0.99946515283E+01 -0.38648635237E+01  0.14275250766E+04  0.14276003203E+04  0.10000000000E+02 0. -1.
</event>
<event>
 5    1  0.1072898E-008  0.3770247E+03  0.7957747E-01  0.3464217E+00
         13   -1    0    0    0    0  0.00000000000E+00  0.00000000000E+00  0.14999999963E+04  0.15000000000E+04  0.10566000000E+00 0. -1.
        994   -1    0    0    0    0 -0.00000000000E+00 -0.00000000000E+00  0.11368683772E-12  0.17120000000E+03  0.17120000000E+03 0.  0.
         13    1    1    2    0    0  0.73773470743E+02  0.18798772625E+03  0.10774114640E+04  0.10961739753E+04  0.10566000000E+00 0. -1.
        994    1    1    2    0    0 -0.61476613909E+02 -0.18028817306E+03  0.13997904111E+03  0.29186772920E+03  0.17120000000E+03 0.  0.
        998    1    1    2    0    0 -0.12296856834E+02 -0.76995531941E+01  0.28260949118E+03  0.28315829550E+03  0.10000000000E+02 0.  0.
</event>
<event>
 5    1  0.1072898E-008  0.3840507E+03  0.7957747E-01  0.3433708E+00
         13   -1    0    0    0    0  0.00000000000E+00  0.00000000000E+00  0.14999999963E+04  0.15000000000E+04  0.10566000000E+00 0.  1.
        994   -1    0    0    0    0 -0.00000000000E+00 -0.00000000000E+00  0.11368683772E-12  0.17120000000E+03  0.17120000000E+03 0.  0.
         13    1    1    2    0    0  0.12616963376E+03  0.13624727540E+03  0.93680137658E+03  0.95502823354E+03  0.10566000000E+00 0.  1.
        994    1    1    2    0    0 -0.15410067653E+03 -0.14943871193E+03  0.17278806272E+03  0.32441347344E+03  0.17120000000E+03 0.  0.
        998    1    1    2    0    0  0.27931042777E+02  0.13191436530E+02  0.39041055698E+03  0.39175829302E+03  0.10000000000E+02 0.  1.
</event>
<event>
 5    1  0.1072898E-008  0.3845505E+03  0.7957747E-01  0.3431581E+00
         13   -1    0    0    0    0  0.00000000000E+00  0.00000000000E+00  0.14999999963E+04  0.15000000000E+04  0.10566000000E+00 0.  1.
        994   -1    0    0    0    0 -0.00000000000E+00 -0.00000000000E+00  0.11368683772E-12  0.17120000000E+03  0.17120000000E+03 0.  0.
         13    1    1    2    0    0 -0.10174596801E+02  0.12129187021E+02  0.65711043309E+02  0.67591360207E+02  0.10566000000E+00 0.  1.
        994    1    1    2    0    0  0.11613756630E+02 -0.93744793727E+01  0.25874405712E+01  0.17186883096E+03  0.17120000000E+03 0.  0.
        998    1    1    2    0    0 -0.14391598290E+01 -0.27547076482E+01  0.14317015124E+04  0.14317398088E+04  0.10000000000E+02 0.  1.
</event>
<event>
 5    1  0.1072898E-008  0.3699197E+03  0.7957747E-01  0.3496260E+00
         13   -1    0    0    0    0  0.00000000000E+00  0.00000000000E+00  0.14999999963E+04  0.15000000000E+04  0.10566000000E+00 0.  1.
        994   -1    0    0    0    0 -0.00000000000E+00 -0.00000000000E+00  0.11368683772E-12  0.17120000000E+03  0.17120000000E+03 0.  0.
         13    1    1    2    0    0 -0.91491302986E+02  0.13230085388E+02  0.26716237273E+03  0.28270379949E+03  0.10566000000E+00 0.  1.
        994    1    1    2    0    0  0.11767733867E+03 -0.26527179153E+02  0.63638722485E+02  0.21888575621E+03  0.17120000000E+03 0.  0.
        998    1    1    2    0    0 -0.26186035685E+02  0.13297093764E+02  0.11691989011E+04  0.11696104443E+04  0.10000000000E+02 0.  1.
</event>
<event>
 5    1  0.1088817E-008  0.3861355E+03  0.7957747E-01  0.3424870E+00
         13   -1    0    0    0    0  0.00000000000E+00  0.00000000000E+00  0.14999999963E+04  0.15000000000E+04  0.10566000000E+00 0.  1.
        994   -1    0    0    0    0 -0.00000000000E+00 -0.00000000000E+00  0.11368683772E-12  0.17120000000E+03  0.17120000000E+03 0.  0.
         13    1    1    2    0    0 -0.11903145022E+02 -0.64076512476E+00  0.66979626499E+02  0.68032176000E+02  0.10566000000E+00 0.  1.
        994    1    1    2    0    0  0.88956477259E+01  0.29330035817E+00  0.13270124940E+01  0.17143634252E+03  0.17120000000E+03 0.  0.
        998    1    1    2    0    0  0.30074972962E+01  0.34746476658E+00  0.14316933573E+04  0.14317314815E+04  0.10000000000E+02 0.  1.
</event>
<event>
 5    1  0.1344952E-008  0.3864866E+03  0.7957747E-01  0.3423392E+00
         13   -1    0    0    0    0  0.00000000000E+00  0.00000000000E+00  0.14999999963E+04  0.15000000000E+04  0.10566000000E+00 0. -1.
        994   -1    0    0    0    0 -0.00000000000E+00 -0.00000000000E+00  0.11368683772E-12  0.17120000000E+03  0.17120000000E+03 0.  0.
         13    1    1    2    0    0  0.10091874766E+02  0.49153062250E+01  0.65966088664E+02  0.66914439318E+02  0.10566000000E+00 0. -1.
        994    1    1    2    0    0 -0.19460348707E+02 -0.10930797758E+01  0.21382284060E+01  0.17231921546E+03  0.17120000000E+03 0.  0.
        998    1    1    2    0    0  0.93684739404E+01 -0.38222264492E+01  0.14318956792E+04  0.14319663452E+04  0.10000000000E+02 0. -1.
</event>
<event>
 5    1  0.1072898E-008  0.3825616E+03  0.7957747E-01  0.3440080E+00
         13   -1    0    0    0    0  0.00000000000E+00  0.00000000000E+00  0.14999999963E+04  0.15000000000E+04  0.10566000000E+00 0.  1.
        994   -1    0    0    0    0 -0.00000000000E+00 -0.00000000000E+00  0.11368683772E-12  0.17120000000E+03  0.17120000000E+03 0.  0.
         13    1    1    2    0    0  0.16943033852E+02  0.51948241912E+01  0.57031986781E+02  0.59721949690E+02  0.10566000000E+00 0.  1.
        994    1    1    2    0    0 -0.27336150103E+01  0.55809913550E+01  0.29736621496E+01  0.17133856187E+03  0.17120000000E+03 0.  0.
        998    1    1    2    0    0 -0.14209418842E+02 -0.10775815546E+02  0.14399943473E+04  0.14401394884E+04  0.10000000000E+02 0.  1.
</event>
<event>
 5    1  0.1072898E-008  0.3839559E+03  0.7957747E-01  0.3434113E+00
         13   -1    0    0    0    0  0.00000000000E+00  0.00000000000E+00  0.14999999963E+04  0.15000000000E+04  0.10566000000E+00 0.  1.
        994   -1    0    0    0    0 -0.00000000000E+00 -0.00000000000E+00  0.11368683772E-12  0.17120000000E+03  0.17120000000E+03 0.  0.
         13    1    1    2    0    0 -0.30112954990E+01  0.10840224194E+02  0.28924290321E+02  0.31035529571E+02  0.10566000000E+00 0.  1.
        994    1    1    2    0    0 -0.14581494277E+01 -0.75277732677E+01  0.23434600319E+01  0.17138764651E+03  0.17120000000E+03 0.  0.
        998    1    1    2    0    0  0.44694449267E+01 -0.33124509262E+01  0.14687322459E+04  0.14687768239E+04  0.10000000000E+02 0.  1.
</event>
<event>
 5    1  0.1072898E-008  0.3720883E+03  0.7957747E-01  0.3486348E+00
         13   -1    0    0    0    0  0.00000000000E+00  0.00000000000E+00  0.14999999963E+04  0.15000000000E+04  0.10566000000E+00 0. -1.
        994   -1    0    0    0    0 -0.00000000000E+00 -0.00000000000E+00  0.11368683772E-12  0.17120000000E+03  0.17120000000E+03 0.  0.
         13    1    1    2    0    0  0.55801010087E+02  0.33922531323E+02  0.22123909471E+03  0.23067561434E+03  0.10566000000E+00 0. -1.
        994    1    1    2    0    0 -0.61588524961E+02 -0.23624421387E+02  0.23270297294E+02  0.18493838549E+03  0.17120000000E+03 0.  0.
        998    1    1    2    0    0  0.57875148743E+01 -0.10298109936E+02  0.12554906043E+04  0.12555860002E+04  0.10000000000E+02 0. -1.
</event>
<event>
 5    1  0.1072898E-008  0.3857634E+03  0.7957747E-01  0.3426441E+00
         13   -1    0    0    0    0  0.00000000000E+00  0.00000000000E+00  0.14999999963E+04  0.15000000000E+04  0.10566000000E+00 0. -1.
        994   -1    0    0    0    0 -0.00000000000E+00 -0.00000000000E+00  0.11368683772E-12  0.17120000000E+03  0.17120000000E+03 0.  0.
         13    1    1    2    0    0  0.34204210512E+01 -0.10193846217E+02  0.49377042817E+02  0.50534318065E+02  0.10566000000E+00 0. -1.
        994    1    1    2    0    0  0.17364252187E+02  0.40499459146E+01  0.22952515471E+01  0.17214130096E+03  0.17120000000E+03 0.  0.
        998    1    1    2    0    0 -0.20784673238E+02  0.61439003022E+01  0.14483277019E+04  0.14485243810E+04  0.10000000000E+02 0. -1.
</event>
<event>
 5    1  0.1072898E-008  0.3782374E+03  0.7957747E-01  0.3458869E+00
         13   -1    0    0    0    0  0.00000000000E+00  0.00000000000E+00  0.14999999963E+04  0.15000000000E+04  0.10566000000E+00 0. -1.
        994   -1    0    0    0    0 -0.00000000000E+00 -0.00000000000E+00  0.11368683772E-12  0.17120000000E+03  0.17120000000E+03 0.  0.
         13    1    1    2    0    0 -0.93218744530E+02  0.10819413237E+02  0.32115118533E+03  0.33458166273E+03  0.10566000000E+00 0. -1.
        994    1    1    2    0    0  0.34308503253E+02  0.90992986019E+01  0.19911755925E+02  0.17597098810E+03  0.17120000000E+03 0.  0.
        998    1    1    2    0    0  0.58910241277E+02 -0.19918711839E+02  0.11589370550E+04  0.11606473492E+04  0.10000000000E+02 0. -1.
</event>
<event>
 5    1  0.1072898E-008  0.3747309E+03  0.7957747E-01  0.3474427E+00
         13   -1    0    0    0    0  0.00000000000E+00  0.00000000000E+00  0.14999999963E+04  0.15000000000E+04  0.10566000000E+00 0. -1.
        994   -1    0    0    0    0 -0.00000000000E+00 -0.00000000000E+00  0.11368683772E-12  0.17120000000E+03  0.17120000000E+03 0.  0.
         13    1    1    2    0    0 -0.13369326808E+02 -0.30828514804E+02  0.77828913322E+02  0.84773151040E+02  0.10566000000E+00 0. -1.
        994    1    1    2    0    0  0.14205056954E+02  0.26013718216E+02  0.98116681519E+01  0.17402357889E+03  0.17120000000E+03 0.  0.
        998    1    1    2    0    0 -0.83573014576E+00  0.48147965886E+01  0.14123594148E+04  0.14124032701E+04  0.10000000000E+02 0. -1.
</event>
<event>
 5    1  0.1182129E-008  0.3862351E+03  0.7957747E-01  0.3424451E+00
         13   -1    0    0    0    0  0.00000000000E+00  0.00000000000E+00  0.14999999963E+04  0.15000000000E+04  0.10566000000E+00 0.  1.
        994   -1    0    0    0    0 -0.00000000000E+00 -0.00000000000E+00  0.11368683772E-12  0.17120000000E+03  0.17120000000E+03 0.  0.
         13    1    1    2    0    0  0.70654888728E+01 -0.73666356125E+01  0.52201563616E+02  0.53190251562E+02  0.10566000000E+00 0.  1.
        994    1    1    2    0    0 -0.32864164466E+01  0.55936840719E+01  0.11560510963E+01  0.17132678217E+03  0.17120000000E+03 0.  0.
        998    1    1    2    0    0 -0.37790724262E+01  0.17729515406E+01  0.14466423816E+04  0.14466829663E+04  0.10000000000E+02 0.  1.
</event>
<event>
 5    1  0.1236720E-008  0.3848961E+03  0.7957747E-01  0.3430113E+00
         13   -1    0    0    0    0  0.00000000000E+00  0.00000000000E+00  0.14999999963E+04  0.15000000000E+04  0.10566000000E+00 0.  1.
        994   -1    0    0    0    0 -0.00000000000E+00 -0.00000000000E+00  0.11368683772E-12  0.17120000000E+03  0.17120000000E+03 0.  0.
         13    1    1    2    0    0  0.11578876694E+02 -0.13912119862E+01  0.39287120903E+02  0.40981640879E+02  0.10566000000E+00 0.  1.
        994    1    1    2    0    0 -0.13097006673E+02 -0.11143042466E+01  0.22503398394E+01  0.17171859913E+03  0.17120000000E+03 0.  0.
        998    1    1    2    0    0  0.15181299798E+01  0.25055162328E+01  0.14584625355E+04  0.14584997600E+04  0.10000000000E+02 0.  1.
</event>
<event>
 5    1  0.1072898E-008  0.3852782E+03  0.7957747E-01  0.3428493E+00
         13   -1    0    0    0    0  0.00000000000E+00  0.00000000000E+00  0.14999999963E+04  0.15000000000E+04  0.10566000000E+00 0. -1.
        994   -1    0    0    0    0 -0.00000000000E+00 -0.00000000000E+00  0.11368683772E-12  0.17120000000E+03  0.17120000000E+03 0.  0.
         13    1    1    2    0    0  0.10467852976E+02  0.60698524773E+01  0.50591566798E+02  0.52018620225E+02  0.10566000000E+00 0. -1.
        994    1    1    2    0    0 -0.50272000354E+01  0.22702370249E+01  0.15920654407E+01  0.17129623869E+03  0.17120000000E+03 0.  0.
        998    1    1    2    0    0 -0.54406529407E+01 -0.83400895023E+01  0.14478163640E+04  0.14478851411E+04  0.10000000000E+02 0. -1.
</event>
<event>
 5    1  0.1072898E-008  0.3735141E+03  0.7957747E-01  0.3479895E+00
         13   -1    0    0    0    0  0.00000000000E+00  0.00000000000E+00  0.14999999963E+04  0.15000000000E+04  0.10566000000E+00 0.  1.
        994   -1    0    0    0    0 -0.00000000000E+00 -0.00000000000E+00  0.11368683772E-12  0.17120000000E+03  0.17120000000E+03 0.  0.
         13    1    1    2    0    0 -0.37945208061E+02  0.17183186659E+01  0.10103671942E+03  0.10794082300E+03  0.10566000000E+00 0.  1.
        994    1    1    2    0    0  0.70379715398E+01  0.11129871808E+02  0.80363667784E+01  0.17189365980E+03  0.17120000000E+03 0.  0.
        998    1    1    2    0    0  0.30907236521E+02 -0.12848190474E+02  0.13909269101E+04  0.13913655172E+04  0.10000000000E+02 0.  1.
</event>
<event>
 5    1  0.1072898E-008  0.3852594E+03  0.7957747E-01  0.3428573E+00
         13   -1    0    0    0    0  0.00000000000E+00  0.00000000000E+00  0.14999999963E+04  0.15000000000E+04  0.10566000000E+00 0. -1.
        994   -1    0    0    0    0 -0.00000000000E+00 -0.00000000000E+00  0.11368683772E-12  0.17120000000E+03  0.17120000000E+03 0.  0.
         13    1    1    2    0    0  0.10178945351E+02  0.44077355019E+01  0.41521481289E+02  0.42977710888E+02  0.10566000000E+00 0. -1.
        994    1    1    2    0    0 -0.54550225804E+01 -0.17816539686E-01  0.15991692929E+01  0.17129435172E+03  0.17120000000E+03 0.  0.
        998    1    1    2    0    0 -0.47239227705E+01 -0.43899189622E+01  0.14568793457E+04  0.14569279374E+04  0.10000000000E+02 0. -1.
</event>
<event>
 5    1  0.1072898E-008  0.3834397E+03  0.7957747E-01  0.3436317E+00
         13   -1    0    0    0    0  0.00000000000E+00  0.00000000000E+00  0.14999999963E+04  0.15000000000E+04  0.10566000000E+00 0. -1.
        994   -1    0    0    0    0 -0.00000000000E+00 -0.00000000000E+00  0.11368683772E-12  0.17120000000E+03  0.17120000000E+03 0.  0.
         13    1    1    2    0    0 -0.10582391148E+02 -0.17091189827E+02  0.80912645408E+02  0.83372436231E+02  0.10566000000E+00 0. -1.
        994    1    1    2    0    0  0.89174018564E+01  0.15392436864E+02  0.34534687087E+01  0.17215636385E+03  0.17120000000E+03 0.  0.
        998    1    1    2    0    0  0.16649892918E+01  0.16987529635E+01  0.14156338822E+04  0.14156711999E+04  0.10000000000E+02 0. -1.
</event>
<event>
 5    1  0.1072898E-008  0.3767625E+03  0.7957747E-01  0.3465378E+00
         13   -1    0    0    0    0  0.00000000000E+00  0.00000000000E+00  0.14999999963E+04  0.15000000000E+04  0.10566000000E+00 0.  1.
        994   -1    0    0    0    0 -0.00000000000E+00 -0.00000000000E+00  0.11368683772E-12  0.17120000000E+03  0.17120000000E+03 0.  0.
         13    1    1    2    0    0 -0.29112526040E+02  0.12879793269E+02  0.90189690846E+02  0.95643189753E+02  0.10566000000E+00 0.  1.
        994    1    1    2    0    0  0.12323108526E+02  0.89508935285E+01  0.65606833202E+01  0.17200133739E+03  0.17120000000E+03 0.  0.
        998    1    1    2    0    0  0.16789417514E+02 -0.21830686798E+02  0.14032496221E+04  0.14035554729E+04  0.10000000000E+02 0.  1.
</event>
<event>
 5    1  0.1072898E-008  0.3696871E+03  0.7957747E-01  0.3497330E+00
         13   -1    0    0    0    0  0.00000000000E+00  0.00000000000E+00  0.14999999963E+04  0.15000000000E+04  0.10566000000E+00 0.  1.
        994   -1    0    0    0    0 -0.00000000000E+00 -0.00000000000E+00  0.11368683772E-12  0.17120000000E+03  0.17120000000E+03 0.  0.
         13    1    1    2    0    0  0.17667486572E+02 -0.18204486494E+02  0.30945616653E+02  0.40014819310E+02  0.10566000000E+00 0.  1.
        994    1    1    2    0    0 -0.76687378691E+01  0.45750593442E+01  0.97087826325E+01  0.17170742899E+03  0.17120000000E+03 0.  0.
        998    1    1    2    0    0 -0.99987487027E+01  0.13629427150E+02  0.14593455970E+04  0.14594777517E+04  0.10000000000E+02 0.  1.
</event>
<event>
 5    1  0.1072898E-008  0.3856242E+03  0.7957747E-01  0.3427029E+00
         13   -1    0    0    0    0  0.00000000000E+00  0.00000000000E+00  0.14999999963E+04  0.15000000000E+04  0.10566000000E+00 0. -1.
        994   -1    0    0    0    0 -0.00000000000E+00 -0.00000000000E+00  0.11368683772E-12  0.17120000000E+03  0.17120000000E+03 0.  0.
         13    1    1    2    0    0 -0.12057946345E+02  0.32626553671E+01  0.61555691084E+02  0.62810455014E+02  0.10566000000E+00 0. -1.
        994    1    1    2    0    0  0.15795651831E+01 -0.69271683001E+01  0.14862450271E+01  0.17135381411E+03  0.17120000000E+03 0.  0.
        998    1    1    2    0    0  0.10478381162E+02  0.36645129330E+01  0.14369580602E+04  0.14370357309E+04  0.10000000000E+02 0. -1.
</event>
<event>
 5    1  0.1072898E-008  0.3803296E+03  0.7957747E-01  0.3449725E+00
         13   -1    0    0    0    0  0.00000000000E+00  0.00000000000E+00  0.14999999963E+04  0.15000000000E+04  0.10566000000E+00 0. -1.
        994   -1    0    0    0    0 -0.00000000000E+00 -0.00000000000E+00  0.11368683772E-12  0.17120000000E+03  0.17120000000E+03 0.  0.
         13    1    1    2    0    0  0.88184432716E+01  0.10539796284E+02  0.21793841526E+02  0.25764994469E+02  0.10566000000E+00 0. -1.
        994    1    1    2    0    0 -0.75635358009E+01 -0.14290561357E+02  0.48403206050E+01  0.17202992740E+03  0.17120000000E+03 0.  0.
        998    1    1    2    0    0 -0.12549074707E+01  0.37507650726E+01  0.14733658341E+04  0.14734050781E+04  0.10000000000E+02 0. -1.
</event>
<event>
 5    1  0.1072898E-008  0.3847136E+03  0.7957747E-01  0.3430888E+00
         13   -1    0    0    0    0  0.00000000000E+00  0.00000000000E+00  0.14999999963E+04  0.15000000000E+04  0.10566000000E+00 0. -1.
        994   -1    0    0    0    0 -0.00000000000E+00 -0.00000000000E+00  0.11368683772E-12  0.17120000000E+03  0.17120000000E+03 0.  0.
         13    1    1    2    0    0  0.10395940028E+02 -0.87202729301E+01  0.49073527669E+02  0.50915037179E+02  0.10566000000E+00 0. -1.
        994    1    1    2    0    0 -0.76452724170E+01  0.20815021362E+02  0.33926314815E+01  0.17266344504E+03  0.17120000000E+03 0.  0.
        998    1    1    2    0    0 -0.27506676110E+01 -0.12094748431E+02  0.14475338371E+04  0.14476215178E+04  0.10000000000E+02 0. -1.
</event>
<event>
 5    1  0.1072898E-008  0.3782986E+03  0.7957747E-01  0.3458600E+00
         13   -1    0    0    0    0  0.00000000000E+00  0.00000000000E+00  0.14999999963E+04  0.15000000000E+04  0.10566000000E+00 0.  1.
        994   -1    0    0    0    0 -0.00000000000E+00 -0.00000000000E+00  0.11368683772E-12  0.17120000000E+03  0.17120000000E+03 0.  0.
         13    1    1    2    0    0 -0.28417705365E+02 -0.21743685760E+02  0.13628606975E+03  0.14090513766E+03  0.10566000000E+00 0.  1.
        994    1    1    2    0    0  0.61019419000E+01  0.49513222683E+01  0.52020824457E+01  0.17145918158E+03  0.17120000000E+03 0.  0.
        998    1    1    2    0    0  0.22315763465E+02  0.16792363491E+02  0.13585118441E+04  0.13588356808E+04  0.10000000000E+02 0.  1.
</event>
<event>
 5    1  0.1072898E-008  0.3812508E+03  0.7957747E-01  0.3445730E+00
         13   -1    0    0    0    0  0.00000000000E+00  0.00000000000E+00  0.14999999963E+04  0.15000000000E+04  0.10566000000E+00 0.  1.
        994   -1    0    0    0    0 -0.00000000000E+00 -0.00000000000E+00  0.11368683772E-12  0.17120000000E+03  0.17120000000E+03 0.  0.
         13    1    1    2    0    0 -0.45751185675E+01  0.14769451196E+02  0.32322605461E+02  0.35830578929E+02  0.10566000000E+00 0.  1.
        994    1    1    2    0    0  0.31479894899E+01 -0.14550068805E+02  0.42411959086E+01  0.17189834811E+03  0.17120000000E+03 0.  0.
        998    1    1    2    0    0  0.14271290776E+01 -0.21938239055E+00  0.14634361949E+04  0.14634710730E+04  0.10000000000E+02 0.  1.
</event>
<event>
 5    1  0.1072898E-008  0.3720974E+03  0.7957747E-01  0.3486307E+00
         13   -1    0    0    0    0  0.00000000000E+00  0.00000000000E+00  0.14999999963E+04  0.15000000000E+04  0.10566000000E+00 0. -1.
        994   -1    0    0    0    0 -0.00000000000E+00 -0.00000000000E+00  0.11368683772E-12  0.17120000000E+03  0.17120000000E+03 0.  0.
         13    1    1    2    0    0 -0.81232898841E+01 -0.12136121853E+02  0.96352087575E+01  0.17496334017E+02  0.10566000000E+00 0. -1.
        994    1    1    2    0    0  0.43060780369E+01 -0.47758797062E+01  0.83188389510E+01  0.17152257699E+03  0.17120000000E+03 0.  0.
        998    1    1    2    0    0  0.38172118472E+01  0.16912001560E+02  0.14820459486E+04  0.14821810890E+04  0.10000000000E+02 0. -1.
</event>
<event>
 5    1  0.1072898E-008  0.3810290E+03  0.7957747E-01  0.3446690E+00
         13   -1    0    0    0    0  0.00000000000E+00  0.00000000000E+00  0.14999999963E+04  0.15000000000E+04  0.10566000000E+00 0.  1.
        994   -1    0    0    0    0 -0.00000000000E+00 -0.00000000000E+00  0.11368683772E-12  0.17120000000E+03  0.17120000000E+03 0.  0.
         13    1    1    2    0    0  0.12733132738E+02 -0.15150358935E+01  0.20880054169E+02  0.24503384037E+02  0.10566000000E+00 0.  1.
        994    1    1    2    0    0 -0.15980610057E+02 -0.20410709123E+01  0.44797880525E+01  0.17201469231E+03  0.17120000000E+03 0.  0.
        998    1    1    2    0    0  0.32474773192E+01  0.35561068058E+01  0.14746401541E+04  0.14746819237E+04  0.10000000000E+02 0.  1.
</event>
<event>
 5    1  0.1072898E-008  0.3844155E+03  0.7957747E-01  0.3432155E+00
         13   -1    0    0    0    0  0.00000000000E+00  0.00000000000E+00  0.14999999963E+04  0.15000000000E+04  0.10566000000E+00 0. -1.
        994   -1    0    0    0    0 -0.00000000000E+00 -0.00000000000E+00  0.11368683772E-12  0.17120000000E+03  0.17120000000E+03 0.  0.
         13    1    1    2    0    0 -0.73607211639E+01  0.19029036059E+02  0.99865329081E+02  0.10192830591E+03  0.10566000000E+00 0. -1.
        994    1    1    2    0    0 -0.63823133464E+01 -0.28528612412E+02  0.47415458232E+01  0.17374273483E+03  0.17120000000E+03 0.  0.
        998    1    1    2    0    0  0.13743034510E+02  0.94995763528E+01  0.13953931214E+04  0.13955289593E+04  0.10000000000E+02 0. -1.
</event>
<event>
 5    1  0.1072898E-008  0.3838252E+03  0.7957747E-01  0.3434670E+00
         13   -1    0    0    0    0  0.00000000000E+00  0.00000000000E+00  0.14999999963E+04  0.15000000000E+04  0.10566000000E+00 0.  1.
        994   -1    0    0    0    0 -0.00000000000E+00 -0.00000000000E+00  0.11368683772E-12  0.17120000000E+03  0.17120000000E+03 0.  0.
         13    1    1    2    0    0  0.51004993359E+01 -0.21427236182E+02  0.10875801086E+03  0.11096602018E+03  0.10566000000E+00 0.  1.
        994    1    1    2    0    0 -0.15165317964E+01  0.14083350309E+02  0.28771427935E+01  0.17180907594E+03  0.17120000000E+03 0.  0.
        998    1    1    2    0    0 -0.35839675395E+01  0.73438858733E+01  0.13883648426E+04  0.13884249039E+04  0.10000000000E+02 0.  1.
</event>
<event>
 5    1  0.1072898E-008  0.2832298E+03  0.7957747E-01  0.4023530E+00
         13   -1    0    0    0    0  0.00000000000E+00  0.00000000000E+00  0.14999999963E+04  0.15000000000E+04  0.10566000000E+00 0.  1.
        994   -1    0    0    0    0 -0.00000000000E+00 -0.00000000000E+00  0.11368683772E-12  0.17120000000E+03  0.17120000000E+03 0.  0.
         13    1    1    2    0    0  0.27432277672E+02 -0.13984332525E+03  0.70516212038E+03  0.71941803749E+03  0.10566000000E+00 0.  1.
        994    1    1    2    0    0 -0.31363286496E+02  0.38893247679E+02  0.30742648826E+02  0.18097207219E+03  0.17120000000E+03 0.  0.
        998    1    1    2    0    0  0.39310088240E+01  0.10095007757E+03  0.76409522707E+03  0.77080989033E+03  0.10000000000E+02 0.  1.
</event>
<event>
 5    1  0.1072898E-008  0.4043747E+03  0.7957747E-01  0.3351440E+00
         13   -1    0    0    0    0  0.00000000000E+00  0.00000000000E+00  0.14999999963E+04  0.15000000000E+04  0.10566000000E+00 0. -1.
        994   -1    0    0    0    0 -0.00000000000E+00 -0.00000000000E+00  0.11368683772E-12  0.17120000000E+03  0.17120000000E+03 0.  0.
         13    1    1    2    0    0  0.81232948301E+02  0.74384683973E+02  0.25275172636E+03  0.27570875837E+03  0.10566000000E+00 0. -1.
        994    1    1    2    0    0  0.47094227103E+02 -0.56797279906E+02  0.52462670030E+02  0.19366354582E+03  0.17120000000E+03 0.  0.
        998    1    1    2    0    0 -0.12832717540E+03 -0.17587404067E+02  0.11947855999E+04  0.12018276958E+04  0.10000000000E+02 0. -1.
</event>
<event>
 5    1  0.1072898E-008  0.3847572E+03  0.7957747E-01  0.3430703E+00
         13   -1    0    0    0    0  0.00000000000E+00  0.00000000000E+00  0.14999999963E+04  0.15000000000E+04  0.10566000000E+00 0. -1.
        994   -1    0    0    0    0 -0.00000000000E+00 -0.00000000000E+00  0.11368683772E-12  0.17120000000E+03  0.17120000000E+03 0.  0.
         13    1    1    2    0    0  0.26497619264E+01  0.10097312238E+02  0.30049614676E+02  0.31811435977E+02  0.10566000000E+00 0. -1.
        994    1    1    2    0    0 -0.13316207152E+01 -0.12992404523E+02  0.23123573485E+01  0.17171302451E+03  0.17120000000E+03 0.  0.
        998    1    1    2    0    0 -0.13181412112E+01  0.28950922846E+01  0.14676380243E+04  0.14676755395E+04  0.10000000000E+02 0. -1.
</event>
<event>
 5    1  0.1072898E-008  0.3687257E+03  0.7957747E-01  0.3501768E+00
         13   -1    0    0    0    0  0.00000000000E+00  0.00000000000E+00  0.14999999963E+04  0.15000000000E+04  0.10566000000E+00 0.  1.
        994   -1    0    0    0    0 -0.00000000000E+00 -0.00000000000E+00  0.11368683772E-12  0.17120000000E+03  0.17120000000E+03 0.  0.
         13    1    1    2    0    0 -0.22598218367E+02  0.21148113887E+02  0.42787049292E+02  0.52807811406E+02  0.10566000000E+00 0.  1.
        994    1    1    2    0    0  0.16471529489E+02 -0.11331457113E+02  0.11658959991E+02  0.17275729956E+03  0.17120000000E+03 0.  0.
        998    1    1    2    0    0  0.61266888780E+01 -0.98166567740E+01  0.14455539870E+04  0.14456348890E+04  0.10000000000E+02 0.  1.
</event>
<event>
 5    1  0.1072898E-008  0.3710846E+03  0.7957747E-01  0.3490921E+00
         13   -1    0    0    0    0  0.00000000000E+00  0.00000000000E+00  0.14999999963E+04  0.15000000000E+04  0.10566000000E+00 0. -1.
        994   -1    0    0    0    0 -0.00000000000E+00 -0.00000000000E+00  0.11368683772E-12  0.17120000000E+03  0.17120000000E+03 0.  0.
         13    1    1    2    0    0  0.99009921758E+02  0.14920907481E+02  0.32021210432E+03  0.33550171535E+03  0.10566000000E+00 0. -1.
        994    1    1    2    0    0 -0.10776340115E+03 -0.32801430087E+01  0.53502244111E+02  0.20927407888E+03  0.17120000000E+03 0.  0.
        998    1    1    2    0    0  0.87534793903E+01 -0.11640764473E+02  0.11262856478E+04  0.11264242058E+04  0.10000000000E+02 0. -1.
</event>
<event>
 5    1  0.1072898E-008  0.3700699E+03  0.7957747E-01  0.3495569E+00
         13   -1    0    0    0    0  0.00000000000E+00  0.00000000000E+00  0.14999999963E+04  0.15000000000E+04  0.10566000000E+00 0.  1.
        994   -1    0    0    0    0 -0.00000000000E+00 -0.00000000000E+00  0.11368683772E-12  0.17120000000E+03  0.17120000000E+03 0.  0.
         13    1    1    2    0    0 -0.79664537323E+02  0.26893507217E+02  0.28952943081E+03  0.30149129624E+03  0.10566000000E+00 0.  1.
        994    1    1    2    0    0  0.58705478897E+02 -0.29795956970E+02  0.26289354594E+02  0.18529625595E+03  0.17120000000E+03 0.  0.
        998    1    1    2    0    0  0.20959058427E+02  0.29024497530E+01  0.11841812109E+04  0.11844124478E+04  0.10000000000E+02 0.  1.
</event>
<event>
 5    1  0.1072898E-008  0.3838881E+03  0.7957747E-01  0.3434401E+00
         13   -1    0    0    0    0  0.00000000000E+00  0.00000000000E+00  0.14999999963E+04  0.15000000000E+04  0.10566000000E+00 0.  1.
        994   -1    0    0    0    0 -0.00000000000E+00 -0.00000000000E+00  0.11368683772E-12  0.17120000000E+03  0.17120000000E+03 0.  0.
         13    1    1    2    0    0  0.20403737590E+02 -0.44411956129E+01  0.10247046160E+03  0.10457649540E+03  0.10566000000E+00 0.  1.
        994    1    1    2    0    0 -0.87221261961E+01  0.90726469691E+00  0.24370119013E+01  0.17144176166E+03  0.17120000000E+03 0.  0.
        998    1    1    2    0    0 -0.11681611394E+02  0.35339309160E+01  0.13950925228E+04  0.13951817429E+04  0.10000000000E+02 0.  1.
</event>
<event>
 5    1  0.1072898E-008  0.3843672E+03  0.7957747E-01  0.3432360E+00
         13   -1    0    0    0    0  0.00000000000E+00  0.00000000000E+00  0.14999999963E+04  0.15000000000E+04  0.10566000000E+00 0. -1.
        994   -1    0    0    0    0 -0.00000000000E+00 -0.00000000000E+00  0.11368683772E-12  0.17120000000E+03  0.17120000000E+03 0.  0.
         13    1    1    2    0    0 -0.26892382445E+02  0.10772902654E+02  0.16498219330E+03  0.16750639073E+03  0.10566000000E+00 0. -1.
        994    1    1    2    0    0  0.51021935362E+02 -0.10183060329E+01  0.10574430277E+02  0.17895679202E+03  0.17120000000E+03 0.  0.
        998    1    1    2    0    0 -0.24129552917E+02 -0.97545966209E+01  0.13244433727E+04  0.13247368172E+04  0.10000000000E+02 0. -1.
</event>
<event>
 5    1  0.1072898E-008  0.3775618E+03  0.7957747E-01  0.3461844E+00
         13   -1    0    0    0    0  0.00000000000E+00  0.00000000000E+00  0.14999999963E+04  0.15000000000E+04  0.10566000000E+00 0. -1.
        994   -1    0    0    0    0 -0.00000000000E+00 -0.00000000000E+00  0.11368683772E-12  0.17120000000E+03  0.17120000000E+03 0.  0.
         13    1    1    2    0    0 -0.15080414775E+01 -0.19547406494E+02  0.32438496195E+02  0.37903067015E+02  0.10566000000E+00 0. -1.
        994    1    1    2    0    0 -0.11174207820E+01  0.25737148708E+02  0.76087944173E+01  0.17329449849E+03  0.17120000000E+03 0.  0.
        998    1    1    2    0    0  0.26254622595E+01 -0.61897422141E+01  0.14599527057E+04  0.14600024345E+04  0.10000000000E+02 0. -1.
</event>
<event>
 5    1  0.1072898E-008  0.3829954E+03  0.7957747E-01  0.3438219E+00
         13   -1    0    0    0    0  0.00000000000E+00  0.00000000000E+00  0.14999999963E+04  0.15000000000E+04  0.10566000000E+00 0. -1.
        994   -1    0    0    0    0 -0.00000000000E+00 -0.00000000000E+00  0.11368683772E-12  0.17120000000E+03  0.17120000000E+03 0.  0.
         13    1    1    2    0    0 -0.16234890889E+02  0.77421765434E+01  0.59548104195E+02  0.62205312129E+02  0.10566000000E+00 0. -1.
        994    1    1    2    0    0  0.15017577912E+02 -0.53134717810E+01  0.34690858951E+01  0.17197451900E+03  0.17120000000E+03 0.  0.
        998    1    1    2    0    0  0.12173129761E+01 -0.24287047624E+01  0.14369828062E+04  0.14370201689E+04  0.10000000000E+02 0. -1.
</event>
<event>
 5    1  0.1072898E-008  0.3772303E+03  0.7957747E-01  0.3463308E+00
         13   -1    0    0    0    0  0.00000000000E+00  0.00000000000E+00  0.14999999963E+04  0.15000000000E+04  0.10566000000E+00 0.  1.
        994   -1    0    0    0    0 -0.00000000000E+00 -0.00000000000E+00  0.11368683772E-12  0.17120000000E+03  0.17120000000E+03 0.  0.
         13    1    1    2    0    0  0.20921584247E+02 -0.29523576887E+02  0.11521402167E+03  0.12076272700E+03  0.10566000000E+00 0.  1.
        994    1    1    2    0    0 -0.30331313783E+02  0.78305949572E+01  0.88557281345E+01  0.17426752633E+03  0.17120000000E+03 0.  0.
        998    1    1    2    0    0  0.94097295358E+01  0.21692981930E+02  0.13759302465E+04  0.13761697467E+04  0.10000000000E+02 0.  1.
</event>
<event>
 5    1  0.1072898E-008  0.3848910E+03  0.7957747E-01  0.3430135E+00
         13   -1    0    0    0    0  0.00000000000E+00  0.00000000000E+00  0.14999999963E+04  0.15000000000E+04  0.10566000000E+00 0. -1.
        994   -1    0    0    0    0 -0.00000000000E+00 -0.00000000000E+00  0.11368683772E-12  0.17120000000E+03  0.17120000000E+03 0.  0.
         13    1    1    2    0    0  0.12343892373E+02 -0.99393373943E+01  0.78142058353E+02  0.79733020477E+02  0.10566000000E+00 0. -1.
        994    1    1    2    0    0  0.38321300826E+01  0.10549844330E+02  0.20988399783E+01  0.17158038806E+03  0.17120000000E+03 0.  0.
        998    1    1    2    0    0 -0.16176022455E+02 -0.61050693624E+00  0.14197590979E+04  0.14198865915E+04  0.10000000000E+02 0. -1.
</event>
<event>
 5    1  0.1072898E-008  0.3775488E+03  0.7957747E-01  0.3461902E+00
         13   -1    0    0    0    0  0.00000000000E+00  0.00000000000E+00  0.14999999963E+04  0.15000000000E+04  0.10566000000E+00 0. -1.
        994   -1    0    0    0    0 -0.00000000000E+00 -0.00000000000E+00  0.11368683772E-12  0.17120000000E+03  0.17120000000E+03 0.  0.
         13    1    1    2    0    0  0.13525257225E+02  0.36264402644E+02  0.46226766284E+02  0.60290667331E+02  0.10566000000E+00 0. -1.
        994    1    1    2    0    0 -0.20184561081E+01 -0.10525493729E+02  0.15399968485E+02  0.17222502493E+03  0.17120000000E+03 0.  0.
        998    1    1    2    0    0 -0.11506801117E+02 -0.25738908915E+02  0.14383732615E+04  0.14386843077E+04  0.10000000000E+02 0. -1.
</event>
<event>
 5    1  0.1072898E-008  0.3836352E+03  0.7957747E-01  0.3435481E+00
         13   -1    0    0    0    0  0.00000000000E+00  0.00000000000E+00  0.14999999963E+04  0.15000000000E+04  0.10566000000E+00 0. -1.
        994   -1    0    0    0    0 -0.00000000000E+00 -0.00000000000E+00  0.11368683772E-12  0.17120000000E+03  0.17120000000E+03 0.  0.
         13    1    1    2    0    0 -0.17531295758E+02 -0.59613663532E+01  0.76896822836E+02  0.79094985593E+02  0.10566000000E+00 0. -1.
        994    1    1    2    0    0  0.26048232699E+01  0.68909243914E+01  0.24885658460E+01  0.17137649461E+03  0.17120000000E+03 0.  0.
        998    1    1    2    0    0  0.14926472488E+02 -0.92955803829E+00  0.14206146076E+04  0.14207285198E+04  0.10000000000E+02 0. -1.
</event>
<event>
 5    1  0.1072898E-008  0.3834967E+03  0.7957747E-01  0.3436073E+00
         13   -1    0    0    0    0  0.00000000000E+00  0.00000000000E+00  0.14999999963E+04  0.15000000000E+04  0.10566000000E+00 0. -1.
        994   -1    0    0    0    0 -0.00000000000E+00 -0.00000000000E+00  0.11368683772E-12  0.17120000000E+03  0.17120000000E+03 0.  0.
         13    1    1    2    0    0  0.17792698187E+02 -0.47016234278E+01  0.75613407288E+02  0.77820844877E+02  0.10566000000E+00 0. -1.
        994    1    1    2    0    0  0.18255232457E+01  0.70773956642E+01  0.25549160120E+01  0.17137499719E+03  0.17120000000E+03 0.  0.
        998    1    1    2    0    0 -0.19618221433E+02 -0.23757722364E+01  0.14218316730E+04  0.14220041579E+04  0.10000000000E+02 0. -1.
</event>
<event>
 5    1  0.1072898E-008  0.3843325E+03  0.7957747E-01  0.3432508E+00
         13   -1    0    0    0    0  0.00000000000E+00  0.00000000000E+00  0.14999999963E+04  0.15000000000E+04  0.10566000000E+00 0. -1.
        994   -1    0    0    0    0 -0.00000000000E+00 -0.00000000000E+00  0.11368683772E-12  0.17120000000E+03  0.17120000000E+03 0.  0.
         13    1    1    2    0    0  0.21657123283E+02  0.78415673888E+01  0.13369542783E+03  0.13566502775E+03  0.10566000000E+00 0. -1.
        994    1    1    2    0    0 -0.10768481428E+02 -0.15552599699E+02  0.31421610142E+01  0.17227059159E+03  0.17120000000E+03 0.  0.
        998    1    1    2    0    0 -0.10888641855E+02  0.77110323103E+01  0.13631624074E+04  0.13632643807E+04  0.10000000000E+02 0. -1.
</event>
<event>
 5    1  0.1072898E-008  0.3816470E+03  0.7957747E-01  0.3444018E+00
         13   -1    0    0    0    0  0.00000000000E+00  0.00000000000E+00  0.14999999963E+04  0.15000000000E+04  0.10566000000E+00 0.  1.
        994   -1    0    0    0    0 -0.00000000000E+00 -0.00000000000E+00  0.11368683772E-12  0.17120000000E+03  0.17120000000E+03 0.  0.
         13    1    1    2    0    0  0.27207109897E+01  0.19783324984E+02  0.58036375683E+02  0.61376007382E+02  0.10566000000E+00 0.  1.
        994    1    1    2    0    0 -0.44483922610E+01 -0.17051495477E+02  0.43372502509E+01  0.17215920955E+03  0.17120000000E+03 0.  0.
        998    1    1    2    0    0  0.17276812713E+01 -0.27318295069E+01  0.14376263703E+04  0.14376647831E+04  0.10000000000E+02 0.  1.
</event>
<event>
 5    1  0.1072898E-008  0.2896329E+03  0.7957747E-01  0.3972928E+00
         13   -1    0    0    0    0  0.00000000000E+00  0.00000000000E+00  0.14999999963E+04  0.15000000000E+04  0.10566000000E+00 0. -1.
        994   -1    0    0    0    0 -0.00000000000E+00 -0.00000000000E+00  0.11368683772E-12  0.17120000000E+03  0.17120000000E+03 0.  0.
         13    1    1    2    0    0  0.41643679913E+02  0.15952991619E+03  0.75744640853E+03  0.77518324492E+03  0.10566000000E+00 0. -1.
        994    1    1    2    0    0  0.10304179276E+03 -0.12110725411E+03  0.13423240978E+03  0.26946680294E+03  0.17120000000E+03 0.  0.
        998    1    1    2    0    0 -0.14468547267E+03 -0.38422662088E+02  0.60832117797E+03  0.62654995214E+03  0.10000000000E+02 0. -1.
</event>
<event>
 5    1  0.1649406E-008  0.3864628E+03  0.7957747E-01  0.3423492E+00
         13   -1    0    0    0    0  0.00000000000E+00  0.00000000000E+00  0.14999999963E+04  0.15000000000E+04  0.10566000000E+00 0. -1.
        994   -1    0    0    0    0 -0.00000000000E+00 -0.00000000000E+00  0.11368683772E-12  0.17120000000E+03  0.17120000000E+03 0.  0.
         13    1    1    2    0    0 -0.51743469080E+01  0.97244466330E+01  0.63900376065E+02  0.64842948372E+02  0.10566000000E+00 0. -1.
        994    1    1    2    0    0  0.79900694539E+01 -0.13402073880E+02  0.17028979435E+01  0.17191799398E+03  0.17120000000E+03 0.  0.
        998    1    1    2    0    0 -0.28157225459E+01  0.36776272466E+01  0.14343967223E+04  0.14344390576E+04  0.10000000000E+02 0. -1.
</event>
<event>
 5    1  0.1072898E-008  0.3786599E+03  0.7957747E-01  0.3457014E+00
         13   -1    0    0    0    0  0.00000000000E+00  0.00000000000E+00  0.14999999963E+04  0.15000000000E+04  0.10566000000E+00 0.  1.
        994   -1    0    0    0    0 -0.00000000000E+00 -0.00000000000E+00  0.11368683772E-12  0.17120000000E+03  0.17120000000E+03 0.  0.
         13    1    1    2    0    0  0.26821212713E+02 -0.15608727901E+02  0.93343910560E+02  0.98367203075E+02  0.10566000000E+00 0.  1.
        994    1    1    2    0    0 -0.27197683969E+02  0.13440777978E+02  0.79077143185E+01  0.17404694904E+03  0.17120000000E+03 0.  0.
        998    1    1    2    0    0  0.37647125608E+00  0.21679499234E+01  0.13987483714E+04  0.13987858479E+04  0.10000000000E+02 0.  1.
</event>
<event>
 5    1  0.1072898E-008  0.3779456E+03  0.7957747E-01  0.3460153E+00
         13   -1    0    0    0    0  0.00000000000E+00  0.00000000000E+00  0.14999999963E+04  0.15000000000E+04  0.10566000000E+00 0.  1.
        994   -1    0    0    0    0 -0.00000000000E+00 -0.00000000000E+00  0.11368683772E-12  0.17120000000E+03  0.17120000000E+03 0.  0.
         13    1    1    2    0    0 -0.26212759279E+01 -0.89651558582E+02  0.46087554147E+03  0.46952161711E+03  0.10566000000E+00 0.  1.
        994    1    1    2    0    0  0.49449575780E+01  0.10195864984E+03  0.41088120098E+02  0.20351337179E+03  0.17120000000E+03 0.  0.
        998    1    1    2    0    0 -0.23236816501E+01 -0.12307091257E+02  0.99803633471E+03  0.99816501110E+03  0.10000000000E+02 0.  1.
</event>
<event>
 5    1  0.1072898E-008  0.3825333E+03  0.7957747E-01  0.3440201E+00
         13   -1    0    0    0    0  0.00000000000E+00  0.00000000000E+00  0.14999999963E+04  0.15000000000E+04  0.10566000000E+00 0.  1.
        994   -1    0    0    0    0 -0.00000000000E+00 -0.00000000000E+00  0.11368683772E-12  0.17120000000E+03  0.17120000000E+03 0.  0.
         13    1    1    2    0    0 -0.76356948382E+01  0.11167421269E+02  0.31638992843E+02  0.34410059076E+02  0.10566000000E+00 0.  1.
        994    1    1    2    0    0 -0.20763986136E+01 -0.55916575974E+01  0.29777283958E+01  0.17132975495E+03  0.17120000000E+03 0.  0.
        998    1    1    2    0    0  0.97120934518E+01 -0.55757636711E+01  0.14653832750E+04  0.14654601860E+04  0.10000000000E+02 0.  1.
</event>
<event>
 5    1  0.1072898E-008  0.3758030E+03  0.7957747E-01  0.3469639E+00
         13   -1    0    0    0    0  0.00000000000E+00  0.00000000000E+00  0.14999999963E+04  0.15000000000E+04  0.10566000000E+00 0.  1.
        994   -1    0    0    0    0 -0.00000000000E+00 -0.00000000000E+00  0.11368683772E-12  0.17120000000E+03  0.17120000000E+03 0.  0.
         13    1    1    2    0    0 -0.38474261923E+01  0.27357659775E+02  0.63527240157E+02  0.69274567069E+02  0.10566000000E+00 0.  1.
        994    1    1    2    0    0  0.30211095303E+02  0.94768254848E+01  0.96730053452E+01  0.17437180831E+03  0.17120000000E+03 0.  0.
        998    1    1    2    0    0 -0.26363669110E+02 -0.36834485260E+02  0.14267997508E+04  0.14275536246E+04  0.10000000000E+02 0.  1.
</event>
<event>
 5    1  0.1072898E-008  0.3831229E+03  0.7957747E-01  0.3437672E+00
         13   -1    0    0    0    0  0.00000000000E+00  0.00000000000E+00  0.14999999963E+04  0.15000000000E+04  0.10566000000E+00 0.  1.
        994   -1    0    0    0    0 -0.00000000000E+00 -0.00000000000E+00  0.11368683772E-12  0.17120000000E+03  0.17120000000E+03 0.  0.
         13    1    1    2    0    0  0.18857534308E+02 -0.12148519876E+02  0.96346529235E+02  0.98923495667E+02  0.10566000000E+00 0.  1.
        994    1    1    2    0    0 -0.74491525353E+01  0.17618850991E+02  0.37766031953E+01  0.17230675122E+03  0.17120000000E+03 0.  0.
        998    1    1    2    0    0 -0.11408381773E+02 -0.54703311150E+01  0.13998768638E+04  0.13999697531E+04  0.10000000000E+02 0.  1.
</event>
<event>
 5    1  0.1072898E-008  0.3775737E+03  0.7957747E-01  0.3461792E+00
         13   -1    0    0    0    0  0.00000000000E+00  0.00000000000E+00  0.14999999963E+04  0.15000000000E+04  0.10566000000E+00 0.  1.
        994   -1    0    0    0    0 -0.00000000000E+00 -0.00000000000E+00  0.11368683772E-12  0.17120000000E+03  0.17120000000E+03 0.  0.
         13    1    1    2    0    0  0.58598590412E+01 -0.12557416208E+02  0.15785472632E+02  0.21005212687E+02  0.10566000000E+00 0.  1.
        994    1    1    2    0    0  0.65325390703E+00  0.49316751368E+01  0.54463901268E+01  0.17135883790E+03  0.17120000000E+03 0.  0.
        998    1    1    2    0    0 -0.65131129483E+01  0.76257410708E+01  0.14787681335E+04  0.14788359494E+04  0.10000000000E+02 0.  1.
</event>
<event>
 5    1  0.1072898E-008  0.3711970E+03  0.7957747E-01  0.3490408E+00
         13   -1    0    0    0    0  0.00000000000E+00  0.00000000000E+00  0.14999999963E+04  0.15000000000E+04  0.10566000000E+00 0.  1.
        994   -1    0    0    0    0 -0.00000000000E+00 -0.00000000000E+00  0.11368683772E-12  0.17120000000E+03  0.17120000000E+03 0.  0.
         13    1    1    2    0    0  0.10267268713E+02  0.77778890282E+01  0.56064550401E+01  0.14048340354E+02  0.10566000000E+00 0.  1.
        994    1    1    2    0    0 -0.86222035405E+01 -0.81836801747E+01  0.91315071284E+01  0.17185499538E+03  0.17120000000E+03 0.  0.
        998    1    1    2    0    0 -0.16450651722E+01  0.40579114650E+00  0.14852620341E+04  0.14852966643E+04  0.10000000000E+02 0.  1.
</event>
<event>
 5    1  0.1072898E-008  0.3763352E+03  0.7957747E-01  0.3467273E+00
         13   -1    0    0    0    0  0.00000000000E+00  0.00000000000E+00  0.14999999963E+04  0.15000000000E+04  0.10566000000E+00 0. -1.
        994   -1    0    0    0    0 -0.00000000000E+00 -0.00000000000E+00  0.11368683772E-12  0.17120000000E+03  0.17120000000E+03 0.  0.
         13    1    1    2    0    0  0.52587955033E+02  0.58384382304E+02  0.37731703811E+03  0.38541197117E+03  0.10566000000E+00 0. -1.
        994    1    1    2    0    0 -0.52766124975E+02 -0.60160142631E+02  0.27981017061E+02  0.19103895944E+03  0.17120000000E+03 0.  0.
        998    1    1    2    0    0  0.17816994210E+00  0.17757603267E+01  0.10947019411E+04  0.10947490694E+04  0.10000000000E+02 0.  0.
</event>
<event>
 5    1  0.1072898E-008  0.3816321E+03  0.7957747E-01  0.3444083E+00
         13   -1    0    0    0    0  0.00000000000E+00  0.00000000000E+00  0.14999999963E+04  0.15000000000E+04  0.10566000000E+00 0.  1.
        994   -1    0    0    0    0 -0.00000000000E+00 -0.00000000000E+00  0.11368683772E-12  0.17120000000E+03  0.17120000000E+03 0.  0.
         13    1    1    2    0    0  0.10294929001E+02  0.13141090979E+02  0.40416101882E+02  0.43728094981E+02  0.10566000000E+00 0.  1.
        994    1    1    2    0    0 -0.13405732629E+02 -0.75720444474E+01  0.41001369937E+01  0.17193981694E+03  0.17120000000E+03 0.  0.
        998    1    1    2    0    0  0.31108036282E+01 -0.55690465318E+01  0.14554837574E+04  0.14555320881E+04  0.10000000000E+02 0.  1.
</event>
<event>
 5    1  0.1072898E-008  0.3828085E+03  0.7957747E-01  0.3439020E+00
         13   -1    0    0    0    0  0.00000000000E+00  0.00000000000E+00  0.14999999963E+04  0.15000000000E+04  0.10566000000E+00 0.  1.
        994   -1    0    0    0    0 -0.00000000000E+00 -0.00000000000E+00  0.11368683772E-12  0.17120000000E+03  0.17120000000E+03 0.  0.
         13    1    1    2    0    0 -0.52179534104E+01 -0.11437475077E+02  0.28103087600E+02  0.30786970793E+02  0.10566000000E+00 0.  1.
        994    1    1    2    0    0  0.48987827302E+01  0.69252953520E+01  0.29604738795E+01  0.17143559197E+03  0.17120000000E+03 0.  0.
        998    1    1    2    0    0  0.31917068014E+00  0.45121797246E+01  0.14689364348E+04  0.14689774372E+04  0.10000000000E+02 0.  1.
</event>
<event>
 5    1  0.1072898E-008  0.3846343E+03  0.7957747E-01  0.3431225E+00
         13   -1    0    0    0    0  0.00000000000E+00  0.00000000000E+00  0.14999999963E+04  0.15000000000E+04  0.10566000000E+00 0. -1.
        994   -1    0    0    0    0 -0.00000000000E+00 -0.00000000000E+00  0.11368683772E-12  0.17120000000E+03  0.17120000000E+03 0.  0.
         13    1    1    2    0    0  0.48258917428E+00 -0.12933850036E+02  0.46878287147E+02  0.48632317845E+02  0.10566000000E+00 0. -1.
        994    1    1    2    0    0  0.47765770197E+01  0.51508754934E+01  0.19743174086E+01  0.17135543509E+03  0.17120000000E+03 0.  0.
        998    1    1    2    0    0 -0.52591661939E+01  0.77829745426E+01  0.14511473917E+04  0.14512122471E+04  0.10000000000E+02 0. -1.
</event>
<event>
 5    1  0.1072898E-008  0.3840864E+03  0.7957747E-01  0.3433556E+00
         13   -1    0    0    0    0  0.00000000000E+00  0.00000000000E+00  0.14999999963E+04  0.15000000000E+04  0.10566000000E+00 0. -1.
        994   -1    0    0    0    0 -0.00000000000E+00 -0.00000000000E+00  0.11368683772E-12  0.17120000000E+03  0.17120000000E+03 0.  0.
         13    1    1    2    0    0  0.10007356281E+02 -0.62390403257E+01  0.32215000091E+02  0.34305833306E+02  0.10566000000E+00 0. -1.
        994    1    1    2    0    0 -0.12513730781E+02  0.37080081676E+01  0.26464555401E+01  0.17171717011E+03  0.17120000000E+03 0.  0.
        998    1    1    2    0    0  0.25063745001E+01  0.25310321581E+01  0.14651385406E+04  0.14651769966E+04  0.10000000000E+02 0. -1.
</event>
<event>
 5    1  0.1072898E-008  0.4206280E+03  0.7957747E-01  0.3291330E+00
         13   -1    0    0    0    0  0.00000000000E+00  0.00000000000E+00  0.14999999963E+04  0.15000000000E+04  0.10566000000E+00 0.  1.
        994   -1    0    0    0    0 -0.00000000000E+00 -0.00000000000E+00  0.11368683772E-12  0.17120000000E+03  0.17120000000E+03 0.  0.
         13    1    1    2    0    0  0.36706160023E+02 -0.39663044149E+02  0.27987027485E+02  0.60858722681E+02  0.10566000000E+00 0.  1.
        994    1    1    2    0    0  0.61090903829E+02 -0.30764633600E+02  0.61047607667E+02  0.19420301649E+03  0.17120000000E+03 0.  0.
        998    1    1    2    0    0 -0.97797063852E+02  0.70427677749E+02  0.14109653611E+04  0.14161382608E+04  0.10000000000E+02 0.  1.
</event>
<event>
 5    1  0.1072898E-008  0.3757970E+03  0.7957747E-01  0.3469666E+00
         13   -1    0    0    0    0  0.00000000000E+00  0.00000000000E+00  0.14999999963E+04  0.15000000000E+04  0.10566000000E+00 0.  1.
        994   -1    0    0    0    0 -0.00000000000E+00 -0.00000000000E+00  0.11368683772E-12  0.17120000000E+03  0.17120000000E+03 0.  0.
         13    1    1    2    0    0 -0.50951630426E+01 -0.58063117859E+02  0.33530008545E+03  0.34032843667E+03  0.10566000000E+00 0.  1.
        994    1    1    2    0    0  0.14439343929E+02  0.67990438459E+01  0.71340156096E+01  0.17209025489E+03  0.17120000000E+03 0.  0.
        998    1    1    2    0    0 -0.93441808860E+01  0.51264074013E+02  0.11575658952E+04  0.11587813084E+04  0.10000000000E+02 0.  1.
</event>
<event>
 5    1  0.1072898E-008  0.3822234E+03  0.7957747E-01  0.3441534E+00
         13   -1    0    0    0    0  0.00000000000E+00  0.00000000000E+00  0.14999999963E+04  0.15000000000E+04  0.10566000000E+00 0. -1.
        994   -1    0    0    0    0 -0.00000000000E+00 -0.00000000000E+00  0.11368683772E-12  0.17120000000E+03  0.17120000000E+03 0.  0.
         13    1    1    2    0    0 -0.12930922875E+02 -0.84068188595E+01  0.37629631359E+02  0.40667968845E+02  0.10566000000E+00 0. -1.
        994    1    1    2    0    0  0.14767544325E+02  0.61573502266E+01  0.38649569274E+01  0.17198945090E+03  0.17120000000E+03 0.  0.
        998    1    1    2    0    0 -0.18366214500E+01  0.22494686329E+01  0.14585054080E+04  0.14585425803E+04  0.10000000000E+02 0. -1.
</event>
<event>
 5    1  0.1072898E-008  0.3858156E+03  0.7957747E-01  0.3426220E+00
         13   -1    0    0    0    0  0.00000000000E+00  0.00000000000E+00  0.14999999963E+04  0.15000000000E+04  0.10566000000E+00 0.  1.
        994   -1    0    0    0    0 -0.00000000000E+00 -0.00000000000E+00  0.11368683772E-12  0.17120000000E+03  0.17120000000E+03 0.  0.
         13    1    1    2    0    0  0.70322978278E+01 -0.96657580860E+01  0.59225829289E+02  0.60420113465E+02  0.10566000000E+00 0.  1.
        994    1    1    2    0    0 -0.61172325666E+01  0.41769524005E+01  0.14057078358E+01  0.17136593442E+03  0.17120000000E+03 0.  0.
        998    1    1    2    0    0 -0.91506526118E+00  0.54888056855E+01  0.14393684592E+04  0.14394139521E+04  0.10000000000E+02 0.  1.
</event>
<event>
 5    1  0.1072898E-008  0.3782016E+03  0.7957747E-01  0.3459027E+00
         13   -1    0    0    0    0  0.00000000000E+00  0.00000000000E+00  0.14999999963E+04  0.15000000000E+04  0.10566000000E+00 0.  1.
        994   -1    0    0    0    0 -0.00000000000E+00 -0.00000000000E+00  0.11368683772E-12  0.17120000000E+03  0.17120000000E+03 0.  0.
         13    1    1    2    0    0 -0.18486366149E+02  0.26346044354E+02  0.10426138206E+03  0.10911602421E+03  0.10566000000E+00 0.  1.
        994    1    1    2    0    0  0.82606128246E+01 -0.98321829899E+01  0.55985036208E+01  0.17177221192E+03  0.17120000000E+03 0.  0.
        998    1    1    2    0    0  0.10225753324E+02 -0.16513861364E+02  0.13901401106E+04  0.13903117639E+04  0.10000000000E+02 0.  1.
</event>
<event>
 5    1  0.1072898E-008  0.3824794E+03  0.7957747E-01  0.3440433E+00
         13   -1    0    0    0    0  0.00000000000E+00  0.00000000000E+00  0.14999999963E+04  0.15000000000E+04  0.10566000000E+00 0. -1.
        994   -1    0    0    0    0 -0.00000000000E+00 -0.00000000000E+00  0.11368683772E-12  0.17120000000E+03  0.17120000000E+03 0.  0.
         13    1    1    2    0    0  0.29682790566E+02 -0.26658777842E+02  0.23275666734E+03  0.23615129863E+03  0.10566000000E+00 0. -1.
        994    1    1    2    0    0 -0.34236484132E+02  0.23296668122E+02  0.85937974801E+01  0.17634671799E+03  0.17120000000E+03 0.  0.
        998    1    1    2    0    0  0.45536935660E+01  0.33621097206E+01  0.12586495315E+04  0.12587019834E+04  0.10000000000E+02 0. -1.
</event>
<event>
 5    1  0.1072898E-008  0.3814557E+03  0.7957747E-01  0.3444845E+00
         13   -1    0    0    0    0  0.00000000000E+00  0.00000000000E+00  0.14999999963E+04  0.15000000000E+04  0.10566000000E+00 0.  1.
        994   -1    0    0    0    0 -0.00000000000E+00 -0.00000000000E+00  0.11368683772E-12  0.17120000000E+03  0.17120000000E+03 0.  0.
         13    1    1    2    0    0  0.66877419027E+02 -0.28845894691E+01  0.11571682957E+03  0.13368360349E+03  0.10566000000E+00 0.  1.
        994    1    1    2    0    0 -0.67274489456E+02  0.10492135281E+02  0.34218744554E+02  0.18739344789E+03  0.17120000000E+03 0.  0.
        998    1    1    2    0    0  0.39707042882E+00 -0.76075458121E+01  0.13500644222E+04  0.13501229486E+04  0.10000000000E+02 0.  1.
</event>
<event>
 5    1  0.1072898E-008  0.3779563E+03  0.7957747E-01  0.3460106E+00
         13   -1    0    0    0    0  0.00000000000E+00  0.00000000000E+00  0.14999999963E+04  0.15000000000E+04  0.10566000000E+00 0.  1.
        994   -1    0    0    0    0 -0.00000000000E+00 -0.00000000000E+00  0.11368683772E-12  0.17120000000E+03  0.17120000000E+03 0.  0.
         13    1    1    2    0    0 -0.16824797374E+02  0.55615508509E+01  0.27910949221E+02  0.33061108647E+02  0.10566000000E+00 0.  1.
        994    1    1    2    0    0  0.15079108625E+02 -0.70746390282E+01  0.61026483982E+01  0.17211656617E+03  0.17120000000E+03 0.  0.
        998    1    1    2    0    0  0.17456887494E+01  0.15130881773E+01  0.14659863987E+04  0.14660223252E+04  0.10000000000E+02 0.  1.
</event>
<event>
 5    1  0.1072898E-008  0.3853452E+03  0.7957747E-01  0.3428209E+00
         13   -1    0    0    0    0  0.00000000000E+00  0.00000000000E+00  0.14999999963E+04  0.15000000000E+04  0.10566000000E+00 0. -1.
        994   -1    0    0    0    0 -0.00000000000E+00 -0.00000000000E+00  0.11368683772E-12  0.17120000000E+03  0.17120000000E+03 0.  0.
         13    1    1    2    0    0  0.11112207279E+02 -0.99963375094E+01  0.78643587651E+02  0.80051439442E+02  0.10566000000E+00 0. -1.
        994    1    1    2    0    0 -0.33515696060E+01  0.62029071289E+01  0.16221384805E+01  0.17135279516E+03  0.17120000000E+03 0.  0.
        998    1    1    2    0    0 -0.77606376730E+01  0.37934303805E+01  0.14197342701E+04  0.14197957654E+04  0.10000000000E+02 0. -1.
</event>
<event>
 5    1  0.1072898E-008  0.3842221E+03  0.7957747E-01  0.3432978E+00
         13   -1    0    0    0    0  0.00000000000E+00  0.00000000000E+00  0.14999999963E+04  0.15000000000E+04  0.10566000000E+00 0. -1.
        994   -1    0    0    0    0 -0.00000000000E+00 -0.00000000000E+00  0.11368683772E-12  0.17120000000E+03  0.17120000000E+03 0.  0.
         13    1    1    2    0    0  0.19266416496E+02 -0.93843804631E+01  0.11000025194E+03  0.11206840764E+03  0.10566000000E+00 0. -1.
        994    1    1    2    0    0 -0.16115214730E+02  0.70838531269E+01  0.30391684959E+01  0.17212947936E+03  0.17120000000E+03 0.  0.
        998    1    1    2    0    0 -0.31512017661E+01  0.23005273362E+01  0.13869605758E+04  0.13870021130E+04  0.10000000000E+02 0. -1.
</event>
<event>
 5    1  0.1072898E-008  0.3711322E+03  0.7957747E-01  0.3490704E+00
         13   -1    0    0    0    0  0.00000000000E+00  0.00000000000E+00  0.14999999963E+04  0.15000000000E+04  0.10566000000E+00 0. -1.
        994   -1    0    0    0    0 -0.00000000000E+00 -0.00000000000E+00  0.11368683772E-12  0.17120000000E+03  0.17120000000E+03 0.  0.
         13    1    1    2    0    0  0.92938710905E+02  0.59441151472E+02  0.38234006668E+03  0.39793817639E+03  0.10566000000E+00 0. -1.
        994    1    1    2    0    0 -0.92756932271E+02 -0.59366856952E+02  0.55415884113E+02  0.21097069086E+03  0.17120000000E+03 0.  0.
        998    1    1    2    0    0 -0.18177863382E+00 -0.74294520566E-01  0.10622440455E+04  0.10622911328E+04  0.10000000000E+02 0.  0.
</event>
<event>
 5    1  0.1072898E-008  0.3845695E+03  0.7957747E-01  0.3431500E+00
         13   -1    0    0    0    0  0.00000000000E+00  0.00000000000E+00  0.14999999963E+04  0.15000000000E+04  0.10566000000E+00 0. -1.
        994   -1    0    0    0    0 -0.00000000000E+00 -0.00000000000E+00  0.11368683772E-12  0.17120000000E+03  0.17120000000E+03 0.  0.
         13    1    1    2    0    0  0.20161223934E+02 -0.35044715560E+01  0.10798530653E+03  0.10990720569E+03  0.10566000000E+00 0. -1.
        994    1    1    2    0    0 -0.18630376509E+02  0.49164359437E+01  0.30676458300E+01  0.17230819111E+03  0.17120000000E+03 0.  0.
        998    1    1    2    0    0 -0.15308474253E+01 -0.14119643876E+01  0.13889470439E+04  0.13889846032E+04  0.10000000000E+02 0. -1.
</event>
<event>
 5    1  0.1072898E-008  0.3700162E+03  0.7957747E-01  0.3495816E+00
         13   -1    0    0    0    0  0.00000000000E+00  0.00000000000E+00  0.14999999963E+04  0.15000000000E+04  0.10566000000E+00 0. -1.
        994   -1    0    0    0    0 -0.00000000000E+00 -0.00000000000E+00  0.11368683772E-12  0.17120000000E+03  0.17120000000E+03 0.  0.
         13    1    1    2    0    0 -0.14397341760E+01 -0.28550572111E+02  0.32812133530E+02  0.43518447504E+02  0.10566000000E+00 0. -1.
        994    1    1    2    0    0  0.15020375576E+01  0.21178645423E+02  0.12524984480E+02  0.17296562195E+03  0.17120000000E+03 0.  0.
        998    1    1    2    0    0 -0.62303381566E-01  0.73719266880E+01  0.14546628783E+04  0.14547159306E+04  0.10000000000E+02 0. -1.
</event>
<event>
 5    1  0.1072898E-008  0.3848176E+03  0.7957747E-01  0.3430446E+00
         13   -1    0    0    0    0  0.00000000000E+00  0.00000000000E+00  0.14999999963E+04  0.15000000000E+04  0.10566000000E+00 0.  1.
        994   -1    0    0    0    0 -0.00000000000E+00 -0.00000000000E+00  0.11368683772E-12  0.17120000000E+03  0.17120000000E+03 0.  0.
         13    1    1    2    0    0  0.41374488916E+01 -0.15175407851E+02  0.70151774871E+02  0.71893630930E+02  0.10566000000E+00 0.  1.
        994    1    1    2    0    0 -0.17373809497E+02  0.10002914911E+02  0.30443448514E+01  0.17239668094E+03  0.17120000000E+03 0.  0.
        998    1    1    2    0    0  0.13236360605E+02  0.51724929408E+01  0.14268038766E+04  0.14269096881E+04  0.10000000000E+02 0.  1.
</event>
<event>
 5    1  0.1072898E-008  0.3781968E+03  0.7957747E-01  0.3459048E+00
         13   -1    0    0    0    0  0.00000000000E+00  0.00000000000E+00  0.14999999963E+04  0.15000000000E+04  0.10566000000E+00 0.  1.
        994   -1    0    0    0    0 -0.00000000000E+00 -0.00000000000E+00  0.11368683772E-12  0.17120000000E+03  0.17120000000E+03 0.  0.
         13    1    1    2    0    0 -0.16253849298E+02 -0.47643225445E+01  0.26331801827E+02  0.31309125472E+02  0.10566000000E+00 0.  1.
        994    1    1    2    0    0  0.11169635537E+02  0.40156992018E+01  0.55201024805E+01  0.17169973247E+03  0.17120000000E+03 0.  0.
        998    1    1    2    0    0  0.50842137605E+01  0.74862334278E+00  0.14681480920E+04  0.14681911421E+04  0.10000000000E+02 0.  1.
</event>
<event>
 5    1  0.1072898E-008  0.3694579E+03  0.7957747E-01  0.3498386E+00
         13   -1    0    0    0    0  0.00000000000E+00  0.00000000000E+00  0.14999999963E+04  0.15000000000E+04  0.10566000000E+00 0.  1.
        994   -1    0    0    0    0 -0.00000000000E+00 -0.00000000000E+00  0.11368683772E-12  0.17120000000E+03  0.17120000000E+03 0.  0.
         13    1    1    2    0    0  0.57172810156E+02  0.73121801079E+02  0.32156094928E+03  0.33468938327E+03  0.10566000000E+00 0.  1.
        994    1    1    2    0    0 -0.53417273177E+02 -0.70682973472E+02  0.38568015849E+02  0.19658692647E+03  0.17120000000E+03 0.  0.
        998    1    1    2    0    0 -0.37555369782E+01 -0.24388276072E+01  0.11398710312E+04  0.11399236903E+04  0.10000000000E+02 0.  1.
</event>
<event>
 5    1  0.1072898E-008  0.3735329E+03  0.7957747E-01  0.3479810E+00
         13   -1    0    0    0    0  0.00000000000E+00  0.00000000000E+00  0.14999999963E+04  0.15000000000E+04  0.10566000000E+00 0. -1.
        994   -1    0    0    0    0 -0.00000000000E+00 -0.00000000000E+00  0.11368683772E-12  0.17120000000E+03  0.17120000000E+03 0.  0.
         13    1    1    2    0    0 -0.47369740495E+02  0.16751247612E+02  0.20864723251E+03  0.21461168517E+03  0.10566000000E+00 0. -1.
        994    1    1    2    0    0 -0.80311394755E+01 -0.93435797240E+00  0.76574205997E+01  0.17156179154E+03  0.17120000000E+03 0.  0.
        998    1    1    2    0    0  0.55400879971E+02 -0.15816889640E+02  0.12836953432E+04  0.12850265233E+04  0.10000000000E+02 0. -1.
</event>
<event>
 5    1  0.1072898E-008  0.3778438E+03  0.7957747E-01  0.3460601E+00
         13   -1    0    0    0    0  0.00000000000E+00  0.00000000000E+00  0.14999999963E+04  0.15000000000E+04  0.10566000000E+00 0. -1.
        994   -1    0    0    0    0 -0.00000000000E+00 -0.00000000000E+00  0.11368683772E-12  0.17120000000E+03  0.17120000000E+03 0.  0.
         13    1    1    2    0    0  0.45676636700E+02 -0.56591753609E+01  0.18697280150E+03  0.19255446261E+03  0.10566000000E+00 0. -1.
        994    1    1    2    0    0 -0.37805957361E+02  0.37461408993E+01  0.10100507348E+02  0.17565529947E+03  0.17120000000E+03 0.  0.
        998    1    1    2    0    0 -0.78706793394E+01  0.19130344616E+01  0.13029266874E+04  0.13029902379E+04  0.10000000000E+02 0. -1.
</event>
<event>
 5    1  0.1072898E-008  0.3825360E+03  0.7957747E-01  0.3440190E+00
         13   -1    0    0    0    0  0.00000000000E+00  0.00000000000E+00  0.14999999963E+04  0.15000000000E+04  0.10566000000E+00 0. -1.
        994   -1    0    0    0    0 -0.00000000000E+00 -0.00000000000E+00  0.11368683772E-12  0.17120000000E+03  0.17120000000E+03 0.  0.
         13    1    1    2    0    0  0.11688187231E+02  0.10701580187E+02  0.41909750292E+02  0.44805980324E+02  0.10566000000E+00 0. -1.
        994    1    1    2    0    0 -0.16259376292E+02 -0.71968781143E+01  0.39072547040E+01  0.17216523752E+03  0.17120000000E+03 0.  0.
        998    1    1    2    0    0  0.45711890610E+01 -0.35047020728E+01  0.14541829913E+04  0.14542287822E+04  0.10000000000E+02 0. -1.
</event>
<event>
 5    1  0.1072898E-008  0.3807936E+03  0.7957747E-01  0.3447710E+00
         13   -1    0    0    0    0  0.00000000000E+00  0.00000000000E+00  0.14999999963E+04  0.15000000000E+04  0.10566000000E+00 0.  1.
        994   -1    0    0    0    0 -0.00000000000E+00 -0.00000000000E+00  0.11368683772E-12  0.17120000000E+03  0.17120000000E+03 0.  0.
         13    1    1    2    0    0  0.21099830792E+02  0.24064914338E+02  0.12976245820E+03  0.13365114920E+03  0.10566000000E+00 0.  1.
        994    1    1    2    0    0 -0.21225310038E+02 -0.16897863380E+02  0.61910580363E+01  0.17344688170E+03  0.17120000000E+03 0.  0.
        998    1    1    2    0    0  0.12547924579E+00 -0.71670509585E+01  0.13640464800E+04  0.13641019691E+04  0.10000000000E+02 0.  1.
</event>
<event>
 5    1  0.1072898E-008  0.3856075E+03  0.7957747E-01  0.3427100E+00
         13   -1    0    0    0    0  0.00000000000E+00  0.00000000000E+00  0.14999999963E+04  0.15000000000E+04  0.10566000000E+00 0.  1.
        994   -1    0    0    0    0 -0.00000000000E+00 -0.00000000000E+00  0.11368683772E-12  0.17120000000E+03  0.17120000000E+03 0.  0.
         13    1    1    2    0    0 -0.89821270697E+00 -0.15318295399E+02  0.88930294910E+02  0.90244476157E+02  0.10566000000E+00 0.  1.
        994    1    1    2    0    0  0.62271125494E+01  0.99452664838E+01  0.17808603985E+01  0.17161088753E+03  0.17120000000E+03 0.  0.
        998    1    1    2    0    0 -0.53288998424E+01  0.53730289149E+01  0.14092888410E+04  0.14093446363E+04  0.10000000000E+02 0.  1.
</event>
<event>
 5    1  0.1072898E-008  0.3777191E+03  0.7957747E-01  0.3461151E+00
         13   -1    0    0    0    0  0.00000000000E+00  0.00000000000E+00  0.14999999963E+04  0.15000000000E+04  0.10566000000E+00 0.  1.
        994   -1    0    0    0    0 -0.00000000000E+00 -0.00000000000E+00  0.11368683772E-12  0.17120000000E+03  0.17120000000E+03 0.  0.
         13    1    1    2    0    0  0.24777995437E+01  0.11646476684E+02  0.11056610952E+02  0.16249299047E+02  0.10566000000E+00 0.  1.
        994    1    1    2    0    0  0.40933038062E+01 -0.92805572745E+01  0.56356195829E+01  0.17159278565E+03  0.17120000000E+03 0.  0.
        998    1    1    2    0    0 -0.65711033500E+01 -0.23659194096E+01  0.14833077657E+04  0.14833579153E+04  0.10000000000E+02 0.  1.
</event>
<event>
 5    1  0.1072898E-008  0.3739262E+03  0.7957747E-01  0.3478039E+00
         13   -1    0    0    0    0  0.00000000000E+00  0.00000000000E+00  0.14999999963E+04  0.15000000000E+04  0.10566000000E+00 0. -1.
        994   -1    0    0    0    0 -0.00000000000E+00 -0.00000000000E+00  0.11368683772E-12  0.17120000000E+03  0.17120000000E+03 0.  0.
         13    1    1    2    0    0 -0.53691591828E+02  0.14845768542E+02  0.18513711994E+03  0.19333636031E+03  0.10566000000E+00 0. -1.
        994    1    1    2    0    0  0.54787781791E+02 -0.17272279968E+02  0.18574214388E+02  0.18153367216E+03  0.17120000000E+03 0.  0.
        998    1    1    2    0    0 -0.10961899632E+01  0.24265114266E+01  0.12962886620E+04  0.12963299675E+04  0.10000000000E+02 0.  0.
</event>
<event>
 5    1  0.1072898E-008  0.3728447E+03  0.7957747E-01  0.3482919E+00
         13   -1    0    0    0    0  0.00000000000E+00  0.00000000000E+00  0.14999999963E+04  0.15000000000E+04  0.10566000000E+00 0. -1.
        994   -1    0    0    0    0 -0.00000000000E+00 -0.00000000000E+00  0.11368683772E-12  0.17120000000E+03  0.17120000000E+03 0.  0.
         13    1    1    2    0    0  0.38856535776E+01  0.10794885077E+02  0.52404209328E+01  0.12613525405E+02  0.10566000000E+00 0. -1.
        994    1    1    2    0    0  0.10622904744E+02  0.19383609638E+02  0.94644178775E+01  0.17288026386E+03  0.17120000000E+03 0.  0.
        998    1    1    2    0    0 -0.14508558321E+02 -0.30178494714E+02  0.14852951575E+04  0.14857062107E+04  0.10000000000E+02 0. -1.
</event>
<event>
 5    1  0.1326582E-008  0.3814130E+03  0.7957747E-01  0.3445029E+00
         13   -1    0    0    0    0  0.00000000000E+00  0.00000000000E+00  0.14999999963E+04  0.15000000000E+04  0.10566000000E+00 0.  1.
        994   -1    0    0    0    0 -0.00000000000E+00 -0.00000000000E+00  0.11368683772E-12  0.17120000000E+03  0.17120000000E+03 0.  0.
         13    1    1    2    0    0 -0.95300077680E+01 -0.46919467739E+01  0.14976590535E+02  0.18361504314E+02  0.10566000000E+00 0.  1.
        994    1    1    2    0    0  0.84606866896E+01  0.46157513014E+01  0.37307031699E+01  0.17151165128E+03  0.17120000000E+03 0.  0.
        998    1    1    2    0    0  0.10693210784E+01  0.76195472512E-01  0.14812927026E+04  0.14813268444E+04  0.10000000000E+02 0.  1.
</event>
<event>
 5    1  0.1072898E-008  0.3692227E+03  0.7957747E-01  0.3499471E+00
         13   -1    0    0    0    0  0.00000000000E+00  0.00000000000E+00  0.14999999963E+04  0.15000000000E+04  0.10566000000E+00 0. -1.
        994   -1    0    0    0    0 -0.00000000000E+00 -0.00000000000E+00  0.11368683772E-12  0.17120000000E+03  0.17120000000E+03 0.  0.
         13    1    1    2    0    0 -0.79314754179E+01  0.21164273037E+02  0.23848162828E+02  0.32856974751E+02  0.10566000000E+00 0. -1.
        994    1    1    2    0    0 -0.17795820930E+02  0.65300411777E+01  0.10922660017E+02  0.17259222805E+03  0.17120000000E+03 0.  0.
        998    1    1    2    0    0  0.25727296348E+02 -0.27694314215E+02  0.14652291734E+04  0.14657507972E+04  0.10000000000E+02 0. -1.
</event>
<event>
 5    1  0.1072898E-008  0.3725277E+03  0.7957747E-01  0.3484354E+00
         13   -1    0    0    0    0  0.00000000000E+00  0.00000000000E+00  0.14999999963E+04  0.15000000000E+04  0.10566000000E+00 0. -1.
        994   -1    0    0    0    0 -0.00000000000E+00 -0.00000000000E+00  0.11368683772E-12  0.17120000000E+03  0.17120000000E+03 0.  0.
         13    1    1    2    0    0  0.16946041172E+02  0.71517207234E+02  0.38138562158E+03  0.38840299014E+03  0.10566000000E+00 0. -1.
        994    1    1    2    0    0  0.13076868078E+01 -0.28364247149E+02  0.10722440551E+02  0.17386963879E+03  0.17120000000E+03 0.  0.
        998    1    1    2    0    0 -0.18253727980E+02 -0.43152960085E+02  0.11078919342E+04  0.11089273711E+04  0.10000000000E+02 0.  0.
</event>
<event>
 5    1  0.1072898E-008  0.3832362E+03  0.7957747E-01  0.3437187E+00
         13   -1    0    0    0    0  0.00000000000E+00  0.00000000000E+00  0.14999999963E+04  0.15000000000E+04  0.10566000000E+00 0. -1.
        994   -1    0    0    0    0 -0.00000000000E+00 -0.00000000000E+00  0.11368683772E-12  0.17120000000E+03  0.17120000000E+03 0.  0.
         13    1    1    2    0    0  0.92623230381E+00 -0.12226215749E+02  0.28715405453E+02  0.31223771908E+02  0.10566000000E+00 0. -1.
        994    1    1    2    0    0  0.54818422760E+01  0.12894794121E+02  0.31580093927E+01  0.17180145323E+03  0.17120000000E+03 0.  0.
        998    1    1    2    0    0 -0.64080745798E+01 -0.66857837214E+00  0.14681265814E+04  0.14681747749E+04  0.10000000000E+02 0. -1.
</event>
<event>
 5    1  0.1072898E-008  0.3792893E+03  0.7957747E-01  0.3454259E+00
         13   -1    0    0    0    0  0.00000000000E+00  0.00000000000E+00  0.14999999963E+04  0.15000000000E+04  0.10566000000E+00 0. -1.
        994   -1    0    0    0    0 -0.00000000000E+00 -0.00000000000E+00  0.11368683772E-12  0.17120000000E+03  0.17120000000E+03 0.  0.
         13    1    1    2    0    0  0.16682618858E+02 -0.28538715280E+01  0.31741990354E+02  0.35972482127E+02  0.10566000000E+00 0. -1.
        994    1    1    2    0    0  0.73113962120E+01  0.63076562656E+01  0.48048175278E+01  0.17153941038E+03  0.17120000000E+03 0.  0.
        998    1    1    2    0    0 -0.23994015070E+02 -0.34537847377E+01  0.14634531884E+04  0.14636881075E+04  0.10000000000E+02 0. -1.
</event>
<event>
 5    1  0.1072898E-008  0.3855752E+03  0.7957747E-01  0.3427236E+00
         13   -1    0    0    0    0  0.00000000000E+00  0.00000000000E+00  0.14999999963E+04  0.15000000000E+04  0.10566000000E+00 0. -1.
        994   -1    0    0    0    0 -0.00000000000E+00 -0.00000000000E+00  0.11368683772E-12  0.17120000000E+03  0.17120000000E+03 0.  0.
         13    1    1    2    0    0  0.12280157698E+02 -0.16059699377E+01  0.57533971569E+02  0.58851936766E+02  0.10566000000E+00 0. -1.
        994    1    1    2    0    0 -0.71526252622E+01  0.56348183448E+01  0.16170205620E+01  0.17144960187E+03  0.17120000000E+03 0.  0.
        998    1    1    2    0    0 -0.51275324363E+01 -0.40288484071E+01  0.14408490041E+04  0.14408984614E+04  0.10000000000E+02 0. -1.
</event>
<event>
 5    1  0.1072898E-008  0.3830692E+03  0.7957747E-01  0.3437902E+00
         13   -1    0    0    0    0  0.00000000000E+00  0.00000000000E+00  0.14999999963E+04  0.15000000000E+04  0.10566000000E+00 0.  1.
        994   -1    0    0    0    0 -0.00000000000E+00 -0.00000000000E+00  0.11368683772E-12  0.17120000000E+03  0.17120000000E+03 0.  0.
         13    1    1    2    0    0 -0.24194739739E+02 -0.13022088511E+02  0.16036046165E+03  0.16269741560E+03  0.10566000000E+00 0.  1.
        994    1    1    2    0    0  0.80339477517E+01 -0.58914346347E+01  0.29203188407E+01  0.17151449379E+03  0.17120000000E+03 0.  0.
        998    1    1    2    0    0  0.16160791987E+02  0.18913523146E+02  0.13367192158E+04  0.13369880906E+04  0.10000000000E+02 0.  1.
</event>
<event>
 5    1  0.1072898E-008  0.3708712E+03  0.7957747E-01  0.3491897E+00
         13   -1    0    0    0    0  0.00000000000E+00  0.00000000000E+00  0.14999999963E+04  0.15000000000E+04  0.10566000000E+00 0. -1.
        994   -1    0    0    0    0 -0.00000000000E+00 -0.00000000000E+00  0.11368683772E-12  0.17120000000E+03  0.17120000000E+03 0.  0.
         13    1    1    2    0    0  0.41736070057E+02 -0.36071406815E+02  0.18892836977E+03  0.19681713848E+03  0.10566000000E+00 0. -1.
        994    1    1    2    0    0  0.18320192538E+01  0.20967346690E+02  0.10343015593E+02  0.17279873811E+03  0.17120000000E+03 0.  0.
        998    1    1    2    0    0 -0.43568089311E+02  0.15104060125E+02  0.13007286109E+04  0.13015841234E+04  0.10000000000E+02 0. -1.
</event>
<event>
 5    1  0.1072898E-008  0.3837643E+03  0.7957747E-01  0.3434930E+00
         13   -1    0    0    0    0  0.00000000000E+00  0.00000000000E+00  0.14999999963E+04  0.15000000000E+04  0.10566000000E+00 0. -1.
        994   -1    0    0    0    0 -0.00000000000E+00 -0.00000000000E+00  0.11368683772E-12  0.17120000000E+03  0.17120000000E+03 0.  0.
         13    1    1    2    0    0  0.92527173091E+01  0.20240151876E+02  0.10893040024E+03  0.11118057288E+03  0.10566000000E+00 0. -1.
        994    1    1    2    0    0 -0.22764756870E+01 -0.15399962601E+02  0.30454497231E+01  0.17193328925E+03  0.17120000000E+03 0.  0.
        998    1    1    2    0    0 -0.69762416220E+01 -0.48401892743E+01  0.13880241463E+04  0.13880861379E+04  0.10000000000E+02 0. -1.
</event>
<event>
 5    1  0.1072898E-008  0.3817618E+03  0.7957747E-01  0.3443523E+00
         13   -1    0    0    0    0  0.00000000000E+00  0.00000000000E+00  0.14999999963E+04  0.15000000000E+04  0.10566000000E+00 0. -1.
        994   -1    0    0    0    0 -0.00000000000E+00 -0.00000000000E+00  0.11368683772E-12  0.17120000000E+03  0.17120000000E+03 0.  0.
         13    1    1    2    0    0  0.18894953967E+02 -0.22730754163E+02  0.15367084337E+03  0.15648784533E+03  0.10566000000E+00 0. -1.
        994    1    1    2    0    0 -0.23826118398E+01 -0.40789008473E+01  0.33206149453E+01  0.17129734602E+03  0.17120000000E+03 0.  0.
        998    1    1    2    0    0 -0.16512342127E+02  0.26809655010E+02  0.13430085380E+04  0.13434148086E+04  0.10000000000E+02 0. -1.
</event>
<event>
 5    1  0.1072898E-008  0.3850682E+03  0.7957747E-01  0.3429383E+00
         13   -1    0    0    0    0  0.00000000000E+00  0.00000000000E+00  0.14999999963E+04  0.15000000000E+04  0.10566000000E+00 0. -1.
        994   -1    0    0    0    0 -0.00000000000E+00 -0.00000000000E+00  0.11368683772E-12  0.17120000000E+03  0.17120000000E+03 0.  0.
         13    1    1    2    0    0 -0.73767365097E+01  0.78031259600E+01  0.36017805324E+02  0.37584551090E+02  0.10566000000E+00 0. -1.
        994    1    1    2    0    0  0.43327161662E+01 -0.56111299198E+01  0.17615182836E+01  0.17135577071E+03  0.17120000000E+03 0.  0.
        998    1    1    2    0    0  0.30440203435E+01 -0.21919960402E+01  0.14622206727E+04  0.14622596782E+04  0.10000000000E+02 0. -1.
</event>
<event>
 5    1  0.1072898E-008  0.3845141E+03  0.7957747E-01  0.3431736E+00
         13   -1    0    0    0    0  0.00000000000E+00  0.00000000000E+00  0.14999999963E+04  0.15000000000E+04  0.10566000000E+00 0.  1.
        994   -1    0    0    0    0 -0.00000000000E+00 -0.00000000000E+00  0.11368683772E-12  0.17120000000E+03  0.17120000000E+03 0.  0.
         13    1    1    2    0    0  0.62821856383E+01  0.14047810454E+02  0.60976004373E+02  0.62887924980E+02  0.10566000000E+00 0.  1.
        994    1    1    2    0    0 -0.13788611986E+02 -0.11334835137E+02  0.29216953845E+01  0.17215278276E+03  0.17120000000E+03 0.  0.
        998    1    1    2    0    0  0.75064263479E+01 -0.27129753177E+01  0.14361022965E+04  0.14361592923E+04  0.10000000000E+02 0.  1.
</event>
<event>
 5    1  0.1072898E-008  0.4367743E+03  0.7957747E-01  0.3235967E+00
         13   -1    0    0    0    0  0.00000000000E+00  0.00000000000E+00  0.14999999963E+04  0.15000000000E+04  0.10566000000E+00 0.  1.
        994   -1    0    0    0    0 -0.00000000000E+00 -0.00000000000E+00  0.11368683772E-12  0.17120000000E+03  0.17120000000E+03 0.  0.
         13    1    1    2    0    0 -0.77393307234E+02 -0.13970796996E+03  0.32882865571E+03  0.36556304087E+03  0.10566000000E+00 0.  1.
        994    1    1    2    0    0 -0.49576185058E+02  0.59007088398E+02  0.79972215512E+02  0.20407015916E+03  0.17120000000E+03 0.  0.
        998    1    1    2    0    0  0.12696949229E+03  0.80700881558E+02  0.10911991251E+04  0.11015668000E+04  0.10000000000E+02 0.  1.
</event>
<event>
 5    1  0.1072898E-008  0.3781943E+03  0.7957747E-01  0.3459059E+00
         13   -1    0    0    0    0  0.00000000000E+00  0.00000000000E+00  0.14999999963E+04  0.15000000000E+04  0.10566000000E+00 0. -1.
        994   -1    0    0    0    0 -0.00000000000E+00 -0.00000000000E+00  0.11368683772E-12  0.17120000000E+03  0.17120000000E+03 0.  0.
         13    1    1    2    0    0 -0.37702459766E+02  0.23572480659E+02  0.17551207255E+03  0.18105699680E+03  0.10566000000E+00 0. -1.
        994    1    1    2    0    0  0.31743882312E+02 -0.28698738956E+02  0.11230905292E+02  0.17682439005E+03  0.17120000000E+03 0.  0.
        998    1    1    2    0    0  0.59585774546E+01  0.51262582970E+01  0.13132570184E+04  0.13133186132E+04  0.10000000000E+02 0.  1.
</event>
<event>
 5    1  0.1072898E-008  0.3771592E+03  0.7957747E-01  0.3463622E+00
         13   -1    0    0    0    0  0.00000000000E+00  0.00000000000E+00  0.14999999963E+04  0.15000000000E+04  0.10566000000E+00 0.  1.
        994   -1    0    0    0    0 -0.00000000000E+00 -0.00000000000E+00  0.11368683772E-12  0.17120000000E+03  0.17120000000E+03 0.  0.
         13    1    1    2    0    0  0.32037478522E+02 -0.23990247218E+02  0.15565493505E+03  0.16071839335E+03  0.10566000000E+00 0.  1.
        994    1    1    2    0    0 -0.10777630973E+02 -0.21660418590E+01  0.59820314632E+01  0.17165684888E+03  0.17120000000E+03 0.  0.
        998    1    1    2    0    0 -0.21259847549E+02  0.26156289077E+02  0.13383630298E+04  0.13388247578E+04  0.10000000000E+02 0.  1.
</event>
<event>
 5    1  0.1072898E-008  0.3848032E+03  0.7957747E-01  0.3430507E+00
         13   -1    0    0    0    0  0.00000000000E+00  0.00000000000E+00  0.14999999963E+04  0.15000000000E+04  0.10566000000E+00 0.  1.
        994   -1    0    0    0    0 -0.00000000000E+00 -0.00000000000E+00  0.11368683772E-12  0.17120000000E+03  0.17120000000E+03 0.  0.
         13    1    1    2    0    0  0.93121304129E+01 -0.20128619187E+02  0.13038060807E+03  0.13225351114E+03  0.10566000000E+00 0.  1.
        994    1    1    2    0    0 -0.11159584843E+02  0.21073862003E+02  0.36013722084E+01  0.17289029434E+03  0.17120000000E+03 0.  0.
        998    1    1    2    0    0  0.18474544302E+01 -0.94524281614E+00  0.13660180160E+04  0.13660561945E+04  0.10000000000E+02 0.  1.
</event>
<event>
 5    1  0.1072898E-008  0.3838557E+03  0.7957747E-01  0.3434540E+00
         13   -1    0    0    0    0  0.00000000000E+00  0.00000000000E+00  0.14999999963E+04  0.15000000000E+04  0.10566000000E+00 0.  1.
        994   -1    0    0    0    0 -0.00000000000E+00 -0.00000000000E+00  0.11368683772E-12  0.17120000000E+03  0.17120000000E+03 0.  0.
         13    1    1    2    0    0  0.20106661819E+01 -0.13326721133E+02  0.40972893590E+02  0.43132742179E+02  0.10566000000E+00 0.  1.
        994    1    1    2    0    0 -0.75210949361E+01  0.67147005000E+01  0.25349690634E+01  0.17151536415E+03  0.17120000000E+03 0.  0.
        998    1    1    2    0    0  0.55104287542E+01  0.66120206334E+01  0.14564921336E+04  0.14565518937E+04  0.10000000000E+02 0.  1.
</event>
<event>
 5    1  0.1072898E-008  0.3737977E+03  0.7957747E-01  0.3478617E+00
         13   -1    0    0    0    0  0.00000000000E+00  0.00000000000E+00  0.14999999963E+04  0.15000000000E+04  0.10566000000E+00 0. -1.
        994   -1    0    0    0    0 -0.00000000000E+00 -0.00000000000E+00  0.11368683772E-12  0.17120000000E+03  0.17120000000E+03 0.  0.
         13    1    1    2    0    0 -0.32515143944E+02  0.25983987258E+02  0.11056695332E+03  0.11814171368E+03  0.10566000000E+00 0. -1.
        994    1    1    2    0    0  0.25212677247E+02 -0.27558973165E+02  0.12074137292E+02  0.17564282191E+03  0.17120000000E+03 0.  0.
        998    1    1    2    0    0  0.73024666966E+01  0.15749859076E+01  0.13773589057E+04  0.13774154644E+04  0.10000000000E+02 0. -1.
</event>
<event>
 5    1  0.1072898E-008  0.3814556E+03  0.7957747E-01  0.3444845E+00
         13   -1    0    0    0    0  0.00000000000E+00  0.00000000000E+00  0.14999999963E+04  0.15000000000E+04  0.10566000000E+00 0. -1.
        994   -1    0    0    0    0 -0.00000000000E+00 -0.00000000000E+00  0.11368683772E-12  0.17120000000E+03  0.17120000000E+03 0.  0.
         13    1    1    2    0    0  0.31612615520E+01  0.27333790012E+02  0.10579855091E+03  0.10931822442E+03  0.10566000000E+00 0. -1.
        994    1    1    2    0    0 -0.16677575899E+02 -0.22273617366E+02  0.59802932717E+01  0.17354958795E+03  0.17120000000E+03 0.  0.
        998    1    1    2    0    0  0.13516314347E+02 -0.50601726462E+01  0.13882211521E+04  0.13883321876E+04  0.10000000000E+02 0. -1.
</event>
<event>
 5    1  0.1072898E-008  0.3821813E+03  0.7957747E-01  0.3441715E+00
         13   -1    0    0    0    0  0.00000000000E+00  0.00000000000E+00  0.14999999963E+04  0.15000000000E+04  0.10566000000E+00 0. -1.
        994   -1    0    0    0    0 -0.00000000000E+00 -0.00000000000E+00  0.11368683772E-12  0.17120000000E+03  0.17120000000E+03 0.  0.
         13    1    1    2    0    0 -0.15432279388E+00 -0.10302068421E+02  0.16162885067E+02  0.19167849306E+02  0.10566000000E+00 0. -1.
        994    1    1    2    0    0  0.83338754719E+01  0.92276572270E+01  0.35493515601E+01  0.17168762633E+03  0.17120000000E+03 0.  0.
        998    1    1    2    0    0 -0.81795526780E+01  0.10744111944E+01  0.14802877597E+04  0.14803445244E+04  0.10000000000E+02 0. -1.
</event>
<event>
 5    1  0.1072898E-008  0.3782440E+03  0.7957747E-01  0.3458840E+00
         13   -1    0    0    0    0  0.00000000000E+00  0.00000000000E+00  0.14999999963E+04  0.15000000000E+04  0.10566000000E+00 0. -1.
        994   -1    0    0    0    0 -0.00000000000E+00 -0.00000000000E+00  0.11368683772E-12  0.17120000000E+03  0.17120000000E+03 0.  0.
         13    1    1    2    0    0  0.10724692586E+02 -0.18415616273E+02  0.43550841539E+02  0.48485471191E+02  0.10566000000E+00 0. -1.
        994    1    1    2    0    0 -0.11588327172E+02  0.72010635457E+01  0.56483315753E+01  0.17183564325E+03  0.17120000000E+03 0.  0.
        998    1    1    2    0    0  0.86363458656E+00  0.11214552727E+02  0.14508008232E+04  0.14508788856E+04  0.10000000000E+02 0. -1.
</event>
<event>
 5    1  0.1072898E-008  0.3897218E+03  0.7957747E-01  0.3409890E+00
         13   -1    0    0    0    0  0.00000000000E+00  0.00000000000E+00  0.14999999963E+04  0.15000000000E+04  0.10566000000E+00 0.  1.
        994   -1    0    0    0    0 -0.00000000000E+00 -0.00000000000E+00  0.11368683772E-12  0.17120000000E+03  0.17120000000E+03 0.  0.
         13    1    1    2    0    0 -0.54813273618E+02  0.35625073397E+02  0.85972416172E+02  0.10800420513E+03  0.10566000000E+00 0.  1.
        994    1    1    2    0    0  0.81553551973E+02  0.80790365059E+01  0.47481793700E+02  0.19565329898E+03  0.17120000000E+03 0.  0.
        998    1    1    2    0    0 -0.26740278356E+02 -0.43704109903E+02  0.13665457864E+04  0.13675424959E+04  0.10000000000E+02 0.  1.
</event>
<event>
 5    1  0.1072898E-008  0.3789664E+03  0.7957747E-01  0.3455671E+00
         13   -1    0    0    0    0  0.00000000000E+00  0.00000000000E+00  0.14999999963E+04  0.15000000000E+04  0.10566000000E+00 0.  1.
        994   -1    0    0    0    0 -0.00000000000E+00 -0.00000000000E+00  0.11368683772E-12  0.17120000000E+03  0.17120000000E+03 0.  0.
         13    1    1    2    0    0 -0.93444052175E+01  0.14370587743E+03  0.67548923761E+03  0.69066954357E+03  0.10566000000E+00 0.  1.
        994    1    1    2    0    0  0.12210745542E+02 -0.17450435437E+03  0.11527915336E+03  0.27055423708E+03  0.17120000000E+03 0.  0.
        998    1    1    2    0    0 -0.28663403240E+01  0.30798476943E+02  0.70923160530E+03  0.70997621935E+03  0.10000000000E+02 0. -1.
</event>
<event>
 5    1  0.1072898E-008  0.3845311E+03  0.7957747E-01  0.3431663E+00
         13   -1    0    0    0    0  0.00000000000E+00  0.00000000000E+00  0.14999999963E+04  0.15000000000E+04  0.10566000000E+00 0. -1.
        994   -1    0    0    0    0 -0.00000000000E+00 -0.00000000000E+00  0.11368683772E-12  0.17120000000E+03  0.17120000000E+03 0.  0.
         13    1    1    2    0    0 -0.36898343114E+01 -0.14612441105E+02  0.62113271598E+02  0.63915631773E+02  0.10566000000E+00 0. -1.
        994    1    1    2    0    0  0.79818416889E+01  0.42927682744E+01  0.21336786740E+01  0.17145299718E+03  0.17120000000E+03 0.  0.
        998    1    1    2    0    0 -0.42920073776E+01  0.10319672831E+02  0.14357530460E+04  0.14358313711E+04  0.10000000000E+02 0. -1.
</event>
<event>
 5    1  0.1072898E-008  0.3828590E+03  0.7957747E-01  0.3438804E+00
         13   -1    0    0    0    0  0.00000000000E+00  0.00000000000E+00  0.14999999963E+04  0.15000000000E+04  0.10566000000E+00 0.  1.
        994   -1    0    0    0    0 -0.00000000000E+00 -0.00000000000E+00  0.11368683772E-12  0.17120000000E+03  0.17120000000E+03 0.  0.
         13    1    1    2    0    0  0.27658566681E+02 -0.32123542850E+02  0.25423110673E+03  0.25774092634E+03  0.10566000000E+00 0.  1.
        994    1    1    2    0    0 -0.36162098187E+02  0.37015955556E+02  0.11616139598E+02  0.17922682001E+03  0.17120000000E+03 0.  0.
        998    1    1    2    0    0  0.85035315057E+01 -0.48924127060E+01  0.12341527499E+04  0.12342322536E+04  0.10000000000E+02 0.  1.
</event>
<event>
 5    1  0.1072898E-008  0.3816315E+03  0.7957747E-01  0.3444085E+00
         13   -1    0    0    0    0  0.00000000000E+00  0.00000000000E+00  0.14999999963E+04  0.15000000000E+04  0.10566000000E+00 0. -1.
        994   -1    0    0    0    0 -0.00000000000E+00 -0.00000000000E+00  0.11368683772E-12  0.17120000000E+03  0.17120000000E+03 0.  0.
         13    1    1    2    0    0 -0.38298785218E+01  0.20216213775E+02  0.61424195197E+02  0.64778902341E+02  0.10566000000E+00 0. -1.
        994    1    1    2    0    0  0.12056075176E+02 -0.16197755385E+02  0.46686542045E+01  0.17244985521E+03  0.17120000000E+03 0.  0.
        998    1    1    2    0    0 -0.82261966539E+01 -0.40184583900E+01  0.14339071469E+04  0.14339712425E+04  0.10000000000E+02 0. -1.
</event>
<event>
 5    1  0.1072898E-008  0.3846127E+03  0.7957747E-01  0.3431317E+00
         13   -1    0    0    0    0  0.00000000000E+00  0.00000000000E+00  0.14999999963E+04  0.15000000000E+04  0.10566000000E+00 0. -1.
        994   -1    0    0    0    0 -0.00000000000E+00 -0.00000000000E+00  0.11368683772E-12  0.17120000000E+03  0.17120000000E+03 0.  0.
         13    1    1    2    0    0 -0.18592093752E+01 -0.15355440668E+02  0.67613548234E+02  0.69360286089E+02  0.10566000000E+00 0. -1.
        994    1    1    2    0    0 -0.31149117611E+02  0.98869680180E+01  0.53472516778E+01  0.17437331437E+03  0.17120000000E+03 0.  0.
        998    1    1    2    0    0  0.33008326987E+02  0.54684726503E+01  0.14270391964E+04  0.14274663995E+04  0.10000000000E+02 0. -1.
</event>
<event>
 5    1  0.1072898E-008  0.3779176E+03  0.7957747E-01  0.3460276E+00
         13   -1    0    0    0    0  0.00000000000E+00  0.00000000000E+00  0.14999999963E+04  0.15000000000E+04  0.10566000000E+00 0. -1.
        994   -1    0    0    0    0 -0.00000000000E+00 -0.00000000000E+00  0.11368683772E-12  0.17120000000E+03  0.17120000000E+03 0.  0.
         13    1    1    2    0    0  0.13029549976E+02  0.32300060308E+02  0.11376565950E+03  0.11897772696E+03  0.10566000000E+00 0. -1.
        994    1    1    2    0    0 -0.28431642526E+01 -0.23990534011E+02  0.71550820834E+01  0.17304411144E+03  0.17120000000E+03 0.  0.
        998    1    1    2    0    0 -0.10186385723E+02 -0.83095262973E+01  0.13790792547E+04  0.13791781616E+04  0.10000000000E+02 0. -1.
</event>
<event>
 5    1  0.1072898E-008  0.3855589E+03  0.7957747E-01  0.3427305E+00
         13   -1    0    0    0    0  0.00000000000E+00  0.00000000000E+00  0.14999999963E+04  0.15000000000E+04  0.10566000000E+00 0. -1.
        994   -1    0    0    0    0 -0.00000000000E+00 -0.00000000000E+00  0.11368683772E-12  0.17120000000E+03  0.17120000000E+03 0.  0.
         13    1    1    2    0    0 -0.66971693572E+01 -0.11908253721E+02  0.67637230700E+02  0.69003367489E+02  0.10566000000E+00 0. -1.
        994    1    1    2    0    0 -0.45533259486E+01  0.17336356087E+02  0.24082687522E+01  0.17215261188E+03  0.17120000000E+03 0.  0.
        998    1    1    2    0    0  0.11250495306E+02 -0.54281023664E+01  0.14299544968E+04  0.14300440206E+04  0.10000000000E+02 0. -1.
</event>
<event>
 5    1  0.1072898E-008  0.3757430E+03  0.7957747E-01  0.3469906E+00
         13   -1    0    0    0    0  0.00000000000E+00  0.00000000000E+00  0.14999999963E+04  0.15000000000E+04  0.10566000000E+00 0. -1.
        994   -1    0    0    0    0 -0.00000000000E+00 -0.00000000000E+00  0.11368683772E-12  0.17120000000E+03  0.17120000000E+03 0.  0.
         13    1    1    2    0    0  0.56428249999E+02  0.17795932909E+02  0.30700423438E+03  0.31265388805E+03  0.10566000000E+00 0. -1.
        994    1    1    2    0    0 -0.20813126965E+02 -0.18729693140E+01  0.77797575372E+01  0.17264605091E+03  0.17120000000E+03 0.  0.
        998    1    1    2    0    0 -0.35615123034E+02 -0.15922963595E+02  0.11852160044E+04  0.11859000610E+04  0.10000000000E+02 0. -1.
</event>
<event>
 5    1  0.1072898E-008  0.3856120E+03  0.7957747E-01  0.3427081E+00
         13   -1    0    0    0    0  0.00000000000E+00  0.00000000000E+00  0.14999999963E+04  0.15000000000E+04  0.10566000000E+00 0.  1.
        994   -1    0    0    0    0 -0.00000000000E+00 -0.00000000000E+00  0.11368683772E-12  0.17120000000E+03  0.17120000000E+03 0.  0.
         13    1    1    2    0    0 -0.10564798623E+02  0.80360522561E+01  0.63775698391E+02  0.65142489783E+02  0.10566000000E+00 0.  1.
        994    1    1    2    0    0  0.11449832010E+02 -0.10760418442E+02  0.21373300676E+01  0.17193281664E+03  0.17120000000E+03 0.  0.
        998    1    1    2    0    0 -0.88503338676E+00  0.27243661855E+01  0.14340869678E+04  0.14341246936E+04  0.10000000000E+02 0.  1.
</event>
<event>
 5    1  0.1072898E-008  0.3700057E+03  0.7957747E-01  0.3495865E+00
         13   -1    0    0    0    0  0.00000000000E+00  0.00000000000E+00  0.14999999963E+04  0.15000000000E+04  0.10566000000E+00 0.  1.
        994   -1    0    0    0    0 -0.00000000000E+00 -0.00000000000E+00  0.11368683772E-12  0.17120000000E+03  0.17120000000E+03 0.  0.
         13    1    1    2    0    0 -0.61830816466E+02 -0.91878077850E+01  0.14141978503E+03  0.15461899120E+03  0.10566000000E+00 0.  1.
        994    1    1    2    0    0  0.82448484415E+02  0.55351873466E+02  0.46262516016E+02  0.20325167371E+03  0.17120000000E+03 0.  0.
        998    1    1    2    0    0 -0.20617667949E+02 -0.46164065681E+02  0.13123176952E+04  0.13133293351E+04  0.10000000000E+02 0.  1.
</event>
<event>
 5    1  0.1072898E-008  0.3835006E+03  0.7957747E-01  0.3436056E+00
         13   -1    0    0    0    0  0.00000000000E+00  0.00000000000E+00  0.14999999963E+04  0.15000000000E+04  0.10566000000E+00 0. -1.
        994   -1    0    0    0    0 -0.00000000000E+00 -0.00000000000E+00  0.11368683772E-12  0.17120000000E+03  0.17120000000E+03 0.  0.
         13    1    1    2    0    0  0.10066977158E+02 -0.26135702414E+01  0.21047343135E+02  0.23477150500E+02  0.10566000000E+00 0. -1.
        994    1    1    2    0    0 -0.17516807900E+02  0.11823442872E+02  0.38537891679E+01  0.17254252824E+03  0.17120000000E+03 0.  0.
        998    1    1    2    0    0  0.74498307416E+01 -0.92098726311E+01  0.14750988640E+04  0.14751803213E+04  0.10000000000E+02 0. -1.
</event>
<event>
 5    1  0.1072898E-008  0.3745587E+03  0.7957747E-01  0.3475199E+00
         13   -1    0    0    0    0  0.00000000000E+00  0.00000000000E+00  0.14999999963E+04  0.15000000000E+04  0.10566000000E+00 0.  1.
        994   -1    0    0    0    0 -0.00000000000E+00 -0.00000000000E+00  0.11368683772E-12  0.17120000000E+03  0.17120000000E+03 0.  0.
         13    1    1    2    0    0 -0.21863133490E+02 -0.78783505633E+02  0.21523821020E+03  0.23024407845E+03  0.10566000000E+00 0.  1.
        994    1    1    2    0    0  0.22521304604E+02  0.73939167890E+02  0.34911629953E+02  0.19105620015E+03  0.17120000000E+03 0.  0.
        998    1    1    2    0    0 -0.65817111451E+00  0.48443377424E+01  0.12498501561E+04  0.12498997214E+04  0.10000000000E+02 0.  1.
</event>
<event>
 5    1  0.1072898E-008  0.3826183E+03  0.7957747E-01  0.3439837E+00
         13   -1    0    0    0    0  0.00000000000E+00  0.00000000000E+00  0.14999999963E+04  0.15000000000E+04  0.10566000000E+00 0. -1.
        994   -1    0    0    0    0 -0.00000000000E+00 -0.00000000000E+00  0.11368683772E-12  0.17120000000E+03  0.17120000000E+03 0.  0.
         13    1    1    2    0    0 -0.23862515803E+02 -0.27298033007E+02  0.14422819021E+03  0.14871578356E+03  0.10566000000E+00 0. -1.
        994    1    1    2    0    0  0.56027962280E+02  0.71844556524E+02  0.30833436129E+02  0.19636932969E+03  0.17120000000E+03 0.  0.
        998    1    1    2    0    0 -0.32165446477E+02 -0.44546523517E+02  0.13249383699E+04  0.13261148867E+04  0.10000000000E+02 0. -1.
</event>
<event>
 5    1  0.1072898E-008  0.3856677E+03  0.7957747E-01  0.3426845E+00
         13   -1    0    0    0    0  0.00000000000E+00  0.00000000000E+00  0.14999999963E+04  0.15000000000E+04  0.10566000000E+00 0. -1.
        994   -1    0    0    0    0 -0.00000000000E+00 -0.00000000000E+00  0.11368683772E-12  0.17120000000E+03  0.17120000000E+03 0.  0.
         13    1    1    2    0    0 -0.10151977937E+01 -0.11769964921E+02  0.54186724198E+02  0.55459669528E+02  0.10566000000E+00 0. -1.
        994    1    1    2    0    0 -0.16020259293E+01  0.77982405658E+01  0.15070199835E+01  0.17139162801E+03  0.17120000000E+03 0.  0.
        998    1    1    2    0    0  0.26172237230E+01  0.39717243553E+01  0.14443062521E+04  0.14443487025E+04  0.10000000000E+02 0. -1.
</event>
<event>
 5    1  0.1072898E-008  0.3772912E+03  0.7957747E-01  0.3463038E+00
         13   -1    0    0    0    0  0.00000000000E+00  0.00000000000E+00  0.14999999963E+04  0.15000000000E+04  0.10566000000E+00 0. -1.
        994   -1    0    0    0    0 -0.00000000000E+00 -0.00000000000E+00  0.11368683772E-12  0.17120000000E+03  0.17120000000E+03 0.  0.
         13    1    1    2    0    0 -0.67338003209E+02 -0.56328854540E+02  0.48757699594E+03  0.49541768707E+03  0.10566000000E+00 0. -1.
        994    1    1    2    0    0  0.81141897590E+02  0.36204224204E+02  0.32617970448E+02  0.19562240514E+03  0.17120000000E+03 0.  0.
        998    1    1    2    0    0 -0.13803894381E+02  0.20124630336E+02  0.97980502989E+03  0.98015990779E+03  0.10000000000E+02 0. -1.
</event>
<event>
 5    1  0.1072898E-008  0.3743310E+03  0.7957747E-01  0.3476220E+00
         13   -1    0    0    0    0  0.00000000000E+00  0.00000000000E+00  0.14999999963E+04  0.15000000000E+04  0.10566000000E+00 0.  1.
        994   -1    0    0    0    0 -0.00000000000E+00 -0.00000000000E+00  0.11368683772E-12  0.17120000000E+03  0.17120000000E+03 0.  0.
         13    1    1    2    0    0  0.12087125919E+03  0.78918858158E+02  0.67301497035E+03  0.68832202417E+03  0.10566000000E+00 0.  1.
        994    1    1    2    0    0 -0.12229369720E+03 -0.91197700985E+02  0.90973798607E+02  0.24669503658E+03  0.17120000000E+03 0.  0.
        998    1    1    2    0    0  0.14224380117E+01  0.12278842826E+02  0.73601122732E+03  0.73618293926E+03  0.10000000000E+02 0. -1.
</event>
<event>
 5    1  0.1072898E-008  0.3799348E+03  0.7957747E-01  0.3451442E+00
         13   -1    0    0    0    0  0.00000000000E+00  0.00000000000E+00  0.14999999963E+04  0.15000000000E+04  0.10566000000E+00 0.  1.
        994   -1    0    0    0    0 -0.00000000000E+00 -0.00000000000E+00  0.11368683772E-12  0.17120000000E+03  0.17120000000E+03 0.  0.
         13    1    1    2    0    0  0.70191874575E+01 -0.32961724764E+02  0.12270415497E+03  0.12724804558E+03  0.10566000000E+00 0.  1.
        994    1    1    2    0    0 -0.43190149435E+01  0.36864346446E+02  0.87861127688E+01  0.17539746209E+03  0.17120000000E+03 0.  0.
        998    1    1    2    0    0 -0.27001725140E+01 -0.39026216826E+01  0.13685097285E+04  0.13685544923E+04  0.10000000000E+02 0.  1.
</event>
<event>
 5    1  0.1072898E-008  0.3854433E+03  0.7957747E-01  0.3427794E+00
         13   -1    0    0    0    0  0.00000000000E+00  0.00000000000E+00  0.14999999963E+04  0.15000000000E+04  0.10566000000E+00 0. -1.
        994   -1    0    0    0    0 -0.00000000000E+00 -0.00000000000E+00  0.11368683772E-12  0.17120000000E+03  0.17120000000E+03 0.  0.
         13    1    1    2    0    0  0.58531197524E+01 -0.10460114544E+02  0.54348056742E+02  0.55654249099E+02  0.10566000000E+00 0. -1.
        994    1    1    2    0    0  0.83238973615E+01  0.28509760292E+01  0.16644802722E+01  0.17143402762E+03  0.17120000000E+03 0.  0.
        998    1    1    2    0    0 -0.14177017114E+02  0.76091385147E+01  0.14439874593E+04  0.14441117233E+04  0.10000000000E+02 0. -1.
</event>
<event>
 5    1  0.1389212E-008  0.3853709E+03  0.7957747E-01  0.3428101E+00
         13   -1    0    0    0    0  0.00000000000E+00  0.00000000000E+00  0.14999999963E+04  0.15000000000E+04  0.10566000000E+00 0.  1.
        994   -1    0    0    0    0 -0.00000000000E+00 -0.00000000000E+00  0.11368683772E-12  0.17120000000E+03  0.17120000000E+03 0.  0.
         13    1    1    2    0    0  0.97236740081E+01 -0.85749819516E+01  0.55466035810E+02  0.56961148551E+02  0.10566000000E+00 0.  1.
        994    1    1    2    0    0 -0.10844116055E+02  0.13089712778E+02  0.23957452472E+01  0.17205846399E+03  0.17120000000E+03 0.  0.
        998    1    1    2    0    0  0.11204420466E+01 -0.45147308259E+01  0.14421382152E+04  0.14421803875E+04  0.10000000000E+02 0.  1.
</event>
<event>
 5    1  0.1072898E-008  0.3710336E+03  0.7957747E-01  0.3491154E+00
         13   -1    0    0    0    0  0.00000000000E+00  0.00000000000E+00  0.14999999963E+04  0.15000000000E+04  0.10566000000E+00 0. -1.
        994   -1    0    0    0    0 -0.00000000000E+00 -0.00000000000E+00  0.11368683772E-12  0.17120000000E+03  0.17120000000E+03 0.  0.
         13    1    1    2    0    0  0.32362292961E+01 -0.23572701144E+02  0.30247847161E+02  0.38484917061E+02  0.10566000000E+00 0. -1.
        994    1    1    2    0    0  0.33934322343E+02  0.13051393495E+01  0.12713554693E+02  0.17499804597E+03  0.17120000000E+03 0.  0.
        998    1    1    2    0    0 -0.37170551639E+02  0.22267561795E+02  0.14570385944E+04  0.14577170370E+04  0.10000000000E+02 0. -1.
</event>
<event>
 5    1  0.1072898E-008  0.3733077E+03  0.7957747E-01  0.3480826E+00
         13   -1    0    0    0    0  0.00000000000E+00  0.00000000000E+00  0.14999999963E+04  0.15000000000E+04  0.10566000000E+00 0. -1.
        994   -1    0    0    0    0 -0.00000000000E+00 -0.00000000000E+00  0.11368683772E-12  0.17120000000E+03  0.17120000000E+03 0.  0.
         13    1    1    2    0    0 -0.44049243297E+02 -0.59668688663E+01  0.12017020125E+03  0.12812816939E+03  0.10566000000E+00 0. -1.
        994    1    1    2    0    0  0.40952341306E+02  0.88385355534E+01  0.13574750623E+02  0.17677366270E+03  0.17120000000E+03 0.  0.
        998    1    1    2    0    0  0.30969019903E+01 -0.28716666871E+01  0.13662550444E+04  0.13662981679E+04  0.10000000000E+02 0. -1.
</event>
<event>
 5    1  0.1072898E-008  0.3839073E+03  0.7957747E-01  0.3434320E+00
         13   -1    0    0    0    0  0.00000000000E+00  0.00000000000E+00  0.14999999963E+04  0.15000000000E+04  0.10566000000E+00 0.  1.
        994   -1    0    0    0    0 -0.00000000000E+00 -0.00000000000E+00  0.11368683772E-12  0.17120000000E+03  0.17120000000E+03 0.  0.
         13    1    1    2    0    0  0.17375053009E+02 -0.39941617026E+01  0.79402887066E+02  0.81379822028E+02  0.10566000000E+00 0.  1.
        994    1    1    2    0    0  0.35281785000E+01  0.28104613406E+01  0.22407688713E+01  0.17127407212E+03  0.17120000000E+03 0.  0.
        998    1    1    2    0    0 -0.20903231509E+02  0.11837003619E+01  0.14183563403E+04  0.14185461058E+04  0.10000000000E+02 0.  1.
</event>
<event>
 5    1  0.1072898E-008  0.3829420E+03  0.7957747E-01  0.3438448E+00
         13   -1    0    0    0    0  0.00000000000E+00  0.00000000000E+00  0.14999999963E+04  0.15000000000E+04  0.10566000000E+00 0.  1.
        994   -1    0    0    0    0 -0.00000000000E+00 -0.00000000000E+00  0.11368683772E-12  0.17120000000E+03  0.17120000000E+03 0.  0.
         13    1    1    2    0    0  0.61315468271E+01  0.21029651133E+02  0.11017201053E+03  0.11232864800E+03  0.10566000000E+00 0.  1.
        994    1    1    2    0    0  0.82876806117E+01  0.14912685727E+02  0.36196128707E+01  0.17208606987E+03  0.17120000000E+03 0.  0.
        998    1    1    2    0    0 -0.14419227439E+02 -0.35942336860E+02  0.13862083729E+04  0.13867852821E+04  0.10000000000E+02 0.  1.
</event>
<event>
 5    1  0.1072898E-008  0.3713701E+03  0.7957747E-01  0.3489618E+00
         13   -1    0    0    0    0  0.00000000000E+00  0.00000000000E+00  0.14999999963E+04  0.15000000000E+04  0.10566000000E+00 0.  1.
        994   -1    0    0    0    0 -0.00000000000E+00 -0.00000000000E+00  0.11368683772E-12  0.17120000000E+03  0.17120000000E+03 0.  0.
         13    1    1    2    0    0 -0.12824911435E+02 -0.87767048959E+02  0.32260697527E+03  0.33457854816E+03  0.10566000000E+00 0.  1.
        994    1    1    2    0    0  0.18056900164E+02  0.10034416723E+03  0.45225275512E+02  0.20432760236E+03  0.17120000000E+03 0.  0.
        998    1    1    2    0    0 -0.52319887288E+01 -0.12577118274E+02  0.11321677455E+04  0.11322938495E+04  0.10000000000E+02 0.  1.
</event>
<event>
 5    1  0.1072898E-008  0.3821147E+03  0.7957747E-01  0.3442002E+00
         13   -1    0    0    0    0  0.00000000000E+00  0.00000000000E+00  0.14999999963E+04  0.15000000000E+04  0.10566000000E+00 0. -1.
        994   -1    0    0    0    0 -0.00000000000E+00 -0.00000000000E+00  0.11368683772E-12  0.17120000000E+03  0.17120000000E+03 0.  0.
         13    1    1    2    0    0  0.15490206055E+02  0.19243464128E-02  0.36538186093E+02  0.39686228019E+02  0.10566000000E+00 0. -1.
        994    1    1    2    0    0 -0.21063632753E+02 -0.26979239603E+01  0.45679287114E+01  0.17257248156E+03  0.17120000000E+03 0.  0.
        998    1    1    2    0    0  0.55734266976E+01  0.26959996138E+01  0.14588938815E+04  0.14589412904E+04  0.10000000000E+02 0. -1.
</event>
<event>
 5    1  0.1072898E-008  0.3764838E+03  0.7957747E-01  0.3466613E+00
         13   -1    0    0    0    0  0.00000000000E+00  0.00000000000E+00  0.14999999963E+04  0.15000000000E+04  0.10566000000E+00 0. -1.
        994   -1    0    0    0    0 -0.00000000000E+00 -0.00000000000E+00  0.11368683772E-12  0.17120000000E+03  0.17120000000E+03 0.  0.
         13    1    1    2    0    0 -0.90995347169E+02  0.37741983193E+02  0.50998796338E+03  0.51941538720E+03  0.10566000000E+00 0. -1.
        994    1    1    2    0    0  0.94223222124E+02 -0.38250669351E+02  0.41737450948E+02  0.20345167511E+03  0.17120000000E+03 0.  0.
        998    1    1    2    0    0 -0.32278749551E+01  0.50868615752E+00  0.94827458195E+03  0.94833293769E+03  0.10000000000E+02 0. -1.
</event>
<event>
 5    1  0.1072898E-008  0.3835325E+03  0.7957747E-01  0.3435920E+00
         13   -1    0    0    0    0  0.00000000000E+00  0.00000000000E+00  0.14999999963E+04  0.15000000000E+04  0.10566000000E+00 0.  1.
        994   -1    0    0    0    0 -0.00000000000E+00 -0.00000000000E+00  0.11368683772E-12  0.17120000000E+03  0.17120000000E+03 0.  0.
         13    1    1    2    0    0  0.12207079445E+02 -0.10108721959E+02  0.51239009496E+02  0.53634376163E+02  0.10566000000E+00 0.  1.
        994    1    1    2    0    0 -0.21173455866E+02 -0.42426504461E+00  0.38438802351E+01  0.17254770543E+03  0.17120000000E+03 0.  0.
        998    1    1    2    0    0  0.89663764212E+01  0.10532987004E+02  0.14449171065E+04  0.14450179184E+04  0.10000000000E+02 0.  1.
</event>
<event>
 5    1  0.1072898E-008  0.3996751E+03  0.7957747E-01  0.3369722E+00
         13   -1    0    0    0    0  0.00000000000E+00  0.00000000000E+00  0.14999999963E+04  0.15000000000E+04  0.10566000000E+00 0. -1.
        994   -1    0    0    0    0 -0.00000000000E+00 -0.00000000000E+00  0.11368683772E-12  0.17120000000E+03  0.17120000000E+03 0.  0.
         13    1    1    2    0    0  0.15578910380E+03 -0.16085847169E+02  0.35809587661E+03  0.39084737092E+03  0.10566000000E+00 0. -1.
        994    1    1    2    0    0 -0.14406197804E+03 -0.70887013851E+02  0.13739228579E+03  0.27196489193E+03  0.17120000000E+03 0.  0.
        998    1    1    2    0    0 -0.11727125753E+02  0.86972861020E+02  0.10045118339E+04  0.10083877371E+04  0.10000000000E+02 0. -1.
</event>
<event>
 5    1  0.1072898E-008  0.3808082E+03  0.7957747E-01  0.3447647E+00
         13   -1    0    0    0    0  0.00000000000E+00  0.00000000000E+00  0.14999999963E+04  0.15000000000E+04  0.10566000000E+00 0.  1.
        994   -1    0    0    0    0 -0.00000000000E+00 -0.00000000000E+00  0.11368683772E-12  0.17120000000E+03  0.17120000000E+03 0.  0.
         13    1    1    2    0    0 -0.30069547123E+02  0.32896562141E+02  0.25206089043E+03  0.25597082864E+03  0.10566000000E+00 0.  1.
        994    1    1    2    0    0  0.13153014341E+01 -0.43260635100E+02  0.99964048954E+01  0.17686882336E+03  0.17120000000E+03 0.  0.
        998    1    1    2    0    0  0.28754245689E+02  0.10364072959E+02  0.12379427010E+04  0.12383603480E+04  0.10000000000E+02 0.  1.
</event>
<event>
 5    1  0.1072898E-008  0.3758990E+03  0.7957747E-01  0.3469212E+00
         13   -1    0    0    0    0  0.00000000000E+00  0.00000000000E+00  0.14999999963E+04  0.15000000000E+04  0.10566000000E+00 0.  1.
        994   -1    0    0    0    0 -0.00000000000E+00 -0.00000000000E+00  0.11368683772E-12  0.17120000000E+03  0.17120000000E+03 0.  0.
         13    1    1    2    0    0  0.27404788067E+02 -0.34280258577E+02  0.16119201185E+03  0.16705997242E+03  0.10566000000E+00 0.  1.
        994    1    1    2    0    0 -0.17277180886E+02  0.69127959342E+01  0.73922237695E+01  0.17236697102E+03  0.17120000000E+03 0.  0.
        998    1    1    2    0    0 -0.10127607181E+02  0.27367462643E+02  0.13314157607E+04  0.13317730566E+04  0.10000000000E+02 0.  1.
</event>
<event>
 5    1  0.1072898E-008  0.3816653E+03  0.7957747E-01  0.3443939E+00
         13   -1    0    0    0    0  0.00000000000E+00  0.00000000000E+00  0.14999999963E+04  0.15000000000E+04  0.10566000000E+00 0. -1.
        994   -1    0    0    0    0 -0.00000000000E+00 -0.00000000000E+00  0.11368683772E-12  0.17120000000E+03  0.17120000000E+03 0.  0.
         13    1    1    2    0    0 -0.16321993380E+02  0.12412238501E+02  0.60669602526E+02  0.64041259881E+02  0.10566000000E+00 0. -1.
        994    1    1    2    0    0  0.14377445734E+02 -0.14981338810E+02  0.47295734024E+01  0.17251944912E+03  0.17120000000E+03 0.  0.
        998    1    1    2    0    0  0.19445476456E+01  0.25691003092E+01  0.14346008204E+04  0.14346392910E+04  0.10000000000E+02 0. -1.
</event>
<event>
 5    1  0.1072898E-008  0.3821834E+03  0.7957747E-01  0.3441706E+00
         13   -1    0    0    0    0  0.00000000000E+00  0.00000000000E+00  0.14999999963E+04  0.15000000000E+04  0.10566000000E+00 0.  1.
        994   -1    0    0    0    0 -0.00000000000E+00 -0.00000000000E+00  0.11368683772E-12  0.17120000000E+03  0.17120000000E+03 0.  0.
         13    1    1    2    0    0  0.21340359703E+02 -0.50072986623E+01  0.84059202048E+02  0.86870274577E+02  0.10566000000E+00 0.  1.
        994    1    1    2    0    0 -0.33525243769E+01 -0.11368909706E+02  0.35014637660E+01  0.17164554109E+03  0.17120000000E+03 0.  0.
        998    1    1    2    0    0 -0.17987835326E+02  0.16376208368E+02  0.14124393305E+04  0.14126841843E+04  0.10000000000E+02 0.  1.
</event>
<event>
 5    1  0.1072898E-008  0.3826781E+03  0.7957747E-01  0.3439580E+00
         13   -1    0    0    0    0  0.00000000000E+00  0.00000000000E+00  0.14999999963E+04  0.15000000000E+04  0.10566000000E+00 0. -1.
        994   -1    0    0    0    0 -0.00000000000E+00 -0.00000000000E+00  0.11368683772E-12  0.17120000000E+03  0.17120000000E+03 0.  0.
         13    1    1    2    0    0 -0.17853143454E+02  0.87738178557E+01  0.80970619771E+02  0.83378456696E+02  0.10566000000E+00 0. -1.
        994    1    1    2    0    0 -0.11554357096E+02  0.54637512979E+01  0.33288138919E+01  0.17170869736E+03  0.17120000000E+03 0.  0.
        998    1    1    2    0    0  0.29407500550E+02 -0.14237569154E+02  0.14157005626E+04  0.14161128459E+04  0.10000000000E+02 0. -1.
</event>
<event>
 5    1  0.1072898E-008  0.3799396E+03  0.7957747E-01  0.3451422E+00
         13   -1    0    0    0    0  0.00000000000E+00  0.00000000000E+00  0.14999999963E+04  0.15000000000E+04  0.10566000000E+00 0.  1.
        994   -1    0    0    0    0 -0.00000000000E+00 -0.00000000000E+00  0.11368683772E-12  0.17120000000E+03  0.17120000000E+03 0.  0.
         13    1    1    2    0    0 -0.39314623067E+02  0.24149925002E+02  0.20604315378E+03  0.21114604152E+03  0.10566000000E+00 0.  1.
        994    1    1    2    0    0  0.50015203300E+02 -0.24743933011E+02  0.14646003541E+02  0.18065914923E+03  0.17120000000E+03 0.  0.
        998    1    1    2    0    0 -0.10700580232E+02  0.59400800954E+00  0.12793108390E+04  0.12793948092E+04  0.10000000000E+02 0.  1.
</event>
<event>
 5    1  0.1072898E-008  0.3854120E+03  0.7957747E-01  0.3427927E+00
         13   -1    0    0    0    0  0.00000000000E+00  0.00000000000E+00  0.14999999963E+04  0.15000000000E+04  0.10566000000E+00 0. -1.
        994   -1    0    0    0    0 -0.00000000000E+00 -0.00000000000E+00  0.11368683772E-12  0.17120000000E+03  0.17120000000E+03 0.  0.
         13    1    1    2    0    0 -0.76237003430E+01  0.10009386893E+02  0.55195968607E+02  0.56611966468E+02  0.10566000000E+00 0. -1.
        994    1    1    2    0    0  0.44830721364E+01 -0.90905152690E+01  0.17631989121E+01  0.17150884605E+03  0.17120000000E+03 0.  0.
        998    1    1    2    0    0  0.31406282067E+01 -0.91887162420E+00  0.14430408288E+04  0.14430791875E+04  0.10000000000E+02 0. -1.
</event>
<event>
 5    1  0.1072898E-008  0.3796635E+03  0.7957747E-01  0.3452625E+00
         13   -1    0    0    0    0  0.00000000000E+00  0.00000000000E+00  0.14999999963E+04  0.15000000000E+04  0.10566000000E+00 0.  1.
        994   -1    0    0    0    0 -0.00000000000E+00 -0.00000000000E+00  0.11368683772E-12  0.17120000000E+03  0.17120000000E+03 0.  0.
         13    1    1    2    0    0 -0.18237180017E+02  0.12457896325E+01  0.36975272205E+02  0.41247165302E+02  0.10566000000E+00 0.  1.
        994    1    1    2    0    0  0.13222322737E+02 -0.74085229933E+01  0.50722531627E+01  0.17194442062E+03  0.17120000000E+03 0.  0.
        998    1    1    2    0    0  0.50148572797E+01  0.61627333608E+01  0.14579524709E+04  0.14580084141E+04  0.10000000000E+02 0.  1.
</event>
<event>
 5    1  0.1072898E-008  0.3834303E+03  0.7957747E-01  0.3436357E+00
         13   -1    0    0    0    0  0.00000000000E+00  0.00000000000E+00  0.14999999963E+04  0.15000000000E+04  0.10566000000E+00 0.  1.
        994   -1    0    0    0    0 -0.00000000000E+00 -0.00000000000E+00  0.11368683772E-12  0.17120000000E+03  0.17120000000E+03 0.  0.
         13    1    1    2    0    0  0.21587977055E+02 -0.17735302343E+02  0.13617458162E+03  0.13901118497E+03  0.10566000000E+00 0.  1.
        994    1    1    2    0    0 -0.18567021623E+02  0.40371394985E+02  0.89659527826E+01  0.17710000603E+03  0.17120000000E+03 0.  0.
        998    1    1    2    0    0 -0.30209554329E+01 -0.22636092642E+02  0.13548594619E+04  0.13550888090E+04  0.10000000000E+02 0.  1.
</event>
<event>
 5    1  0.1072898E-008  0.3843090E+03  0.7957747E-01  0.3432608E+00
         13   -1    0    0    0    0  0.00000000000E+00  0.00000000000E+00  0.14999999963E+04  0.15000000000E+04  0.10566000000E+00 0.  1.
        994   -1    0    0    0    0 -0.00000000000E+00 -0.00000000000E+00  0.11368683772E-12  0.17120000000E+03  0.17120000000E+03 0.  0.
         13    1    1    2    0    0  0.27622057818E+02  0.14603306325E+01  0.13027162311E+02  0.30574969593E+02  0.10566000000E+00 0.  1.
        994    1    1    2    0    0 -0.28895156623E+01 -0.38654200365E+02  0.24266502653E+02  0.17720270782E+03  0.17120000000E+03 0.  0.
        998    1    1    2    0    0 -0.24732542156E+02  0.37193869733E+02  0.14627063313E+04  0.14634223226E+04  0.10000000000E+02 0.  1.
</event>
<event>
 5    1  0.1072898E-008  0.3829215E+03  0.7957747E-01  0.3438535E+00
         13   -1    0    0    0    0  0.00000000000E+00  0.00000000000E+00  0.14999999963E+04  0.15000000000E+04  0.10566000000E+00 0. -1.
        994   -1    0    0    0    0 -0.00000000000E+00 -0.00000000000E+00  0.11368683772E-12  0.17120000000E+03  0.17120000000E+03 0.  0.
         13    1    1    2    0    0 -0.50374200699E+00 -0.10895037047E+02  0.22866667434E+02  0.25334783043E+02  0.10566000000E+00 0. -1.
        994    1    1    2    0    0  0.44529569098E+02 -0.15842806501E+02  0.10097346008E+02  0.17789118426E+03  0.17120000000E+03 0.  0.
        998    1    1    2    0    0 -0.44025827091E+02  0.26737843548E+02  0.14670359828E+04  0.14679740327E+04  0.10000000000E+02 0. -1.
</event>
<event>
 5    1  0.1072898E-008  0.3802069E+03  0.7957747E-01  0.3450258E+00
         13   -1    0    0    0    0  0.00000000000E+00  0.00000000000E+00  0.14999999963E+04  0.15000000000E+04  0.10566000000E+00 0.  1.
        994   -1    0    0    0    0 -0.00000000000E+00 -0.00000000000E+00  0.11368683772E-12  0.17120000000E+03  0.17120000000E+03 0.  0.
         13    1    1    2    0    0 -0.56550992654E+02  0.26267425526E+02  0.37129071138E+03  0.37649010071E+03  0.10566000000E+00 0.  1.
        994    1    1    2    0    0  0.48514686895E+02 -0.40786104130E+02  0.17567399536E+02  0.18339911303E+03  0.17120000000E+03 0.  0.
        998    1    1    2    0    0  0.80363057586E+01  0.14518678604E+02  0.11111418854E+04  0.11113107863E+04  0.10000000000E+02 0.  1.
</event>
<event>
 5    1  0.1072898E-008  0.3855877E+03  0.7957747E-01  0.3427184E+00
         13   -1    0    0    0    0  0.00000000000E+00  0.00000000000E+00  0.14999999963E+04  0.15000000000E+04  0.10566000000E+00 0.  1.
        994   -1    0    0    0    0 -0.00000000000E+00 -0.00000000000E+00  0.11368683772E-12  0.17120000000E+03  0.17120000000E+03 0.  0.
         13    1    1    2    0    0 -0.82934839578E+01 -0.76988392920E+01  0.45740970700E+02  0.47120076052E+02  0.10566000000E+00 0.  1.
        994    1    1    2    0    0  0.40063336219E+01  0.19711253953E+02  0.26677837085E+01  0.17239820565E+03  0.17120000000E+03 0.  0.
        998    1    1    2    0    0  0.42871503359E+01 -0.12012414661E+02  0.14515912419E+04  0.14516817183E+04  0.10000000000E+02 0.  1.
</event>
<event>
 5    1  0.1544444E-008  0.3864436E+03  0.7957747E-01  0.3423573E+00
         13   -1    0    0    0    0  0.00000000000E+00  0.00000000000E+00  0.14999999963E+04  0.15000000000E+04  0.10566000000E+00 0.  1.
        994   -1    0    0    0    0 -0.00000000000E+00 -0.00000000000E+00  0.11368683772E-12  0.17120000000E+03  0.17120000000E+03 0.  0.
         13    1    1    2    0    0  0.99688814179E+01 -0.52212805725E+01  0.67542706665E+02  0.68473854537E+02  0.10566000000E+00 0.  1.
        994    1    1    2    0    0 -0.10207373933E+02  0.79283879735E+01  0.14620761609E+01  0.17169341130E+03  0.17120000000E+03 0.  0.
        998    1    1    2    0    0  0.23849251483E+00 -0.27071074010E+01  0.14309952135E+04  0.14310327342E+04  0.10000000000E+02 0.  1.
</event>
<event>
 5    1  0.1072898E-008  0.3831727E+03  0.7957747E-01  0.3437459E+00
         13   -1    0    0    0    0  0.00000000000E+00  0.00000000000E+00  0.14999999963E+04  0.15000000000E+04  0.10566000000E+00 0. -1.
        994   -1    0    0    0    0 -0.00000000000E+00 -0.00000000000E+00  0.11368683772E-12  0.17120000000E+03  0.17120000000E+03 0.  0.
         13    1    1    2    0    0  0.27306886196E+02  0.39522640593E+01  0.15333989954E+03  0.15580251083E+03  0.10566000000E+00 0. -1.
        994    1    1    2    0    0 -0.11622916082E+02 -0.11813993344E+02  0.34492776625E+01  0.17203488057E+03  0.17120000000E+03 0.  0.
        998    1    1    2    0    0 -0.15683970114E+02  0.78617292843E+01  0.13432108191E+04  0.13433626086E+04  0.10000000000E+02 0. -1.
</event>
<event>
 5    1  0.1072898E-008  0.3761583E+03  0.7957747E-01  0.3468059E+00
         13   -1    0    0    0    0  0.00000000000E+00  0.00000000000E+00  0.14999999963E+04  0.15000000000E+04  0.10566000000E+00 0. -1.
        994   -1    0    0    0    0 -0.00000000000E+00 -0.00000000000E+00  0.11368683772E-12  0.17120000000E+03  0.17120000000E+03 0.  0.
         13    1    1    2    0    0  0.30330584836E+02 -0.37149642802E+02  0.16584108957E+03  0.17263637650E+03  0.10566000000E+00 0. -1.
        994    1    1    2    0    0 -0.42493184998E+02  0.29525079123E+02  0.15205139428E+02  0.17949383648E+03  0.17120000000E+03 0.  0.
        998    1    1    2    0    0  0.12162600161E+02  0.76245636789E+01  0.13189537673E+04  0.13190697870E+04  0.10000000000E+02 0. -1.
</event>
<event>
 5    1  0.1072898E-008  0.3862116E+03  0.7957747E-01  0.3424550E+00
         13   -1    0    0    0    0  0.00000000000E+00  0.00000000000E+00  0.14999999963E+04  0.15000000000E+04  0.10566000000E+00 0.  1.
        994   -1    0    0    0    0 -0.00000000000E+00 -0.00000000000E+00  0.11368683772E-12  0.17120000000E+03  0.17120000000E+03 0.  0.
         13    1    1    2    0    0  0.99185602490E+01  0.24887828172E+01  0.58491932459E+02  0.59379198413E+02  0.10566000000E+00 0.  1.
        994    1    1    2    0    0  0.76860628616E+01  0.81217902108E+01  0.14395025852E+01  0.17157083437E+03  0.17120000000E+03 0.  0.
        998    1    1    2    0    0 -0.17604623111E+02 -0.10610573028E+02  0.14400685612E+04  0.14402499672E+04  0.10000000000E+02 0.  1.
</event>
<event>
 5    1  0.1072898E-008  0.3824552E+03  0.7957747E-01  0.3440537E+00
         13   -1    0    0    0    0  0.00000000000E+00  0.00000000000E+00  0.14999999963E+04  0.15000000000E+04  0.10566000000E+00 0. -1.
        994   -1    0    0    0    0 -0.00000000000E+00 -0.00000000000E+00  0.11368683772E-12  0.17120000000E+03  0.17120000000E+03 0.  0.
         13    1    1    2    0    0 -0.87620580974E+02 -0.70747157094E+02  0.58421442082E+03  0.59496976991E+03  0.10566000000E+00 0. -1.
        994    1    1    2    0    0 -0.82512361225E-01  0.14340675166E+02  0.18434897976E+02  0.17278584212E+03  0.17120000000E+03 0.  0.
        998    1    1    2    0    0  0.87703093335E+02  0.56406481928E+02  0.89735067748E+03  0.90344438797E+03  0.10000000000E+02 0. -1.
</event>
<event>
 5    1  0.1072898E-008  0.3771107E+03  0.7957747E-01  0.3463837E+00
         13   -1    0    0    0    0  0.00000000000E+00  0.00000000000E+00  0.14999999963E+04  0.15000000000E+04  0.10566000000E+00 0. -1.
        994   -1    0    0    0    0 -0.00000000000E+00 -0.00000000000E+00  0.11368683772E-12  0.17120000000E+03  0.17120000000E+03 0.  0.
         13    1    1    2    0    0 -0.85479942513E+02  0.45759740457E+02  0.51425961606E+03  0.52331991965E+03  0.10566000000E+00 0. -1.
        994    1    1    2    0    0  0.88051537170E+02 -0.49673617786E+02  0.40911936406E+02  0.20298711300E+03  0.17120000000E+03 0.  0.
        998    1    1    2    0    0 -0.25715946577E+01  0.39138773290E+01  0.94482844381E+03  0.94489296736E+03  0.10000000000E+02 0.  1.
</event>
<event>
 5    1  0.1072898E-008  0.3773989E+03  0.7957747E-01  0.3462563E+00
         13   -1    0    0    0    0  0.00000000000E+00  0.00000000000E+00  0.14999999963E+04  0.15000000000E+04  0.10566000000E+00 0.  1.
        994   -1    0    0    0    0 -0.00000000000E+00 -0.00000000000E+00  0.11368683772E-12  0.17120000000E+03  0.17120000000E+03 0.  0.
         13    1    1    2    0    0 -0.21290481481E+02 -0.80364709847E+01  0.43449976191E+02  0.49048762090E+02  0.10566000000E+00 0.  1.
        994    1    1    2    0    0  0.29640262381E+02  0.18823077306E+01  0.84320255097E+01  0.17396156843E+03  0.17120000000E+03 0.  0.
        998    1    1    2    0    0 -0.83497809004E+01  0.61541632541E+01  0.14481179946E+04  0.14481896695E+04  0.10000000000E+02 0.  1.
</event>
<event>
 5    1  0.1072898E-008  0.3856288E+03  0.7957747E-01  0.3427010E+00
         13   -1    0    0    0    0  0.00000000000E+00  0.00000000000E+00  0.14999999963E+04  0.15000000000E+04  0.10566000000E+00 0. -1.
        994   -1    0    0    0    0 -0.00000000000E+00 -0.00000000000E+00  0.11368683772E-12  0.17120000000E+03  0.17120000000E+03 0.  0.
         13    1    1    2    0    0 -0.12470878891E+02  0.32072757860E+01  0.62873834195E+02  0.64178965625E+02  0.10566000000E+00 0. -1.
        994    1    1    2    0    0  0.70179474127E+01 -0.11508325680E+02  0.19148301580E+01  0.17174050111E+03  0.17120000000E+03 0.  0.
        998    1    1    2    0    0  0.54529314782E+01  0.83010498942E+01  0.14352113319E+04  0.14352805333E+04  0.10000000000E+02 0. -1.
</event>
<event>
 5    1  0.1072898E-008  0.3780257E+03  0.7957747E-01  0.3459800E+00
         13   -1    0    0    0    0  0.00000000000E+00  0.00000000000E+00  0.14999999963E+04  0.15000000000E+04  0.10566000000E+00 0.  1.
        994   -1    0    0    0    0 -0.00000000000E+00 -0.00000000000E+00  0.11368683772E-12  0.17120000000E+03  0.17120000000E+03 0.  0.
         13    1    1    2    0    0  0.36093270052E+01  0.49025252922E+02  0.21002321082E+03  0.21569947361E+03  0.10566000000E+00 0.  1.
        994    1    1    2    0    0 -0.11185475168E+02 -0.43359688543E+02  0.11910104697E+02  0.17735971369E+03  0.17120000000E+03 0.  0.
        998    1    1    2    0    0  0.75761481624E+01 -0.56655643790E+01  0.12780666808E+04  0.12781408127E+04  0.10000000000E+02 0.  1.
</event>
<event>
 5    1  0.1072898E-008  0.3812203E+03  0.7957747E-01  0.3445862E+00
         13   -1    0    0    0    0  0.00000000000E+00  0.00000000000E+00  0.14999999963E+04  0.15000000000E+04  0.10566000000E+00 0.  1.
        994   -1    0    0    0    0 -0.00000000000E+00 -0.00000000000E+00  0.11368683772E-12  0.17120000000E+03  0.17120000000E+03 0.  0.
         13    1    1    2    0    0 -0.59865567995E+02 -0.54848613751E+01  0.31458084975E+03  0.32027346460E+03  0.10566000000E+00 0.  1.
        994    1    1    2    0    0  0.84400090453E+02  0.17574293852E+02  0.28672999578E+02  0.19381385910E+03  0.17120000000E+03 0.  0.
        998    1    1    2    0    0 -0.24534522458E+02 -0.12089432477E+02  0.11567461470E+04  0.11571126763E+04  0.10000000000E+02 0.  1.
</event>
<event>
 5    1  0.1072898E-008  0.3812099E+03  0.7957747E-01  0.3445907E+00
         13   -1    0    0    0    0  0.00000000000E+00  0.00000000000E+00  0.14999999963E+04  0.15000000000E+04  0.10566000000E+00 0. -1.
        994   -1    0    0    0    0 -0.00000000000E+00 -0.00000000000E+00  0.11368683772E-12  0.17120000000E+03  0.17120000000E+03 0.  0.
         13    1    1    2    0    0 -0.12608883850E+03  0.34109179873E+02  0.35324869549E+03  0.37662512313E+03  0.10566000000E+00 0. -1.
        994    1    1    2    0    0  0.12984525282E+03 -0.41886502612E+02  0.88317590968E+02  0.23605869112E+03  0.17120000000E+03 0.  0.
        998    1    1    2    0    0 -0.37564143195E+01  0.77773227397E+01  0.10584337098E+04  0.10585161857E+04  0.10000000000E+02 0. -1.
</event>
<event>
 5    1  0.1072898E-008  0.3732940E+03  0.7957747E-01  0.3480888E+00
         13   -1    0    0    0    0  0.00000000000E+00  0.00000000000E+00  0.14999999963E+04  0.15000000000E+04  0.10566000000E+00 0. -1.
        994   -1    0    0    0    0 -0.00000000000E+00 -0.00000000000E+00  0.11368683772E-12  0.17120000000E+03  0.17120000000E+03 0.  0.
         13    1    1    2    0    0 -0.19271281556E+03 -0.60687819259E+02  0.83802567103E+03  0.86203728292E+03  0.10566000000E+00 0. -1.
        994    1    1    2    0    0  0.19502674469E+03  0.68434836699E+02  0.17145085608E+03  0.31847071148E+03  0.17120000000E+03 0.  0.
        998    1    1    2    0    0 -0.23139291305E+01 -0.77470174399E+01  0.49052346917E+03  0.49069200559E+03  0.10000000000E+02 0.  1.
</event>
<event>
 5    1  0.1072898E-008  0.3830408E+03  0.7957747E-01  0.3438024E+00
         13   -1    0    0    0    0  0.00000000000E+00  0.00000000000E+00  0.14999999963E+04  0.15000000000E+04  0.10566000000E+00 0.  1.
        994   -1    0    0    0    0 -0.00000000000E+00 -0.00000000000E+00  0.11368683772E-12  0.17120000000E+03  0.17120000000E+03 0.  0.
         13    1    1    2    0    0  0.27113947415E+02  0.80534399712E+01  0.16798220420E+03  0.17034687004E+03  0.10566000000E+00 0.  1.
        994    1    1    2    0    0 -0.61451180994E+01  0.11324940091E+01  0.27352112896E+01  0.17133582929E+03  0.17120000000E+03 0.  0.
        998    1    1    2    0    0 -0.20968829316E+02 -0.91859339803E+01  0.13292825808E+04  0.13295173007E+04  0.10000000000E+02 0.  1.
</event>
<event>
 5    1  0.1072898E-008  0.3824288E+03  0.7957747E-01  0.3440650E+00
         13   -1    0    0    0    0  0.00000000000E+00  0.00000000000E+00  0.14999999963E+04  0.15000000000E+04  0.10566000000E+00 0. -1.
        994   -1    0    0    0    0 -0.00000000000E+00 -0.00000000000E+00  0.11368683772E-12  0.17120000000E+03  0.17120000000E+03 0.  0.
         13    1    1    2    0    0  0.23981400530E+02  0.16033398352E+01  0.12407823889E+03  0.12638472534E+03  0.10566000000E+00 0. -1.
        994    1    1    2    0    0  0.18358493340E+02  0.38259850680E+01  0.40791942717E+01  0.17227232008E+03  0.17120000000E+03 0.  0.
        998    1    1    2    0    0 -0.42339893870E+02 -0.54293249032E+01  0.13718425631E+04  0.13725429546E+04  0.10000000000E+02 0. -1.
</event>
<event>
 5    1  0.1072898E-008  0.3840504E+03  0.7957747E-01  0.3433710E+00
         13   -1    0    0    0    0  0.00000000000E+00  0.00000000000E+00  0.14999999963E+04  0.15000000000E+04  0.10566000000E+00 0. -1.
        994   -1    0    0    0    0 -0.00000000000E+00 -0.00000000000E+00  0.11368683772E-12  0.17120000000E+03  0.17120000000E+03 0.  0.
         13    1    1    2    0    0 -0.22135437509E+01  0.13945431124E+02  0.44934252501E+02  0.47100669178E+02  0.10566000000E+00 0. -1.
        994    1    1    2    0    0  0.11078963281E+02 -0.17261160051E+02  0.34913362641E+01  0.17245961992E+03  0.17120000000E+03 0.  0.
        998    1    1    2    0    0 -0.88654195297E+01  0.33157289271E+01  0.14515744075E+04  0.14516397109E+04  0.10000000000E+02 0. -1.
</event>
<event>
 5    1  0.1072898E-008  0.3801771E+03  0.7957747E-01  0.3450388E+00
         13   -1    0    0    0    0  0.00000000000E+00  0.00000000000E+00  0.14999999963E+04  0.15000000000E+04  0.10566000000E+00 0. -1.
        994   -1    0    0    0    0 -0.00000000000E+00 -0.00000000000E+00  0.11368683772E-12  0.17120000000E+03  0.17120000000E+03 0.  0.
         13    1    1    2    0    0 -0.16256369166E+02 -0.24575812539E+02  0.10908430544E+03  0.11299396868E+03  0.10566000000E+00 0. -1.
        994    1    1    2    0    0  0.73353961294E+01  0.10137006333E+02  0.45670082603E+01  0.17171739719E+03  0.17120000000E+03 0.  0.
        998    1    1    2    0    0  0.89209730363E+01  0.14438806206E+02  0.13863486826E+04  0.13864886341E+04  0.10000000000E+02 0. -1.
</event>
<event>
 5    1  0.1072898E-008  0.3787365E+03  0.7957747E-01  0.3456679E+00
         13   -1    0    0    0    0  0.00000000000E+00  0.00000000000E+00  0.14999999963E+04  0.15000000000E+04  0.10566000000E+00 0. -1.
        994   -1    0    0    0    0 -0.00000000000E+00 -0.00000000000E+00  0.11368683772E-12  0.17120000000E+03  0.17120000000E+03 0.  0.
         13    1    1    2    0    0 -0.17135887209E+02  0.32829162616E+02  0.12985358476E+03  0.13503094900E+03  0.10566000000E+00 0. -1.
        994    1    1    2    0    0  0.93553931905E+01 -0.38531300490E+02  0.10068194488E+02  0.17601986547E+03  0.17120000000E+03 0.  0.
        998    1    1    2    0    0  0.77804940184E+01  0.57021378747E+01  0.13600782170E+04  0.13601491855E+04  0.10000000000E+02 0. -1.
</event>
<event>
 5    1  0.1072898E-008  0.3793554E+03  0.7957747E-01  0.3453970E+00
         13   -1    0    0    0    0  0.00000000000E+00  0.00000000000E+00  0.14999999963E+04  0.15000000000E+04  0.10566000000E+00 0. -1.
        994   -1    0    0    0    0 -0.00000000000E+00 -0.00000000000E+00  0.11368683772E-12  0.17120000000E+03  0.17120000000E+03 0.  0.
         13    1    1    2    0    0  0.20548279617E+02 -0.32186014027E+02  0.14831412305E+03  0.15315110693E+03  0.10566000000E+00 0. -1.
        994    1    1    2    0    0 -0.24364057162E+02  0.28495726781E+02  0.91822008678E+01  0.17549748300E+03  0.17120000000E+03 0.  0.
        998    1    1    2    0    0  0.38157775447E+01  0.36902872453E+01  0.13425036724E+04  0.13425514101E+04  0.10000000000E+02 0. -1.
</event>
<event>
 5    1  0.1072898E-008  0.3860479E+03  0.7957747E-01  0.3425240E+00
         13   -1    0    0    0    0  0.00000000000E+00  0.00000000000E+00  0.14999999963E+04  0.15000000000E+04  0.10566000000E+00 0.  1.
        994   -1    0    0    0    0 -0.00000000000E+00 -0.00000000000E+00  0.11368683772E-12  0.17120000000E+03  0.17120000000E+03 0.  0.
         13    1    1    2    0    0 -0.14232569141E+02  0.29826974669E+01  0.87395632553E+02  0.88597236198E+02  0.10566000000E+00 0.  1.
        994    1    1    2    0    0  0.19019300102E+02 -0.10170046263E+02  0.26368412482E+01  0.17257333673E+03  0.17120000000E+03 0.  0.
        998    1    1    2    0    0 -0.47867309602E+01  0.71873487965E+01  0.14099675225E+04  0.14100294271E+04  0.10000000000E+02 0.  1.
</event>
<event>
 5    1  0.1072898E-008  0.3713738E+03  0.7957747E-01  0.3489601E+00
         13   -1    0    0    0    0  0.00000000000E+00  0.00000000000E+00  0.14999999963E+04  0.15000000000E+04  0.10566000000E+00 0. -1.
        994   -1    0    0    0    0 -0.00000000000E+00 -0.00000000000E+00  0.11368683772E-12  0.17120000000E+03  0.17120000000E+03 0.  0.
         13    1    1    2    0    0  0.24899738926E+01 -0.62910165218E+02  0.17376235017E+03  0.18481681298E+03  0.10566000000E+00 0. -1.
        994    1    1    2    0    0 -0.23784330962E+02  0.92159000346E+02  0.40404578777E+02  0.20000236431E+03  0.17120000000E+03 0.  0.
        998    1    1    2    0    0  0.21294357070E+02 -0.29248835129E+02  0.12858330673E+04  0.12863808227E+04  0.10000000000E+02 0.  1.
</event>
<event>
 5    1  0.1072898E-008  0.3810762E+03  0.7957747E-01  0.3446486E+00
         13   -1    0    0    0    0  0.00000000000E+00  0.00000000000E+00  0.14999999963E+04  0.15000000000E+04  0.10566000000E+00 0.  1.
        994   -1    0    0    0    0 -0.00000000000E+00 -0.00000000000E+00  0.11368683772E-12  0.17120000000E+03  0.17120000000E+03 0.  0.
         13    1    1    2    0    0 -0.28899779087E+02 -0.33946664992E+02  0.22304016631E+03  0.22745219332E+03  0.10566000000E+00 0.  1.
        994    1    1    2    0    0  0.27782563357E+02  0.44416832776E+02  0.12788341832E+02  0.17949291782E+03  0.17120000000E+03 0.  0.
        998    1    1    2    0    0  0.11172157297E+01 -0.10470167784E+02  0.12641714881E+04  0.12642548889E+04  0.10000000000E+02 0.  1.
</event>
<event>
 5    1  0.1072898E-008  0.3760931E+03  0.7957747E-01  0.3468348E+00
         13   -1    0    0    0    0  0.00000000000E+00  0.00000000000E+00  0.14999999963E+04  0.15000000000E+04  0.10566000000E+00 0.  1.
        994   -1    0    0    0    0 -0.00000000000E+00 -0.00000000000E+00  0.11368683772E-12  0.17120000000E+03  0.17120000000E+03 0.  0.
         13    1    1    2    0    0 -0.40314960716E+00  0.16685694910E+02  0.19806596104E+02  0.25901493345E+02  0.10566000000E+00 0. -1.
        994    1    1    2    0    0 -0.63241641510E+00 -0.18688118442E+02  0.73034944614E+01  0.17237292929E+03  0.17120000000E+03 0.  0.
        998    1    1    2    0    0  0.10355660223E+01  0.20024235314E+01  0.14728899057E+04  0.14729255774E+04  0.10000000000E+02 0.  1.
</event>
<event>
 5    1  0.1072898E-008  0.3784673E+03  0.7957747E-01  0.3457860E+00
         13   -1    0    0    0    0  0.00000000000E+00  0.00000000000E+00  0.14999999963E+04  0.15000000000E+04  0.10566000000E+00 0.  1.
        994   -1    0    0    0    0 -0.00000000000E+00 -0.00000000000E+00  0.11368683772E-12  0.17120000000E+03  0.17120000000E+03 0.  0.
         13    1    1    2    0    0 -0.11284023771E+02 -0.10718588440E+02  0.21972350461E+02  0.26926059486E+02  0.10566000000E+00 0.  1.
        994    1    1    2    0    0  0.18154726634E+02  0.12352148872E+02  0.65305935898E+01  0.17272596311E+03  0.17120000000E+03 0.  0.
        998    1    1    2    0    0 -0.68707028639E+01 -0.16335604324E+01  0.14714970522E+04  0.14715479774E+04  0.10000000000E+02 0.  1.
</event>
<event>
 5    1  0.1072898E-008  0.3757832E+03  0.7957747E-01  0.3469727E+00
         13   -1    0    0    0    0  0.00000000000E+00  0.00000000000E+00  0.14999999963E+04  0.15000000000E+04  0.10566000000E+00 0. -1.
        994   -1    0    0    0    0 -0.00000000000E+00 -0.00000000000E+00  0.11368683772E-12  0.17120000000E+03  0.17120000000E+03 0.  0.
         13    1    1    2    0    0  0.49499120375E+02 -0.39928496489E+02  0.31993579325E+03  0.32619529537E+03  0.10566000000E+00 0. -1.
        994    1    1    2    0    0  0.12082312931E+02  0.88459302795E+02  0.33798857371E+02  0.19601743110E+03  0.17120000000E+03 0.  0.
        998    1    1    2    0    0 -0.61581433306E+02 -0.48530806306E+02  0.11462653457E+04  0.11489872735E+04  0.10000000000E+02 0. -1.
</event>
<event>
 5    1  0.1072898E-008  0.3859607E+03  0.7957747E-01  0.3425608E+00
         13   -1    0    0    0    0  0.00000000000E+00  0.00000000000E+00  0.14999999963E+04  0.15000000000E+04  0.10566000000E+00 0. -1.
        994   -1    0    0    0    0 -0.00000000000E+00 -0.00000000000E+00  0.11368683772E-12  0.17120000000E+03  0.17120000000E+03 0.  0.
         13    1    1    2    0    0  0.10619498741E+02  0.36790442390E+01  0.55641764239E+02  0.56765537183E+02  0.10566000000E+00 0. -1.
        994    1    1    2    0    0 -0.73348026932E+01  0.49755347099E+00  0.13311453147E+01  0.17136294476E+03  0.17120000000E+03 0.  0.
        998    1    1    2    0    0 -0.32846960476E+01 -0.41765977100E+01  0.14430270867E+04  0.14430715181E+04  0.10000000000E+02 0. -1.
</event>
<event>
 5    1  0.1072898E-008  0.3846342E+03  0.7957747E-01  0.3431225E+00
         13   -1    0    0    0    0  0.00000000000E+00  0.00000000000E+00  0.14999999963E+04  0.15000000000E+04  0.10566000000E+00 0.  1.
        994   -1    0    0    0    0 -0.00000000000E+00 -0.00000000000E+00  0.11368683772E-12  0.17120000000E+03  0.17120000000E+03 0.  0.
         13    1    1    2    0    0  0.18188530917E+02  0.11252597704E+02  0.11156142455E+03  0.11359316099E+03  0.10566000000E+00 0.  1.
        994    1    1    2    0    0 -0.30568899110E+02 -0.63789639618E+01  0.50291867974E+01  0.17409733339E+03  0.17120000000E+03 0.  0.
        998    1    1    2    0    0  0.12380368192E+02 -0.48736337420E+01  0.13834093849E+04  0.13835095056E+04  0.10000000000E+02 0.  1.
</event>
<event>
 5    1  0.1072898E-008  0.3848685E+03  0.7957747E-01  0.3430230E+00
         13   -1    0    0    0    0  0.00000000000E+00  0.00000000000E+00  0.14999999963E+04  0.15000000000E+04  0.10566000000E+00 0.  1.
        994   -1    0    0    0    0 -0.00000000000E+00 -0.00000000000E+00  0.11368683772E-12  0.17120000000E+03  0.17120000000E+03 0.  0.
         13    1    1    2    0    0  0.37401055498E+01 -0.12238607365E+02  0.48432083466E+02  0.50094408597E+02  0.10566000000E+00 0.  1.
        994    1    1    2    0    0  0.24228593252E+01  0.86622901179E+01  0.19616746057E+01  0.17144734960E+03  0.17120000000E+03 0.  0.
        998    1    1    2    0    0 -0.61629648750E+01  0.35763172476E+01  0.14496062382E+04  0.14496582418E+04  0.10000000000E+02 0. -1.
</event>
<event>
 5    1  0.1072898E-008  0.3831937E+03  0.7957747E-01  0.3437369E+00
         13   -1    0    0    0    0  0.00000000000E+00  0.00000000000E+00  0.14999999963E+04  0.15000000000E+04  0.10566000000E+00 0. -1.
        994   -1    0    0    0    0 -0.00000000000E+00 -0.00000000000E+00  0.11368683772E-12  0.17120000000E+03  0.17120000000E+03 0.  0.
         13    1    1    2    0    0  0.61875946513E+01  0.94204820225E+01  0.24008419651E+02  0.26522578820E+02  0.10566000000E+00 0. -1.
        994    1    1    2    0    0 -0.31422963128E+01 -0.10503210304E+02  0.29272841331E+01  0.17157564059E+03  0.17120000000E+03 0.  0.
        998    1    1    2    0    0 -0.30452983384E+01  0.10827282813E+01  0.14730642925E+04  0.14731017806E+04  0.10000000000E+02 0. -1.
</event>
<event>
 5    1  0.1072898E-008  0.3697330E+03  0.7957747E-01  0.3497119E+00
         13   -1    0    0    0    0  0.00000000000E+00  0.00000000000E+00  0.14999999963E+04  0.15000000000E+04  0.10566000000E+00 0.  1.
        994   -1    0    0    0    0 -0.00000000000E+00 -0.00000000000E+00  0.11368683772E-12  0.17120000000E+03  0.17120000000E+03 0.  0.
         13    1    1    2    0    0 -0.55820994509E+02  0.12691742091E+03  0.48980484150E+03  0.50905089046E+03  0.10566000000E+00 0.  1.
        994    1    1    2    0    0  0.68551741132E+02 -0.13764119108E+03  0.98607049803E+02  0.25035420700E+03  0.17120000000E+03 0.  0.
        998    1    1    2    0    0 -0.12730746623E+02  0.10723770171E+02  0.91158810497E+03  0.91179490253E+03  0.10000000000E+02 0.  1.
</event>
<event>
 5    1  0.1072898E-008  0.3845641E+03  0.7957747E-01  0.3431523E+00
         13   -1    0    0    0    0  0.00000000000E+00  0.00000000000E+00  0.14999999963E+04  0.15000000000E+04  0.10566000000E+00 0.  1.
        994   -1    0    0    0    0 -0.00000000000E+00 -0.00000000000E+00  0.11368683772E-12  0.17120000000E+03  0.17120000000E+03 0.  0.
         13    1    1    2    0    0  0.12697428061E+02  0.10006829314E+01  0.44201515011E+02  0.46000121076E+02  0.10566000000E+00 0.  1.
        994    1    1    2    0    0 -0.57179055439E+01 -0.34876291386E+01  0.19944435030E+01  0.17134256857E+03  0.17120000000E+03 0.  0.
        998    1    1    2    0    0 -0.69795225172E+01  0.24869462072E+01  0.14538040378E+04  0.14538573103E+04  0.10000000000E+02 0.  1.
</event>
<event>
 5    1  0.1072898E-008  0.3821106E+03  0.7957747E-01  0.3442020E+00
         13   -1    0    0    0    0  0.00000000000E+00  0.00000000000E+00  0.14999999963E+04  0.15000000000E+04  0.10566000000E+00 0. -1.
        994   -1    0    0    0    0 -0.00000000000E+00 -0.00000000000E+00  0.11368683772E-12  0.17120000000E+03  0.17120000000E+03 0.  0.
         13    1    1    2    0    0  0.19324851860E+02  0.30082583110E+01  0.57439885086E+02  0.60678258711E+02  0.10566000000E+00 0. -1.
        994    1    1    2    0    0 -0.28262519373E+02  0.56032245636E+01  0.58323383347E+01  0.17370556208E+03  0.17120000000E+03 0.  0.
        998    1    1    2    0    0  0.89376675128E+01 -0.86114828745E+01  0.14367277729E+04  0.14368161792E+04  0.10000000000E+02 0. -1.
</event>
<event>
 5    1  0.1072898E-008  0.3787568E+03  0.7957747E-01  0.3456590E+00
         13   -1    0    0    0    0  0.00000000000E+00  0.00000000000E+00  0.14999999963E+04  0.15000000000E+04  0.10566000000E+00 0. -1.
        994   -1    0    0    0    0 -0.00000000000E+00 -0.00000000000E+00  0.11368683772E-12  0.17120000000E+03  0.17120000000E+03 0.  0.
         13    1    1    2    0    0  0.65451044307E+01  0.80941712866E+01  0.92500515074E+01  0.13925825568E+02  0.10566000000E+00 0. -1.
        994    1    1    2    0    0 -0.82105509210E+01 -0.24506414751E+01  0.50085204872E+01  0.17148744580E+03  0.17120000000E+03 0.  0.
        998    1    1    2    0    0  0.16654464903E+01 -0.56435298115E+01  0.14857414243E+04  0.14857867286E+04  0.10000000000E+02 0. -1.
</event>
<event>
 5    1  0.1072898E-008  0.3825365E+03  0.7957747E-01  0.3440188E+00
         13   -1    0    0    0    0  0.00000000000E+00  0.00000000000E+00  0.14999999963E+04  0.15000000000E+04  0.10566000000E+00 0. -1.
        994   -1    0    0    0    0 -0.00000000000E+00 -0.00000000000E+00  0.11368683772E-12  0.17120000000E+03  0.17120000000E+03 0.  0.
         13    1    1    2    0    0 -0.45027233481E+02 -0.62255424564E+02  0.14692359298E+03  0.16580031056E+03  0.10566000000E+00 0. -1.
        994    1    1    2    0    0  0.49238576102E+02  0.56214364396E+02  0.38450870914E+02  0.19071549915E+03  0.17120000000E+03 0.  0.
        998    1    1    2    0    0 -0.42113426215E+01  0.60410601677E+01  0.13146255324E+04  0.13146841903E+04  0.10000000000E+02 0. -1.
</event>
<event>
 5    1  0.1072898E-008  0.3803743E+03  0.7957747E-01  0.3449530E+00
         13   -1    0    0    0    0  0.00000000000E+00  0.00000000000E+00  0.14999999963E+04  0.15000000000E+04  0.10566000000E+00 0.  1.
        994   -1    0    0    0    0 -0.00000000000E+00 -0.00000000000E+00  0.11368683772E-12  0.17120000000E+03  0.17120000000E+03 0.  0.
         13    1    1    2    0    0 -0.36174868732E+02  0.28691765307E+02  0.19243889071E+03  0.19790042027E+03  0.10566000000E+00 0.  1.
        994    1    1    2    0    0  0.48603420265E+02 -0.58710498555E+02  0.23590115768E+02  0.18887866122E+03  0.17120000000E+03 0.  0.
        998    1    1    2    0    0 -0.12428551533E+02  0.30018733248E+02  0.12839709898E+04  0.12844209185E+04  0.10000000000E+02 0.  1.
</event>
<event>
 5    1  0.1072898E-008  0.3803498E+03  0.7957747E-01  0.3449637E+00
         13   -1    0    0    0    0  0.00000000000E+00  0.00000000000E+00  0.14999999963E+04  0.15000000000E+04  0.10566000000E+00 0.  1.
        994   -1    0    0    0    0 -0.00000000000E+00 -0.00000000000E+00  0.11368683772E-12  0.17120000000E+03  0.17120000000E+03 0.  0.
         13    1    1    2    0    0  0.22961175130E+02 -0.30018948035E+02  0.19866741618E+03  0.20223032963E+03  0.10566000000E+00 0.  1.
        994    1    1    2    0    0  0.18966400162E+01  0.12152508271E+02  0.44619450451E+01  0.17169924186E+03  0.17120000000E+03 0.  0.
        998    1    1    2    0    0 -0.24857815147E+02  0.17866439764E+02  0.12968706351E+04  0.12972704285E+04  0.10000000000E+02 0.  1.
</event>
<event>
 5    1  0.1072898E-008  0.3823668E+03  0.7957747E-01  0.3440917E+00
         13   -1    0    0    0    0  0.00000000000E+00  0.00000000000E+00  0.14999999963E+04  0.15000000000E+04  0.10566000000E+00 0. -1.
        994   -1    0    0    0    0 -0.00000000000E+00 -0.00000000000E+00  0.11368683772E-12  0.17120000000E+03  0.17120000000E+03 0.  0.
         13    1    1    2    0    0 -0.23724797552E+02 -0.72152869385E+01  0.10336206440E+03  0.10629512644E+03  0.10566000000E+00 0. -1.
        994    1    1    2    0    0  0.23893164897E+02 -0.22187813875E+02  0.64777158964E+01  0.17439777297E+03  0.17120000000E+03 0.  0.
        998    1    1    2    0    0 -0.16836734562E+00  0.29403100814E+02  0.13901602160E+04  0.13905071006E+04  0.10000000000E+02 0. -1.
</event>
<event>
 5    1  0.1133646E-008  0.3861398E+03  0.7957747E-01  0.3424853E+00
         13   -1    0    0    0    0  0.00000000000E+00  0.00000000000E+00  0.14999999963E+04  0.15000000000E+04  0.10566000000E+00 0. -1.
        994   -1    0    0    0    0 -0.00000000000E+00 -0.00000000000E+00  0.11368683772E-12  0.17120000000E+03  0.17120000000E+03 0.  0.
         13    1    1    2    0    0 -0.86109851967E+01 -0.81836434090E+01  0.64987299223E+02  0.66064221102E+02  0.10566000000E+00 0. -1.
        994    1    1    2    0    0  0.11706742617E+02  0.54071133190E+01  0.16103414364E+01  0.17169250973E+03  0.17120000000E+03 0.  0.
        998    1    1    2    0    0 -0.30957574203E+01  0.27765300900E+01  0.14334023556E+04  0.14334432692E+04  0.10000000000E+02 0. -1.
</event>
<event>
 5    1  0.1072898E-008  0.3783491E+03  0.7957747E-01  0.3458379E+00
         13   -1    0    0    0    0  0.00000000000E+00  0.00000000000E+00  0.14999999963E+04  0.15000000000E+04  0.10566000000E+00 0. -1.
        994   -1    0    0    0    0 -0.00000000000E+00 -0.00000000000E+00  0.11368683772E-12  0.17120000000E+03  0.17120000000E+03 0.  0.
         13    1    1    2    0    0 -0.37058634915E+02  0.21589598365E+02  0.21034467522E+03  0.21467265018E+03  0.10566000000E+00 0. -1.
        994    1    1    2    0    0  0.11143896555E+02  0.75655901789E+01  0.55788816053E+01  0.17181963946E+03  0.17120000000E+03 0.  0.
        998    1    1    2    0    0  0.25914738359E+02 -0.29155188544E+02  0.12840764395E+04  0.12847077104E+04  0.10000000000E+02 0. -1.
</event>
<event>
 5    1  0.1072898E-008  0.3699205E+03  0.7957747E-01  0.3496256E+00
         13   -1    0    0    0    0  0.00000000000E+00  0.00000000000E+00  0.14999999963E+04  0.15000000000E+04  0.10566000000E+00 0.  1.
        994   -1    0    0    0    0 -0.00000000000E+00 -0.00000000000E+00  0.11368683772E-12  0.17120000000E+03  0.17120000000E+03 0.  0.
         13    1    1    2    0    0 -0.17943698397E+02  0.11653622362E+02  0.16247577772E+02  0.26865929610E+02  0.10566000000E+00 0.  1.
        994    1    1    2    0    0  0.19232499838E+02 -0.20260576178E+01  0.12204951453E+02  0.17272056855E+03  0.17120000000E+03 0.  0.
        998    1    1    2    0    0 -0.12888014409E+01 -0.96275647443E+01  0.14715474671E+04  0.14716135018E+04  0.10000000000E+02 0.  1.
</event>
<event>
 5    1  0.1072898E-008  0.3784249E+03  0.7957747E-01  0.3458046E+00
         13   -1    0    0    0    0  0.00000000000E+00  0.00000000000E+00  0.14999999963E+04  0.15000000000E+04  0.10566000000E+00 0. -1.
        994   -1    0    0    0    0 -0.00000000000E+00 -0.00000000000E+00  0.11368683772E-12  0.17120000000E+03  0.17120000000E+03 0.  0.
         13    1    1    2    0    0 -0.42010928497E+02  0.16678676637E+02  0.18181632217E+03  0.18735069399E+03  0.10566000000E+00 0. -1.
        994    1    1    2    0    0  0.42352416056E+02 -0.16401705930E+02  0.11893531268E+02  0.17752081340E+03  0.17120000000E+03 0.  0.
        998    1    1    2    0    0 -0.34148755895E+00 -0.27697070686E+00  0.13062901428E+04  0.13063284926E+04  0.10000000000E+02 0.  0.
</event>
<event>
 5    1  0.1072898E-008  0.3854425E+03  0.7957747E-01  0.3427798E+00
         13   -1    0    0    0    0  0.00000000000E+00  0.00000000000E+00  0.14999999963E+04  0.15000000000E+04  0.10566000000E+00 0.  1.
        994   -1    0    0    0    0 -0.00000000000E+00 -0.00000000000E+00  0.11368683772E-12  0.17120000000E+03  0.17120000000E+03 0.  0.
         13    1    1    2    0    0 -0.10875527516E+01 -0.17426271096E+02  0.10461871088E+03  0.10606575095E+03  0.10566000000E+00 0.  1.
        994    1    1    2    0    0  0.40286396410E+01  0.15182427248E+02  0.22212836423E+01  0.17193344682E+03  0.17120000000E+03 0.  0.
        998    1    1    2    0    0 -0.29410868894E+01  0.22438438487E+01  0.13931600018E+04  0.13932008022E+04  0.10000000000E+02 0.  1.
</event>
<event>
 5    1  0.1072898E-008  0.3855260E+03  0.7957747E-01  0.3427444E+00
         13   -1    0    0    0    0  0.00000000000E+00  0.00000000000E+00  0.14999999963E+04  0.15000000000E+04  0.10566000000E+00 0. -1.
        994   -1    0    0    0    0 -0.00000000000E+00 -0.00000000000E+00  0.11368683772E-12  0.17120000000E+03  0.17120000000E+03 0.  0.
         13    1    1    2    0    0  0.91550307326E+01  0.50010522314E+01  0.40413043528E+02  0.41737876831E+02  0.10566000000E+00 0. -1.
        994    1    1    2    0    0 -0.21672197904E+01 -0.56363547462E+01  0.14889392671E+01  0.17131293669E+03  0.17120000000E+03 0.  0.
        998    1    1    2    0    0 -0.69878109423E+01  0.63530251483E+00  0.14580980135E+04  0.14581491865E+04  0.10000000000E+02 0. -1.
</event>
<event>
 5    1  0.1072898E-008  0.3721239E+03  0.7957747E-01  0.3486187E+00
         13   -1    0    0    0    0  0.00000000000E+00  0.00000000000E+00  0.14999999963E+04  0.15000000000E+04  0.10566000000E+00 0. -1.
        994   -1    0    0    0    0 -0.00000000000E+00 -0.00000000000E+00  0.11368683772E-12  0.17120000000E+03  0.17120000000E+03 0.  0.
         13    1    1    2    0    0  0.33045873348E+02  0.17715841006E+02  0.82677678752E+02  0.90782655259E+02  0.10566000000E+00 0. -1.
        994    1    1    2    0    0 -0.20888884456E+02 -0.14528656522E+02  0.10388658003E+02  0.17339201703E+03  0.17120000000E+03 0.  0.
        998    1    1    2    0    0 -0.12156988892E+02 -0.31871844844E+01  0.14069336595E+04  0.14070253277E+04  0.10000000000E+02 0. -1.
</event>
<event>
 5    1  0.1072898E-008  0.3809793E+03  0.7957747E-01  0.3446906E+00
         13   -1    0    0    0    0  0.00000000000E+00  0.00000000000E+00  0.14999999963E+04  0.15000000000E+04  0.10566000000E+00 0.  1.
        994   -1    0    0    0    0 -0.00000000000E+00 -0.00000000000E+00  0.11368683772E-12  0.17120000000E+03  0.17120000000E+03 0.  0.
         13    1    1    2    0    0 -0.46499984952E+02  0.81406059617E+00  0.26166180677E+03  0.26576272045E+03  0.10566000000E+00 0.  1.
        994    1    1    2    0    0  0.40733978015E+02  0.10541645666E+02  0.95613941447E+01  0.17655379780E+03  0.17120000000E+03 0.  0.
        998    1    1    2    0    0  0.57660069365E+01 -0.11355706262E+02  0.12287767954E+04  0.12288834817E+04  0.10000000000E+02 0.  1.
</event>
<event>
 5    1  0.1072898E-008  0.3837613E+03  0.7957747E-01  0.3434943E+00
         13   -1    0    0    0    0  0.00000000000E+00  0.00000000000E+00  0.14999999963E+04  0.15000000000E+04  0.10566000000E+00 0. -1.
        994   -1    0    0    0    0 -0.00000000000E+00 -0.00000000000E+00  0.11368683772E-12  0.17120000000E+03  0.17120000000E+03 0.  0.
         13    1    1    2    0    0 -0.10330479813E+02 -0.14931679676E+02  0.70711366228E+02  0.73005358358E+02  0.10566000000E+00 0. -1.
        994    1    1    2    0    0  0.18430915789E+02  0.80610276278E+01  0.35837100118E+01  0.17241508577E+03  0.17120000000E+03 0.  0.
        998    1    1    2    0    0 -0.81004359760E+01  0.68706520483E+01  0.14257049200E+04  0.14257795559E+04  0.10000000000E+02 0. -1.
</event>
<event>
 5    1  0.1072898E-008  0.3785778E+03  0.7957747E-01  0.3457375E+00
         13   -1    0    0    0    0  0.00000000000E+00  0.00000000000E+00  0.14999999963E+04  0.15000000000E+04  0.10566000000E+00 0.  1.
        994   -1    0    0    0    0 -0.00000000000E+00 -0.00000000000E+00  0.11368683772E-12  0.17120000000E+03  0.17120000000E+03 0.  0.
         13    1    1    2    0    0 -0.35565058047E+02 -0.31016126581E+02  0.25893811685E+03  0.26320302617E+03  0.10566000000E+00 0.  1.
        994    1    1    2    0    0  0.26294032740E+01  0.14321962288E+02  0.55652608390E+01  0.17190824440E+03  0.17120000000E+03 0.  0.
        998    1    1    2    0    0  0.32935654773E+02  0.16694164293E+02  0.12354966186E+04  0.12360887294E+04  0.10000000000E+02 0.  1.
</event>
<event>
 5    1  0.1072898E-008  0.3756782E+03  0.7957747E-01  0.3470195E+00
         13   -1    0    0    0    0  0.00000000000E+00  0.00000000000E+00  0.14999999963E+04  0.15000000000E+04  0.10566000000E+00 0. -1.
        994   -1    0    0    0    0 -0.00000000000E+00 -0.00000000000E+00  0.11368683772E-12  0.17120000000E+03  0.17120000000E+03 0.  0.
         13    1    1    2    0    0 -0.40783563136E+01 -0.13692409987E+02  0.13285230968E+02  0.19509577325E+02  0.10566000000E+00 0. -1.
        994    1    1    2    0    0  0.51766051503E+01  0.10551387271E+02  0.67994642490E+01  0.17173759556E+03  0.17120000000E+03 0.  0.
        998    1    1    2    0    0 -0.10982488367E+01  0.31410227168E+01  0.14799153011E+04  0.14799528271E+04  0.10000000000E+02 0. -1.
</event>
<event>
 5    1  0.1072898E-008  0.3826228E+03  0.7957747E-01  0.3439817E+00
         13   -1    0    0    0    0  0.00000000000E+00  0.00000000000E+00  0.14999999963E+04  0.15000000000E+04  0.10566000000E+00 0.  1.
        994   -1    0    0    0    0 -0.00000000000E+00 -0.00000000000E+00  0.11368683772E-12  0.17120000000E+03  0.17120000000E+03 0.  0.
         13    1    1    2    0    0  0.12065995524E+02  0.16371163496E+01  0.25793809899E+02  0.28523677727E+02  0.10566000000E+00 0.  1.
        994    1    1    2    0    0 -0.33022640388E+01  0.42256396314E+01  0.29103281423E+01  0.17130870085E+03  0.17120000000E+03 0.  0.
        998    1    1    2    0    0 -0.87637314848E+01 -0.58627559810E+01  0.14712958582E+04  0.14713676214E+04  0.10000000000E+02 0.  1.
</event>
<event>
 5    1  0.1072898E-008  0.3823936E+03  0.7957747E-01  0.3440802E+00
         13   -1    0    0    0    0  0.00000000000E+00  0.00000000000E+00  0.14999999963E+04  0.15000000000E+04  0.10566000000E+00 0. -1.
        994   -1    0    0    0    0 -0.00000000000E+00 -0.00000000000E+00  0.11368683772E-12  0.17120000000E+03  0.17120000000E+03 0.  0.
         13    1    1    2    0    0  0.56851857683E+02 -0.65646010600E+02  0.51531381734E+03  0.52258001678E+03  0.10566000000E+00 0. -1.
        994    1    1    2    0    0 -0.78501608295E+02  0.89500391228E+02  0.51454005647E+02  0.21477843754E+03  0.17120000000E+03 0.  0.
        998    1    1    2    0    0  0.21649750612E+02 -0.23854380628E+02  0.93323217329E+03  0.93384154568E+03  0.10000000000E+02 0. -1.
</event>
<event>
 5    1  0.1072898E-008  0.3830375E+03  0.7957747E-01  0.3438038E+00
         13   -1    0    0    0    0  0.00000000000E+00  0.00000000000E+00  0.14999999963E+04  0.15000000000E+04  0.10566000000E+00 0. -1.
        994   -1    0    0    0    0 -0.00000000000E+00 -0.00000000000E+00  0.11368683772E-12  0.17120000000E+03  0.17120000000E+03 0.  0.
         13    1    1    2    0    0 -0.10664547040E+02  0.21484194296E+02  0.11681534040E+03  0.11925241333E+03  0.10566000000E+00 0. -1.
        994    1    1    2    0    0 -0.41293466415E+01 -0.82070994745E+01  0.28870656469E+01  0.17147064802E+03  0.17120000000E+03 0.  0.
        998    1    1    2    0    0  0.14793893681E+02 -0.13277094821E+02  0.13802975902E+04  0.13804769386E+04  0.10000000000E+02 0. -1.
</event>
<event>
 5    1  0.1072898E-008  0.3856100E+03  0.7957747E-01  0.3427089E+00
         13   -1    0    0    0    0  0.00000000000E+00  0.00000000000E+00  0.14999999963E+04  0.15000000000E+04  0.10566000000E+00 0. -1.
        994   -1    0    0    0    0 -0.00000000000E+00 -0.00000000000E+00  0.11368683772E-12  0.17120000000E+03  0.17120000000E+03 0.  0.
         13    1    1    2    0    0  0.17893924616E+01 -0.12647512049E+02  0.63448291897E+02  0.64721390553E+02  0.10566000000E+00 0. -1.
        994    1    1    2    0    0 -0.46575495093E+01  0.41991603350E+01  0.14566756861E+01  0.17132100752E+03  0.17120000000E+03 0.  0.
        998    1    1    2    0    0  0.28681570476E+01  0.84483517136E+01  0.14350950287E+04  0.14351576019E+04  0.10000000000E+02 0. -1.
</event>
<event>
 5    1  0.1072898E-008  0.3836711E+03  0.7957747E-01  0.3435328E+00
         13   -1    0    0    0    0  0.00000000000E+00  0.00000000000E+00  0.14999999963E+04  0.15000000000E+04  0.10566000000E+00 0.  1.
        994   -1    0    0    0    0 -0.00000000000E+00 -0.00000000000E+00  0.11368683772E-12  0.17120000000E+03  0.17120000000E+03 0.  0.
         13    1    1    2    0    0  0.23015981828E+02  0.20060875707E+01  0.13170644276E+03  0.13371745598E+03  0.10566000000E+00 0.  1.
        994    1    1    2    0    0  0.29175446697E+01 -0.16110604199E+02  0.31772487709E+01  0.17201046057E+03  0.17120000000E+03 0.  0.
        998    1    1    2    0    0 -0.25933526498E+02  0.14104516628E+02  0.13651163048E+04  0.13654720835E+04  0.10000000000E+02 0.  1.
</event>
<event>
 5    1  0.1072898E-008  0.3916083E+03  0.7957747E-01  0.3402120E+00
         13   -1    0    0    0    0  0.00000000000E+00  0.00000000000E+00  0.14999999963E+04  0.15000000000E+04  0.10566000000E+00 0.  1.
        994   -1    0    0    0    0 -0.00000000000E+00 -0.00000000000E+00  0.11368683772E-12  0.17120000000E+03  0.17120000000E+03 0.  0.
         13    1    1    2    0    0 -0.26265825021E+01 -0.67384513228E+02  0.89141889983E+02  0.11177593333E+03  0.10566000000E+00 0.  1.
        994    1    1    2    0    0 -0.21914031442E+01  0.59049106685E+02  0.36196339857E+02  0.18469221496E+03  0.17120000000E+03 0.  0.
        998    1    1    2    0    0  0.48179856463E+01  0.83354065437E+01  0.13746617664E+04  0.13747318517E+04  0.10000000000E+02 0.  1.
</event>
<event>
 5    1  0.1072898E-008  0.3733701E+03  0.7957747E-01  0.3480544E+00
         13   -1    0    0    0    0  0.00000000000E+00  0.00000000000E+00  0.14999999963E+04  0.15000000000E+04  0.10566000000E+00 0.  1.
        994   -1    0    0    0    0 -0.00000000000E+00 -0.00000000000E+00  0.11368683772E-12  0.17120000000E+03  0.17120000000E+03 0.  0.
         13    1    1    2    0    0  0.23597085018E+02  0.66347136598E+01  0.18103216343E+02  0.30472601672E+02  0.10566000000E+00 0.  1.
        994    1    1    2    0    0 -0.15762114167E+02 -0.18256994557E+02  0.14792834798E+02  0.17352241946E+03  0.17120000000E+03 0.  0.
        998    1    1    2    0    0 -0.78349708508E+01  0.11622280897E+02  0.14671039451E+04  0.14672049789E+04  0.10000000000E+02 0.  1.
</event>
<event>
 5    1  0.1072898E-008  0.3808019E+03  0.7957747E-01  0.3447674E+00
         13   -1    0    0    0    0  0.00000000000E+00  0.00000000000E+00  0.14999999963E+04  0.15000000000E+04  0.10566000000E+00 0. -1.
        994   -1    0    0    0    0 -0.00000000000E+00 -0.00000000000E+00  0.11368683772E-12  0.17120000000E+03  0.17120000000E+03 0.  0.
         13    1    1    2    0    0  0.48170431777E+02  0.10599634785E+02  0.27759651249E+03  0.28194428114E+03  0.10566000000E+00 0. -1.
        994    1    1    2    0    0 -0.45146655562E+02 -0.62012166186E+01  0.10683913658E+02  0.17748313049E+03  0.17120000000E+03 0.  0.
        998    1    1    2    0    0 -0.30237762151E+01 -0.43984181662E+01  0.12117195701E+04  0.12117725884E+04  0.10000000000E+02 0. -1.
</event>
<event>
 5    1  0.1072898E-008  0.3695788E+03  0.7957747E-01  0.3497829E+00
         13   -1    0    0    0    0  0.00000000000E+00  0.00000000000E+00  0.14999999963E+04  0.15000000000E+04  0.10566000000E+00 0.  1.
        994   -1    0    0    0    0 -0.00000000000E+00 -0.00000000000E+00  0.11368683772E-12  0.17120000000E+03  0.17120000000E+03 0.  0.
         13    1    1    2    0    0  0.27430969239E+02 -0.38486877606E+01  0.34462039040E+02  0.44214406812E+02  0.10566000000E+00 0.  1.
        994    1    1    2    0    0 -0.39052492994E+02  0.23402057322E+02  0.16701136650E+02  0.17793572284E+03  0.17120000000E+03 0.  0.
        998    1    1    2    0    0  0.11621523755E+02 -0.19553369561E+02  0.14488368206E+04  0.14490498704E+04  0.10000000000E+02 0.  1.
</event>
<event>
 5    1  0.1072898E-008  0.3852639E+03  0.7957747E-01  0.3428554E+00
         13   -1    0    0    0    0  0.00000000000E+00  0.00000000000E+00  0.14999999963E+04  0.15000000000E+04  0.10566000000E+00 0. -1.
        994   -1    0    0    0    0 -0.00000000000E+00 -0.00000000000E+00  0.11368683772E-12  0.17120000000E+03  0.17120000000E+03 0.  0.
         13    1    1    2    0    0 -0.99640842107E+01  0.26866613314E+01  0.35785253520E+02  0.37243746546E+02  0.10566000000E+00 0. -1.
        994    1    1    2    0    0  0.41019298443E+01 -0.47622737138E+01  0.16289779860E+01  0.17132308265E+03  0.17120000000E+03 0.  0.
        998    1    1    2    0    0  0.58621543664E+01  0.20756123824E+01  0.14625857648E+04  0.14626331708E+04  0.10000000000E+02 0. -1.
</event>
<event>
 5    1  0.1072898E-008  0.3856129E+03  0.7957747E-01  0.3427077E+00
         13   -1    0    0    0    0  0.00000000000E+00  0.00000000000E+00  0.14999999963E+04  0.15000000000E+04  0.10566000000E+00 0.  1.
        994   -1    0    0    0    0 -0.00000000000E+00 -0.00000000000E+00  0.11368683772E-12  0.17120000000E+03  0.17120000000E+03 0.  0.
         13    1    1    2    0    0  0.10461247667E+02  0.65794612683E+01  0.61365647027E+02  0.62597770027E+02  0.10566000000E+00 0.  1.
        994    1    1    2    0    0  0.29276269126E+01 -0.45166631682E+01  0.14212378821E+01  0.17129048766E+03  0.17120000000E+03 0.  0.
        998    1    1    2    0    0 -0.13388874580E+02 -0.20627981001E+01  0.14372131114E+04  0.14373117423E+04  0.10000000000E+02 0.  1.
</event>
<event>
 5    1  0.1072898E-008  0.3826385E+03  0.7957747E-01  0.3439750E+00
         13   -1    0    0    0    0  0.00000000000E+00  0.00000000000E+00  0.14999999963E+04  0.15000000000E+04  0.10566000000E+00 0.  1.
        994   -1    0    0    0    0 -0.00000000000E+00 -0.00000000000E+00  0.11368683772E-12  0.17120000000E+03  0.17120000000E+03 0.  0.
         13    1    1    2    0    0  0.21106251818E+02  0.41199879439E+01  0.85431324784E+02  0.88096371008E+02  0.10566000000E+00 0.  1.
        994    1    1    2    0    0 -0.57954144356E+01  0.20386911839E+01  0.29322107661E+01  0.17133528811E+03  0.17120000000E+03 0.  0.
        998    1    1    2    0    0 -0.15310837383E+02 -0.61586791278E+01  0.14116364607E+04  0.14117683409E+04  0.10000000000E+02 0.  1.
</event>
<event>
 5    1  0.1072898E-008  0.3779228E+03  0.7957747E-01  0.3460253E+00
         13   -1    0    0    0    0  0.00000000000E+00  0.00000000000E+00  0.14999999963E+04  0.15000000000E+04  0.10566000000E+00 0.  1.
        994   -1    0    0    0    0 -0.00000000000E+00 -0.00000000000E+00  0.11368683772E-12  0.17120000000E+03  0.17120000000E+03 0.  0.
         13    1    1    2    0    0 -0.40237872503E+01 -0.47325574225E+02  0.19041188660E+03  0.19624627019E+03  0.10566000000E+00 0.  1.
        994    1    1    2    0    0 -0.24246335111E+01  0.47444320418E+02  0.12819916983E+02  0.17813094245E+03  0.17120000000E+03 0.  0.
        998    1    1    2    0    0  0.64484207615E+01 -0.11874619256E+00  0.12967681927E+04  0.12968227874E+04  0.10000000000E+02 0.  1.
</event>
<event>
 5    1  0.1072898E-008  0.3785462E+03  0.7957747E-01  0.3457513E+00
         13   -1    0    0    0    0  0.00000000000E+00  0.00000000000E+00  0.14999999963E+04  0.15000000000E+04  0.10566000000E+00 0.  1.
        994   -1    0    0    0    0 -0.00000000000E+00 -0.00000000000E+00  0.11368683772E-12  0.17120000000E+03  0.17120000000E+03 0.  0.
         13    1    1    2    0    0 -0.49550316704E+02 -0.45634555808E+02  0.34228227884E+03  0.34884798429E+03  0.10566000000E+00 0.  1.
        994    1    1    2    0    0  0.11438816343E+03  0.14321340180E+00  0.50159121100E+02  0.21191991382E+03  0.17120000000E+03 0.  0.
        998    1    1    2    0    0 -0.64837846722E+02  0.45491342406E+02  0.11075585963E+04  0.11104321019E+04  0.10000000000E+02 0.  1.
</event>
<event>
 5    1  0.1072898E-008  0.3823992E+03  0.7957747E-01  0.3440778E+00
         13   -1    0    0    0    0  0.00000000000E+00  0.00000000000E+00  0.14999999963E+04  0.15000000000E+04  0.10566000000E+00 0. -1.
        994   -1    0    0    0    0 -0.00000000000E+00 -0.00000000000E+00  0.11368683772E-12  0.17120000000E+03  0.17120000000E+03 0.  0.
         13    1    1    2    0    0  0.13447116693E+02  0.50972385679E+01  0.34594573555E+02  0.37464682995E+02  0.10566000000E+00 0. -1.
        994    1    1    2    0    0 -0.79252579830E+01 -0.10124861842E+00  0.31353064371E+01  0.17141204774E+03  0.17120000000E+03 0.  0.
        998    1    1    2    0    0 -0.55218587102E+01 -0.49959899495E+01  0.14622701163E+04  0.14623232693E+04  0.10000000000E+02 0. -1.
</event>
<event>
 5    1  0.1072898E-008  0.3844491E+03  0.7957747E-01  0.3432012E+00
         13   -1    0    0    0    0  0.00000000000E+00  0.00000000000E+00  0.14999999963E+04  0.15000000000E+04  0.10566000000E+00 0. -1.
        994   -1    0    0    0    0 -0.00000000000E+00 -0.00000000000E+00  0.11368683772E-12  0.17120000000E+03  0.17120000000E+03 0.  0.
         13    1    1    2    0    0 -0.70393692468E+01  0.12891946657E+02  0.57066195303E+02  0.58926367768E+02  0.10566000000E+00 0. -1.
        994    1    1    2    0    0  0.37806151296E+01 -0.65368108304E+01  0.20917946024E+01  0.17137922439E+03  0.17120000000E+03 0.  0.
        998    1    1    2    0    0  0.32587541172E+01 -0.63551358263E+01  0.14408420064E+04  0.14408944078E+04  0.10000000000E+02 0. -1.
</event>
<event>
 5    1  0.1072898E-008  0.3811643E+03  0.7957747E-01  0.3446105E+00
         13   -1    0    0    0    0  0.00000000000E+00  0.00000000000E+00  0.14999999963E+04  0.15000000000E+04  0.10566000000E+00 0.  1.
        994   -1    0    0    0    0 -0.00000000000E+00 -0.00000000000E+00  0.11368683772E-12  0.17120000000E+03  0.17120000000E+03 0.  0.
         13    1    1    2    0    0 -0.17560603468E+02  0.26237963614E+02  0.15747500788E+03  0.16060882541E+03  0.10566000000E+00 0.  1.
        994    1    1    2    0    0 -0.24447166378E+01 -0.33740928898E+01  0.36043963583E+01  0.17128862430E+03  0.17120000000E+03 0.  0.
        998    1    1    2    0    0  0.20005320106E+02 -0.22863870724E+02  0.13389205920E+04  0.13393025503E+04  0.10000000000E+02 0.  1.
</event>
<event>
 5    1  0.1072898E-008  0.3838102E+03  0.7957747E-01  0.3434734E+00
         13   -1    0    0    0    0  0.00000000000E+00  0.00000000000E+00  0.14999999963E+04  0.15000000000E+04  0.10566000000E+00 0.  1.
        994   -1    0    0    0    0 -0.00000000000E+00 -0.00000000000E+00  0.11368683772E-12  0.17120000000E+03  0.17120000000E+03 0.  0.
         13    1    1    2    0    0  0.17253115391E+03  0.10757750252E+03  0.11735851059E+04  0.11910675590E+04  0.10566000000E+00 0.  1.
        994    1    1    2    0    0 -0.18876000482E+03 -0.95093792527E+02  0.16716301614E+03  0.31925864556E+03  0.17120000000E+03 0.  0.
        998    1    1    2    0    0  0.16228850905E+02 -0.12483709993E+02  0.15925187423E+03  0.16087379545E+03  0.10000000000E+02 0.  1.
</event>
<event>
 5    1  0.1072898E-008  0.3696929E+03  0.7957747E-01  0.3497304E+00
         13   -1    0    0    0    0  0.00000000000E+00  0.00000000000E+00  0.14999999963E+04  0.15000000000E+04  0.10566000000E+00 0. -1.
        994   -1    0    0    0    0 -0.00000000000E+00 -0.00000000000E+00  0.11368683772E-12  0.17120000000E+03  0.17120000000E+03 0.  0.
         13    1    1    2    0    0  0.43725397413E+02  0.11434498579E+02  0.11706894027E+03  0.12549026288E+03  0.10566000000E+00 0. -1.
        994    1    1    2    0    0 -0.21375759366E+01  0.44314981030E+01  0.95135129229E+01  0.17153470300E+03  0.17120000000E+03 0.  0.
        998    1    1    2    0    0 -0.41587821477E+02 -0.15865996682E+02  0.13734175431E+04  0.13741750341E+04  0.10000000000E+02 0. -1.
</event>
<event>
 5    1  0.1072898E-008  0.3788517E+03  0.7957747E-01  0.3456174E+00
         13   -1    0    0    0    0  0.00000000000E+00  0.00000000000E+00  0.14999999963E+04  0.15000000000E+04  0.10566000000E+00 0.  1.
        994   -1    0    0    0    0 -0.00000000000E+00 -0.00000000000E+00  0.11368683772E-12  0.17120000000E+03  0.17120000000E+03 0.  0.
         13    1    1    2    0    0 -0.70432104579E+02 -0.37284569723E+02  0.17044538908E+03  0.18815542064E+03  0.10566000000E+00 0.  1.
        994    1    1    2    0    0  0.73998296968E+02  0.43970359569E+02  0.42945602417E+02  0.19637440068E+03  0.17120000000E+03 0.  0.
        998    1    1    2    0    0 -0.35661923887E+01 -0.66857898461E+01  0.12866090048E+04  0.12866701787E+04  0.10000000000E+02 0.  1.
</event>
<event>
 5    1  0.1072898E-008  0.4444994E+03  0.7957747E-01  0.3210864E+00
         13   -1    0    0    0    0  0.00000000000E+00  0.00000000000E+00  0.14999999963E+04  0.15000000000E+04  0.10566000000E+00 0.  1.
        994   -1    0    0    0    0 -0.00000000000E+00 -0.00000000000E+00  0.11368683772E-12  0.17120000000E+03  0.17120000000E+03 0.  0.
         13    1    1    2    0    0 -0.12092370602E+03 -0.25723754110E+02  0.11685549091E+03  0.17011605192E+03  0.10566000000E+00 0.  1.
        994    1    1    2    0    0  0.96653424545E+02  0.31350655986E+02  0.10960349509E+03  0.22726001461E+03  0.17120000000E+03 0.  0.
        998    1    1    2    0    0  0.24270281473E+02 -0.56269018759E+01  0.12735410103E+04  0.12738239335E+04  0.10000000000E+02 0.  1.
</event>
<event>
 5    1  0.1072898E-008  0.3859450E+03  0.7957747E-01  0.3425674E+00
         13   -1    0    0    0    0  0.00000000000E+00  0.00000000000E+00  0.14999999963E+04  0.15000000000E+04  0.10566000000E+00 0.  1.
        994   -1    0    0    0    0 -0.00000000000E+00 -0.00000000000E+00  0.11368683772E-12  0.17120000000E+03  0.17120000000E+03 0.  0.
         13    1    1    2    0    0 -0.70448437867E+01  0.13073863286E+02  0.85981136591E+02  0.87254356560E+02  0.10566000000E+00 0.  1.
        994    1    1    2    0    0  0.93918655975E+01 -0.20668547361E+02  0.28532899125E+01  0.17272225465E+03  0.17120000000E+03 0.  0.
        998    1    1    2    0    0 -0.23470218107E+01  0.75946840741E+01  0.14111655698E+04  0.14112233888E+04  0.10000000000E+02 0.  1.
</event>
<event>
 5    1  0.1072898E-008  0.3826611E+03  0.7957747E-01  0.3439653E+00
         13   -1    0    0    0    0  0.00000000000E+00  0.00000000000E+00  0.14999999963E+04  0.15000000000E+04  0.10566000000E+00 0.  1.
        994   -1    0    0    0    0 -0.00000000000E+00 -0.00000000000E+00  0.11368683772E-12  0.17120000000E+03  0.17120000000E+03 0.  0.
         13    1    1    2    0    0 -0.21089613186E+02  0.77009108139E+00  0.77893093944E+02  0.80701363513E+02  0.10566000000E+00 0.  1.
        994    1    1    2    0    0  0.15335785700E+02 -0.52231410650E+01  0.36660926516E+01  0.17200391787E+03  0.17120000000E+03 0.  0.
        998    1    1    2    0    0  0.57538274857E+01  0.44530499837E+01  0.14184408097E+04  0.14184947186E+04  0.10000000000E+02 0.  1.
</event>
<event>
 5    1  0.1072898E-008  0.3835060E+03  0.7957747E-01  0.3436033E+00
         13   -1    0    0    0    0  0.00000000000E+00  0.00000000000E+00  0.14999999963E+04  0.15000000000E+04  0.10566000000E+00 0. -1.
        994   -1    0    0    0    0 -0.00000000000E+00 -0.00000000000E+00  0.11368683772E-12  0.17120000000E+03  0.17120000000E+03 0.  0.
         13    1    1    2    0    0  0.96317371123E+01 -0.17626827443E+02  0.74591426413E+02  0.77248737620E+02  0.10566000000E+00 0. -1.
        994    1    1    2    0    0 -0.26444836546E+02  0.25379001118E+02  0.68259667548E+01  0.17521260485E+03  0.17120000000E+03 0.  0.
        998    1    1    2    0    0  0.16813099434E+02 -0.77521736751E+01  0.14185826031E+04  0.14187386575E+04  0.10000000000E+02 0. -1.
</event>
<event>
 5    1  0.1072898E-008  0.3809755E+03  0.7957747E-01  0.3446922E+00
         13   -1    0    0    0    0  0.00000000000E+00  0.00000000000E+00  0.14999999963E+04  0.15000000000E+04  0.10566000000E+00 0.  1.
        994   -1    0    0    0    0 -0.00000000000E+00 -0.00000000000E+00  0.11368683772E-12  0.17120000000E+03  0.17120000000E+03 0.  0.
         13    1    1    2    0    0 -0.32230962072E+01  0.15963360170E+02  0.35485039835E+02  0.39043775857E+02  0.10566000000E+00 0.  1.
        994    1    1    2    0    0 -0.17599671308E+02 -0.11000384885E+02  0.50781788599E+01  0.17252821450E+03  0.17120000000E+03 0.  0.
        998    1    1    2    0    0  0.20822767516E+02 -0.49629752849E+01  0.14594367776E+04  0.14596280096E+04  0.10000000000E+02 0.  1.
</event>
<event>
 5    1  0.1072898E-008  0.3791192E+03  0.7957747E-01  0.3455003E+00
         13   -1    0    0    0    0  0.00000000000E+00  0.00000000000E+00  0.14999999963E+04  0.15000000000E+04  0.10566000000E+00 0.  1.
        994   -1    0    0    0    0 -0.00000000000E+00 -0.00000000000E+00  0.11368683772E-12  0.17120000000E+03  0.17120000000E+03 0.  0.
         13    1    1    2    0    0 -0.64207140572E+02 -0.25052492896E+02  0.17064739971E+03  0.18404002416E+03  0.10566000000E+00 0.  1.
        994    1    1    2    0    0  0.23183829546E+02 -0.50427113003E+02  0.27055338295E+02  0.18199399718E+03  0.17120000000E+03 0.  0.
        998    1    1    2    0    0  0.41023311026E+02  0.75479605898E+02  0.13022972583E+04  0.13051659787E+04  0.10000000000E+02 0.  1.
</event>
<event>
 5    1  0.1072898E-008  0.3755129E+03  0.7957747E-01  0.3470932E+00
         13   -1    0    0    0    0  0.00000000000E+00  0.00000000000E+00  0.14999999963E+04  0.15000000000E+04  0.10566000000E+00 0. -1.
        994   -1    0    0    0    0 -0.00000000000E+00 -0.00000000000E+00  0.11368683772E-12  0.17120000000E+03  0.17120000000E+03 0.  0.
         13    1    1    2    0    0 -0.56051319838E+00 -0.10285761187E+02  0.53052765583E+01  0.11587414795E+02  0.10566000000E+00 0. -1.
        994    1    1    2    0    0  0.84644942539E+00  0.79400366617E+01  0.66319954552E+01  0.17151438430E+03  0.17120000000E+03 0.  0.
        998    1    1    2    0    0 -0.28593622702E+00  0.23457245250E+01  0.14880627243E+04  0.14880982009E+04  0.10000000000E+02 0. -1.
</event>
<event>
 5    1  0.1072898E-008  0.3841130E+03  0.7957747E-01  0.3433443E+00
         13   -1    0    0    0    0  0.00000000000E+00  0.00000000000E+00  0.14999999963E+04  0.15000000000E+04  0.10566000000E+00 0. -1.
        994   -1    0    0    0    0 -0.00000000000E+00 -0.00000000000E+00  0.11368683772E-12  0.17120000000E+03  0.17120000000E+03 0.  0.
         13    1    1    2    0    0  0.26087184690E+02  0.15983778221E+02  0.17849628079E+02  0.35420936716E+02  0.10566000000E+00 0. -1.
        994    1    1    2    0    0 -0.12339553714E+02 -0.91177079936E+01  0.19471710398E+02  0.17298550428E+03  0.17120000000E+03 0.  0.
        998    1    1    2    0    0 -0.13747630976E+02 -0.68660702270E+01  0.14626786578E+04  0.14627935590E+04  0.10000000000E+02 0. -1.
</event>
<event>
 5    1  0.1072898E-008  0.3764437E+03  0.7957747E-01  0.3466791E+00
         13   -1    0    0    0    0  0.00000000000E+00  0.00000000000E+00  0.14999999963E+04  0.15000000000E+04  0.10566000000E+00 0. -1.
        994   -1    0    0    0    0 -0.00000000000E+00 -0.00000000000E+00  0.11368683772E-12  0.17120000000E+03  0.17120000000E+03 0.  0.
         13    1    1    2    0    0 -0.54001675453E+02  0.22346017677E+02  0.24330801624E+03  0.25022855031E+03  0.10566000000E+00 0. -1.
        994    1    1    2    0    0  0.48462299158E+02 -0.31799632432E+02  0.17390352952E+02  0.18158104372E+03  0.17120000000E+03 0.  0.
        998    1    1    2    0    0  0.55393762946E+01  0.94536147548E+01  0.12393016271E+04  0.12393904060E+04  0.10000000000E+02 0. -1.
</event>
<event>
 5    1  0.1589189E-008  0.3860451E+03  0.7957747E-01  0.3425252E+00
         13   -1    0    0    0    0  0.00000000000E+00  0.00000000000E+00  0.14999999963E+04  0.15000000000E+04  0.10566000000E+00 0.  1.
        994   -1    0    0    0    0 -0.00000000000E+00 -0.00000000000E+00  0.11368683772E-12  0.17120000000E+03  0.17120000000E+03 0.  0.
         13    1    1    2    0    0 -0.29128262133E+01  0.12124252830E+02  0.66498537333E+02  0.67657584162E+02  0.10566000000E+00 0.  1.
        994    1    1    2    0    0  0.73271526066E+01 -0.15188633536E+02  0.20447593121E+01  0.17204070098E+03  0.17120000000E+03 0.  0.
        998    1    1    2    0    0 -0.44143263933E+01  0.30643807063E+01  0.14314566996E+04  0.14315017149E+04  0.10000000000E+02 0.  1.
</event>
<event>
 5    1  0.1072898E-008  0.3848717E+03  0.7957747E-01  0.3430216E+00
         13   -1    0    0    0    0  0.00000000000E+00  0.00000000000E+00  0.14999999963E+04  0.15000000000E+04  0.10566000000E+00 0.  1.
        994   -1    0    0    0    0 -0.00000000000E+00 -0.00000000000E+00  0.11368683772E-12  0.17120000000E+03  0.17120000000E+03 0.  0.
         13    1    1    2    0    0  0.13063666979E+02  0.45532752052E+00  0.49392541350E+02  0.51093062377E+02  0.10566000000E+00 0.  1.
        994    1    1    2    0    0 -0.12454660747E+02  0.68430409213E+01  0.23585308285E+01  0.17180497214E+03  0.17120000000E+03 0.  0.
        998    1    1    2    0    0 -0.60900623277E+00 -0.72983684419E+01  0.14482489241E+04  0.14483019655E+04  0.10000000000E+02 0.  1.
</event>
<event>
 5    1  0.1072898E-008  0.3770118E+03  0.7957747E-01  0.3464274E+00
         13   -1    0    0    0    0  0.00000000000E+00  0.00000000000E+00  0.14999999963E+04  0.15000000000E+04  0.10566000000E+00 0.  1.
        994   -1    0    0    0    0 -0.00000000000E+00 -0.00000000000E+00  0.11368683772E-12  0.17120000000E+03  0.17120000000E+03 0.  0.
         13    1    1    2    0    0 -0.52853528577E+02  0.12174204456E+02  0.20766207728E+03  0.21462818137E+03  0.10566000000E+00 0.  1.
        994    1    1    2    0    0  0.62027697587E+02 -0.22987093649E+02  0.20568965774E+02  0.18468449880E+03  0.17120000000E+03 0.  0.
        998    1    1    2    0    0 -0.91741690100E+01  0.10812889193E+02  0.12717689532E+04  0.12718873198E+04  0.10000000000E+02 0.  1.
</event>
<event>
 5    1  0.1072898E-008  0.3761067E+03  0.7957747E-01  0.3468288E+00
         13   -1    0    0    0    0  0.00000000000E+00  0.00000000000E+00  0.14999999963E+04  0.15000000000E+04  0.10566000000E+00 0. -1.
        994   -1    0    0    0    0 -0.00000000000E+00 -0.00000000000E+00  0.11368683772E-12  0.17120000000E+03  0.17120000000E+03 0.  0.
         13    1    1    2    0    0  0.53445171670E+02 -0.14740658159E+02  0.26753056596E+03  0.27321472923E+03  0.10566000000E+00 0. -1.
        994    1    1    2    0    0 -0.24814076138E+02 -0.54876594373E+01  0.83017882581E+01  0.17327496204E+03  0.17120000000E+03 0.  0.
        998    1    1    2    0    0 -0.28631095532E+02  0.20228317597E+02  0.12241676421E+04  0.12247103087E+04  0.10000000000E+02 0. -1.
</event>
<event>
 5    1  0.1072898E-008  0.3852478E+03  0.7957747E-01  0.3428622E+00
         13   -1    0    0    0    0  0.00000000000E+00  0.00000000000E+00  0.14999999963E+04  0.15000000000E+04  0.10566000000E+00 0.  1.
        994   -1    0    0    0    0 -0.00000000000E+00 -0.00000000000E+00  0.11368683772E-12  0.17120000000E+03  0.17120000000E+03 0.  0.
         13    1    1    2    0    0 -0.85185246822E+01  0.11670563356E+02  0.68607348444E+02  0.70112386469E+02  0.10566000000E+00 0.  1.
        994    1    1    2    0    0  0.44743332110E+01 -0.10732022674E+02  0.19515321937E+01  0.17160549072E+03  0.17120000000E+03 0.  0.
        998    1    1    2    0    0  0.40441914712E+01 -0.93854068257E+00  0.14294411156E+04  0.14294821228E+04  0.10000000000E+02 0.  1.
</event>
<event>
 5    1  0.1072898E-008  0.3824897E+03  0.7957747E-01  0.3440389E+00
         13   -1    0    0    0    0  0.00000000000E+00  0.00000000000E+00  0.14999999963E+04  0.15000000000E+04  0.10566000000E+00 0.  1.
        994   -1    0    0    0    0 -0.00000000000E+00 -0.00000000000E+00  0.11368683772E-12  0.17120000000E+03  0.17120000000E+03 0.  0.
         13    1    1    2    0    0 -0.35908306297E+02  0.16693894697E+02  0.20696734580E+03  0.21072158402E+03  0.10566000000E+00 0.  1.
        994    1    1    2    0    0  0.42900140087E+02 -0.38951456345E+02  0.14095236344E+02  0.18128914380E+03  0.17120000000E+03 0.  0.
        998    1    1    2    0    0 -0.69918337901E+01  0.22257561648E+02  0.12789374141E+04  0.12791892722E+04  0.10000000000E+02 0.  1.
</event>
<event>
 5    1  0.1072898E-008  0.3736829E+03  0.7957747E-01  0.3479134E+00
         13   -1    0    0    0    0  0.00000000000E+00  0.00000000000E+00  0.14999999963E+04  0.15000000000E+04  0.10566000000E+00 0. -1.
        994   -1    0    0    0    0 -0.00000000000E+00 -0.00000000000E+00  0.11368683772E-12  0.17120000000E+03  0.17120000000E+03 0.  0.
         13    1    1    2    0    0  0.10415706743E+02  0.48362857858E+02  0.21637585424E+03  0.22195939816E+03  0.10566000000E+00 0. -1.
        994    1    1    2    0    0 -0.36997790588E+01  0.16751940360E+02  0.83621582628E+01  0.17226050494E+03  0.17120000000E+03 0.  0.
        998    1    1    2    0    0 -0.67159276847E+01 -0.65114798218E+02  0.12752619838E+04  0.12769800969E+04  0.10000000000E+02 0. -1.
</event>
<event>
 5    1  0.1072898E-008  0.3823265E+03  0.7957747E-01  0.3441091E+00
         13   -1    0    0    0    0  0.00000000000E+00  0.00000000000E+00  0.14999999963E+04  0.15000000000E+04  0.10566000000E+00 0.  1.
        994   -1    0    0    0    0 -0.00000000000E+00 -0.00000000000E+00  0.11368683772E-12  0.17120000000E+03  0.17120000000E+03 0.  0.
         13    1    1    2    0    0 -0.23535803610E+00 -0.25721611564E+02  0.11695946017E+03  0.11975467917E+03  0.10566000000E+00 0.  1.
        994    1    1    2    0    0 -0.29833030912E+01  0.72633033377E+01  0.31679023019E+01  0.17140925085E+03  0.17120000000E+03 0.  0.
        998    1    1    2    0    0  0.32186611274E+01  0.18458308226E+02  0.13798726338E+04  0.13800360700E+04  0.10000000000E+02 0.  1.
</event>
<event>
 5    1  0.1072898E-008  0.3917443E+03  0.7957747E-01  0.3401563E+00
         13   -1    0    0    0    0  0.00000000000E+00  0.00000000000E+00  0.14999999963E+04  0.15000000000E+04  0.10566000000E+00 0. -1.
        994   -1    0    0    0    0 -0.00000000000E+00 -0.00000000000E+00  0.11368683772E-12  0.17120000000E+03  0.17120000000E+03 0.  0.
         13    1    1    2    0    0 -0.33673364534E+02 -0.34514485628E+01  0.14450735610E+02  0.36805473776E+02  0.10566000000E+00 0. -1.
        994    1    1    2    0    0  0.54356969420E+02 -0.10965262708E+02  0.34675016217E+02  0.18326678330E+03  0.17120000000E+03 0.  0.
        998    1    1    2    0    0 -0.20683604886E+02  0.14416711271E+02  0.14508742445E+04  0.14511277429E+04  0.10000000000E+02 0. -1.
</event>
<event>
 5    1  0.1072898E-008  0.3792436E+03  0.7957747E-01  0.3454459E+00
         13   -1    0    0    0    0  0.00000000000E+00  0.00000000000E+00  0.14999999963E+04  0.15000000000E+04  0.10566000000E+00 0. -1.
        994   -1    0    0    0    0 -0.00000000000E+00 -0.00000000000E+00  0.11368683772E-12  0.17120000000E+03  0.17120000000E+03 0.  0.
         13    1    1    2    0    0 -0.23132880143E+02 -0.74966861517E+01  0.61715768440E+02  0.66333835145E+02  0.10566000000E+00 0. -1.
        994    1    1    2    0    0  0.21936291689E+02  0.99944603881E+01  0.64652859276E+01  0.17300962416E+03  0.17120000000E+03 0.  0.
        998    1    1    2    0    0  0.11965884540E+01 -0.24977742364E+01  0.14318189419E+04  0.14318565407E+04  0.10000000000E+02 0. -1.
</event>
<event>
 5    1  0.1072898E-008  0.3807914E+03  0.7957747E-01  0.3447720E+00
         13   -1    0    0    0    0  0.00000000000E+00  0.00000000000E+00  0.14999999963E+04  0.15000000000E+04  0.10566000000E+00 0.  1.
        994   -1    0    0    0    0 -0.00000000000E+00 -0.00000000000E+00  0.11368683772E-12  0.17120000000E+03  0.17120000000E+03 0.  0.
         13    1    1    2    0    0  0.16817706273E+02  0.17763717928E+02  0.77628793797E+02  0.81391803698E+02  0.10566000000E+00 0.  1.
        994    1    1    2    0    0 -0.15288488599E+02 -0.11040250918E+02  0.49208239730E+01  0.17230577336E+03  0.17120000000E+03 0.  0.
        998    1    1    2    0    0 -0.15292176741E+01 -0.67234670103E+01  0.14174503785E+04  0.14175024229E+04  0.10000000000E+02 0.  1.
</event>
<event>
 5    1  0.1072898E-008  0.3684342E+03  0.7957747E-01  0.3503118E+00
         13   -1    0    0    0    0  0.00000000000E+00  0.00000000000E+00  0.14999999963E+04  0.15000000000E+04  0.10566000000E+00 0. -1.
        994   -1    0    0    0    0 -0.00000000000E+00 -0.00000000000E+00  0.11368683772E-12  0.17120000000E+03  0.17120000000E+03 0.  0.
         13    1    1    2    0    0 -0.19870203021E+02 -0.10644491971E+03  0.64935381778E+03  0.65832039140E+03  0.10566000000E+00 0. -1.
        994    1    1    2    0    0  0.32405960094E+02  0.49545898151E+02  0.22400748746E+02  0.18252719200E+03  0.17120000000E+03 0.  0.
        998    1    1    2    0    0 -0.12535757073E+02  0.56899021558E+02  0.82824542975E+03  0.83035241661E+03  0.10000000000E+02 0. -1.
</event>
<event>
 5    1  0.1072898E-008  0.3834670E+03  0.7957747E-01  0.3436200E+00
         13   -1    0    0    0    0  0.00000000000E+00  0.00000000000E+00  0.14999999963E+04  0.15000000000E+04  0.10566000000E+00 0.  1.
        994   -1    0    0    0    0 -0.00000000000E+00 -0.00000000000E+00  0.11368683772E-12  0.17120000000E+03  0.17120000000E+03 0.  0.
         13    1    1    2    0    0 -0.97171656921E+01 -0.91125865436E+01  0.39352749371E+02  0.41546511162E+02  0.10566000000E+00 0.  1.
        994    1    1    2    0    0 -0.82493984405E+01 -0.51431205022E+01  0.27055625532E+01  0.17149712631E+03  0.17120000000E+03 0.  0.
        998    1    1    2    0    0  0.17966564133E+02  0.14255707046E+02  0.14579416844E+04  0.14581563625E+04  0.10000000000E+02 0.  1.
</event>
<event>
 5    1  0.1072898E-008  0.3829955E+03  0.7957747E-01  0.3438218E+00
         13   -1    0    0    0    0  0.00000000000E+00  0.00000000000E+00  0.14999999963E+04  0.15000000000E+04  0.10566000000E+00 0.  1.
        994   -1    0    0    0    0 -0.00000000000E+00 -0.00000000000E+00  0.11368683772E-12  0.17120000000E+03  0.17120000000E+03 0.  0.
         13    1    1    2    0    0 -0.10928299228E+02 -0.27336315011E+02  0.14910950365E+03  0.15198801626E+03  0.10566000000E+00 0.  1.
        994    1    1    2    0    0  0.88022442416E+01  0.28886207949E+02  0.56529745497E+01  0.17393472521E+03  0.17120000000E+03 0.  0.
        998    1    1    2    0    0  0.21260549866E+01 -0.15498929385E+01  0.13452375181E+04  0.13452772585E+04  0.10000000000E+02 0.  1.
</event>
<event>
 5    1  0.1072898E-008  0.3843797E+03  0.7957747E-01  0.3432307E+00
         13   -1    0    0    0    0  0.00000000000E+00  0.00000000000E+00  0.14999999963E+04  0.15000000000E+04  0.10566000000E+00 0.  1.
        994   -1    0    0    0    0 -0.00000000000E+00 -0.00000000000E+00  0.11368683772E-12  0.17120000000E+03  0.17120000000E+03 0.  0.
         13    1    1    2    0    0  0.98896171746E+01  0.51605775086E+01  0.30835069168E+02  0.32790985692E+02  0.10566000000E+00 0.  1.
        994    1    1    2    0    0 -0.12886432452E+02 -0.53197603713E+01  0.25791400977E+01  0.17178606450E+03  0.17120000000E+03 0.  0.
        998    1    1    2    0    0  0.29968152777E+01  0.15918286272E+00  0.14665857870E+04  0.14666229498E+04  0.10000000000E+02 0.  1.
</event>
<event>
 5    1  0.1072898E-008  0.3790824E+03  0.7957747E-01  0.3455164E+00
         13   -1    0    0    0    0  0.00000000000E+00  0.00000000000E+00  0.14999999963E+04  0.15000000000E+04  0.10566000000E+00 0.  1.
        994   -1    0    0    0    0 -0.00000000000E+00 -0.00000000000E+00  0.11368683772E-12  0.17120000000E+03  0.17120000000E+03 0.  0.
         13    1    1    2    0    0 -0.15217770113E+02 -0.49168216694E+02  0.23147186066E+03  0.23712513047E+03  0.10566000000E+00 0.  1.
        994    1    1    2    0    0  0.15995534370E+02  0.56086446897E+02  0.16088486948E+02  0.18157595121E+03  0.17120000000E+03 0.  0.
        998    1    1    2    0    0 -0.77776425705E+00 -0.69182302024E+01  0.12524396487E+04  0.12524989183E+04  0.10000000000E+02 0.  1.
</event>
<event>
 5    1  0.1164595E-008  0.3861246E+03  0.7957747E-01  0.3424917E+00
         13   -1    0    0    0    0  0.00000000000E+00  0.00000000000E+00  0.14999999963E+04  0.15000000000E+04  0.10566000000E+00 0.  1.
        994   -1    0    0    0    0 -0.00000000000E+00 -0.00000000000E+00  0.11368683772E-12  0.17120000000E+03  0.17120000000E+03 0.  0.
         13    1    1    2    0    0  0.88659577358E+01 -0.91497916762E+01  0.76416285838E+02  0.77471180446E+02  0.10566000000E+00 0.  1.
        994    1    1    2    0    0 -0.69433513913E+01  0.55360054626E+01  0.13312587133E+01  0.17143532231E+03  0.17120000000E+03 0.  0.
        998    1    1    2    0    0 -0.19226063445E+01  0.36137862136E+01  0.14222524517E+04  0.14222934972E+04  0.10000000000E+02 0.  1.
</event>
<event>
 5    1  0.1072898E-008  0.3747579E+03  0.7957747E-01  0.3474306E+00
         13   -1    0    0    0    0  0.00000000000E+00  0.00000000000E+00  0.14999999963E+04  0.15000000000E+04  0.10566000000E+00 0.  1.
        994   -1    0    0    0    0 -0.00000000000E+00 -0.00000000000E+00  0.11368683772E-12  0.17120000000E+03  0.17120000000E+03 0.  0.
         13    1    1    2    0    0  0.10838138891E+02 -0.22404467683E+01  0.58308224914E+01  0.12509776629E+02  0.10566000000E+00 0.  1.
        994    1    1    2    0    0 -0.10726686151E+02  0.39717063521E+01  0.72483091224E+01  0.17173472052E+03  0.17120000000E+03 0.  0.
        998    1    1    2    0    0 -0.11145274036E+00 -0.17312595838E+01  0.14869208647E+04  0.14869555029E+04  0.10000000000E+02 0.  1.
</event>
<event>
 5    1  0.1072898E-008  0.3846912E+03  0.7957747E-01  0.3430983E+00
         13   -1    0    0    0    0  0.00000000000E+00  0.00000000000E+00  0.14999999963E+04  0.15000000000E+04  0.10566000000E+00 0.  1.
        994   -1    0    0    0    0 -0.00000000000E+00 -0.00000000000E+00  0.11368683772E-12  0.17120000000E+03  0.17120000000E+03 0.  0.
         13    1    1    2    0    0  0.72819031946E+01  0.19194484963E+02  0.11398939815E+03  0.11582335008E+03  0.10566000000E+00 0.  1.
        994    1    1    2    0    0 -0.84279098468E+01 -0.15213263427E+02  0.27798745793E+01  0.17210357565E+03  0.17120000000E+03 0.  0.
        998    1    1    2    0    0  0.11460066521E+01 -0.39812215356E+01  0.13832307235E+04  0.13832730743E+04  0.10000000000E+02 0.  1.
</event>
<event>
 5    1  0.1072898E-008  0.3696028E+03  0.7957747E-01  0.3497718E+00
         13   -1    0    0    0    0  0.00000000000E+00  0.00000000000E+00  0.14999999963E+04  0.15000000000E+04  0.10566000000E+00 0.  1.
        994   -1    0    0    0    0 -0.00000000000E+00 -0.00000000000E+00  0.11368683772E-12  0.17120000000E+03  0.17120000000E+03 0.  0.
         13    1    1    2    0    0  0.17336107121E+02  0.60237847399E+02  0.18227331880E+03  0.19275038983E+03  0.10566000000E+00 0.  1.
        994    1    1    2    0    0 -0.14661384512E+02 -0.58585970646E+02  0.22213274635E+02  0.18289379903E+03  0.17120000000E+03 0.  0.
        998    1    1    2    0    0 -0.26747226091E+01 -0.16518767529E+01  0.12955134028E+04  0.12955558111E+04  0.10000000000E+02 0.  0.
</event>
<event>
 5    1  0.1072898E-008  0.3842240E+03  0.7957747E-01  0.3432970E+00
         13   -1    0    0    0    0  0.00000000000E+00  0.00000000000E+00  0.14999999963E+04  0.15000000000E+04  0.10566000000E+00 0. -1.
        994   -1    0    0    0    0 -0.00000000000E+00 -0.00000000000E+00  0.11368683772E-12  0.17120000000E+03  0.17120000000E+03 0.  0.
         13    1    1    2    0    0 -0.12625145187E+02  0.41965093899E+00  0.40125716543E+02  0.42067263876E+02  0.10566000000E+00 0. -1.
        994    1    1    2    0    0  0.32378125640E+01  0.46978876642E+01  0.21232562711E+01  0.17130820703E+03  0.17120000000E+03 0.  0.
        998    1    1    2    0    0  0.93873326229E+01 -0.51175386032E+01  0.14577510235E+04  0.14578245291E+04  0.10000000000E+02 0. -1.
</event>
<event>
 5    1  0.1072898E-008  0.3840575E+03  0.7957747E-01  0.3433679E+00
         13   -1    0    0    0    0  0.00000000000E+00  0.00000000000E+00  0.14999999963E+04  0.15000000000E+04  0.10566000000E+00 0. -1.
        994   -1    0    0    0    0 -0.00000000000E+00 -0.00000000000E+00  0.11368683772E-12  0.17120000000E+03  0.17120000000E+03 0.  0.
         13    1    1    2    0    0  0.49857996672E+00  0.13536053522E+02  0.38327795865E+02  0.40651007698E+02  0.10566000000E+00 0. -1.
        994    1    1    2    0    0 -0.11300375127E+02 -0.36285958767E+02  0.68780049155E+01  0.17550246788E+03  0.17120000000E+03 0.  0.
        998    1    1    2    0    0  0.10801795160E+02  0.22749905245E+02  0.14547941955E+04  0.14550465244E+04  0.10000000000E+02 0. -1.
</event>
<event>
 5    1  0.1072898E-008  0.3797866E+03  0.7957747E-01  0.3452088E+00
         13   -1    0    0    0    0  0.00000000000E+00  0.00000000000E+00  0.14999999963E+04  0.15000000000E+04  0.10566000000E+00 0. -1.
        994   -1    0    0    0    0 -0.00000000000E+00 -0.00000000000E+00  0.11368683772E-12  0.17120000000E+03  0.17120000000E+03 0.  0.
         13    1    1    2    0    0  0.18563784536E+02  0.11780034302E+02  0.53506233875E+02  0.57847312228E+02  0.10566000000E+00 0. -1.
        994    1    1    2    0    0 -0.14831105822E+02 -0.20369811964E+02  0.63676692597E+01  0.17316142224E+03  0.17120000000E+03 0.  0.
        998    1    1    2    0    0 -0.37326787137E+01  0.85897776617E+01  0.14401260931E+04  0.14401912655E+04  0.10000000000E+02 0. -1.
</event>
<event>
 5    1  0.1072898E-008  0.3823746E+03  0.7957747E-01  0.3440884E+00
         13   -1    0    0    0    0  0.00000000000E+00  0.00000000000E+00  0.14999999963E+04  0.15000000000E+04  0.10566000000E+00 0.  1.
        994   -1    0    0    0    0 -0.00000000000E+00 -0.00000000000E+00  0.11368683772E-12  0.17120000000E+03  0.17120000000E+03 0.  0.
         13    1    1    2    0    0  0.10003616016E+02 -0.60813320058E+01  0.22340540311E+02  0.25222328159E+02  0.10566000000E+00 0.  1.
        994    1    1    2    0    0 -0.82698021590E+01 -0.19410742451E+01  0.31786168650E+01  0.17144007992E+03  0.17120000000E+03 0.  0.
        998    1    1    2    0    0 -0.17338138573E+01  0.80224062508E+01  0.14744808391E+04  0.14745375919E+04  0.10000000000E+02 0.  1.
</event>
<event>
 5    1  0.1072898E-008  0.3845591E+03  0.7957747E-01  0.3431544E+00
         13   -1    0    0    0    0  0.00000000000E+00  0.00000000000E+00  0.14999999963E+04  0.15000000000E+04  0.10566000000E+00 0.  1.
        994   -1    0    0    0    0 -0.00000000000E+00 -0.00000000000E+00  0.11368683772E-12  0.17120000000E+03  0.17120000000E+03 0.  0.
         13    1    1    2    0    0  0.67136752000E+01  0.13668061504E+02  0.61276002643E+02  0.63139916090E+02  0.10566000000E+00 0.  1.
        994    1    1    2    0    0  0.20551753673E+02 -0.26056792678E+02  0.54847134122E+01  0.17447307272E+03  0.17120000000E+03 0.  0.
        998    1    1    2    0    0 -0.27265428873E+02  0.12388731175E+02  0.14332392802E+04  0.14335870112E+04  0.10000000000E+02 0.  1.
</event>
<event>
 5    1  0.1072898E-008  0.3790223E+03  0.7957747E-01  0.3455427E+00
         13   -1    0    0    0    0  0.00000000000E+00  0.00000000000E+00  0.14999999963E+04  0.15000000000E+04  0.10566000000E+00 0. -1.
        994   -1    0    0    0    0 -0.00000000000E+00 -0.00000000000E+00  0.11368683772E-12  0.17120000000E+03  0.17120000000E+03 0.  0.
         13    1    1    2    0    0  0.25317049015E+02 -0.10771086525E+02  0.86546135871E+02  0.90814173310E+02  0.10566000000E+00 0. -1.
        994    1    1    2    0    0 -0.17401298328E+01 -0.31333962981E+01  0.46705971395E+01  0.17130119878E+03  0.17120000000E+03 0.  0.
        998    1    1    2    0    0 -0.23576919182E+02  0.13904482823E+02  0.14087832633E+04  0.14090846279E+04  0.10000000000E+02 0. -1.
</event>
<event>
 5    1  0.1072898E-008  0.3857207E+03  0.7957747E-01  0.3426621E+00
         13   -1    0    0    0    0  0.00000000000E+00  0.00000000000E+00  0.14999999963E+04  0.15000000000E+04  0.10566000000E+00 0.  1.
        994   -1    0    0    0    0 -0.00000000000E+00 -0.00000000000E+00  0.11368683772E-12  0.17120000000E+03  0.17120000000E+03 0.  0.
         13    1    1    2    0    0 -0.28595047598E+01  0.12836656792E+02  0.66852194636E+02  0.68133571877E+02  0.10566000000E+00 0.  1.
        994    1    1    2    0    0 -0.12867571419E+01 -0.12646877549E+02  0.18031036971E+01  0.17168078063E+03  0.17120000000E+03 0.  0.
        998    1    1    2    0    0  0.41462619017E+01 -0.18977924208E+00  0.14313446979E+04  0.14313856475E+04  0.10000000000E+02 0.  1.
</event>
<event>
 5    1  0.1072898E-008  0.3836991E+03  0.7957747E-01  0.3435208E+00
         13   -1    0    0    0    0  0.00000000000E+00  0.00000000000E+00  0.14999999963E+04  0.15000000000E+04  0.10566000000E+00 0.  1.
        994   -1    0    0    0    0 -0.00000000000E+00 -0.00000000000E+00  0.11368683772E-12  0.17120000000E+03  0.17120000000E+03 0.  0.
         13    1    1    2    0    0 -0.24202554074E+02 -0.10419979103E+02  0.15882871617E+03  0.16099972618E+03  0.10566000000E+00 0.  1.
        994    1    1    2    0    0  0.48213392790E+01  0.16545281487E+02  0.32588187673E+01  0.17209605327E+03  0.17120000000E+03 0.  0.
        998    1    1    2    0    0  0.19381214795E+02 -0.61253023841E+01  0.13379124613E+04  0.13381042205E+04  0.10000000000E+02 0.  1.
</event>
<event>
 5    1  0.1072898E-008  0.3846399E+03  0.7957747E-01  0.3431201E+00
         13   -1    0    0    0    0  0.00000000000E+00  0.00000000000E+00  0.14999999963E+04  0.15000000000E+04  0.10566000000E+00 0. -1.
        994   -1    0    0    0    0 -0.00000000000E+00 -0.00000000000E+00  0.11368683772E-12  0.17120000000E+03  0.17120000000E+03 0.  0.
         13    1    1    2    0    0  0.10554126409E+02 -0.80199847139E+01  0.48645142709E+02  0.50418952908E+02  0.10566000000E+00 0. -1.
        994    1    1    2    0    0 -0.80412499856E+01  0.20599096352E+01  0.20359522431E+01  0.17141321428E+03  0.17120000000E+03 0.  0.
        998    1    1    2    0    0 -0.25128764237E+01  0.59600750787E+01  0.14493189013E+04  0.14493678328E+04  0.10000000000E+02 0. -1.
</event>
<event>
 5    1  0.1072898E-008  0.3796587E+03  0.7957747E-01  0.3452646E+00
         13   -1    0    0    0    0  0.00000000000E+00  0.00000000000E+00  0.14999999963E+04  0.15000000000E+04  0.10566000000E+00 0. -1.
        994   -1    0    0    0    0 -0.00000000000E+00 -0.00000000000E+00  0.11368683772E-12  0.17120000000E+03  0.17120000000E+03 0.  0.
         13    1    1    2    0    0 -0.65756888928E+01  0.21046846100E+02  0.50532675275E+02  0.55134125999E+02  0.10566000000E+00 0. -1.
        994    1    1    2    0    0  0.13024235655E+02 -0.34111502787E+02  0.87803514500E+01  0.17527053349E+03  0.17120000000E+03 0.  0.
        998    1    1    2    0    0 -0.64485467626E+01  0.13064656687E+02  0.14406869696E+04  0.14407953405E+04  0.10000000000E+02 0. -1.
</event>
<event>
 5    1  0.1072898E-008  0.3803371E+03  0.7957747E-01  0.3449692E+00
         13   -1    0    0    0    0  0.00000000000E+00  0.00000000000E+00  0.14999999963E+04  0.15000000000E+04  0.10566000000E+00 0.  1.
        994   -1    0    0    0    0 -0.00000000000E+00 -0.00000000000E+00  0.11368683772E-12  0.17120000000E+03  0.17120000000E+03 0.  0.
         13    1    1    2    0    0  0.53105944528E+02 -0.34049692574E+02  0.35038165086E+03  0.35601535828E+03  0.10566000000E+00 0.  1.
        994    1    1    2    0    0 -0.58469654227E+02  0.42374905422E+02  0.21575728170E+02  0.18705423043E+03  0.17120000000E+03 0.  0.
        998    1    1    2    0    0  0.53637096992E+01 -0.83252128482E+01  0.11280426172E+04  0.11281304113E+04  0.10000000000E+02 0.  1.
</event>
<event>
 5    1  0.1072898E-008  0.3837369E+03  0.7957747E-01  0.3435047E+00
         13   -1    0    0    0    0  0.00000000000E+00  0.00000000000E+00  0.14999999963E+04  0.15000000000E+04  0.10566000000E+00 0.  1.
        994   -1    0    0    0    0 -0.00000000000E+00 -0.00000000000E+00  0.11368683772E-12  0.17120000000E+03  0.17120000000E+03 0.  0.
         13    1    1    2    0    0  0.14359370729E+02  0.15256658415E+02  0.91427385291E+02  0.93797308591E+02  0.10566000000E+00 0.  1.
        994    1    1    2    0    0 -0.37453712121E+02  0.37235865934E+01  0.69506504807E+01  0.17542632981E+03  0.17120000000E+03 0.  0.
        998    1    1    2    0    0  0.23094341391E+02 -0.18980245009E+02  0.14016219605E+04  0.14019763616E+04  0.10000000000E+02 0.  1.
</event>
<event>
 5    1  0.1072898E-008  0.3775043E+03  0.7957747E-01  0.3462098E+00
         13   -1    0    0    0    0  0.00000000000E+00  0.00000000000E+00  0.14999999963E+04  0.15000000000E+04  0.10566000000E+00 0. -1.
        994   -1    0    0    0    0 -0.00000000000E+00 -0.00000000000E+00  0.11368683772E-12  0.17120000000E+03  0.17120000000E+03 0.  0.
         13    1    1    2    0    0 -0.92943537352E+01 -0.16115216386E+02  0.28169673516E+02  0.33758360158E+02  0.10566000000E+00 0. -1.
        994    1    1    2    0    0  0.22641536982E+02  0.25330895477E+02  0.92989709814E+01  0.17478616743E+03  0.17120000000E+03 0.  0.
        998    1    1    2    0    0 -0.13347183247E+02 -0.92156790913E+01  0.14625313518E+04  0.14626554724E+04  0.10000000000E+02 0. -1.
</event>
<event>
 5    1  0.1072898E-008  0.3836676E+03  0.7957747E-01  0.3435343E+00
         13   -1    0    0    0    0  0.00000000000E+00  0.00000000000E+00  0.14999999963E+04  0.15000000000E+04  0.10566000000E+00 0.  1.
        994   -1    0    0    0    0 -0.00000000000E+00 -0.00000000000E+00  0.11368683772E-12  0.17120000000E+03  0.17120000000E+03 0.  0.
         13    1    1    2    0    0  0.14133744596E+02 -0.50076351988E-01  0.42610344595E+02  0.44893405690E+02  0.10566000000E+00 0.  1.
        994    1    1    2    0    0 -0.11266085532E+02  0.12864921785E+02  0.32595496315E+01  0.17208281599E+03  0.17120000000E+03 0.  0.
        998    1    1    2    0    0 -0.28676590633E+01 -0.12814845433E+02  0.14541301021E+04  0.14542237783E+04  0.10000000000E+02 0.  1.
</event>
<event>
 5    1  0.1072898E-008  0.3776882E+03  0.7957747E-01  0.3461287E+00
         13   -1    0    0    0    0  0.00000000000E+00  0.00000000000E+00  0.14999999963E+04  0.15000000000E+04  0.10566000000E+00 0. -1.
        994   -1    0    0    0    0 -0.00000000000E+00 -0.00000000000E+00  0.11368683772E-12  0.17120000000E+03  0.17120000000E+03 0.  0.
         13    1    1    2    0    0  0.40246207912E+02  0.45292146889E+02  0.31953610439E+03  0.32522987100E+03  0.10566000000E+00 0. -1.
        994    1    1    2    0    0 -0.35090330810E+02 -0.26684499318E+02  0.11879447168E+02  0.17718339393E+03  0.17120000000E+03 0.  0.
        998    1    1    2    0    0 -0.51558771028E+01 -0.18607647571E+02  0.11685844447E+04  0.11687867351E+04  0.10000000000E+02 0. -1.
</event>
<event>
 5    1  0.1072898E-008  0.3781080E+03  0.7957747E-01  0.3459438E+00
         13   -1    0    0    0    0  0.00000000000E+00  0.00000000000E+00  0.14999999963E+04  0.15000000000E+04  0.10566000000E+00 0. -1.
        994   -1    0    0    0    0 -0.00000000000E+00 -0.00000000000E+00  0.11368683772E-12  0.17120000000E+03  0.17120000000E+03 0.  0.
         13    1    1    2    0    0 -0.27935789131E+02 -0.88235883521E+02  0.46011514994E+03  0.46933137741E+03  0.10566000000E+00 0. -1.
        994    1    1    2    0    0  0.43448663306E+02  0.10384154137E+03  0.48973458520E+02  0.21066250662E+03  0.17120000000E+03 0.  0.
        998    1    1    2    0    0 -0.15512874174E+02 -0.15605657845E+02  0.99091138782E+03  0.99120611597E+03  0.10000000000E+02 0. -1.
</event>
<event>
 5    1  0.1072898E-008  0.3918174E+03  0.7957747E-01  0.3401263E+00
         13   -1    0    0    0    0  0.00000000000E+00  0.00000000000E+00  0.14999999963E+04  0.15000000000E+04  0.10566000000E+00 0.  1.
        994   -1    0    0    0    0 -0.00000000000E+00 -0.00000000000E+00  0.11368683772E-12  0.17120000000E+03  0.17120000000E+03 0.  0.
         13    1    1    2    0    0 -0.16554388701E+02 -0.92841955882E+02  0.17841706857E+03  0.20180767597E+03  0.10566000000E+00 0.  1.
        994    1    1    2    0    0 -0.64467962817E+01  0.76159784272E+02  0.45467255587E+02  0.19292118923E+03  0.17120000000E+03 0.  0.
        998    1    1    2    0    0  0.23001184983E+02  0.16682171611E+02  0.12761156721E+04  0.12764711348E+04  0.10000000000E+02 0.  1.
</event>
<event>
 5    1  0.1072898E-008  0.3796084E+03  0.7957747E-01  0.3452865E+00
         13   -1    0    0    0    0  0.00000000000E+00  0.00000000000E+00  0.14999999963E+04  0.15000000000E+04  0.10566000000E+00 0.  1.
        994   -1    0    0    0    0 -0.00000000000E+00 -0.00000000000E+00  0.11368683772E-12  0.17120000000E+03  0.17120000000E+03 0.  0.
         13    1    1    2    0    0 -0.49170739454E+02  0.25031177465E+01  0.25957163686E+03  0.26419968403E+03  0.10566000000E+00 0.  1.
        994    1    1    2    0    0  0.38639862538E+02  0.21809284499E+02  0.10948970185E+02  0.17719481882E+03  0.17120000000E+03 0.  0.
        998    1    1    2    0    0  0.10530876916E+02 -0.24312402246E+02  0.12294793892E+04  0.12298054972E+04  0.10000000000E+02 0.  1.
</event>
<event>
 5    1  0.1072898E-008  0.3824071E+03  0.7957747E-01  0.3440744E+00
         13   -1    0    0    0    0  0.00000000000E+00  0.00000000000E+00  0.14999999963E+04  0.15000000000E+04  0.10566000000E+00 0. -1.
        994   -1    0    0    0    0 -0.00000000000E+00 -0.00000000000E+00  0.11368683772E-12  0.17120000000E+03  0.17120000000E+03 0.  0.
         13    1    1    2    0    0  0.19324018363E+02 -0.74996033571E+00  0.63380430822E+02  0.66265151486E+02  0.10566000000E+00 0. -1.
        994    1    1    2    0    0 -0.11270820800E+02  0.24545271124E+01  0.33643781052E+01  0.17162113840E+03  0.17120000000E+03 0.  0.
        998    1    1    2    0    0 -0.80531975632E+01 -0.17045667767E+01  0.14332551874E+04  0.14333137101E+04  0.10000000000E+02 0. -1.
</event>
<event>
 5    1  0.1072898E-008  0.3852235E+03  0.7957747E-01  0.3428725E+00
         13   -1    0    0    0    0  0.00000000000E+00  0.00000000000E+00  0.14999999963E+04  0.15000000000E+04  0.10566000000E+00 0.  1.
        994   -1    0    0    0    0 -0.00000000000E+00 -0.00000000000E+00  0.11368683772E-12  0.17120000000E+03  0.17120000000E+03 0.  0.
         13    1    1    2    0    0  0.40812264762E+01  0.13385756195E+02  0.73159284884E+02  0.74485750364E+02  0.10566000000E+00 0.  1.
        994    1    1    2    0    0 -0.17601227795E+00  0.86965034970E+01  0.17679149400E+01  0.17142994393E+03  0.17120000000E+03 0.  0.
        998    1    1    2    0    0 -0.39052141983E+01 -0.22082259692E+02  0.14250727965E+04  0.14252843057E+04  0.10000000000E+02 0.  1.
</event>
<event>
 5    1  0.1072898E-008  0.3710887E+03  0.7957747E-01  0.3490902E+00
         13   -1    0    0    0    0  0.00000000000E+00  0.00000000000E+00  0.14999999963E+04  0.15000000000E+04  0.10566000000E+00 0. -1.
        994   -1    0    0    0    0 -0.00000000000E+00 -0.00000000000E+00  0.11368683772E-12  0.17120000000E+03  0.17120000000E+03 0.  0.
         13    1    1    2    0    0 -0.23325601802E+02  0.14435301922E+02  0.38651373628E+02  0.47396218080E+02  0.10566000000E+00 0. -1.
        994    1    1    2    0    0  0.21724379388E+02 -0.20237132636E+02  0.11743607035E+02  0.17415178007E+03  0.17120000000E+03 0.  0.
        998    1    1    2    0    0  0.16012224141E+01  0.58018307144E+01  0.14496050156E+04  0.14496520018E+04  0.10000000000E+02 0. -1.
</event>
<event>
 5    1  0.1072898E-008  0.3829565E+03  0.7957747E-01  0.3438385E+00
         13   -1    0    0    0    0  0.00000000000E+00  0.00000000000E+00  0.14999999963E+04  0.15000000000E+04  0.10566000000E+00 0.  1.
        994   -1    0    0    0    0 -0.00000000000E+00 -0.00000000000E+00  0.11368683772E-12  0.17120000000E+03  0.17120000000E+03 0.  0.
         13    1    1    2    0    0 -0.15124135996E+02 -0.20372530285E+01  0.42052062603E+02  0.44735634819E+02  0.10566000000E+00 0.  1.
        994    1    1    2    0    0  0.15336418832E+02  0.87663539455E+01  0.36818727866E+01  0.17214833979E+03  0.17120000000E+03 0.  0.
        998    1    1    2    0    0 -0.21228283643E+00 -0.67291009170E+01  0.14542660609E+04  0.14543160254E+04  0.10000000000E+02 0.  1.
</event>
<event>
 5    1  0.1072898E-008  0.2190065E+03  0.7957747E-01  0.4724176E+00
         13   -1    0    0    0    0  0.00000000000E+00  0.00000000000E+00  0.14999999963E+04  0.15000000000E+04  0.10566000000E+00 0. -1.
        994   -1    0    0    0    0 -0.00000000000E+00 -0.00000000000E+00  0.11368683772E-12  0.17120000000E+03  0.17120000000E+03 0.  0.
         13    1    1    2    0    0  0.16699496059E+02 -0.86729517237E+01 -0.30585830226E+02  0.35910965385E+02  0.10566000000E+00 0. -1.
        994    1    1    2    0    0 -0.19001958465E+02  0.83303774410E+01  0.89736373290E+02  0.19440299973E+03  0.17120000000E+03 0.  0.
        998    1    1    2    0    0  0.23024624053E+01  0.34257428272E+00  0.14408494532E+04  0.14408860349E+04  0.10000000000E+02 0. -1.
</event>
<event>
 5    1  0.1072898E-008  0.3795844E+03  0.7957747E-01  0.3452970E+00
         13   -1    0    0    0    0  0.00000000000E+00  0.00000000000E+00  0.14999999963E+04  0.15000000000E+04  0.10566000000E+00 0.  1.
        994   -1    0    0    0    0 -0.00000000000E+00 -0.00000000000E+00  0.11368683772E-12  0.17120000000E+03  0.17120000000E+03 0.  0.
         13    1    1    2    0    0  0.79364052235E+01 -0.22596289748E+02  0.64429527653E+02  0.68736846276E+02  0.10566000000E+00 0.  1.
        994    1    1    2    0    0 -0.17428760136E+02  0.10172387105E+02  0.57074832952E+01  0.17247972201E+03  0.17120000000E+03 0.  0.
        998    1    1    2    0    0  0.94923549125E+01  0.12423902643E+02  0.14298629853E+04  0.14299834317E+04  0.10000000000E+02 0.  1.
</event>
<event>
 5    1  0.1072898E-008  0.3846450E+03  0.7957747E-01  0.3431179E+00
         13   -1    0    0    0    0  0.00000000000E+00  0.00000000000E+00  0.14999999963E+04  0.15000000000E+04  0.10566000000E+00 0. -1.
        994   -1    0    0    0    0 -0.00000000000E+00 -0.00000000000E+00  0.11368683772E-12  0.17120000000E+03  0.17120000000E+03 0.  0.
         13    1    1    2    0    0  0.74765788046E+01 -0.77888212158E+01  0.31172843269E+02  0.32989730039E+02  0.10566000000E+00 0. -1.
        994    1    1    2    0    0 -0.39972035802E+01  0.13952250813E+02  0.25003488960E+01  0.17183228650E+03  0.17120000000E+03 0.  0.
        998    1    1    2    0    0 -0.34793752245E+01 -0.61634295968E+01  0.14663268041E+04  0.14663779835E+04  0.10000000000E+02 0. -1.
</event>
<event>
 5    1  0.1072898E-008  0.3809387E+03  0.7957747E-01  0.3447081E+00
         13   -1    0    0    0    0  0.00000000000E+00  0.00000000000E+00  0.14999999963E+04  0.15000000000E+04  0.10566000000E+00 0.  1.
        994   -1    0    0    0    0 -0.00000000000E+00 -0.00000000000E+00  0.11368683772E-12  0.17120000000E+03  0.17120000000E+03 0.  0.
         13    1    1    2    0    0 -0.13629089969E+01 -0.20061219395E+02  0.56095159506E+02  0.59590168053E+02  0.10566000000E+00 0.  1.
        994    1    1    2    0    0  0.12718588866E+01  0.34486289741E+01  0.37050638956E+01  0.17127953224E+03  0.17120000000E+03 0.  0.
        998    1    1    2    0    0  0.91050110243E-01  0.16612590421E+02  0.14401997729E+04  0.14403302997E+04  0.10000000000E+02 0.  1.
</event>
<event>
 5    1  0.1072898E-008  0.3819014E+03  0.7957747E-01  0.3442921E+00
         13   -1    0    0    0    0  0.00000000000E+00  0.00000000000E+00  0.14999999963E+04  0.15000000000E+04  0.10566000000E+00 0.  1.
        994   -1    0    0    0    0 -0.00000000000E+00 -0.00000000000E+00  0.11368683772E-12  0.17120000000E+03  0.17120000000E+03 0.  0.
         13    1    1    2    0    0  0.90810168766E+01  0.69289349259E+01  0.18915519225E+02  0.22097127377E+02  0.10566000000E+00 0.  1.
        994    1    1    2    0    0 -0.11891816255E+02 -0.83427872758E+01  0.38777394895E+01  0.17185893709E+03  0.17120000000E+03 0.  0.
        998    1    1    2    0    0  0.28107993780E+01  0.14138523499E+01  0.14772067376E+04  0.14772439355E+04  0.10000000000E+02 0.  1.
</event>
<event>
 5    1  0.1072898E-008  0.3844447E+03  0.7957747E-01  0.3432031E+00
         13   -1    0    0    0    0  0.00000000000E+00  0.00000000000E+00  0.14999999963E+04  0.15000000000E+04  0.10566000000E+00 0.  1.
        994   -1    0    0    0    0 -0.00000000000E+00 -0.00000000000E+00  0.11368683772E-12  0.17120000000E+03  0.17120000000E+03 0.  0.
         13    1    1    2    0    0 -0.48659632851E+01 -0.15836854061E+02  0.80563722961E+02  0.82249669705E+02  0.10566000000E+00 0.  1.
        994    1    1    2    0    0 -0.22635579476E+01 -0.61756182269E+01  0.20486128028E+01  0.17133855016E+03  0.17120000000E+03 0.  0.
        998    1    1    2    0    0  0.71295212327E+01  0.22012472288E+02  0.14173876605E+04  0.14176117801E+04  0.10000000000E+02 0.  1.
</event>
<event>
 5    1  0.1072898E-008  0.3736496E+03  0.7957747E-01  0.3479284E+00
         13   -1    0    0    0    0  0.00000000000E+00  0.00000000000E+00  0.14999999963E+04  0.15000000000E+04  0.10566000000E+00 0.  1.
        994   -1    0    0    0    0 -0.00000000000E+00 -0.00000000000E+00  0.11368683772E-12  0.17120000000E+03  0.17120000000E+03 0.  0.
         13    1    1    2    0    0  0.64325592581E+02 -0.13252636104E+03  0.58316486667E+03  0.60148340884E+03  0.10566000000E+00 0.  1.
        994    1    1    2    0    0 -0.50840701328E+02  0.11766015774E+03  0.73587482655E+02  0.22617083639E+03  0.17120000000E+03 0.  0.
        998    1    1    2    0    0 -0.13484891253E+02  0.14866203302E+02  0.84324764695E+03  0.84354575477E+03  0.10000000000E+02 0.  0.
</event>
<event>
 5    1  0.1072898E-008  0.3822486E+03  0.7957747E-01  0.3441426E+00
         13   -1    0    0    0    0  0.00000000000E+00  0.00000000000E+00  0.14999999963E+04  0.15000000000E+04  0.10566000000E+00 0.  1.
        994   -1    0    0    0    0 -0.00000000000E+00 -0.00000000000E+00  0.11368683772E-12  0.17120000000E+03  0.17120000000E+03 0.  0.
         13    1    1    2    0    0 -0.31016126045E+02  0.91651396005E+01  0.18775370205E+03  0.19051893254E+03  0.10566000000E+00 0.  1.
        994    1    1    2    0    0  0.62164798257E+01 -0.12553897343E+02  0.36538338162E+01  0.17181104581E+03  0.17120000000E+03 0.  0.
        998    1    1    2    0    0  0.24799646220E+02  0.33887577421E+01  0.13085924604E+04  0.13088700217E+04  0.10000000000E+02 0.  1.
</event>
<event>
 5    1  0.1072898E-008  0.3803738E+03  0.7957747E-01  0.3449533E+00
         13   -1    0    0    0    0  0.00000000000E+00  0.00000000000E+00  0.14999999963E+04  0.15000000000E+04  0.10566000000E+00 0.  1.
        994   -1    0    0    0    0 -0.00000000000E+00 -0.00000000000E+00  0.11368683772E-12  0.17120000000E+03  0.17120000000E+03 0.  0.
         13    1    1    2    0    0 -0.54527531221E+01 -0.13252044162E+02  0.23696011573E+02  0.27692261006E+02  0.10566000000E+00 0.  1.
        994    1    1    2    0    0  0.37694660711E+01  0.20627114272E+02  0.54139914316E+01  0.17256430112E+03  0.17120000000E+03 0.  0.
        998    1    1    2    0    0  0.16832870510E+01 -0.73750701105E+01  0.14708899933E+04  0.14709434379E+04  0.10000000000E+02 0.  1.
</event>
<event>
 5    1  0.1072898E-008  0.3829925E+03  0.7957747E-01  0.3438231E+00
         13   -1    0    0    0    0  0.00000000000E+00  0.00000000000E+00  0.14999999963E+04  0.15000000000E+04  0.10566000000E+00 0. -1.
        994   -1    0    0    0    0 -0.00000000000E+00 -0.00000000000E+00  0.11368683772E-12  0.17120000000E+03  0.17120000000E+03 0.  0.
         13    1    1    2    0    0  0.74093473633E+01  0.14258531205E+02  0.48119951347E+02  0.50732090655E+02  0.10566000000E+00 0. -1.
        994    1    1    2    0    0  0.57694693722E-01 -0.12919044476E+02  0.31827746644E+01  0.17171626333E+03  0.17120000000E+03 0.  0.
        998    1    1    2    0    0 -0.74670420570E+01 -0.13394867293E+01  0.14486972703E+04  0.14487516460E+04  0.10000000000E+02 0. -1.
</event>
<event>
 5    1  0.1072898E-008  0.4225724E+03  0.7957747E-01  0.3284444E+00
         13   -1    0    0    0    0  0.00000000000E+00  0.00000000000E+00  0.14999999963E+04  0.15000000000E+04  0.10566000000E+00 0.  1.
        994   -1    0    0    0    0 -0.00000000000E+00 -0.00000000000E+00  0.11368683772E-12  0.17120000000E+03  0.17120000000E+03 0.  0.
         13    1    1    2    0    0 -0.36801837079E+02  0.34616654020E+02  0.12711689758E+02  0.52098811584E+02  0.10566000000E+00 0.  1.
        994    1    1    2    0    0  0.48955121824E+02 -0.61155544287E+02  0.69060475392E+02  0.20053776156E+03  0.17120000000E+03 0.  0.
        998    1    1    2    0    0 -0.12153284745E+02  0.26538890267E+02  0.14182278311E+04  0.14185634269E+04  0.10000000000E+02 0.  1.
</event>
<event>
 5    1  0.1072898E-008  0.3832837E+03  0.7957747E-01  0.3436984E+00
         13   -1    0    0    0    0  0.00000000000E+00  0.00000000000E+00  0.14999999963E+04  0.15000000000E+04  0.10566000000E+00 0.  1.
        994   -1    0    0    0    0 -0.00000000000E+00 -0.00000000000E+00  0.11368683772E-12  0.17120000000E+03  0.17120000000E+03 0.  0.
         13    1    1    2    0    0 -0.15448610833E+02 -0.44845121521E+01  0.50855691545E+02  0.53339319010E+02  0.10566000000E+00 0.  1.
        994    1    1    2    0    0  0.12037930409E+02  0.43801916708E+01  0.30275057424E+01  0.17170528134E+03  0.17120000000E+03 0.  0.
        998    1    1    2    0    0  0.34106804245E+01  0.10432048129E+00  0.14461167990E+04  0.14461553997E+04  0.10000000000E+02 0.  1.
</event>
<event>
 5    1  0.2348734E-008  0.3865151E+03  0.7957747E-01  0.3423272E+00
         13   -1    0    0    0    0  0.00000000000E+00  0.00000000000E+00  0.14999999963E+04  0.15000000000E+04  0.10566000000E+00 0. -1.
        994   -1    0    0    0    0 -0.00000000000E+00 -0.00000000000E+00  0.11368683772E-12  0.17120000000E+03  0.17120000000E+03 0.  0.
         13    1    1    2    0    0 -0.29903457053E+01  0.10026772410E+02  0.60394518839E+02  0.61294268919E+02  0.10566000000E+00 0. -1.
        994    1    1    2    0    0  0.30843287227E+01 -0.13030308629E+02  0.14667807160E+01  0.17172912820E+03  0.17120000000E+03 0.  0.
        998    1    1    2    0    0 -0.93983017417E-01  0.30035362185E+01  0.14381386967E+04  0.14381766029E+04  0.10000000000E+02 0. -1.
</event>
<event>
 5    1  0.1072898E-008  0.3799028E+03  0.7957747E-01  0.3451582E+00
         13   -1    0    0    0    0  0.00000000000E+00  0.00000000000E+00  0.14999999963E+04  0.15000000000E+04  0.10566000000E+00 0.  1.
        994   -1    0    0    0    0 -0.00000000000E+00 -0.00000000000E+00  0.11368683772E-12  0.17120000000E+03  0.17120000000E+03 0.  0.
         13    1    1    2    0    0  0.12976634844E+02  0.96772410146E+01  0.28981497141E+02  0.33196089921E+02  0.10566000000E+00 0.  1.
        994    1    1    2    0    0 -0.15876836041E+02 -0.99667741960E+01  0.53581902092E+01  0.17230658929E+03  0.17120000000E+03 0.  0.
        998    1    1    2    0    0  0.29002011973E+01  0.28953318137E+00  0.14656603089E+04  0.14656973208E+04  0.10000000000E+02 0.  1.
</event>
<event>
 5    1  0.1072898E-008  0.3805880E+03  0.7957747E-01  0.3448602E+00
         13   -1    0    0    0    0  0.00000000000E+00  0.00000000000E+00  0.14999999963E+04  0.15000000000E+04  0.10566000000E+00 0. -1.
        994   -1    0    0    0    0 -0.00000000000E+00 -0.00000000000E+00  0.11368683772E-12  0.17120000000E+03  0.17120000000E+03 0.  0.
         13    1    1    2    0    0 -0.17564591383E+02 -0.20178322261E+02  0.91149020435E+02  0.94993866381E+02  0.10566000000E+00 0. -1.
        994    1    1    2    0    0  0.15723359039E+02  0.10436646277E+02  0.50257847178E+01  0.17231031924E+03  0.17120000000E+03 0.  0.
        998    1    1    2    0    0  0.18412323443E+01  0.97416759845E+01  0.14038251911E+04  0.14038958144E+04  0.10000000000E+02 0. -1.
</event>
<event>
 5    1  0.1072898E-008  0.3720236E+03  0.7957747E-01  0.3486642E+00
         13   -1    0    0    0    0  0.00000000000E+00  0.00000000000E+00  0.14999999963E+04  0.15000000000E+04  0.10566000000E+00 0. -1.
        994   -1    0    0    0    0 -0.00000000000E+00 -0.00000000000E+00  0.11368683772E-12  0.17120000000E+03  0.17120000000E+03 0.  0.
         13    1    1    2    0    0  0.22509082004E+02 -0.15080352123E+02  0.25620446924E+02  0.37289331684E+02  0.10566000000E+00 0. -1.
        994    1    1    2    0    0 -0.10496877904E+02  0.18608130806E+02  0.13621584401E+02  0.17306482756E+03  0.17120000000E+03 0.  0.
        998    1    1    2    0    0 -0.12012204100E+02 -0.35277786833E+01  0.14607579650E+04  0.14608458408E+04  0.10000000000E+02 0. -1.
</event>
<event>
 5    1  0.1072898E-008  0.3696511E+03  0.7957747E-01  0.3497496E+00
         13   -1    0    0    0    0  0.00000000000E+00  0.00000000000E+00  0.14999999963E+04  0.15000000000E+04  0.10566000000E+00 0. -1.
        994   -1    0    0    0    0 -0.00000000000E+00 -0.00000000000E+00  0.11368683772E-12  0.17120000000E+03  0.17120000000E+03 0.  0.
         13    1    1    2    0    0 -0.11855763977E+02 -0.19641438313E+02  0.23896616444E+02  0.33127098877E+02  0.10566000000E+00 0. -1.
        994    1    1    2    0    0  0.85194925245E+01  0.13496957023E+02  0.10333927546E+02  0.17225266227E+03  0.17120000000E+03 0.  0.
        998    1    1    2    0    0  0.33362714528E+01  0.61444812904E+01  0.14657694523E+04  0.14658202389E+04  0.10000000000E+02 0. -1.
</event>
<event>
 5    1  0.1072898E-008  0.3722542E+03  0.7957747E-01  0.3485595E+00
         13   -1    0    0    0    0  0.00000000000E+00  0.00000000000E+00  0.14999999963E+04  0.15000000000E+04  0.10566000000E+00 0.  1.
        994   -1    0    0    0    0 -0.00000000000E+00 -0.00000000000E+00  0.11368683772E-12  0.17120000000E+03  0.17120000000E+03 0.  0.
         13    1    1    2    0    0  0.56787073196E+02 -0.61018013977E+02  0.25483044422E+03  0.26811664659E+03  0.10566000000E+00 0.  1.
        994    1    1    2    0    0 -0.37921039154E+02  0.58384843120E+02  0.29417141299E+02  0.18714059773E+03  0.17120000000E+03 0.  0.
        998    1    1    2    0    0 -0.18866034043E+02  0.26331708570E+01  0.12157524108E+04  0.12159427557E+04  0.10000000000E+02 0.  1.
</event>
<event>
 5    1  0.1072898E-008  0.4061213E+03  0.7957747E-01  0.3344753E+00
         13   -1    0    0    0    0  0.00000000000E+00  0.00000000000E+00  0.14999999963E+04  0.15000000000E+04  0.10566000000E+00 0. -1.
        994   -1    0    0    0    0 -0.00000000000E+00 -0.00000000000E+00  0.11368683772E-12  0.17120000000E+03  0.17120000000E+03 0.  0.
         13    1    1    2    0    0  0.17287856193E+02 -0.58259622088E+02  0.46133652064E+02  0.76297959045E+02  0.10566000000E+00 0. -1.
        994    1    1    2    0    0 -0.12367522340E+02  0.60587258967E+02  0.47007487996E+02  0.18799711563E+03  0.17120000000E+03 0.  0.
        998    1    1    2    0    0 -0.49203338536E+01 -0.23276368787E+01  0.14068588562E+04  0.14069049253E+04  0.10000000000E+02 0. -1.
</event>
<event>
 5    1  0.1072898E-008  0.3837553E+03  0.7957747E-01  0.3434968E+00
         13   -1    0    0    0    0  0.00000000000E+00  0.00000000000E+00  0.14999999963E+04  0.15000000000E+04  0.10566000000E+00 0.  1.
        994   -1    0    0    0    0 -0.00000000000E+00 -0.00000000000E+00  0.11368683772E-12  0.17120000000E+03  0.17120000000E+03 0.  0.
         13    1    1    2    0    0  0.12232413213E+02 -0.82423438225E+00  0.32559982760E+02  0.34791880327E+02  0.10566000000E+00 0.  1.
        994    1    1    2    0    0 -0.97304755892E+01  0.32030839497E+01  0.25959555900E+01  0.17152586070E+03  0.17120000000E+03 0.  0.
        998    1    1    2    0    0 -0.25019376237E+01 -0.23788495675E+01  0.14648440579E+04  0.14648822590E+04  0.10000000000E+02 0.  1.
</event>
<event>
 5    1  0.1072898E-008  0.3852995E+03  0.7957747E-01  0.3428403E+00
         13   -1    0    0    0    0  0.00000000000E+00  0.00000000000E+00  0.14999999963E+04  0.15000000000E+04  0.10566000000E+00 0. -1.
        994   -1    0    0    0    0 -0.00000000000E+00 -0.00000000000E+00  0.11368683772E-12  0.17120000000E+03  0.17120000000E+03 0.  0.
         13    1    1    2    0    0  0.12425485327E+02 -0.84939370170E+01  0.75130703142E+02  0.76623582338E+02  0.10566000000E+00 0. -1.
        994    1    1    2    0    0 -0.12636981899E+02  0.41480172309E+01  0.20629289145E+01  0.17172825928E+03  0.17120000000E+03 0.  0.
        998    1    1    2    0    0  0.21149657201E+00  0.43459197861E+01  0.14228063642E+04  0.14228481584E+04  0.10000000000E+02 0. -1.
</event>
<event>
 5    1  0.1072898E-008  0.3864254E+03  0.7957747E-01  0.3423649E+00
         13   -1    0    0    0    0  0.00000000000E+00  0.00000000000E+00  0.14999999963E+04  0.15000000000E+04  0.10566000000E+00 0. -1.
        994   -1    0    0    0    0 -0.00000000000E+00 -0.00000000000E+00  0.11368683772E-12  0.17120000000E+03  0.17120000000E+03 0.  0.
         13    1    1    2    0    0  0.72259190445E+00  0.11052237428E+02  0.64396910494E+02  0.65342538491E+02  0.10566000000E+00 0. -1.
        994    1    1    2    0    0 -0.80363535745E+01 -0.13067106794E+02  0.16948444362E+01  0.17189428366E+03  0.17120000000E+03 0.  0.
        998    1    1    2    0    0  0.73137616700E+01  0.20148693656E+01  0.14339082413E+04  0.14339631778E+04  0.10000000000E+02 0. -1.
</event>
<event>
 5    1  0.1072898E-008  0.3816140E+03  0.7957747E-01  0.3444161E+00
         13   -1    0    0    0    0  0.00000000000E+00  0.00000000000E+00  0.14999999963E+04  0.15000000000E+04  0.10566000000E+00 0. -1.
        994   -1    0    0    0    0 -0.00000000000E+00 -0.00000000000E+00  0.11368683772E-12  0.17120000000E+03  0.17120000000E+03 0.  0.
         13    1    1    2    0    0 -0.31012482506E+02  0.11533939259E+02  0.14926254520E+03  0.15288598494E+03  0.10566000000E+00 0. -1.
        994    1    1    2    0    0  0.26828275133E+02 -0.23165997576E+02  0.75096969460E+01  0.17499215793E+03  0.17120000000E+03 0.  0.
        998    1    1    2    0    0  0.41842073724E+01  0.11632058317E+02  0.13432277541E+04  0.13433218571E+04  0.10000000000E+02 0. -1.
</event>
<event>
 5    1  0.1072898E-008  0.3760677E+03  0.7957747E-01  0.3468461E+00
         13   -1    0    0    0    0  0.00000000000E+00  0.00000000000E+00  0.14999999963E+04  0.15000000000E+04  0.10566000000E+00 0.  1.
        994   -1    0    0    0    0 -0.00000000000E+00 -0.00000000000E+00  0.11368683772E-12  0.17120000000E+03  0.17120000000E+03 0.  0.
         13    1    1    2    0    0 -0.28183286989E+02  0.30815666379E+02  0.14110630168E+03  0.14715604812E+03  0.10566000000E+00 0.  1.
        994    1    1    2    0    0  0.19360579979E+02 -0.14010170107E+02  0.80682199142E+01  0.17304812364E+03  0.17120000000E+03 0.  0.
        998    1    1    2    0    0  0.88227070095E+01 -0.16805496272E+02  0.13508254747E+04  0.13509958282E+04  0.10000000000E+02 0.  1.
</event>
<event>
 5    1  0.1072898E-008  0.3845894E+03  0.7957747E-01  0.3431415E+00
         13   -1    0    0    0    0  0.00000000000E+00  0.00000000000E+00  0.14999999963E+04  0.15000000000E+04  0.10566000000E+00 0. -1.
        994   -1    0    0    0    0 -0.00000000000E+00 -0.00000000000E+00  0.11368683772E-12  0.17120000000E+03  0.17120000000E+03 0.  0.
         13    1    1    2    0    0 -0.16896746634E+02  0.10726603326E+02  0.12035563520E+03  0.12200840198E+03  0.10566000000E+00 0. -1.
        994    1    1    2    0    0  0.15319257417E+02  0.20632258766E+02  0.40117699669E+01  0.17316438447E+03  0.17120000000E+03 0.  0.
        998    1    1    2    0    0  0.15774892176E+01 -0.31358862092E+02  0.13756325911E+04  0.13760272136E+04  0.10000000000E+02 0. -1.
</event>
<event>
 5    1  0.1436923E-008  0.3855314E+03  0.7957747E-01  0.3427421E+00
         13   -1    0    0    0    0  0.00000000000E+00  0.00000000000E+00  0.14999999963E+04  0.15000000000E+04  0.10566000000E+00 0. -1.
        994   -1    0    0    0    0 -0.00000000000E+00 -0.00000000000E+00  0.11368683772E-12  0.17120000000E+03  0.17120000000E+03 0.  0.
         13    1    1    2    0    0 -0.97143295684E+01 -0.43461988493E+01  0.40693711381E+02  0.42062417351E+02  0.10566000000E+00 0. -1.
        994    1    1    2    0    0  0.10449699820E+02  0.40165338460E+01  0.17780827703E+01  0.17157485349E+03  0.17120000000E+03 0.  0.
        998    1    1    2    0    0 -0.73537025137E+00  0.32966500329E+00  0.14575282021E+04  0.14575627292E+04  0.10000000000E+02 0. -1.
</event>
<event>
 5    1  0.1072898E-008  0.3804655E+03  0.7957747E-01  0.3449134E+00
         13   -1    0    0    0    0  0.00000000000E+00  0.00000000000E+00  0.14999999963E+04  0.15000000000E+04  0.10566000000E+00 0. -1.
        994   -1    0    0    0    0 -0.00000000000E+00 -0.00000000000E+00  0.11368683772E-12  0.17120000000E+03  0.17120000000E+03 0.  0.
         13    1    1    2    0    0 -0.32946521203E+02 -0.21673176724E+03  0.10239907910E+04  0.10471940047E+04  0.10566000000E+00 0. -1.
        994    1    1    2    0    0  0.80675038405E+02  0.23653455936E+03  0.25244088892E+03  0.39432588299E+03  0.17120000000E+03 0.  0.
        998    1    1    2    0    0 -0.47728517202E+02 -0.19802792119E+02  0.22356831634E+03  0.22968011233E+03  0.10000000000E+02 0. -1.
</event>
<event>
 5    1  0.1072898E-008  0.3690673E+03  0.7957747E-01  0.3500188E+00
         13   -1    0    0    0    0  0.00000000000E+00  0.00000000000E+00  0.14999999963E+04  0.15000000000E+04  0.10566000000E+00 0.  1.
        994   -1    0    0    0    0 -0.00000000000E+00 -0.00000000000E+00  0.11368683772E-12  0.17120000000E+03  0.17120000000E+03 0.  0.
         13    1    1    2    0    0  0.65797049436E+01 -0.10466957634E+03  0.38840637546E+03  0.40231646298E+03  0.10566000000E+00 0.  1.
        994    1    1    2    0    0  0.14139487850E+02  0.10389295095E+03  0.49800607726E+02  0.20684102809E+03  0.17120000000E+03 0.  0.
        998    1    1    2    0    0 -0.20719192794E+02  0.77662539094E+00  0.10617930131E+04  0.10620425089E+04  0.10000000000E+02 0.  1.
</event>
<event>
 5    1  0.1072898E-008  0.3750460E+03  0.7957747E-01  0.3473017E+00
         13   -1    0    0    0    0  0.00000000000E+00  0.00000000000E+00  0.14999999963E+04  0.15000000000E+04  0.10566000000E+00 0.  1.
        994   -1    0    0    0    0 -0.00000000000E+00 -0.00000000000E+00  0.11368683772E-12  0.17120000000E+03  0.17120000000E+03 0.  0.
         13    1    1    2    0    0 -0.21189130778E+02 -0.93716073984E+01  0.37390217254E+02  0.43986882120E+02  0.10566000000E+00 0.  1.
        994    1    1    2    0    0  0.17763031252E+02  0.45630607187E+01  0.77990728473E+01  0.17235606267E+03  0.17120000000E+03 0.  0.
        998    1    1    2    0    0  0.34260995266E+01  0.48085466797E+01  0.14548107062E+04  0.14548570552E+04  0.10000000000E+02 0.  1.
</event>
<event>
 5    1  0.1072898E-008  0.3711604E+03  0.7957747E-01  0.3490575E+00
         13   -1    0    0    0    0  0.00000000000E+00  0.00000000000E+00  0.14999999963E+04  0.15000000000E+04  0.10566000000E+00 0. -1.
        994   -1    0    0    0    0 -0.00000000000E+00 -0.00000000000E+00  0.11368683772E-12  0.17120000000E+03  0.17120000000E+03 0.  0.
         13    1    1    2    0    0 -0.22325174813E+02  0.21048450763E+02  0.51836957374E+02  0.60237297614E+02  0.10566000000E+00 0. -1.
        994    1    1    2    0    0  0.15426761453E+02 -0.52432118606E+01  0.95785889373E+01  0.17224013936E+03  0.17120000000E+03 0.  0.
        998    1    1    2    0    0  0.68984133593E+01 -0.15805238902E+02  0.14385844500E+04  0.14387225630E+04  0.10000000000E+02 0. -1.
</event>
<event>
 5    1  0.1072898E-008  0.3857427E+03  0.7957747E-01  0.3426528E+00
         13   -1    0    0    0    0  0.00000000000E+00  0.00000000000E+00  0.14999999963E+04  0.15000000000E+04  0.10566000000E+00 0. -1.
        994   -1    0    0    0    0 -0.00000000000E+00 -0.00000000000E+00  0.11368683772E-12  0.17120000000E+03  0.17120000000E+03 0.  0.
         13    1    1    2    0    0 -0.12735711088E+02 -0.44597623280E+01  0.76727712578E+02  0.77905332670E+02  0.10566000000E+00 0. -1.
        994    1    1    2    0    0 -0.65678579486E+00  0.84969004592E+01  0.15001369990E+01  0.17141854945E+03  0.17120000000E+03 0.  0.
        998    1    1    2    0    0  0.13392496883E+02 -0.40371381312E+01  0.14217721467E+04  0.14218761179E+04  0.10000000000E+02 0. -1.
</event>
<event>
 5    1  0.1072898E-008  0.3810131E+03  0.7957747E-01  0.3446759E+00
         13   -1    0    0    0    0  0.00000000000E+00  0.00000000000E+00  0.14999999963E+04  0.15000000000E+04  0.10566000000E+00 0.  1.
        994   -1    0    0    0    0 -0.00000000000E+00 -0.00000000000E+00  0.11368683772E-12  0.17120000000E+03  0.17120000000E+03 0.  0.
         13    1    1    2    0    0 -0.33899805480E+02  0.71216647840E+01  0.16299779022E+03  0.16663794796E+03  0.10566000000E+00 0.  1.
        994    1    1    2    0    0  0.17884133424E+02 -0.21521124686E+02  0.62357588210E+01  0.17358377149E+03  0.17120000000E+03 0.  0.
        998    1    1    2    0    0  0.16015672056E+02  0.14399459901E+02  0.13307664472E+04  0.13309782806E+04  0.10000000000E+02 0.  1.
</event>
<event>
 5    1  0.1072898E-008  0.3826540E+03  0.7957747E-01  0.3439683E+00
         13   -1    0    0    0    0  0.00000000000E+00  0.00000000000E+00  0.14999999963E+04  0.15000000000E+04  0.10566000000E+00 0.  1.
        994   -1    0    0    0    0 -0.00000000000E+00 -0.00000000000E+00  0.11368683772E-12  0.17120000000E+03  0.17120000000E+03 0.  0.
         13    1    1    2    0    0  0.19879253536E+03 -0.14126772662E+03  0.10513632434E+04  0.10792774080E+04  0.10566000000E+00 0.  1.
        994    1    1    2    0    0 -0.20273641833E+03  0.14871291467E+03  0.25243416370E+03  0.39528474966E+03  0.17120000000E+03 0.  0.
        998    1    1    2    0    0  0.39438829738E+01 -0.74451880539E+01  0.19620258918E+03  0.19663784234E+03  0.10000000000E+02 0.  1.
</event>
<event>
 5    1  0.1072898E-008  0.3858880E+03  0.7957747E-01  0.3425915E+00
         13   -1    0    0    0    0  0.00000000000E+00  0.00000000000E+00  0.14999999963E+04  0.15000000000E+04  0.10566000000E+00 0.  1.
        994   -1    0    0    0    0 -0.00000000000E+00 -0.00000000000E+00  0.11368683772E-12  0.17120000000E+03  0.17120000000E+03 0.  0.
         13    1    1    2    0    0 -0.11430514012E+02 -0.26374033350E+01  0.57807976683E+02  0.58986319424E+02  0.10566000000E+00 0.  1.
        994    1    1    2    0    0  0.87905146843E+01  0.34341181528E+01  0.14820137855E+01  0.17146633104E+03  0.17120000000E+03 0.  0.
        998    1    1    2    0    0  0.26399993273E+01 -0.79671481777E+00  0.14407100058E+04  0.14407473495E+04  0.10000000000E+02 0.  1.
</event>
<event>
 5    1  0.1072898E-008  0.3803488E+03  0.7957747E-01  0.3449641E+00
         13   -1    0    0    0    0  0.00000000000E+00  0.00000000000E+00  0.14999999963E+04  0.15000000000E+04  0.10566000000E+00 0. -1.
        994   -1    0    0    0    0 -0.00000000000E+00 -0.00000000000E+00  0.11368683772E-12  0.17120000000E+03  0.17120000000E+03 0.  0.
         13    1    1    2    0    0  0.20618050419E+02  0.14688086174E+02  0.88544822594E+02  0.92092565665E+02  0.10566000000E+00 0. -1.
        994    1    1    2    0    0  0.13123024993E+02 -0.91220822749E+01  0.48105464126E+01  0.17201164939E+03  0.17120000000E+03 0.  0.
        998    1    1    2    0    0 -0.33741075412E+02 -0.55660038986E+01  0.14066446273E+04  0.14070957849E+04  0.10000000000E+02 0. -1.
</event>
<event>
 5    1  0.1072898E-008  0.3739584E+03  0.7957747E-01  0.3477894E+00
         13   -1    0    0    0    0  0.00000000000E+00  0.00000000000E+00  0.14999999963E+04  0.15000000000E+04  0.10566000000E+00 0. -1.
        994   -1    0    0    0    0 -0.00000000000E+00 -0.00000000000E+00  0.11368683772E-12  0.17120000000E+03  0.17120000000E+03 0.  0.
         13    1    1    2    0    0 -0.43326851671E+01 -0.22577102692E+02  0.14790983811E+02  0.27336460870E+02  0.10566000000E+00 0. -1.
        994    1    1    2    0    0  0.12781540870E+02  0.10682658909E+02  0.14031679754E+02  0.17257988013E+03  0.17120000000E+03 0.  0.
        998    1    1    2    0    0 -0.84488557028E+01  0.11894443783E+02  0.14711773327E+04  0.14712836590E+04  0.10000000000E+02 0. -1.
</event>
<event>
 5    1  0.1072898E-008  0.3802299E+03  0.7957747E-01  0.3450158E+00
         13   -1    0    0    0    0  0.00000000000E+00  0.00000000000E+00  0.14999999963E+04  0.15000000000E+04  0.10566000000E+00 0.  1.
        994   -1    0    0    0    0 -0.00000000000E+00 -0.00000000000E+00  0.11368683772E-12  0.17120000000E+03  0.17120000000E+03 0.  0.
         13    1    1    2    0    0 -0.18297803188E+02 -0.39089520047E+02  0.21698036974E+03  0.22123130925E+03  0.10566000000E+00 0.  1.
        994    1    1    2    0    0  0.11285697664E+02  0.30701661252E+02  0.75994552175E+01  0.17446246214E+03  0.17120000000E+03 0.  0.
        998    1    1    2    0    0  0.70121055242E+01  0.83878587946E+01  0.12754201713E+04  0.12755062286E+04  0.10000000000E+02 0.  1.
</event>
<event>
 5    1  0.1072898E-008  0.3738199E+03  0.7957747E-01  0.3478517E+00
         13   -1    0    0    0    0  0.00000000000E+00  0.00000000000E+00  0.14999999963E+04  0.15000000000E+04  0.10566000000E+00 0.  1.
        994   -1    0    0    0    0 -0.00000000000E+00 -0.00000000000E+00  0.11368683772E-12  0.17120000000E+03  0.17120000000E+03 0.  0.
         13    1    1    2    0    0  0.10292002315E+03  0.39623942872E+01  0.46573650197E+03  0.47698923695E+03  0.10566000000E+00 0.  1.
        994    1    1    2    0    0 -0.10793755574E+03 -0.17783531108E+01  0.48164025994E+02  0.20804540822E+03  0.17120000000E+03 0.  0.
        998    1    1    2    0    0  0.50175325930E+01 -0.21840411765E+01  0.98609946831E+03  0.98616535483E+03  0.10000000000E+02 0.  1.
</event>
<event>
 5    1  0.1072898E-008  0.3788208E+03  0.7957747E-01  0.3456309E+00
         13   -1    0    0    0    0  0.00000000000E+00  0.00000000000E+00  0.14999999963E+04  0.15000000000E+04  0.10566000000E+00 0. -1.
        994   -1    0    0    0    0 -0.00000000000E+00 -0.00000000000E+00  0.11368683772E-12  0.17120000000E+03  0.17120000000E+03 0.  0.
         13    1    1    2    0    0 -0.24419170366E+02 -0.21341876282E+02  0.11952176114E+03  0.12384358729E+03  0.10566000000E+00 0. -1.
        994    1    1    2    0    0 -0.48934377891E+01  0.10686940012E+02  0.51933671704E+01  0.17168158749E+03  0.17120000000E+03 0.  0.
        998    1    1    2    0    0  0.29312608155E+02  0.10654936270E+02  0.13752848680E+04  0.13756748252E+04  0.10000000000E+02 0. -1.
</event>
<event>
 5    1  0.1072898E-008  0.3756376E+03  0.7957747E-01  0.3470376E+00
         13   -1    0    0    0    0  0.00000000000E+00  0.00000000000E+00  0.14999999963E+04  0.15000000000E+04  0.10566000000E+00 0. -1.
        994   -1    0    0    0    0 -0.00000000000E+00 -0.00000000000E+00  0.11368683772E-12  0.17120000000E+03  0.17120000000E+03 0.  0.
         13    1    1    2    0    0  0.11069475781E+02 -0.55484762119E+01  0.90189806839E+01  0.15319009725E+02  0.10566000000E+00 0. -1.
        994    1    1    2    0    0 -0.15025510801E+02  0.96246780283E+01  0.74323868581E+01  0.17228778476E+03  0.17120000000E+03 0.  0.
        998    1    1    2    0    0  0.39560350201E+01 -0.40762018164E+01  0.14835486287E+04  0.14835932055E+04  0.10000000000E+02 0. -1.
</event>
<event>
 5    1  0.1694816E-008  0.3863257E+03  0.7957747E-01  0.3424069E+00
         13   -1    0    0    0    0  0.00000000000E+00  0.00000000000E+00  0.14999999963E+04  0.15000000000E+04  0.10566000000E+00 0.  1.
        994   -1    0    0    0    0 -0.00000000000E+00 -0.00000000000E+00  0.11368683772E-12  0.17120000000E+03  0.17120000000E+03 0.  0.
         13    1    1    2    0    0 -0.11337526731E+02  0.30462567225E+01  0.70307171724E+02  0.71280633782E+02  0.10566000000E+00 0.  1.
        994    1    1    2    0    0  0.94931638044E+01 -0.58800690518E+01  0.13818247740E+01  0.17156935860E+03  0.17120000000E+03 0.  0.
        998    1    1    2    0    0  0.18443629270E+01  0.28338123293E+01  0.14283109998E+04  0.14283500076E+04  0.10000000000E+02 0.  1.
</event>
<event>
 5    1  0.1072898E-008  0.3695939E+03  0.7957747E-01  0.3497759E+00
         13   -1    0    0    0    0  0.00000000000E+00  0.00000000000E+00  0.14999999963E+04  0.15000000000E+04  0.10566000000E+00 0. -1.
        994   -1    0    0    0    0 -0.00000000000E+00 -0.00000000000E+00  0.11368683772E-12  0.17120000000E+03  0.17120000000E+03 0.  0.
         13    1    1    2    0    0  0.14359389480E+02  0.31690835309E+02  0.51106999482E+02  0.61825865695E+02  0.10566000000E+00 0. -1.
        994    1    1    2    0    0 -0.86050582691E+01 -0.31249118979E+02  0.14400596810E+02  0.17483527005E+03  0.17120000000E+03 0.  0.
        998    1    1    2    0    0 -0.57543312109E+01 -0.44171632999E+00  0.14344924000E+04  0.14345388643E+04  0.10000000000E+02 0. -1.
</event>
<event>
 5    1  0.1072898E-008  0.3854954E+03  0.7957747E-01  0.3427574E+00
         13   -1    0    0    0    0  0.00000000000E+00  0.00000000000E+00  0.14999999963E+04  0.15000000000E+04  0.10566000000E+00 0.  1.
        994   -1    0    0    0    0 -0.00000000000E+00 -0.00000000000E+00  0.11368683772E-12  0.17120000000E+03  0.17120000000E+03 0.  0.
         13    1    1    2    0    0 -0.27650545114E+00  0.12032599695E+02  0.54319775685E+02  0.55637299586E+02  0.10566000000E+00 0.  1.
        994    1    1    2    0    0 -0.59159911239E+01 -0.30102980903E+01  0.15290576735E+01  0.17133545711E+03  0.17120000000E+03 0.  0.
        998    1    1    2    0    0  0.61924965750E+01 -0.90223016046E+01  0.14441511629E+04  0.14442272433E+04  0.10000000000E+02 0.  1.
</event>
<event>
 5    1  0.1072898E-008  0.3861409E+03  0.7957747E-01  0.3424848E+00
         13   -1    0    0    0    0  0.00000000000E+00  0.00000000000E+00  0.14999999963E+04  0.15000000000E+04  0.10566000000E+00 0. -1.
        994   -1    0    0    0    0 -0.00000000000E+00 -0.00000000000E+00  0.11368683772E-12  0.17120000000E+03  0.17120000000E+03 0.  0.
         13    1    1    2    0    0  0.31537135070E+00 -0.10914275124E+02  0.57891328883E+02  0.58912120862E+02  0.10566000000E+00 0. -1.
        994    1    1    2    0    0  0.17384480413E+01  0.47607039682E+01  0.11489456870E+01  0.17127885620E+03  0.17120000000E+03 0.  0.
        998    1    1    2    0    0 -0.20538193920E+01  0.61535711554E+01  0.14409597217E+04  0.14410090229E+04  0.10000000000E+02 0. -1.
</event>
<event>
 5    1  0.1072898E-008  0.3832593E+03  0.7957747E-01  0.3437089E+00
         13   -1    0    0    0    0  0.00000000000E+00  0.00000000000E+00  0.14999999963E+04  0.15000000000E+04  0.10566000000E+00 0. -1.
        994   -1    0    0    0    0 -0.00000000000E+00 -0.00000000000E+00  0.11368683772E-12  0.17120000000E+03  0.17120000000E+03 0.  0.
         13    1    1    2    0    0  0.17683355671E+02  0.47519334646E+01  0.68620964550E+02  0.71022037983E+02  0.10566000000E+00 0. -1.
        994    1    1    2    0    0 -0.33711539920E+01 -0.10328814320E+02  0.28873716126E+01  0.17156872092E+03  0.17120000000E+03 0.  0.
        998    1    1    2    0    0 -0.14312201679E+02  0.55768808554E+01  0.14284916601E+04  0.14286092411E+04  0.10000000000E+02 0. -1.
</event>
<event>
 5    1  0.1072898E-008  0.3978195E+03  0.7957747E-01  0.3377058E+00
         13   -1    0    0    0    0  0.00000000000E+00  0.00000000000E+00  0.14999999963E+04  0.15000000000E+04  0.10566000000E+00 0.  1.
        994   -1    0    0    0    0 -0.00000000000E+00 -0.00000000000E+00  0.11368683772E-12  0.17120000000E+03  0.17120000000E+03 0.  0.
         13    1    1    2    0    0  0.13381743578E+03 -0.87746736111E+02  0.28630103199E+03  0.32798610931E+03  0.10566000000E+00 0.  1.
        994    1    1    2    0    0 -0.20932170834E+03  0.39555003314E+02  0.23518356714E+03  0.36055641185E+03  0.17120000000E+03 0.  0.
        998    1    1    2    0    0  0.75504272561E+02  0.48191732797E+02  0.97851539714E+03  0.98265747884E+03  0.10000000000E+02 0.  1.
</event>
<event>
 5    1  0.1072898E-008  0.3810776E+03  0.7957747E-01  0.3446480E+00
         13   -1    0    0    0    0  0.00000000000E+00  0.00000000000E+00  0.14999999963E+04  0.15000000000E+04  0.10566000000E+00 0. -1.
        994   -1    0    0    0    0 -0.00000000000E+00 -0.00000000000E+00  0.11368683772E-12  0.17120000000E+03  0.17120000000E+03 0.  0.
         13    1    1    2    0    0  0.35094212119E+02 -0.32022807766E+02  0.18706167159E+03  0.19300037327E+03  0.10566000000E+00 0. -1.
        994    1    1    2    0    0 -0.70208549314E+02  0.72281282631E+02  0.38187488583E+02  0.20229075238E+03  0.17120000000E+03 0.  0.
        998    1    1    2    0    0  0.35114337195E+02 -0.40258474865E+02  0.12747508361E+04  0.12759088743E+04  0.10000000000E+02 0. -1.
</event>
<event>
 5    1  0.1072898E-008  0.3804134E+03  0.7957747E-01  0.3449360E+00
         13   -1    0    0    0    0  0.00000000000E+00  0.00000000000E+00  0.14999999963E+04  0.15000000000E+04  0.10566000000E+00 0. -1.
        994   -1    0    0    0    0 -0.00000000000E+00 -0.00000000000E+00  0.11368683772E-12  0.17120000000E+03  0.17120000000E+03 0.  0.
         13    1    1    2    0    0  0.23969657575E+02  0.10840467290E+02  0.96291514406E+02  0.99820474482E+02  0.10566000000E+00 0. -1.
        994    1    1    2    0    0  0.15371199844E+02 -0.27258196494E+02  0.72006859222E+01  0.17418545559E+03  0.17120000000E+03 0.  0.
        998    1    1    2    0    0 -0.39340857418E+02  0.16417729204E+02  0.13965077960E+04  0.13971940699E+04  0.10000000000E+02 0. -1.
</event>
<event>
 5    1  0.1072898E-008  0.3854218E+03  0.7957747E-01  0.3427885E+00
         13   -1    0    0    0    0  0.00000000000E+00  0.00000000000E+00  0.14999999963E+04  0.15000000000E+04  0.10566000000E+00 0.  1.
        994   -1    0    0    0    0 -0.00000000000E+00 -0.00000000000E+00  0.11368683772E-12  0.17120000000E+03  0.17120000000E+03 0.  0.
         13    1    1    2    0    0  0.11812676304E+01 -0.14945729348E+02  0.83074684736E+02  0.84416731913E+02  0.10566000000E+00 0.  1.
        994    1    1    2    0    0 -0.51527318803E+01  0.36142180958E+01  0.15509734884E+01  0.17132267432E+03  0.17120000000E+03 0.  0.
        998    1    1    2    0    0  0.39714642499E+01  0.11331511252E+02  0.14153743381E+04  0.14154605938E+04  0.10000000000E+02 0.  1.
</event>
<event>
 5    1  0.1072898E-008  0.3833149E+03  0.7957747E-01  0.3436850E+00
         13   -1    0    0    0    0  0.00000000000E+00  0.00000000000E+00  0.14999999963E+04  0.15000000000E+04  0.10566000000E+00 0. -1.
        994   -1    0    0    0    0 -0.00000000000E+00 -0.00000000000E+00  0.11368683772E-12  0.17120000000E+03  0.17120000000E+03 0.  0.
         13    1    1    2    0    0 -0.12400256931E+02  0.94032372599E+01  0.47796786966E+02  0.50266601748E+02  0.10566000000E+00 0. -1.
        994    1    1    2    0    0  0.12017138299E+02 -0.53723018286E+01  0.30422278860E+01  0.17173225786E+03  0.17120000000E+03 0.  0.
        998    1    1    2    0    0  0.38311863160E+00 -0.40309354312E+01  0.14491609814E+04  0.14492011404E+04  0.10000000000E+02 0.  0.
</event>
<event>
 5    1  0.1072898E-008  0.3816480E+03  0.7957747E-01  0.3444014E+00
         13   -1    0    0    0    0  0.00000000000E+00  0.00000000000E+00  0.14999999963E+04  0.15000000000E+04  0.10566000000E+00 0.  1.
        994   -1    0    0    0    0 -0.00000000000E+00 -0.00000000000E+00  0.11368683772E-12  0.17120000000E+03  0.17120000000E+03 0.  0.
         13    1    1    2    0    0 -0.49309647466E+00  0.13452052524E+02  0.27533030924E+02  0.30647672295E+02  0.10566000000E+00 0.  1.
        994    1    1    2    0    0  0.46679304843E-01  0.67024489080E+01  0.34529360712E+01  0.17136594693E+03  0.17120000000E+03 0.  0.
        998    1    1    2    0    0  0.44641716982E+00 -0.20154501432E+02  0.14690140293E+04  0.14691863808E+04  0.10000000000E+02 0.  1.
</event>
<event>
 5    1  0.1072898E-008  0.3803110E+03  0.7957747E-01  0.3449805E+00
         13   -1    0    0    0    0  0.00000000000E+00  0.00000000000E+00  0.14999999963E+04  0.15000000000E+04  0.10566000000E+00 0. -1.
        994   -1    0    0    0    0 -0.00000000000E+00 -0.00000000000E+00  0.11368683772E-12  0.17120000000E+03  0.17120000000E+03 0.  0.
         13    1    1    2    0    0 -0.77097293396E+01 -0.25986091359E+02  0.86851965371E+02  0.90983470606E+02  0.10566000000E+00 0. -1.
        994    1    1    2    0    0  0.97994602022E+01  0.24542705035E+02  0.63119262527E+01  0.17334259201E+03  0.17120000000E+03 0.  0.
        998    1    1    2    0    0 -0.20897308627E+01  0.14433863242E+01  0.14068361047E+04  0.14068739374E+04  0.10000000000E+02 0. -1.
</event>
<event>
 5    1  0.1072898E-008  0.3839596E+03  0.7957747E-01  0.3434097E+00
         13   -1    0    0    0    0  0.00000000000E+00  0.00000000000E+00  0.14999999963E+04  0.15000000000E+04  0.10566000000E+00 0. -1.
        994   -1    0    0    0    0 -0.00000000000E+00 -0.00000000000E+00  0.11368683772E-12  0.17120000000E+03  0.17120000000E+03 0.  0.
         13    1    1    2    0    0  0.17489690429E+02  0.18501642772E+02  0.13030085509E+03  0.13276492028E+03  0.10566000000E+00 0. -1.
        994    1    1    2    0    0 -0.26254650567E+02 -0.22136252765E+02  0.60487869876E+01  0.17471504854E+03  0.17120000000E+03 0.  0.
        998    1    1    2    0    0  0.87649601383E+01  0.36346099938E+01  0.13636503542E+04  0.13637200312E+04  0.10000000000E+02 0. -1.
</event>
<event>
 5    1  0.1072898E-008  0.3845537E+03  0.7957747E-01  0.3431567E+00
         13   -1    0    0    0    0  0.00000000000E+00  0.00000000000E+00  0.14999999963E+04  0.15000000000E+04  0.10566000000E+00 0. -1.
        994   -1    0    0    0    0 -0.00000000000E+00 -0.00000000000E+00  0.11368683772E-12  0.17120000000E+03  0.17120000000E+03 0.  0.
         13    1    1    2    0    0 -0.12845635779E+02 -0.20552343449E+01  0.45932715134E+02  0.47739499687E+02  0.10566000000E+00 0. -1.
        994    1    1    2    0    0  0.47053819012E+01  0.12122550069E+02  0.24090000281E+01  0.17171004665E+03  0.17120000000E+03 0.  0.
        998    1    1    2    0    0  0.81402538774E+01 -0.10067315724E+02  0.14516582811E+04  0.14517504537E+04  0.10000000000E+02 0. -1.
</event>
<event>
 5    1  0.1072898E-008  0.3760087E+03  0.7957747E-01  0.3468724E+00
         13   -1    0    0    0    0  0.00000000000E+00  0.00000000000E+00  0.14999999963E+04  0.15000000000E+04  0.10566000000E+00 0.  1.
        994   -1    0    0    0    0 -0.00000000000E+00 -0.00000000000E+00  0.11368683772E-12  0.17120000000E+03  0.17120000000E+03 0.  0.
         13    1    1    2    0    0 -0.32116973042E+02  0.26423279814E+02  0.15437269556E+03  0.15987692133E+03  0.10566000000E+00 0.  1.
        994    1    1    2    0    0  0.62978441575E+02  0.59068323280E+02  0.31851526930E+02  0.19436900650E+03  0.17120000000E+03 0.  0.
        998    1    1    2    0    0 -0.30861468533E+02 -0.85491603094E+02  0.13137757738E+04  0.13169540722E+04  0.10000000000E+02 0.  1.
</event>
<event>
 5    1  0.1072898E-008  0.3831269E+03  0.7957747E-01  0.3437655E+00
         13   -1    0    0    0    0  0.00000000000E+00  0.00000000000E+00  0.14999999963E+04  0.15000000000E+04  0.10566000000E+00 0.  1.
        994   -1    0    0    0    0 -0.00000000000E+00 -0.00000000000E+00  0.11368683772E-12  0.17120000000E+03  0.17120000000E+03 0.  0.
         13    1    1    2    0    0 -0.98101629233E+01  0.17465118627E+02  0.81154754219E+02  0.83590519568E+02  0.10566000000E+00 0.  1.
        994    1    1    2    0    0  0.80547033489E+01 -0.11439079607E+01  0.27819800264E+01  0.17141576994E+03  0.17120000000E+03 0.  0.
        998    1    1    2    0    0  0.17554595744E+01 -0.16321210666E+02  0.14160632620E+04  0.14161937105E+04  0.10000000000E+02 0.  1.
</event>
<event>
 5    1  0.1072898E-008  0.3817919E+03  0.7957747E-01  0.3443393E+00
         13   -1    0    0    0    0  0.00000000000E+00  0.00000000000E+00  0.14999999963E+04  0.15000000000E+04  0.10566000000E+00 0. -1.
        994   -1    0    0    0    0 -0.00000000000E+00 -0.00000000000E+00  0.11368683772E-12  0.17120000000E+03  0.17120000000E+03 0.  0.
         13    1    1    2    0    0  0.26314612713E+02 -0.48349174570E+01  0.11187934661E+03  0.11503405857E+03  0.10566000000E+00 0. -1.
        994    1    1    2    0    0 -0.13783363693E+02 -0.26906473655E+01  0.38870054114E+01  0.17181900218E+03  0.17120000000E+03 0.  0.
        998    1    1    2    0    0 -0.12531249020E+02  0.75255648225E+01  0.13842336443E+04  0.13843469393E+04  0.10000000000E+02 0. -1.
</event>
<event>
 5    1  0.1072898E-008  0.3715179E+03  0.7957747E-01  0.3488944E+00
         13   -1    0    0    0    0  0.00000000000E+00  0.00000000000E+00  0.14999999963E+04  0.15000000000E+04  0.10566000000E+00 0. -1.
        994   -1    0    0    0    0 -0.00000000000E+00 -0.00000000000E+00  0.11368683772E-12  0.17120000000E+03  0.17120000000E+03 0.  0.
         13    1    1    2    0    0 -0.36485852177E+02 -0.22130058148E+02  0.11620442609E+03  0.12379190882E+03  0.10566000000E+00 0. -1.
        994    1    1    2    0    0  0.81671517372E+01 -0.12198230209E+02  0.92193855346E+01  0.17207537958E+03  0.17120000000E+03 0.  0.
        998    1    1    2    0    0  0.28318700440E+02  0.34328288357E+02  0.13745761847E+04  0.13753327116E+04  0.10000000000E+02 0. -1.
</event>
<event>
 5    1  0.1265688E-008  0.3854857E+03  0.7957747E-01  0.3427615E+00
         13   -1    0    0    0    0  0.00000000000E+00  0.00000000000E+00  0.14999999963E+04  0.15000000000E+04  0.10566000000E+00 0. -1.
        994   -1    0    0    0    0 -0.00000000000E+00 -0.00000000000E+00  0.11368683772E-12  0.17120000000E+03  0.17120000000E+03 0.  0.
         13    1    1    2    0    0  0.88297088744E+01 -0.60409183530E+01  0.41058370699E+02  0.42429440508E+02  0.10566000000E+00 0. -1.
        994    1    1    2    0    0 -0.87485989833E+01  0.20836437836E+01  0.16547883127E+01  0.17144403717E+03  0.17120000000E+03 0.  0.
        998    1    1    2    0    0 -0.81109891085E-01  0.39572745694E+01  0.14572868373E+04  0.14573265223E+04  0.10000000000E+02 0. -1.
</event>
<event>
 5    1  0.1072898E-008  0.3963466E+03  0.7957747E-01  0.3382930E+00
         13   -1    0    0    0    0  0.00000000000E+00  0.00000000000E+00  0.14999999963E+04  0.15000000000E+04  0.10566000000E+00 0. -1.
        994   -1    0    0    0    0 -0.00000000000E+00 -0.00000000000E+00  0.11368683772E-12  0.17120000000E+03  0.17120000000E+03 0.  0.
         13    1    1    2    0    0 -0.60385585319E+02 -0.39216214871E+02  0.88951865603E+02  0.11444114637E+03  0.10566000000E+00 0. -1.
        994    1    1    2    0    0  0.54851563066E+02  0.39493926027E+02  0.43457219757E+02  0.18912015787E+03  0.17120000000E+03 0.  0.
        998    1    1    2    0    0  0.55340222532E+01 -0.27771115584E+00  0.13675909109E+04  0.13676386958E+04  0.10000000000E+02 0. -1.
</event>
<event>
 5    1  0.1072898E-008  0.3714395E+03  0.7957747E-01  0.3489301E+00
         13   -1    0    0    0    0  0.00000000000E+00  0.00000000000E+00  0.14999999963E+04  0.15000000000E+04  0.10566000000E+00 0. -1.
        994   -1    0    0    0    0 -0.00000000000E+00 -0.00000000000E+00  0.11368683772E-12  0.17120000000E+03  0.17120000000E+03 0.  0.
         13    1    1    2    0    0 -0.13414516285E+02 -0.18882206293E+02  0.27087534085E+02  0.35640323069E+02  0.10566000000E+00 0. -1.
        994    1    1    2    0    0  0.71229795880E+01  0.30017873565E+02  0.11800369837E+02  0.17435738671E+03  0.17120000000E+03 0.  0.
        998    1    1    2    0    0  0.62915366965E+01 -0.11135667272E+02  0.14611120924E+04  0.14612022902E+04  0.10000000000E+02 0. -1.
</event>
<event>
 5    1  0.1072898E-008  0.3827308E+03  0.7957747E-01  0.3439353E+00
         13   -1    0    0    0    0  0.00000000000E+00  0.00000000000E+00  0.14999999963E+04  0.15000000000E+04  0.10566000000E+00 0. -1.
        994   -1    0    0    0    0 -0.00000000000E+00 -0.00000000000E+00  0.11368683772E-12  0.17120000000E+03  0.17120000000E+03 0.  0.
         13    1    1    2    0    0 -0.27557152641E+02  0.19540772661E+00  0.13388879896E+03  0.13669548821E+03  0.10566000000E+00 0. -1.
        994    1    1    2    0    0  0.19551510629E+02  0.54656366330E+01  0.41275542671E+01  0.17244886621E+03  0.17120000000E+03 0.  0.
        998    1    1    2    0    0  0.80056420127E+01 -0.56610443596E+01  0.13619836430E+04  0.13620556456E+04  0.10000000000E+02 0. -1.
</event>
<event>
 5    1  0.1072898E-008  0.3719654E+03  0.7957747E-01  0.3486907E+00
         13   -1    0    0    0    0  0.00000000000E+00  0.00000000000E+00  0.14999999963E+04  0.15000000000E+04  0.10566000000E+00 0. -1.
        994   -1    0    0    0    0 -0.00000000000E+00 -0.00000000000E+00  0.11368683772E-12  0.17120000000E+03  0.17120000000E+03 0.  0.
         13    1    1    2    0    0  0.54940806758E+02  0.15929065079E+02  0.31464332592E+03  0.31980097103E+03  0.10566000000E+00 0. -1.
        994    1    1    2    0    0  0.23314071899E+02  0.21508031341E+02  0.11708677656E+02  0.17450694683E+03  0.17120000000E+03 0.  0.
        998    1    1    2    0    0 -0.78254878656E+02 -0.37437096420E+02  0.11736479927E+04  0.11768920821E+04  0.10000000000E+02 0. -1.
</event>
<event>
 5    1  0.1072898E-008  0.3808121E+03  0.7957747E-01  0.3447630E+00
         13   -1    0    0    0    0  0.00000000000E+00  0.00000000000E+00  0.14999999963E+04  0.15000000000E+04  0.10566000000E+00 0.  1.
        994   -1    0    0    0    0 -0.00000000000E+00 -0.00000000000E+00  0.11368683772E-12  0.17120000000E+03  0.17120000000E+03 0.  0.
         13    1    1    2    0    0  0.26756674029E+02 -0.25654927802E+02  0.18318472289E+03  0.18689769605E+03  0.10566000000E+00 0.  1.
        994    1    1    2    0    0  0.23814589828E+01  0.35241947589E+02  0.78946317660E+01  0.17498408907E+03  0.17120000000E+03 0.  0.
        998    1    1    2    0    0 -0.29138133012E+02 -0.95870197875E+01  0.13089206416E+04  0.13093182149E+04  0.10000000000E+02 0.  1.
</event>
<event>
 5    1  0.1072898E-008  0.4050947E+03  0.7957747E-01  0.3348677E+00
         13   -1    0    0    0    0  0.00000000000E+00  0.00000000000E+00  0.14999999963E+04  0.15000000000E+04  0.10566000000E+00 0.  1.
        994   -1    0    0    0    0 -0.00000000000E+00 -0.00000000000E+00  0.11368683772E-12  0.17120000000E+03  0.17120000000E+03 0.  0.
         13    1    1    2    0    0  0.10778090252E+03  0.48530193647E+02  0.18878939857E+03  0.22274054597E+03  0.10566000000E+00 0.  1.
        994    1    1    2    0    0 -0.10742132456E+03 -0.47132308880E+02  0.88349798753E+02  0.22555691621E+03  0.17120000000E+03 0.  0.
        998    1    1    2    0    0 -0.35957796599E+00 -0.13978847673E+01  0.12228607990E+04  0.12229025378E+04  0.10000000000E+02 0.  0.
</event>
<event>
 5    1  0.1072898E-008  0.3698575E+03  0.7957747E-01  0.3496546E+00
         13   -1    0    0    0    0  0.00000000000E+00  0.00000000000E+00  0.14999999963E+04  0.15000000000E+04  0.10566000000E+00 0.  1.
        994   -1    0    0    0    0 -0.00000000000E+00 -0.00000000000E+00  0.11368683772E-12  0.17120000000E+03  0.17120000000E+03 0.  0.
         13    1    1    2    0    0  0.60527451051E+02 -0.30054411463E+02  0.23586084500E+03  0.24535115518E+03  0.10566000000E+00 0.  1.
        994    1    1    2    0    0 -0.46304209832E+02  0.50729166351E+01  0.16887428584E+02  0.17822581063E+03  0.17120000000E+03 0.  0.
        998    1    1    2    0    0 -0.14223241219E+02  0.24981494827E+02  0.12472517227E+04  0.12476230342E+04  0.10000000000E+02 0.  1.
</event>
<event>
 5    1  0.1072898E-008  0.3813544E+03  0.7957747E-01  0.3445282E+00
         13   -1    0    0    0    0  0.00000000000E+00  0.00000000000E+00  0.14999999963E+04  0.15000000000E+04  0.10566000000E+00 0. -1.
        994   -1    0    0    0    0 -0.00000000000E+00 -0.00000000000E+00  0.11368683772E-12  0.17120000000E+03  0.17120000000E+03 0.  0.
         13    1    1    2    0    0  0.30721413330E+02 -0.12381755550E+02  0.10925189779E+03  0.11416260965E+03  0.10566000000E+00 0. -1.
        994    1    1    2    0    0 -0.73659004174E+02  0.47116416182E+02  0.29328465209E+02  0.19446131862E+03  0.17120000000E+03 0.  0.
        998    1    1    2    0    0  0.42937590844E+02 -0.34734660632E+02  0.13614196333E+04  0.13625760717E+04  0.10000000000E+02 0. -1.
</event>
<event>
 5    1  0.1072898E-008  0.3820839E+03  0.7957747E-01  0.3442135E+00
         13   -1    0    0    0    0  0.00000000000E+00  0.00000000000E+00  0.14999999963E+04  0.15000000000E+04  0.10566000000E+00 0.  1.
        994   -1    0    0    0    0 -0.00000000000E+00 -0.00000000000E+00  0.11368683772E-12  0.17120000000E+03  0.17120000000E+03 0.  0.
         13    1    1    2    0    0  0.36318213207E+01 -0.13535349025E+02  0.30649263505E+02  0.33701399330E+02  0.10566000000E+00 0.  1.
        994    1    1    2    0    0  0.16481041153E+01  0.10862701370E+02  0.34857885872E+01  0.17158760226E+03  0.17120000000E+03 0.  0.
        998    1    1    2    0    0 -0.52799254360E+01  0.26726476545E+01  0.14658649442E+04  0.14659109984E+04  0.10000000000E+02 0.  1.
</event>
<event>
 5    1  0.1072898E-008  0.3854341E+03  0.7957747E-01  0.3427833E+00
         13   -1    0    0    0    0  0.00000000000E+00  0.00000000000E+00  0.14999999963E+04  0.15000000000E+04  0.10566000000E+00 0.  1.
        994   -1    0    0    0    0 -0.00000000000E+00 -0.00000000000E+00  0.11368683772E-12  0.17120000000E+03  0.17120000000E+03 0.  0.
         13    1    1    2    0    0 -0.10538369249E+02  0.50190550732E+01  0.47780149886E+02  0.49185384287E+02  0.10566000000E+00 0.  1.
        994    1    1    2    0    0  0.99666733570E+01 -0.17878366311E+01  0.17515441208E+01  0.17150813055E+03  0.17120000000E+03 0.  0.
        998    1    1    2    0    0  0.57169589156E+00 -0.32312184421E+01  0.14504683023E+04  0.14505064852E+04  0.10000000000E+02 0.  1.
</event>
<event>
 5    1  0.1072898E-008  0.3779472E+03  0.7957747E-01  0.3460146E+00
         13   -1    0    0    0    0  0.00000000000E+00  0.00000000000E+00  0.14999999963E+04  0.15000000000E+04  0.10566000000E+00 0.  1.
        994   -1    0    0    0    0 -0.00000000000E+00 -0.00000000000E+00  0.11368683772E-12  0.17120000000E+03  0.17120000000E+03 0.  0.
         13    1    1    2    0    0 -0.14314083670E+02  0.24912325195E+01  0.18669210778E+02  0.23656919197E+02  0.10566000000E+00 0.  1.
        994    1    1    2    0    0  0.10417497009E+01  0.72410130377E+01  0.53531609403E+01  0.17143982572E+03  0.17120000000E+03 0.  0.
        998    1    1    2    0    0  0.13272333969E+02 -0.97322455572E+01  0.14759776246E+04  0.14761032551E+04  0.10000000000E+02 0.  1.
</event>
<event>
 5    1  0.1072898E-008  0.3797067E+03  0.7957747E-01  0.3452436E+00
         13   -1    0    0    0    0  0.00000000000E+00  0.00000000000E+00  0.14999999963E+04  0.15000000000E+04  0.10566000000E+00 0.  1.
        994   -1    0    0    0    0 -0.00000000000E+00 -0.00000000000E+00  0.11368683772E-12  0.17120000000E+03  0.17120000000E+03 0.  0.
         13    1    1    2    0    0 -0.33437072324E+02 -0.25148281945E+01  0.12767217247E+03  0.13200210966E+03  0.10566000000E+00 0.  1.
        994    1    1    2    0    0  0.23217312893E+02 -0.29648870849E+01  0.61165401824E+01  0.17290079883E+03  0.17120000000E+03 0.  0.
        998    1    1    2    0    0  0.10219759431E+02  0.54797152794E+01  0.13662112836E+04  0.13662970915E+04  0.10000000000E+02 0.  1.
</event>
<event>
 5    1  0.1072898E-008  0.3701091E+03  0.7957747E-01  0.3495389E+00
         13   -1    0    0    0    0  0.00000000000E+00  0.00000000000E+00  0.14999999963E+04  0.15000000000E+04  0.10566000000E+00 0.  1.
        994   -1    0    0    0    0 -0.00000000000E+00 -0.00000000000E+00  0.11368683772E-12  0.17120000000E+03  0.17120000000E+03 0.  0.
         13    1    1    2    0    0 -0.77255688210E+01 -0.51658591725E+02  0.11207284319E+03  0.12364719106E+03  0.10566000000E+00 0.  1.
        994    1    1    2    0    0  0.13178809426E+02  0.50401595249E+02  0.20549304883E+02  0.18012694344E+03  0.17120000000E+03 0.  0.
        998    1    1    2    0    0 -0.54532406053E+01  0.12569964766E+01  0.13673778482E+04  0.13674258655E+04  0.10000000000E+02 0.  1.
</event>
<event>
 5    1  0.1072898E-008  0.3858472E+03  0.7957747E-01  0.3426087E+00
         13   -1    0    0    0    0  0.00000000000E+00  0.00000000000E+00  0.14999999963E+04  0.15000000000E+04  0.10566000000E+00 0.  1.
        994   -1    0    0    0    0 -0.00000000000E+00 -0.00000000000E+00  0.11368683772E-12  0.17120000000E+03  0.17120000000E+03 0.  0.
         13    1    1    2    0    0 -0.66949093930E+01  0.14309544545E+02  0.92025048873E+02  0.93371332115E+02  0.10566000000E+00 0.  1.
        994    1    1    2    0    0  0.15716178993E+02 -0.19881806834E+02  0.33193903988E+01  0.17309749530E+03  0.17120000000E+03 0.  0.
        998    1    1    2    0    0 -0.90212695998E+01  0.55722622886E+01  0.14046555570E+04  0.14047311726E+04  0.10000000000E+02 0.  1.
</event>
<event>
 5    1  0.1072898E-008  0.3753959E+03  0.7957747E-01  0.3471454E+00
         13   -1    0    0    0    0  0.00000000000E+00  0.00000000000E+00  0.14999999963E+04  0.15000000000E+04  0.10566000000E+00 0.  1.
        994   -1    0    0    0    0 -0.00000000000E+00 -0.00000000000E+00  0.11368683772E-12  0.17120000000E+03  0.17120000000E+03 0.  0.
         13    1    1    2    0    0  0.21070091290E+02  0.20900480336E+02  0.67517962684E+02  0.73752730622E+02  0.10566000000E+00 0.  1.
        994    1    1    2    0    0 -0.11179784686E+02 -0.41464568119E+01  0.69583475747E+01  0.17175575475E+03  0.17120000000E+03 0.  0.
        998    1    1    2    0    0 -0.98903066038E+01 -0.16754023524E+02  0.14255236860E+04  0.14256915146E+04  0.10000000000E+02 0.  1.
</event>
<event>
 5    1  0.1072898E-008  0.3718440E+03  0.7957747E-01  0.3487459E+00
         13   -1    0    0    0    0  0.00000000000E+00  0.00000000000E+00  0.14999999963E+04  0.15000000000E+04  0.10566000000E+00 0.  1.
        994   -1    0    0    0    0 -0.00000000000E+00 -0.00000000000E+00  0.11368683772E-12  0.17120000000E+03  0.17120000000E+03 0.  0.
         13    1    1    2    0    0 -0.35516020646E+02  0.49802152984E+01  0.72742651270E+02  0.81102988507E+02  0.10566000000E+00 0.  1.
        994    1    1    2    0    0  0.32666909185E+02  0.21649498521E+02  0.13603632314E+02  0.17615426919E+03  0.17120000000E+03 0.  0.
        998    1    1    2    0    0  0.28491114609E+01 -0.26629713819E+02  0.14136537127E+04  0.14139427423E+04  0.10000000000E+02 0.  1.
</event>
<event>
 5    1  0.1072898E-008  0.2448768E+03  0.7957747E-01  0.4390002E+00
         13   -1    0    0    0    0  0.00000000000E+00  0.00000000000E+00  0.14999999963E+04  0.15000000000E+04  0.10566000000E+00 0. -1.
        994   -1    0    0    0    0 -0.00000000000E+00 -0.00000000000E+00  0.11368683772E-12  0.17120000000E+03  0.17120000000E+03 0.  0.
         13    1    1    2    0    0  0.12666570489E+03 -0.10118476809E+03  0.22601253668E+03  0.27814427190E+03  0.10566000000E+00 0. -1.
        994    1    1    2    0    0 -0.15005833866E+03  0.10613349456E+03  0.20626212077E+03  0.32501588597E+03  0.17120000000E+03 0.  0.
        998    1    1    2    0    0  0.23392633766E+02 -0.49487264771E+01  0.10677253388E+04  0.10680398421E+04  0.10000000000E+02 0. -1.
</event>
<event>
 5    1  0.1072898E-008  0.3797561E+03  0.7957747E-01  0.3452221E+00
         13   -1    0    0    0    0  0.00000000000E+00  0.00000000000E+00  0.14999999963E+04  0.15000000000E+04  0.10566000000E+00 0. -1.
        994   -1    0    0    0    0 -0.00000000000E+00 -0.00000000000E+00  0.11368683772E-12  0.17120000000E+03  0.17120000000E+03 0.  0.
         13    1    1    2    0    0  0.57628775609E+01 -0.18614024753E+02  0.41756454636E+02  0.46079337485E+02  0.10566000000E+00 0. -1.
        994    1    1    2    0    0 -0.71134861665E+01  0.20045394714E+02  0.57714068711E+01  0.17261277088E+03  0.17120000000E+03 0.  0.
        998    1    1    2    0    0  0.13506086056E+01 -0.14313699605E+01  0.14524721348E+04  0.14525078916E+04  0.10000000000E+02 0. -1.
</event>
<event>
 5    1  0.1072898E-008  0.3803268E+03  0.7957747E-01  0.3449737E+00
         13   -1    0    0    0    0  0.00000000000E+00  0.00000000000E+00  0.14999999963E+04  0.15000000000E+04  0.10566000000E+00 0. -1.
        994   -1    0    0    0    0 -0.00000000000E+00 -0.00000000000E+00  0.11368683772E-12  0.17120000000E+03  0.17120000000E+03 0.  0.
         13    1    1    2    0    0  0.10940573894E+02  0.11645141202E+03  0.31999559092E+03  0.34070194729E+03  0.10566000000E+00 0. -1.
        994    1    1    2    0    0 -0.21227135391E+02 -0.11301375217E+03  0.66202566629E+02  0.21659852096E+03  0.17120000000E+03 0.  0.
        998    1    1    2    0    0  0.10286561498E+02 -0.34376598555E+01  0.11138018387E+04  0.11138995317E+04  0.10000000000E+02 0. -1.
</event>
<event>
 5    1  0.1072898E-008  0.3700951E+03  0.7957747E-01  0.3495454E+00
         13   -1    0    0    0    0  0.00000000000E+00  0.00000000000E+00  0.14999999963E+04  0.15000000000E+04  0.10566000000E+00 0.  1.
        994   -1    0    0    0    0 -0.00000000000E+00 -0.00000000000E+00  0.11368683772E-12  0.17120000000E+03  0.17120000000E+03 0.  0.
         13    1    1    2    0    0  0.39612070811E+02 -0.15592191961E+02  0.10577084503E+03  0.11401629456E+03  0.10566000000E+00 0.  1.
        994    1    1    2    0    0  0.44920735515E+01  0.83047924555E+01  0.95275764522E+01  0.17172467212E+03  0.17120000000E+03 0.  0.
        998    1    1    2    0    0 -0.44104144362E+02  0.72873995055E+01  0.13847015748E+04  0.13854590333E+04  0.10000000000E+02 0.  1.
</event>
<event>
 5    1  0.1072898E-008  0.3849861E+03  0.7957747E-01  0.3429731E+00
         13   -1    0    0    0    0  0.00000000000E+00  0.00000000000E+00  0.14999999963E+04  0.15000000000E+04  0.10566000000E+00 0. -1.
        994   -1    0    0    0    0 -0.00000000000E+00 -0.00000000000E+00  0.11368683772E-12  0.17120000000E+03  0.17120000000E+03 0.  0.
         13    1    1    2    0    0  0.10733964934E+02  0.14501425453E+02  0.91185890861E+02  0.92953683087E+02  0.10566000000E+00 0. -1.
        994    1    1    2    0    0 -0.23813875813E+02 -0.11732328989E+02  0.39582410420E+01  0.17329124587E+03  0.17120000000E+03 0.  0.
        998    1    1    2    0    0  0.13079910880E+02 -0.27690964642E+01  0.14048558644E+04  0.14049550710E+04  0.10000000000E+02 0. -1.
</event>
<event>
 5    1  0.1072898E-008  0.3824306E+03  0.7957747E-01  0.3440643E+00
         13   -1    0    0    0    0  0.00000000000E+00  0.00000000000E+00  0.14999999963E+04  0.15000000000E+04  0.10566000000E+00 0.  1.
        994   -1    0    0    0    0 -0.00000000000E+00 -0.00000000000E+00  0.11368683772E-12  0.17120000000E+03  0.17120000000E+03 0.  0.
         13    1    1    2    0    0  0.12258730356E+02  0.31140624095E+01  0.26463320907E+02  0.29330741077E+02  0.10566000000E+00 0.  1.
        994    1    1    2    0    0 -0.83297276289E+01  0.37214748885E-01  0.31413558723E+01  0.17143130946E+03  0.17120000000E+03 0.  0.
        998    1    1    2    0    0 -0.39290027267E+01 -0.31512771584E+01  0.14703953195E+04  0.14704379495E+04  0.10000000000E+02 0.  1.
</event>
<event>
 5    1  0.1072898E-008  0.3856283E+03  0.7957747E-01  0.3427012E+00
         13   -1    0    0    0    0  0.00000000000E+00  0.00000000000E+00  0.14999999963E+04  0.15000000000E+04  0.10566000000E+00 0. -1.
        994   -1    0    0    0    0 -0.00000000000E+00 -0.00000000000E+00  0.11368683772E-12  0.17120000000E+03  0.17120000000E+03 0.  0.
         13    1    1    2    0    0  0.14395609345E+02  0.14516202506E+01  0.80522909252E+02  0.81812534787E+02  0.10566000000E+00 0. -1.
        994    1    1    2    0    0 -0.85264073871E+01  0.90289884459E-01  0.15571581285E+01  0.17141928864E+03  0.17120000000E+03 0.  0.
        998    1    1    2    0    0 -0.58692019579E+01 -0.15419101350E+01  0.14179199289E+04  0.14179681766E+04  0.10000000000E+02 0. -1.
</event>
<event>
 5    1  0.1072898E-008  0.3687153E+03  0.7957747E-01  0.3501816E+00
         13   -1    0    0    0    0  0.00000000000E+00  0.00000000000E+00  0.14999999963E+04  0.15000000000E+04  0.10566000000E+00 0. -1.
        994   -1    0    0    0    0 -0.00000000000E+00 -0.00000000000E+00  0.11368683772E-12  0.17120000000E+03  0.17120000000E+03 0.  0.
         13    1    1    2    0    0 -0.19621414103E+02 -0.41842454468E+02  0.97721104363E+02  0.10809817894E+03  0.10566000000E+00 0. -1.
        994    1    1    2    0    0  0.29666518847E+02  0.36999750587E+02  0.17794250170E+02  0.17853615663E+03  0.17120000000E+03 0.  0.
        998    1    1    2    0    0 -0.10045104744E+02  0.48427038805E+01  0.13844846417E+04  0.13845656644E+04  0.10000000000E+02 0. -1.
</event>
<event>
 5    1  0.1500494E-008  0.3865553E+03  0.7957747E-01  0.3423103E+00
         13   -1    0    0    0    0  0.00000000000E+00  0.00000000000E+00  0.14999999963E+04  0.15000000000E+04  0.10566000000E+00 0.  1.
        994   -1    0    0    0    0 -0.00000000000E+00 -0.00000000000E+00  0.11368683772E-12  0.17120000000E+03  0.17120000000E+03 0.  0.
         13    1    1    2    0    0  0.93581413758E+01  0.39608883763E+01  0.61403902292E+02  0.62239166346E+02  0.10566000000E+00 0.  1.
        994    1    1    2    0    0 -0.58350721986E+01 -0.39330968306E+01  0.10219628476E+01  0.17134760496E+03  0.17120000000E+03 0.  0.
        998    1    1    2    0    0 -0.35230691772E+01 -0.27791545710E-01  0.14375741311E+04  0.14376132287E+04  0.10000000000E+02 0.  1.
</event>
<event>
 5    1  0.1072898E-008  0.3767753E+03  0.7957747E-01  0.3465321E+00
         13   -1    0    0    0    0  0.00000000000E+00  0.00000000000E+00  0.14999999963E+04  0.15000000000E+04  0.10566000000E+00 0.  1.
        994   -1    0    0    0    0 -0.00000000000E+00 -0.00000000000E+00  0.11368683772E-12  0.17120000000E+03  0.17120000000E+03 0.  0.
         13    1    1    2    0    0  0.54564780101E+02  0.55237962605E+02  0.37372407908E+03  0.38170439634E+03  0.10566000000E+00 0.  1.
        994    1    1    2    0    0 -0.42192740069E+02 -0.74850090993E+02  0.31137826939E+02  0.19406640024E+03  0.17120000000E+03 0.  0.
        998    1    1    2    0    0 -0.12372040032E+02  0.19612128388E+02  0.10951380903E+04  0.10954292034E+04  0.10000000000E+02 0.  1.
</event>
<event>
 5    1  0.1072898E-008  0.3845282E+03  0.7957747E-01  0.3431676E+00
         13   -1    0    0    0    0  0.00000000000E+00  0.00000000000E+00  0.14999999963E+04  0.15000000000E+04  0.10566000000E+00 0.  1.
        994   -1    0    0    0    0 -0.00000000000E+00 -0.00000000000E+00  0.11368683772E-12  0.17120000000E+03  0.17120000000E+03 0.  0.
         13    1    1    2    0    0  0.17464550706E+02  0.77145852940E+01  0.99635242498E+02  0.10144810530E+03  0.10566000000E+00 0.  1.
        994    1    1    2    0    0 -0.79796170996E+01 -0.48276340910E+01  0.21511054563E+01  0.17146733682E+03  0.17120000000E+03 0.  0.
        998    1    1    2    0    0 -0.94849336061E+01 -0.28869512030E+01  0.13982136483E+04  0.13982845579E+04  0.10000000000E+02 0.  0.
</event>
<event>
 5    1  0.1072898E-008  0.3757218E+03  0.7957747E-01  0.3470001E+00
         13   -1    0    0    0    0  0.00000000000E+00  0.00000000000E+00  0.14999999963E+04  0.15000000000E+04  0.10566000000E+00 0.  1.
        994   -1    0    0    0    0 -0.00000000000E+00 -0.00000000000E+00  0.11368683772E-12  0.17120000000E+03  0.17120000000E+03 0.  0.
         13    1    1    2    0    0  0.13479877710E+02 -0.97733750142E+01  0.19167023877E+02  0.25389208939E+02  0.10566000000E+00 0.  1.
        994    1    1    2    0    0 -0.10299082801E+02  0.93504310265E+01  0.69649566934E+01  0.17190535852E+03  0.17120000000E+03 0.  0.
        998    1    1    2    0    0 -0.31807949091E+01  0.42294398760E+00  0.14738680157E+04  0.14739054325E+04  0.10000000000E+02 0.  1.
</event>
<event>
 5    1  0.1072898E-008  0.3846930E+03  0.7957747E-01  0.3430975E+00
         13   -1    0    0    0    0  0.00000000000E+00  0.00000000000E+00  0.14999999963E+04  0.15000000000E+04  0.10566000000E+00 0.  1.
        994   -1    0    0    0    0 -0.00000000000E+00 -0.00000000000E+00  0.11368683772E-12  0.17120000000E+03  0.17120000000E+03 0.  0.
         13    1    1    2    0    0 -0.58160019076E+00  0.10413281031E+02  0.29599724399E+02  0.31383586938E+02  0.10566000000E+00 0.  1.
        994    1    1    2    0    0 -0.41073054013E+01 -0.11805458658E+02  0.22971318021E+01  0.17167106811E+03  0.17120000000E+03 0.  0.
        998    1    1    2    0    0  0.46889055921E+01  0.13921776267E+01  0.14681031401E+04  0.14681453450E+04  0.10000000000E+02 0.  1.
</event>
<event>
 5    1  0.1072898E-008  0.3810409E+03  0.7957747E-01  0.3446639E+00
         13   -1    0    0    0    0  0.00000000000E+00  0.00000000000E+00  0.14999999963E+04  0.15000000000E+04  0.10566000000E+00 0. -1.
        994   -1    0    0    0    0 -0.00000000000E+00 -0.00000000000E+00  0.11368683772E-12  0.17120000000E+03  0.17120000000E+03 0.  0.
         13    1    1    2    0    0 -0.14863444401E+02 -0.76751171132E+01  0.37087481953E+02  0.40685647147E+02  0.10566000000E+00 0. -1.
        994    1    1    2    0    0  0.11881815970E+02  0.70203528733E+01  0.42434017394E+01  0.17180776864E+03  0.17120000000E+03 0.  0.
        998    1    1    2    0    0  0.29816284318E+01  0.65476423989E+00  0.14586691126E+04  0.14587065842E+04  0.10000000000E+02 0. -1.
</event>
<event>
 5    1  0.1072898E-008  0.3764373E+03  0.7957747E-01  0.3466820E+00
         13   -1    0    0    0    0  0.00000000000E+00  0.00000000000E+00  0.14999999963E+04  0.15000000000E+04  0.10566000000E+00 0.  1.
        994   -1    0    0    0    0 -0.00000000000E+00 -0.00000000000E+00  0.11368683772E-12  0.17120000000E+03  0.17120000000E+03 0.  0.
         13    1    1    2    0    0  0.66944950718E+00  0.34711666095E+02  0.10747790121E+03  0.11294626306E+03  0.10566000000E+00 0.  1.
        994    1    1    2    0    0  0.72512372934E+01 -0.41602016948E+01  0.61789595331E+01  0.17151532661E+03  0.17120000000E+03 0.  0.
        998    1    1    2    0    0 -0.79206868006E+01 -0.30551464400E+02  0.13863431355E+04  0.13867384103E+04  0.10000000000E+02 0.  1.
</event>
<event>
 5    1  0.1072898E-008  0.3840216E+03  0.7957747E-01  0.3433832E+00
         13   -1    0    0    0    0  0.00000000000E+00  0.00000000000E+00  0.14999999963E+04  0.15000000000E+04  0.10566000000E+00 0.  1.
        994   -1    0    0    0    0 -0.00000000000E+00 -0.00000000000E+00  0.11368683772E-12  0.17120000000E+03  0.17120000000E+03 0.  0.
         13    1    1    2    0    0 -0.10084680013E+02  0.28970008010E+01  0.24389892381E+02  0.26551297501E+02  0.10566000000E+00 0.  1.
        994    1    1    2    0    0  0.10750991994E+02 -0.28831810856E+02  0.52467434484E+01  0.17402248551E+03  0.17120000000E+03 0.  0.
        998    1    1    2    0    0 -0.66631198106E+00  0.25934810055E+02  0.14703633604E+04  0.14706262170E+04  0.10000000000E+02 0.  1.
</event>
<event>
 5    1  0.1072898E-008  0.3846455E+03  0.7957747E-01  0.3431177E+00
         13   -1    0    0    0    0  0.00000000000E+00  0.00000000000E+00  0.14999999963E+04  0.15000000000E+04  0.10566000000E+00 0.  1.
        994   -1    0    0    0    0 -0.00000000000E+00 -0.00000000000E+00  0.11368683772E-12  0.17120000000E+03  0.17120000000E+03 0.  0.
         13    1    1    2    0    0 -0.16286577556E+02  0.98088831085E+02  0.23089023752E+03  0.25139010389E+03  0.10566000000E+00 0.  1.
        994    1    1    2    0    0  0.22547231940E+02 -0.82201014396E+02  0.46208719788E+02  0.19674874897E+03  0.17120000000E+03 0.  0.
        998    1    1    2    0    0 -0.62606543843E+01 -0.15887816689E+02  0.12229010390E+04  0.12230611471E+04  0.10000000000E+02 0.  1.
</event>
<event>
 5    1  0.1072898E-008  0.3732858E+03  0.7957747E-01  0.3480925E+00
         13   -1    0    0    0    0  0.00000000000E+00  0.00000000000E+00  0.14999999963E+04  0.15000000000E+04  0.10566000000E+00 0. -1.
        994   -1    0    0    0    0 -0.00000000000E+00 -0.00000000000E+00  0.11368683772E-12  0.17120000000E+03  0.17120000000E+03 0.  0.
         13    1    1    2    0    0 -0.32102029096E+01  0.44213337068E+02  0.13977098966E+03  0.14663241555E+03  0.10566000000E+00 0. -1.
        994    1    1    2    0    0  0.35086501320E+01 -0.68159354804E+01  0.77626240918E+01  0.17154727026E+03  0.17120000000E+03 0.  0.
        998    1    1    2    0    0 -0.29844722243E+00 -0.37397401588E+02  0.13524663825E+04  0.13530203142E+04  0.10000000000E+02 0. -1.
</event>
<event>
 5    1  0.1072898E-008  0.3753264E+03  0.7957747E-01  0.3471764E+00
         13   -1    0    0    0    0  0.00000000000E+00  0.00000000000E+00  0.14999999963E+04  0.15000000000E+04  0.10566000000E+00 0. -1.
        994   -1    0    0    0    0 -0.00000000000E+00 -0.00000000000E+00  0.11368683772E-12  0.17120000000E+03  0.17120000000E+03 0.  0.
         13    1    1    2    0    0 -0.22370910350E+02  0.41288990631E+02  0.71862272543E+02  0.85845417794E+02  0.10566000000E+00 0. -1.
        994    1    1    2    0    0  0.26882528481E+02 -0.38177714236E+02  0.21591310331E+02  0.17876194473E+03  0.17120000000E+03 0.  0.
        998    1    1    2    0    0 -0.45116181309E+01 -0.31112763947E+01  0.14065464134E+04  0.14065926375E+04  0.10000000000E+02 0. -1.
</event>
<event>
 5    1  0.1072898E-008  0.3753377E+03  0.7957747E-01  0.3471714E+00
         13   -1    0    0    0    0  0.00000000000E+00  0.00000000000E+00  0.14999999963E+04  0.15000000000E+04  0.10566000000E+00 0. -1.
        994   -1    0    0    0    0 -0.00000000000E+00 -0.00000000000E+00  0.11368683772E-12  0.17120000000E+03  0.17120000000E+03 0.  0.
         13    1    1    2    0    0  0.15370443300E+03  0.17653830427E+02  0.83204929831E+03  0.84631126450E+03  0.10566000000E+00 0. -1.
        994    1    1    2    0    0 -0.14836905584E+03 -0.66686712046E+01  0.85515873185E+02  0.24224007198E+03  0.17120000000E+03 0.  0.
        998    1    1    2    0    0 -0.53353771593E+01 -0.10985159222E+02  0.58243482479E+03  0.58264866352E+03  0.10000000000E+02 0. -1.
</event>
<event>
 5    1  0.1072898E-008  0.3795739E+03  0.7957747E-01  0.3453016E+00
         13   -1    0    0    0    0  0.00000000000E+00  0.00000000000E+00  0.14999999963E+04  0.15000000000E+04  0.10566000000E+00 0.  1.
        994   -1    0    0    0    0 -0.00000000000E+00 -0.00000000000E+00  0.11368683772E-12  0.17120000000E+03  0.17120000000E+03 0.  0.
         13    1    1    2    0    0  0.24097733298E+02  0.54487938885E+01  0.60406550995E+02  0.65263716352E+02  0.10566000000E+00 0.  1.
        994    1    1    2    0    0 -0.47005323084E+02 -0.84076702516E+01  0.12019711317E+02  0.17814068254E+03  0.17120000000E+03 0.  0.
        998    1    1    2    0    0  0.22907589786E+02  0.29588763631E+01  0.14275737340E+04  0.14277956011E+04  0.10000000000E+02 0.  1.
</event>
<event>
 5    1  0.1072898E-008  0.3816592E+03  0.7957747E-01  0.3443965E+00
         13   -1    0    0    0    0  0.00000000000E+00  0.00000000000E+00  0.14999999963E+04  0.15000000000E+04  0.10566000000E+00 0.  1.
        994   -1    0    0    0    0 -0.00000000000E+00 -0.00000000000E+00  0.11368683772E-12  0.17120000000E+03  0.17120000000E+03 0.  0.
         13    1    1    2    0    0  0.22671420809E+02  0.16400123736E+02  0.13250294783E+03  0.13542525513E+03  0.10566000000E+00 0.  1.
        994    1    1    2    0    0  0.33732516579E+01 -0.30219582323E+01  0.33661118789E+01  0.17129297057E+03  0.17120000000E+03 0.  0.
        998    1    1    2    0    0 -0.26044672467E+02 -0.13378165504E+02  0.13641309366E+04  0.13644817743E+04  0.10000000000E+02 0.  1.
</event>
<event>
 5    1  0.1072898E-008  0.3042241E+03  0.7957747E-01  0.3866316E+00
         13   -1    0    0    0    0  0.00000000000E+00  0.00000000000E+00  0.14999999963E+04  0.15000000000E+04  0.10566000000E+00 0.  1.
        994   -1    0    0    0    0 -0.00000000000E+00 -0.00000000000E+00  0.11368683772E-12  0.17120000000E+03  0.17120000000E+03 0.  0.
         13    1    1    2    0    0 -0.89843554884E+02  0.19161162053E+03  0.60949137021E+03  0.64518727436E+03  0.10566000000E+00 0.  1.
        994    1    1    2    0    0  0.11351454394E+03 -0.18223041962E+03  0.21189091521E+03  0.34684388054E+03  0.17120000000E+03 0.  0.
        998    1    1    2    0    0 -0.23670989060E+02 -0.93812009137E+01  0.67861771086E+03  0.67916884510E+03  0.10000000000E+02 0. -1.
</event>
<event>
 5    1  0.1072898E-008  0.3839277E+03  0.7957747E-01  0.3434233E+00
         13   -1    0    0    0    0  0.00000000000E+00  0.00000000000E+00  0.14999999963E+04  0.15000000000E+04  0.10566000000E+00 0. -1.
        994   -1    0    0    0    0 -0.00000000000E+00 -0.00000000000E+00  0.11368683772E-12  0.17120000000E+03  0.17120000000E+03 0.  0.
         13    1    1    2    0    0 -0.11246609142E+02  0.10577493393E+02  0.70989651276E+02  0.72649234931E+02  0.10566000000E+00 0. -1.
        994    1    1    2    0    0 -0.42186063288E+02  0.20554560976E+01  0.80728423146E+01  0.17651770341E+03  0.17120000000E+03 0.  0.
        998    1    1    2    0    0  0.53432672430E+02 -0.12632949491E+02  0.14209375027E+04  0.14220330617E+04  0.10000000000E+02 0. -1.
</event>
<event>
 5    1  0.1072898E-008  0.3851946E+03  0.7957747E-01  0.3428847E+00
         13   -1    0    0    0    0  0.00000000000E+00  0.00000000000E+00  0.14999999963E+04  0.15000000000E+04  0.10566000000E+00 0. -1.
        994   -1    0    0    0    0 -0.00000000000E+00 -0.00000000000E+00  0.11368683772E-12  0.17120000000E+03  0.17120000000E+03 0.  0.
         13    1    1    2    0    0 -0.82627647939E+01  0.98924300630E+01  0.64019665393E+02  0.65304380984E+02  0.10566000000E+00 0. -1.
        994    1    1    2    0    0 -0.84042263852E+01  0.14131153027E+02  0.24224680285E+01  0.17200473499E+03  0.17120000000E+03 0.  0.
        998    1    1    2    0    0  0.16666991179E+02 -0.24023583090E+02  0.14335578629E+04  0.14338908840E+04  0.10000000000E+02 0. -1.
</event>
<event>
 5    1  0.1072898E-008  0.3840185E+03  0.7957747E-01  0.3433846E+00
         13   -1    0    0    0    0  0.00000000000E+00  0.00000000000E+00  0.14999999963E+04  0.15000000000E+04  0.10566000000E+00 0. -1.
        994   -1    0    0    0    0 -0.00000000000E+00 -0.00000000000E+00  0.11368683772E-12  0.17120000000E+03  0.17120000000E+03 0.  0.
         13    1    1    2    0    0  0.19134009953E+02  0.38606660666E+00  0.90557790002E+02  0.92558002779E+02  0.10566000000E+00 0. -1.
        994    1    1    2    0    0 -0.44766533849E+01 -0.89313433967E+00  0.21869696269E+01  0.17127481120E+03  0.17120000000E+03 0.  0.
        998    1    1    2    0    0 -0.14657356568E+02  0.50706773301E+00  0.14072552366E+04  0.14073671860E+04  0.10000000000E+02 0. -1.
</event>
<event>
 5    1  0.1072898E-008  0.3825505E+03  0.7957747E-01  0.3440128E+00
         13   -1    0    0    0    0  0.00000000000E+00  0.00000000000E+00  0.14999999963E+04  0.15000000000E+04  0.10566000000E+00 0.  1.
        994   -1    0    0    0    0 -0.00000000000E+00 -0.00000000000E+00  0.11368683772E-12  0.17120000000E+03  0.17120000000E+03 0.  0.
         13    1    1    2    0    0  0.17120234838E+02  0.13572648748E+02  0.78685625491E+02  0.81662464192E+02  0.10566000000E+00 0.  1.
        994    1    1    2    0    0 -0.19163488867E+02 -0.13431451300E+02  0.46686931727E+01  0.17285508348E+03  0.17120000000E+03 0.  0.
        998    1    1    2    0    0  0.20432540283E+01 -0.14119744882E+00  0.14166456776E+04  0.14166824523E+04  0.10000000000E+02 0.  1.
</event>
<event>
 5    1  0.1072898E-008  0.3738140E+03  0.7957747E-01  0.3478544E+00
         13   -1    0    0    0    0  0.00000000000E+00  0.00000000000E+00  0.14999999963E+04  0.15000000000E+04  0.10566000000E+00 0. -1.
        994   -1    0    0    0    0 -0.00000000000E+00 -0.00000000000E+00  0.11368683772E-12  0.17120000000E+03  0.17120000000E+03 0.  0.
         13    1    1    2    0    0  0.21346781720E+02  0.82049031040E+01  0.12049306698E+02  0.25849612776E+02  0.10566000000E+00 0. -1.
        994    1    1    2    0    0 -0.85392871327E+02 -0.16096874961E+02  0.40233508382E+02  0.19616122719E+03  0.17120000000E+03 0.  0.
        998    1    1    2    0    0  0.64046089607E+02  0.78919718571E+01  0.14477171812E+04  0.14491891600E+04  0.10000000000E+02 0. -1.
</event>
<event>
 5    1  0.1072898E-008  0.3807064E+03  0.7957747E-01  0.3448088E+00
         13   -1    0    0    0    0  0.00000000000E+00  0.00000000000E+00  0.14999999963E+04  0.15000000000E+04  0.10566000000E+00 0. -1.
        994   -1    0    0    0    0 -0.00000000000E+00 -0.00000000000E+00  0.11368683772E-12  0.17120000000E+03  0.17120000000E+03 0.  0.
         13    1    1    2    0    0  0.12961189983E+02 -0.17827823910E+02  0.64455606697E+02  0.68120189004E+02  0.10566000000E+00 0. -1.
        994    1    1    2    0    0 -0.38456907000E+01  0.80023130331E+01  0.40399042207E+01  0.17147765795E+03  0.17120000000E+03 0.  0.
        998    1    1    2    0    0 -0.91154992832E+01  0.98255108772E+01  0.14315044854E+04  0.14316021530E+04  0.10000000000E+02 0. -1.
</event>
<event>
 5    1  0.1072898E-008  0.3817790E+03  0.7957747E-01  0.3443449E+00
         13   -1    0    0    0    0  0.00000000000E+00  0.00000000000E+00  0.14999999963E+04  0.15000000000E+04  0.10566000000E+00 0. -1.
        994   -1    0    0    0    0 -0.00000000000E+00 -0.00000000000E+00  0.11368683772E-12  0.17120000000E+03  0.17120000000E+03 0.  0.
         13    1    1    2    0    0  0.17816263022E+02  0.96497661082E+01  0.63535410302E+02  0.66688055454E+02  0.10566000000E+00 0. -1.
        994    1    1    2    0    0 -0.80636881999E+01 -0.35595066843E+01  0.34960640815E+01  0.17146240293E+03  0.17120000000E+03 0.  0.
        998    1    1    2    0    0 -0.97525748225E+01 -0.60902594239E+01  0.14329685219E+04  0.14330495416E+04  0.10000000000E+02 0. -1.
</event>
<event>
 5    1  0.1072898E-008  0.3886951E+03  0.7957747E-01  0.3414150E+00
         13   -1    0    0    0    0  0.00000000000E+00  0.00000000000E+00  0.14999999963E+04  0.15000000000E+04  0.10566000000E+00 0. -1.
        994   -1    0    0    0    0 -0.00000000000E+00 -0.00000000000E+00  0.11368683772E-12  0.17120000000E+03  0.17120000000E+03 0.  0.
         13    1    1    2    0    0 -0.40210535695E+02  0.30513165285E+01  0.33361538801E+02  0.52337378121E+02  0.10566000000E+00 0. -1.
        994    1    1    2    0    0 -0.11007874301E+02  0.38880219539E+01  0.21698585594E+02  0.17296403854E+03  0.17120000000E+03 0.  0.
        998    1    1    2    0    0  0.51218409996E+02 -0.69393384824E+01  0.14449398719E+04  0.14458985833E+04  0.10000000000E+02 0. -1.
</event>
<event>
 5    1  0.1072898E-008  0.3839051E+03  0.7957747E-01  0.3434329E+00
         13   -1    0    0    0    0  0.00000000000E+00  0.00000000000E+00  0.14999999963E+04  0.15000000000E+04  0.10566000000E+00 0. -1.
        994   -1    0    0    0    0 -0.00000000000E+00 -0.00000000000E+00  0.11368683772E-12  0.17120000000E+03  0.17120000000E+03 0.  0.
         13    1    1    2    0    0 -0.10893104306E+02  0.12846451918E+02  0.66984222559E+02  0.69069445373E+02  0.10566000000E+00 0. -1.
        994    1    1    2    0    0  0.38435649780E+01 -0.32785042794E+01  0.22589392454E+01  0.17128941704E+03  0.17120000000E+03 0.  0.
        998    1    1    2    0    0  0.70495393278E+01 -0.95679476388E+01  0.14307568345E+04  0.14308411376E+04  0.10000000000E+02 0. -1.
</event>
<event>
 5    1  0.1072898E-008  0.3779018E+03  0.7957747E-01  0.3460346E+00
         13   -1    0    0    0    0  0.00000000000E+00  0.00000000000E+00  0.14999999963E+04  0.15000000000E+04  0.10566000000E+00 0.  1.
        994   -1    0    0    0    0 -0.00000000000E+00 -0.00000000000E+00  0.11368683772E-12  0.17120000000E+03  0.17120000000E+03 0.  0.
         13    1    1    2    0    0  0.27111721180E+01  0.55150858454E+02  0.23181106800E+03  0.23829676887E+03  0.10566000000E+00 0.  1.
        994    1    1    2    0    0  0.39810235446E+01 -0.64707463772E+02  0.19477242020E+02  0.18409700533E+03  0.17120000000E+03 0.  0.
        998    1    1    2    0    0 -0.66921956627E+01  0.95566053185E+01  0.12487116863E+04  0.12488062258E+04  0.10000000000E+02 0.  1.
</event>
<event>
 5    1  0.1072898E-008  0.3850029E+03  0.7957747E-01  0.3429660E+00
         13   -1    0    0    0    0  0.00000000000E+00  0.00000000000E+00  0.14999999963E+04  0.15000000000E+04  0.10566000000E+00 0. -1.
        994   -1    0    0    0    0 -0.00000000000E+00 -0.00000000000E+00  0.11368683772E-12  0.17120000000E+03  0.17120000000E+03 0.  0.
         13    1    1    2    0    0  0.27381533089E+01  0.12891607011E+02  0.35546189433E+02  0.37910866017E+02  0.10566000000E+00 0. -1.
        994    1    1    2    0    0  0.55951088277E+01 -0.10015537869E+03  0.35451270896E+02  0.20156546761E+03  0.17120000000E+03 0.  0.
        998    1    1    2    0    0 -0.83332621366E+01  0.87263771684E+02  0.14290025359E+04  0.14317236664E+04  0.10000000000E+02 0. -1.
</event>
<event>
 5    1  0.1072898E-008  0.3731144E+03  0.7957747E-01  0.3481699E+00
         13   -1    0    0    0    0  0.00000000000E+00  0.00000000000E+00  0.14999999963E+04  0.15000000000E+04  0.10566000000E+00 0.  1.
        994   -1    0    0    0    0 -0.00000000000E+00 -0.00000000000E+00  0.11368683772E-12  0.17120000000E+03  0.17120000000E+03 0.  0.
         13    1    1    2    0    0 -0.47337968885E+02  0.76938216942E+02  0.40450039561E+03  0.41446465922E+03  0.10566000000E+00 0.  1.
        994    1    1    2    0    0  0.42328149194E+02 -0.73246049764E+02  0.32543708904E+02  0.19371419414E+03  0.17120000000E+03 0.  0.
        998    1    1    2    0    0  0.50098196915E+01 -0.36921671783E+01  0.10629558918E+04  0.10630211466E+04  0.10000000000E+02 0.  1.
</event>
<event>
 5    1  0.1072898E-008  0.3706538E+03  0.7957747E-01  0.3492891E+00
         13   -1    0    0    0    0  0.00000000000E+00  0.00000000000E+00  0.14999999963E+04  0.15000000000E+04  0.10566000000E+00 0. -1.
        994   -1    0    0    0    0 -0.00000000000E+00 -0.00000000000E+00  0.11368683772E-12  0.17120000000E+03  0.17120000000E+03 0.  0.
         13    1    1    2    0    0 -0.21902954434E+02  0.37828674642E+01  0.23588732261E+02  0.32411247321E+02  0.10566000000E+00 0. -1.
        994    1    1    2    0    0  0.21160422648E+02 -0.31227599123E+01  0.10507660789E+02  0.17285070452E+03  0.17120000000E+03 0.  0.
        998    1    1    2    0    0  0.74253178604E+00 -0.66010755189E+00  0.14659036032E+04  0.14659380482E+04  0.10000000000E+02 0. -1.
</event>
<event>
 5    1  0.1072898E-008  0.3792760E+03  0.7957747E-01  0.3454317E+00
         13   -1    0    0    0    0  0.00000000000E+00  0.00000000000E+00  0.14999999963E+04  0.15000000000E+04  0.10566000000E+00 0.  1.
        994   -1    0    0    0    0 -0.00000000000E+00 -0.00000000000E+00  0.11368683772E-12  0.17120000000E+03  0.17120000000E+03 0.  0.
         13    1    1    2    0    0  0.44609674647E+02  0.10775291930E+02  0.27132616821E+03  0.27517999693E+03  0.10566000000E+00 0.  1.
        994    1    1    2    0    0 -0.11462871330E+02  0.99488697655E+01  0.52714182985E+01  0.17195233432E+03  0.17120000000E+03 0.  0.
        998    1    1    2    0    0 -0.33146803317E+02 -0.20724161695E+02  0.12234024098E+04  0.12240676688E+04  0.10000000000E+02 0.  1.
</event>
<event>
 5    1  0.1072898E-008  0.3798624E+03  0.7957747E-01  0.3451758E+00
         13   -1    0    0    0    0  0.00000000000E+00  0.00000000000E+00  0.14999999963E+04  0.15000000000E+04  0.10566000000E+00 0.  1.
        994   -1    0    0    0    0 -0.00000000000E+00 -0.00000000000E+00  0.11368683772E-12  0.17120000000E+03  0.17120000000E+03 0.  0.
         13    1    1    2    0    0 -0.26496176314E+02  0.27624029306E+02  0.15533763399E+03  0.15998414313E+03  0.10566000000E+00 0.  1.
        994    1    1    2    0    0  0.36583670170E+02 -0.19743338289E+02  0.10004089881E+02  0.17645873780E+03  0.17120000000E+03 0.  0.
        998    1    1    2    0    0 -0.10087493856E+02 -0.78806910168E+01  0.13346582724E+04  0.13347571191E+04  0.10000000000E+02 0.  1.
</event>
<event>
 5    1  0.1072898E-008  0.3832675E+03  0.7957747E-01  0.3437053E+00
         13   -1    0    0    0    0  0.00000000000E+00  0.00000000000E+00  0.14999999963E+04  0.15000000000E+04  0.10566000000E+00 0.  1.
        994   -1    0    0    0    0 -0.00000000000E+00 -0.00000000000E+00  0.11368683772E-12  0.17120000000E+03  0.17120000000E+03 0.  0.
         13    1    1    2    0    0  0.13755582711E-01 -0.25153408009E+02  0.12855133157E+03  0.13098912221E+03  0.10566000000E+00 0.  1.
        994    1    1    2    0    0 -0.20052279421E+01  0.12803586442E+02  0.30483760419E+01  0.17171687559E+03  0.17120000000E+03 0.  0.
        998    1    1    2    0    0  0.19914723594E+01  0.12349821567E+02  0.13684002887E+04  0.13684940022E+04  0.10000000000E+02 0.  1.
</event>
<event>
 5    1  0.1072898E-008  0.3742277E+03  0.7957747E-01  0.3476684E+00
         13   -1    0    0    0    0  0.00000000000E+00  0.00000000000E+00  0.14999999963E+04  0.15000000000E+04  0.10566000000E+00 0.  1.
        994   -1    0    0    0    0 -0.00000000000E+00 -0.00000000000E+00  0.11368683772E-12  0.17120000000E+03  0.17120000000E+03 0.  0.
         13    1    1    2    0    0  0.11516340938E+03 -0.45950947329E+02  0.36965725005E+03  0.38989818428E+03  0.10566000000E+00 0.  1.
        994    1    1    2    0    0 -0.13862031254E+03  0.37140715624E+02  0.90370761499E+02  0.24097995423E+03  0.17120000000E+03 0.  0.
        998    1    1    2    0    0  0.23456903169E+02  0.88102317046E+01  0.10399719847E+04  0.10403218615E+04  0.10000000000E+02 0.  1.
</event>
<event>
 5    1  0.1072898E-008  0.3858574E+03  0.7957747E-01  0.3426044E+00
         13   -1    0    0    0    0  0.00000000000E+00  0.00000000000E+00  0.14999999963E+04  0.15000000000E+04  0.10566000000E+00 0. -1.
        994   -1    0    0    0    0 -0.00000000000E+00 -0.00000000000E+00  0.11368683772E-12  0.17120000000E+03  0.17120000000E+03 0.  0.
         13    1    1    2    0    0  0.62920580488E+01 -0.93485350611E+01  0.54517752581E+02  0.55670293809E+02  0.10566000000E+00 0. -1.
        994    1    1    2    0    0  0.35412607648E+01  0.71713092421E+01  0.14148423946E+01  0.17139256105E+03  0.17120000000E+03 0.  0.
        998    1    1    2    0    0 -0.98333188136E+01  0.21772258190E+01  0.14440674013E+04  0.14441371451E+04  0.10000000000E+02 0. -1.
</event>
<event>
 5    1  0.1072898E-008  0.3887439E+03  0.7957747E-01  0.3413947E+00
         13   -1    0    0    0    0  0.00000000000E+00  0.00000000000E+00  0.14999999963E+04  0.15000000000E+04  0.10566000000E+00 0. -1.
        994   -1    0    0    0    0 -0.00000000000E+00 -0.00000000000E+00  0.11368683772E-12  0.17120000000E+03  0.17120000000E+03 0.  0.
         13    1    1    2    0    0 -0.37492535274E+02 -0.29766618396E+02  0.44408764693E+02  0.65298478678E+02  0.10566000000E+00 0. -1.
        994    1    1    2    0    0  0.38664244407E+02  0.34055651307E+02  0.31222846773E+02  0.18149109439E+03  0.17120000000E+03 0.  0.
        998    1    1    2    0    0 -0.11717091331E+01 -0.42890329101E+01  0.14243683848E+04  0.14244104269E+04  0.10000000000E+02 0. -1.
</event>
<event>
 5    1  0.1072898E-008  0.3837579E+03  0.7957747E-01  0.3434957E+00
         13   -1    0    0    0    0  0.00000000000E+00  0.00000000000E+00  0.14999999963E+04  0.15000000000E+04  0.10566000000E+00 0. -1.
        994   -1    0    0    0    0 -0.00000000000E+00 -0.00000000000E+00  0.11368683772E-12  0.17120000000E+03  0.17120000000E+03 0.  0.
         13    1    1    2    0    0 -0.17977945345E+02 -0.18686686824E+01  0.75386139634E+02  0.77522768619E+02  0.10566000000E+00 0. -1.
        994    1    1    2    0    0  0.56970346989E+01 -0.12329602242E+02  0.28574151669E+01  0.17176169572E+03  0.17120000000E+03 0.  0.
        998    1    1    2    0    0  0.12280910647E+02  0.14198270925E+02  0.14217564415E+04  0.14219155357E+04  0.10000000000E+02 0. -1.
</event>
<event>
 5    1  0.1072898E-008  0.3843034E+03  0.7957747E-01  0.3432632E+00
         13   -1    0    0    0    0  0.00000000000E+00  0.00000000000E+00  0.14999999963E+04  0.15000000000E+04  0.10566000000E+00 0. -1.
        994   -1    0    0    0    0 -0.00000000000E+00 -0.00000000000E+00  0.11368683772E-12  0.17120000000E+03  0.17120000000E+03 0.  0.
         13    1    1    2    0    0  0.16973505323E+02 -0.55414444327E+01  0.80902758636E+02  0.82849713387E+02  0.10566000000E+00 0. -1.
        994    1    1    2    0    0 -0.80783603765E+01  0.90045824618E+01  0.24588867810E+01  0.17164448298E+03  0.17120000000E+03 0.  0.
        998    1    1    2    0    0 -0.88951449464E+01 -0.34631380290E+01  0.14166383509E+04  0.14167058036E+04  0.10000000000E+02 0. -1.
</event>
<event>
 5    1  0.1072898E-008  0.3774525E+03  0.7957747E-01  0.3462326E+00
         13   -1    0    0    0    0  0.00000000000E+00  0.00000000000E+00  0.14999999963E+04  0.15000000000E+04  0.10566000000E+00 0.  1.
        994   -1    0    0    0    0 -0.00000000000E+00 -0.00000000000E+00  0.11368683772E-12  0.17120000000E+03  0.17120000000E+03 0.  0.
         13    1    1    2    0    0  0.73872096093E+02  0.45230607670E+02  0.47030911888E+03  0.47821916829E+03  0.10566000000E+00 0.  1.
        994    1    1    2    0    0 -0.71906626821E+02 -0.48053752553E+02  0.31071474502E+02  0.19430543647E+03  0.17120000000E+03 0.  0.
        998    1    1    2    0    0 -0.19654692718E+01  0.28231448830E+01  0.99861940290E+03  0.99867539524E+03  0.10000000000E+02 0.  0.
</event>
<event>
 5    1  0.1072898E-008  0.3836401E+03  0.7957747E-01  0.3435460E+00
         13   -1    0    0    0    0  0.00000000000E+00  0.00000000000E+00  0.14999999963E+04  0.15000000000E+04  0.10566000000E+00 0.  1.
        994   -1    0    0    0    0 -0.00000000000E+00 -0.00000000000E+00  0.11368683772E-12  0.17120000000E+03  0.17120000000E+03 0.  0.
         13    1    1    2    0    0 -0.43249440693E+01  0.13985009146E+02  0.45112708069E+02  0.47428400936E+02  0.10566000000E+00 0.  1.
        994    1    1    2    0    0  0.37350985163E+01 -0.12722513132E+02  0.28877792756E+01  0.17173698661E+03  0.17120000000E+03 0.  0.
        998    1    1    2    0    0  0.58984555299E+00 -0.12624960133E+01  0.14519995089E+04  0.14520346125E+04  0.10000000000E+02 0.  0.
</event>
<event>
 5    1  0.1072898E-008  0.3798789E+03  0.7957747E-01  0.3451686E+00
         13   -1    0    0    0    0  0.00000000000E+00  0.00000000000E+00  0.14999999963E+04  0.15000000000E+04  0.10566000000E+00 0.  1.
        994   -1    0    0    0    0 -0.00000000000E+00 -0.00000000000E+00  0.11368683772E-12  0.17120000000E+03  0.17120000000E+03 0.  0.
         13    1    1    2    0    0  0.15420981420E+02 -0.34928733179E+02  0.17190439503E+03  0.17609359802E+03  0.10566000000E+00 0.  1.
        994    1    1    2    0    0 -0.38081616947E+02  0.92847881812E+01  0.93496252393E+01  0.17587857269E+03  0.17120000000E+03 0.  0.
        998    1    1    2    0    0  0.22660635527E+02  0.25643944998E+02  0.13187459760E+04  0.13192278293E+04  0.10000000000E+02 0.  1.
</event>
<event>
 5    1  0.1072898E-008  0.3816262E+03  0.7957747E-01  0.3444108E+00
         13   -1    0    0    0    0  0.00000000000E+00  0.00000000000E+00  0.14999999963E+04  0.15000000000E+04  0.10566000000E+00 0.  1.
        994   -1    0    0    0    0 -0.00000000000E+00 -0.00000000000E+00  0.11368683772E-12  0.17120000000E+03  0.17120000000E+03 0.  0.
         13    1    1    2    0    0  0.51936342749E+01 -0.16206085587E+02  0.40628804203E+02  0.44049085598E+02  0.10566000000E+00 0.  1.
        994    1    1    2    0    0 -0.44768575826E+01  0.23096215126E+02  0.51569942819E+01  0.17288583515E+03  0.17120000000E+03 0.  0.
        998    1    1    2    0    0 -0.71677669235E+00 -0.68901295384E+01  0.14542141978E+04  0.14542650792E+04  0.10000000000E+02 0.  1.
</event>
<event>
 5    1  0.1072898E-008  0.3818843E+03  0.7957747E-01  0.3442995E+00
         13   -1    0    0    0    0  0.00000000000E+00  0.00000000000E+00  0.14999999963E+04  0.15000000000E+04  0.10566000000E+00 0. -1.
        994   -1    0    0    0    0 -0.00000000000E+00 -0.00000000000E+00  0.11368683772E-12  0.17120000000E+03  0.17120000000E+03 0.  0.
         13    1    1    2    0    0 -0.85351997182E+01 -0.79493286317E+01  0.20672073283E+02  0.23735779696E+02  0.10566000000E+00 0. -1.
        994    1    1    2    0    0 -0.11672826231E+02  0.10292294752E+02  0.39900031554E+01  0.17195216291E+03  0.17120000000E+03 0.  0.
        998    1    1    2    0    0  0.20208025949E+02 -0.23429661207E+01  0.14753379198E+04  0.14755120574E+04  0.10000000000E+02 0. -1.
</event>
<event>
 5    1  0.1072898E-008  0.3821891E+03  0.7957747E-01  0.3441682E+00
         13   -1    0    0    0    0  0.00000000000E+00  0.00000000000E+00  0.14999999963E+04  0.15000000000E+04  0.10566000000E+00 0. -1.
        994   -1    0    0    0    0 -0.00000000000E+00 -0.00000000000E+00  0.11368683772E-12  0.17120000000E+03  0.17120000000E+03 0.  0.
         13    1    1    2    0    0 -0.40434790470E+01  0.11885947871E+02  0.25117899465E+02  0.28081052636E+02  0.10566000000E+00 0. -1.
        994    1    1    2    0    0  0.45095887265E+01 -0.40814413347E+01  0.31549498020E+01  0.17133706039E+03  0.17120000000E+03 0.  0.
        998    1    1    2    0    0 -0.46610967951E+00 -0.78045065366E+01  0.14717271470E+04  0.14717818870E+04  0.10000000000E+02 0. -1.
</event>
<event>
 5    1  0.1072898E-008  0.3806399E+03  0.7957747E-01  0.3448377E+00
         13   -1    0    0    0    0  0.00000000000E+00  0.00000000000E+00  0.14999999963E+04  0.15000000000E+04  0.10566000000E+00 0. -1.
        994   -1    0    0    0    0 -0.00000000000E+00 -0.00000000000E+00  0.11368683772E-12  0.17120000000E+03  0.17120000000E+03 0.  0.
         13    1    1    2    0    0 -0.21015835050E+02 -0.29003989810E+02  0.15112865711E+03  0.15531509557E+03  0.10566000000E+00 0. -1.
        994    1    1    2    0    0  0.23114564776E+02  0.28293408749E+02  0.82760487929E+01  0.17525048664E+03  0.17120000000E+03 0.  0.
        998    1    1    2    0    0 -0.20987297259E+01  0.71058106177E+00  0.13405952904E+04  0.13406344178E+04  0.10000000000E+02 0.  0.
</event>
<event>
 5    1  0.1072898E-008  0.4127450E+03  0.7957747E-01  0.3319901E+00
         13   -1    0    0    0    0  0.00000000000E+00  0.00000000000E+00  0.14999999963E+04  0.15000000000E+04  0.10566000000E+00 0. -1.
        994   -1    0    0    0    0 -0.00000000000E+00 -0.00000000000E+00  0.11368683772E-12  0.17120000000E+03  0.17120000000E+03 0.  0.
         13    1    1    2    0    0 -0.30331024479E+02 -0.13230798627E+02  0.67249221524E+00  0.33098164422E+02  0.10566000000E+00 0. -1.
        994    1    1    2    0    0  0.30232398199E+02  0.16084599122E+02  0.40487045980E+02  0.17922430952E+03  0.17120000000E+03 0.  0.
        998    1    1    2    0    0  0.98626280585E-01 -0.28538004951E+01  0.14588404581E+04  0.14588775261E+04  0.10000000000E+02 0. -1.
</event>
<event>
 5    1  0.1072898E-008  0.3799749E+03  0.7957747E-01  0.3451268E+00
         13   -1    0    0    0    0  0.00000000000E+00  0.00000000000E+00  0.14999999963E+04  0.15000000000E+04  0.10566000000E+00 0. -1.
        994   -1    0    0    0    0 -0.00000000000E+00 -0.00000000000E+00  0.11368683772E-12  0.17120000000E+03  0.17120000000E+03 0.  0.
         13    1    1    2    0    0  0.68977452936E+01  0.11992163138E+02  0.21773308987E+02  0.25796879950E+02  0.10566000000E+00 0. -1.
        994    1    1    2    0    0  0.62308825511E+00 -0.36432912487E+01  0.41915022813E+01  0.17129118629E+03  0.17120000000E+03 0.  0.
        998    1    1    2    0    0 -0.75208335487E+01 -0.83488718891E+01  0.14740351850E+04  0.14741119338E+04  0.10000000000E+02 0. -1.
</event>
<event>
 5    1  0.1072898E-008  0.3831217E+03  0.7957747E-01  0.3437678E+00
         13   -1    0    0    0    0  0.00000000000E+00  0.00000000000E+00  0.14999999963E+04  0.15000000000E+04  0.10566000000E+00 0.  1.
        994   -1    0    0    0    0 -0.00000000000E+00 -0.00000000000E+00  0.11368683772E-12  0.17120000000E+03  0.17120000000E+03 0.  0.
         13    1    1    2    0    0 -0.27626798213E+03  0.16546217937E+01  0.10315823534E+04  0.10679367485E+04  0.10566000000E+00 0.  1.
        994    1    1    2    0    0  0.28202174214E+03 -0.63941135087E+01  0.33841641230E+03  0.47266505672E+03  0.17120000000E+03 0.  0.
        998    1    1    2    0    0 -0.57537600085E+01  0.47394917150E+01  0.13000123057E+03  0.13059819481E+03  0.10000000000E+02 0.  1.
</event>
<event>
 5    1  0.1072898E-008  0.3842175E+03  0.7957747E-01  0.3432997E+00
         13   -1    0    0    0    0  0.00000000000E+00  0.00000000000E+00  0.14999999963E+04  0.15000000000E+04  0.10566000000E+00 0. -1.
        994   -1    0    0    0    0 -0.00000000000E+00 -0.00000000000E+00  0.11368683772E-12  0.17120000000E+03  0.17120000000E+03 0.  0.
         13    1    1    2    0    0  0.13346245764E+02  0.53519928302E+01  0.51537015118E+02  0.53505524897E+02  0.10566000000E+00 0. -1.
        994    1    1    2    0    0 -0.54291636580E+01 -0.47734477189E+01  0.21914398343E+01  0.17136657792E+03  0.17120000000E+03 0.  0.
        998    1    1    2    0    0 -0.79170821061E+01 -0.57854511127E+00  0.14462715413E+04  0.14463278972E+04  0.10000000000E+02 0. -1.
</event>
<event>
 5    1  0.1072898E-008  0.3813721E+03  0.7957747E-01  0.3445206E+00
         13   -1    0    0    0    0  0.00000000000E+00  0.00000000000E+00  0.14999999963E+04  0.15000000000E+04  0.10566000000E+00 0.  1.
        994   -1    0    0    0    0 -0.00000000000E+00 -0.00000000000E+00  0.11368683772E-12  0.17120000000E+03  0.17120000000E+03 0.  0.
         13    1    1    2    0    0 -0.16343336773E+02  0.39804808414E+00  0.38651796117E+02  0.41967077647E+02  0.10566000000E+00 0.  1.
        994    1    1    2    0    0  0.28261850467E+01 -0.79016815837E+01  0.36765396827E+01  0.17144497904E+03  0.17120000000E+03 0.  0.
        998    1    1    2    0    0  0.13517151726E+02  0.75036334995E+01  0.14576716605E+04  0.14577879433E+04  0.10000000000E+02 0.  1.
</event>
<event>
 5    1  0.1072898E-008  0.3845314E+03  0.7957747E-01  0.3431662E+00
         13   -1    0    0    0    0  0.00000000000E+00  0.00000000000E+00  0.14999999963E+04  0.15000000000E+04  0.10566000000E+00 0.  1.
        994   -1    0    0    0    0 -0.00000000000E+00 -0.00000000000E+00  0.11368683772E-12  0.17120000000E+03  0.17120000000E+03 0.  0.
         13    1    1    2    0    0 -0.32068811426E+01  0.15999415906E+02  0.71686811301E+02  0.73520578579E+02  0.10566000000E+00 0.  1.
        994    1    1    2    0    0 -0.12210610028E+02 -0.12555235682E+02  0.28738685377E+01  0.17211749493E+03  0.17120000000E+03 0.  0.
        998    1    1    2    0    0  0.15417491171E+02 -0.34441802243E+01  0.14254393164E+04  0.14255619265E+04  0.10000000000E+02 0.  1.
</event>
<event>
 5    1  0.1072898E-008  0.3764889E+03  0.7957747E-01  0.3466590E+00
         13   -1    0    0    0    0  0.00000000000E+00  0.00000000000E+00  0.14999999963E+04  0.15000000000E+04  0.10566000000E+00 0.  1.
        994   -1    0    0    0    0 -0.00000000000E+00 -0.00000000000E+00  0.11368683772E-12  0.17120000000E+03  0.17120000000E+03 0.  0.
         13    1    1    2    0    0 -0.15691877489E+02  0.38189682841E+02  0.13800948065E+03  0.14405316660E+03  0.10566000000E+00 0.  1.
        994    1    1    2    0    0 -0.50547195795E+01 -0.34820109678E+02  0.10114711097E+02  0.17507066461E+03  0.17120000000E+03 0.  0.
        998    1    1    2    0    0  0.20746597069E+02 -0.33695731631E+01  0.13518758045E+04  0.13520761688E+04  0.10000000000E+02 0.  1.
</event>
<event>
 5    1  0.1072898E-008  0.3844218E+03  0.7957747E-01  0.3432128E+00
         13   -1    0    0    0    0  0.00000000000E+00  0.00000000000E+00  0.14999999963E+04  0.15000000000E+04  0.10566000000E+00 0. -1.
        994   -1    0    0    0    0 -0.00000000000E+00 -0.00000000000E+00  0.11368683772E-12  0.17120000000E+03  0.17120000000E+03 0.  0.
         13    1    1    2    0    0  0.34765707874E+01 -0.11638231020E+02  0.37495659882E+02  0.39414091892E+02  0.10566000000E+00 0. -1.
        994    1    1    2    0    0 -0.37668646856E+01  0.11060278335E+02  0.23673930537E+01  0.17161457857E+03  0.17120000000E+03 0.  0.
        998    1    1    2    0    0  0.29029389826E+00  0.57795268489E+00  0.14601369433E+04  0.14601713295E+04  0.10000000000E+02 0.  0.
</event>
<event>
 5    1  0.1072898E-008  0.3811214E+03  0.7957747E-01  0.3446290E+00
         13   -1    0    0    0    0  0.00000000000E+00  0.00000000000E+00  0.14999999963E+04  0.15000000000E+04  0.10566000000E+00 0. -1.
        994   -1    0    0    0    0 -0.00000000000E+00 -0.00000000000E+00  0.11368683772E-12  0.17120000000E+03  0.17120000000E+03 0.  0.
         13    1    1    2    0    0  0.40781621184E+02  0.10798852734E+03  0.30208489542E+03  0.32338824633E+03  0.10566000000E+00 0. -1.
        994    1    1    2    0    0 -0.40019053885E+02 -0.10933375805E+03  0.68098860494E+02  0.21795020102E+03  0.17120000000E+03 0.  0.
        998    1    1    2    0    0 -0.76256729844E+00  0.13452307138E+01  0.11298162404E+04  0.11298615526E+04  0.10000000000E+02 0.  0.
</event>
<event>
 5    1  0.1072898E-008  0.3750041E+03  0.7957747E-01  0.3473204E+00
         13   -1    0    0    0    0  0.00000000000E+00  0.00000000000E+00  0.14999999963E+04  0.15000000000E+04  0.10566000000E+00 0. -1.
        994   -1    0    0    0    0 -0.00000000000E+00 -0.00000000000E+00  0.11368683772E-12  0.17120000000E+03  0.17120000000E+03 0.  0.
         13    1    1    2    0    0 -0.11645257726E+02 -0.11297661758E+02  0.17118208940E+02  0.23585873527E+02  0.10566000000E+00 0. -1.
        994    1    1    2    0    0 -0.93807626623E+01  0.15061724030E+02  0.77475735337E+01  0.17229137858E+03  0.17120000000E+03 0.  0.
        998    1    1    2    0    0  0.21026020388E+02 -0.37640622716E+01  0.14751342138E+04  0.14753227479E+04  0.10000000000E+02 0. -1.
</event>
<event>
 5    1  0.1072898E-008  0.3848028E+03  0.7957747E-01  0.3430509E+00
         13   -1    0    0    0    0  0.00000000000E+00  0.00000000000E+00  0.14999999963E+04  0.15000000000E+04  0.10566000000E+00 0. -1.
        994   -1    0    0    0    0 -0.00000000000E+00 -0.00000000000E+00  0.11368683772E-12  0.17120000000E+03  0.17120000000E+03 0.  0.
         13    1    1    2    0    0 -0.60982094475E+01  0.11475618526E+02  0.49257825319E+02  0.50943326336E+02  0.10566000000E+00 0. -1.
        994    1    1    2    0    0  0.45871798849E+01 -0.50482387428E+01  0.18812087479E+01  0.17134615805E+03  0.17120000000E+03 0.  0.
        998    1    1    2    0    0  0.15110295627E+01 -0.64273797833E+01  0.14488609622E+04  0.14489105156E+04  0.10000000000E+02 0. -1.
</event>
<event>
 5    1  0.1072898E-008  0.3790436E+03  0.7957747E-01  0.3455333E+00
         13   -1    0    0    0    0  0.00000000000E+00  0.00000000000E+00  0.14999999963E+04  0.15000000000E+04  0.10566000000E+00 0. -1.
        994   -1    0    0    0    0 -0.00000000000E+00 -0.00000000000E+00  0.11368683772E-12  0.17120000000E+03  0.17120000000E+03 0.  0.
         13    1    1    2    0    0  0.23279728823E+00 -0.12414215982E+02  0.14457456183E+02  0.19057705957E+02  0.10566000000E+00 0. -1.
        994    1    1    2    0    0 -0.42062752695E+01  0.15437205047E+02  0.54756512400E+01  0.17203320263E+03  0.17120000000E+03 0.  0.
        998    1    1    2    0    0  0.39734779813E+01 -0.30229890644E+01  0.14800668889E+04  0.14801090914E+04  0.10000000000E+02 0. -1.
</event>
<event>
 5    1  0.1072898E-008  0.3917404E+03  0.7957747E-01  0.3401579E+00
         13   -1    0    0    0    0  0.00000000000E+00  0.00000000000E+00  0.14999999963E+04  0.15000000000E+04  0.10566000000E+00 0. -1.
        994   -1    0    0    0    0 -0.00000000000E+00 -0.00000000000E+00  0.11368683772E-12  0.17120000000E+03  0.17120000000E+03 0.  0.
         13    1    1    2    0    0 -0.23315768044E+02 -0.12767413605E+03  0.28493200477E+03  0.31309833689E+03  0.10566000000E+00 0. -1.
        994    1    1    2    0    0  0.24759188969E+02  0.12683671016E+03  0.89393627690E+02  0.23238164548E+03  0.17120000000E+03 0.  0.
        998    1    1    2    0    0 -0.14434209251E+01  0.83742589443E+00  0.11256743638E+04  0.11257200176E+04  0.10000000000E+02 0.  0.
</event>
<event>
 5    1  0.1072898E-008  0.3752745E+03  0.7957747E-01  0.3471996E+00
         13   -1    0    0    0    0  0.00000000000E+00  0.00000000000E+00  0.14999999963E+04  0.15000000000E+04  0.10566000000E+00 0. -1.
        994   -1    0    0    0    0 -0.00000000000E+00 -0.00000000000E+00  0.11368683772E-12  0.17120000000E+03  0.17120000000E+03 0.  0.
         13    1    1    2    0    0 -0.58900345223E+02 -0.19511515900E+02  0.27481352693E+03  0.28173114075E+03  0.10566000000E+00 0. -1.
        994    1    1    2    0    0  0.30552784233E+02  0.56324601266E+02  0.20611964806E+02  0.18395713203E+03  0.17120000000E+03 0.  0.
        998    1    1    2    0    0  0.28347560990E+02 -0.36813085365E+02  0.12045745045E+04  0.12055117272E+04  0.10000000000E+02 0. -1.
</event>
<event>
 5    1  0.1072898E-008  0.3712979E+03  0.7957747E-01  0.3489947E+00
         13   -1    0    0    0    0  0.00000000000E+00  0.00000000000E+00  0.14999999963E+04  0.15000000000E+04  0.10566000000E+00 0.  1.
        994   -1    0    0    0    0 -0.00000000000E+00 -0.00000000000E+00  0.11368683772E-12  0.17120000000E+03  0.17120000000E+03 0.  0.
         13    1    1    2    0    0 -0.17943479239E+02 -0.62740447395E+02  0.29749893057E+03  0.30457176009E+03  0.10566000000E+00 0.  1.
        994    1    1    2    0    0 -0.16010112113E+01  0.10513904773E+02  0.89816650824E+01  0.17176500149E+03  0.17120000000E+03 0.  0.
        998    1    1    2    0    0  0.19544490450E+02  0.52226542622E+02  0.11935194006E+04  0.11948632384E+04  0.10000000000E+02 0. -1.
</event>
<event>
 5    1  0.1072898E-008  0.3829336E+03  0.7957747E-01  0.3438484E+00
         13   -1    0    0    0    0  0.00000000000E+00  0.00000000000E+00  0.14999999963E+04  0.15000000000E+04  0.10566000000E+00 0. -1.
        994   -1    0    0    0    0 -0.00000000000E+00 -0.00000000000E+00  0.11368683772E-12  0.17120000000E+03  0.17120000000E+03 0.  0.
         13    1    1    2    0    0 -0.38348944779E+01 -0.28326887134E+02  0.16459041527E+03  0.16705428732E+03  0.10566000000E+00 0. -1.
        994    1    1    2    0    0 -0.78995918380E+00  0.81747816500E+01  0.28829100979E+01  0.17142112548E+03  0.17120000000E+03 0.  0.
        998    1    1    2    0    0  0.46248536617E+01  0.20152105484E+02  0.13325266709E+04  0.13327245872E+04  0.10000000000E+02 0. -1.
</event>
<event>
 5    1  0.1072898E-008  0.3734158E+03  0.7957747E-01  0.3480338E+00
         13   -1    0    0    0    0  0.00000000000E+00  0.00000000000E+00  0.14999999963E+04  0.15000000000E+04  0.10566000000E+00 0.  1.
        994   -1    0    0    0    0 -0.00000000000E+00 -0.00000000000E+00  0.11368683772E-12  0.17120000000E+03  0.17120000000E+03 0.  0.
         13    1    1    2    0    0 -0.47870441687E+01 -0.26827971948E+02  0.44847822119E+02  0.52478511637E+02  0.10566000000E+00 0.  1.
        994    1    1    2    0    0 -0.35824906173E+00  0.31674472856E+02  0.10931257250E+02  0.17444865422E+03  0.17120000000E+03 0.  0.
        998    1    1    2    0    0  0.51452932305E+01 -0.48465009081E+01  0.14442209169E+04  0.14442728341E+04  0.10000000000E+02 0.  1.
</event>
<event>
 5    1  0.1072898E-008  0.3806237E+03  0.7957747E-01  0.3448447E+00
         13   -1    0    0    0    0  0.00000000000E+00  0.00000000000E+00  0.14999999963E+04  0.15000000000E+04  0.10566000000E+00 0.  1.
        994   -1    0    0    0    0 -0.00000000000E+00 -0.00000000000E+00  0.11368683772E-12  0.17120000000E+03  0.17120000000E+03 0.  0.
         13    1    1    2    0    0  0.19011669287E+02  0.97828015628E+01  0.58892417022E+02  0.62653609012E+02  0.10566000000E+00 0.  1.
        994    1    1    2    0    0 -0.83806461415E+01 -0.10160636804E+02  0.43975673689E+01  0.17176219715E+03  0.17120000000E+03 0.  0.
        998    1    1    2    0    0 -0.10631023145E+02  0.37783524147E+00  0.14367100119E+04  0.14367841938E+04  0.10000000000E+02 0.  1.
</event>
<event>
 5    1  0.1072898E-008  0.3835092E+03  0.7957747E-01  0.3436020E+00
         13   -1    0    0    0    0  0.00000000000E+00  0.00000000000E+00  0.14999999963E+04  0.15000000000E+04  0.10566000000E+00 0.  1.
        994   -1    0    0    0    0 -0.00000000000E+00 -0.00000000000E+00  0.11368683772E-12  0.17120000000E+03  0.17120000000E+03 0.  0.
         13    1    1    2    0    0  0.16876364030E+02 -0.15155772587E+02  0.13607876372E+03  0.13795633442E+03  0.10566000000E+00 0.  1.
        994    1    1    2    0    0 -0.15290516772E+02 -0.35675330298E+02  0.73666075792E+01  0.17569927718E+03  0.17120000000E+03 0.  0.
        998    1    1    2    0    0 -0.15858472576E+01  0.50831102885E+02  0.13565546250E+04  0.13575443884E+04  0.10000000000E+02 0.  1.
</event>
<event>
 5    1  0.1072898E-008  0.3793038E+03  0.7957747E-01  0.3454195E+00
         13   -1    0    0    0    0  0.00000000000E+00  0.00000000000E+00  0.14999999963E+04  0.15000000000E+04  0.10566000000E+00 0.  1.
        994   -1    0    0    0    0 -0.00000000000E+00 -0.00000000000E+00  0.11368683772E-12  0.17120000000E+03  0.17120000000E+03 0.  0.
         13    1    1    2    0    0 -0.24119282432E+01  0.21193205768E+02  0.51025186564E+02  0.55304160752E+02  0.10566000000E+00 0.  1.
        994    1    1    2    0    0 -0.59079438591E+01 -0.37381604493E+01  0.46487591447E+01  0.17140574263E+03  0.17120000000E+03 0.  0.
        998    1    1    2    0    0  0.83198721023E+01 -0.17455045318E+02  0.14443260506E+04  0.14444900966E+04  0.10000000000E+02 0.  1.
</event>
<event>
 5    1  0.1072898E-008  0.3771420E+03  0.7957747E-01  0.3463698E+00
         13   -1    0    0    0    0  0.00000000000E+00  0.00000000000E+00  0.14999999963E+04  0.15000000000E+04  0.10566000000E+00 0.  1.
        994   -1    0    0    0    0 -0.00000000000E+00 -0.00000000000E+00  0.11368683772E-12  0.17120000000E+03  0.17120000000E+03 0.  0.
         13    1    1    2    0    0  0.41341546062E+02 -0.53436866367E+02  0.39831520056E+03  0.40400449537E+03  0.10566000000E+00 0.  1.
        994    1    1    2    0    0 -0.45663451147E+02  0.17812653194E+02  0.13734015541E+02  0.17860712351E+03  0.17120000000E+03 0.  0.
        998    1    1    2    0    0  0.43219050851E+01  0.35624213172E+02  0.10879507802E+04  0.10885883811E+04  0.10000000000E+02 0.  1.
</event>
<event>
 5    1  0.1072898E-008  0.3848320E+03  0.7957747E-01  0.3430385E+00
         13   -1    0    0    0    0  0.00000000000E+00  0.00000000000E+00  0.14999999963E+04  0.15000000000E+04  0.10566000000E+00 0.  1.
        994   -1    0    0    0    0 -0.00000000000E+00 -0.00000000000E+00  0.11368683772E-12  0.17120000000E+03  0.17120000000E+03 0.  0.
         13    1    1    2    0    0 -0.10191215419E+02 -0.29872974023E+01  0.32356982749E+02  0.34055400661E+02  0.10566000000E+00 0.  1.
        994    1    1    2    0    0  0.74410708245E+01  0.72079171707E+01  0.20667985964E+01  0.17152561109E+03  0.17120000000E+03 0.  0.
        998    1    1    2    0    0  0.27501445942E+01 -0.42206197684E+01  0.14655762149E+04  0.14656189882E+04  0.10000000000E+02 0.  1.
</event>
<event>
 5    1  0.1072898E-008  0.3834340E+03  0.7957747E-01  0.3436341E+00
         13   -1    0    0    0    0  0.00000000000E+00  0.00000000000E+00  0.14999999963E+04  0.15000000000E+04  0.10566000000E+00 0.  1.
        994   -1    0    0    0    0 -0.00000000000E+00 -0.00000000000E+00  0.11368683772E-12  0.17120000000E+03  0.17120000000E+03 0.  0.
         13    1    1    2    0    0 -0.21829712917E+02  0.84671773300E+01  0.11536688975E+03  0.11771898688E+03  0.10566000000E+00 0.  1.
        994    1    1    2    0    0  0.16716510204E+01 -0.31003542480E+02  0.56026436828E+01  0.17408286441E+03  0.17120000000E+03 0.  0.
        998    1    1    2    0    0  0.20158061896E+02  0.22536365150E+02  0.13790304628E+04  0.13793981487E+04  0.10000000000E+02 0.  1.
</event>
<event>
 5    1  0.1072898E-008  0.3775246E+03  0.7957747E-01  0.3462008E+00
         13   -1    0    0    0    0  0.00000000000E+00  0.00000000000E+00  0.14999999963E+04  0.15000000000E+04  0.10566000000E+00 0. -1.
        994   -1    0    0    0    0 -0.00000000000E+00 -0.00000000000E+00  0.11368683772E-12  0.17120000000E+03  0.17120000000E+03 0.  0.
         13    1    1    2    0    0 -0.65395728912E+01 -0.79933474333E+01  0.73864405767E+01  0.12697648807E+02  0.10566000000E+00 0. -1.
        994    1    1    2    0    0  0.87849004380E+01  0.70171255475E+01  0.58141401375E+01  0.17166729086E+03  0.17120000000E+03 0.  0.
        998    1    1    2    0    0 -0.22453275468E+01  0.97622188587E+00  0.14867994156E+04  0.14868350603E+04  0.10000000000E+02 0. -1.
</event>
<event>
 5    1  0.1072898E-008  0.3842100E+03  0.7957747E-01  0.3433030E+00
         13   -1    0    0    0    0  0.00000000000E+00  0.00000000000E+00  0.14999999963E+04  0.15000000000E+04  0.10566000000E+00 0. -1.
        994   -1    0    0    0    0 -0.00000000000E+00 -0.00000000000E+00  0.11368683772E-12  0.17120000000E+03  0.17120000000E+03 0.  0.
         13    1    1    2    0    0 -0.13268223065E+02 -0.24560749410E+02  0.13388716062E+03  0.13676643995E+03  0.10566000000E+00 0. -1.
        994    1    1    2    0    0  0.74688588796E+02  0.36214703928E+02  0.25080024234E+02  0.19190710694E+03  0.17120000000E+03 0.  0.
        998    1    1    2    0    0 -0.61420365732E+02 -0.11653954517E+02  0.13410328114E+04  0.13425264531E+04  0.10000000000E+02 0. -1.
</event>
<event>
 5    1  0.1072898E-008  0.3686747E+03  0.7957747E-01  0.3502004E+00
         13   -1    0    0    0    0  0.00000000000E+00  0.00000000000E+00  0.14999999963E+04  0.15000000000E+04  0.10566000000E+00 0.  1.
        994   -1    0    0    0    0 -0.00000000000E+00 -0.00000000000E+00  0.11368683772E-12  0.17120000000E+03  0.17120000000E+03 0.  0.
         13    1    1    2    0    0 -0.92601012161E+01  0.64019441278E+02  0.36909715861E+03  0.37472251333E+03  0.10566000000E+00 0.  1.
        994    1    1    2    0    0  0.11557091773E+02  0.36598177316E+02  0.15097333213E+02  0.17609759346E+03  0.17120000000E+03 0.  0.
        998    1    1    2    0    0 -0.22969905567E+01 -0.10061761859E+03  0.11158055045E+04  0.11203798932E+04  0.10000000000E+02 0.  1.
</event>
<event>
 5    1  0.1072898E-008  0.3833051E+03  0.7957747E-01  0.3436892E+00
         13   -1    0    0    0    0  0.00000000000E+00  0.00000000000E+00  0.14999999963E+04  0.15000000000E+04  0.10566000000E+00 0.  1.
        994   -1    0    0    0    0 -0.00000000000E+00 -0.00000000000E+00  0.11368683772E-12  0.17120000000E+03  0.17120000000E+03 0.  0.
         13    1    1    2    0    0  0.12002049741E+02 -0.19794563520E+02  0.89468772139E+02  0.92415076124E+02  0.10566000000E+00 0.  1.
        994    1    1    2    0    0 -0.34446620870E+02  0.32494165584E+02  0.99249336698E+01  0.17790555021E+03  0.17120000000E+03 0.  0.
        998    1    1    2    0    0  0.22444571129E+02 -0.12699602064E+02  0.14006062905E+04  0.14008793737E+04  0.10000000000E+02 0.  1.
</event>
<event>
 5    1  0.1072898E-008  0.3821650E+03  0.7957747E-01  0.3441786E+00
         13   -1    0    0    0    0  0.00000000000E+00  0.00000000000E+00  0.14999999963E+04  0.15000000000E+04  0.10566000000E+00 0. -1.
        994   -1    0    0    0    0 -0.00000000000E+00 -0.00000000000E+00  0.11368683772E-12  0.17120000000E+03  0.17120000000E+03 0.  0.
         13    1    1    2    0    0  0.28709314207E+01 -0.20264682734E+02  0.63737156354E+02  0.66942780624E+02  0.10566000000E+00 0. -1.
        994    1    1    2    0    0 -0.33745500737E+00  0.26501252858E+02  0.53792359463E+01  0.17332283882E+03  0.17120000000E+03 0.  0.
        998    1    1    2    0    0 -0.25334764134E+01 -0.62365701244E+01  0.14308836040E+04  0.14309343806E+04  0.10000000000E+02 0. -1.
</event>
<event>
 5    1  0.1072898E-008  0.3841995E+03  0.7957747E-01  0.3433074E+00
         13   -1    0    0    0    0  0.00000000000E+00  0.00000000000E+00  0.14999999963E+04  0.15000000000E+04  0.10566000000E+00 0.  1.
        994   -1    0    0    0    0 -0.00000000000E+00 -0.00000000000E+00  0.11368683772E-12  0.17120000000E+03  0.17120000000E+03 0.  0.
         13    1    1    2    0    0  0.16941618850E+02 -0.59974201476E+01  0.90796705475E+02  0.92558308038E+02  0.10566000000E+00 0.  1.
        994    1    1    2    0    0  0.28762555690E+01 -0.15300531672E+02  0.28276890969E+01  0.17192968022E+03  0.17120000000E+03 0.  0.
        998    1    1    2    0    0 -0.19817874419E+02  0.21297951820E+02  0.14063756017E+04  0.14067120117E+04  0.10000000000E+02 0.  1.
</event>
<event>
 5    1  0.1072898E-008  0.3780079E+03  0.7957747E-01  0.3459879E+00
         13   -1    0    0    0    0  0.00000000000E+00  0.00000000000E+00  0.14999999963E+04  0.15000000000E+04  0.10566000000E+00 0.  1.
        994   -1    0    0    0    0 -0.00000000000E+00 -0.00000000000E+00  0.11368683772E-12  0.17120000000E+03  0.17120000000E+03 0.  0.
         13    1    1    2    0    0  0.47812900595E+02  0.45319889927E+02  0.38016963355E+03  0.38583536298E+03  0.10566000000E+00 0.  1.
        994    1    1    2    0    0 -0.44098708805E+02 -0.23551688108E+02  0.13599295991E+02  0.17886799317E+03  0.17120000000E+03 0.  0.
        998    1    1    2    0    0 -0.37141917906E+01 -0.21768201818E+02  0.11062310667E+04  0.11064966438E+04  0.10000000000E+02 0.  1.
</event>
<event>
 5    1  0.1072898E-008  0.3764369E+03  0.7957747E-01  0.3466821E+00
         13   -1    0    0    0    0  0.00000000000E+00  0.00000000000E+00  0.14999999963E+04  0.15000000000E+04  0.10566000000E+00 0.  1.
        994   -1    0    0    0    0 -0.00000000000E+00 -0.00000000000E+00  0.11368683772E-12  0.17120000000E+03  0.17120000000E+03 0.  0.
         13    1    1    2    0    0  0.43750484149E+01 -0.45728212825E+02  0.20389307420E+03  0.20900384534E+03  0.10566000000E+00 0.  1.
        994    1    1    2    0    0 -0.57528389224E+01  0.30990923762E+01  0.60871598676E+01  0.17143276538E+03  0.17120000000E+03 0.  0.
        998    1    1    2    0    0  0.13777905076E+01  0.42629120448E+02  0.12900197622E+04  0.12907633893E+04  0.10000000000E+02 0.  1.
</event>
<event>
 5    1  0.1072898E-008  0.3751564E+03  0.7957747E-01  0.3472523E+00
         13   -1    0    0    0    0  0.00000000000E+00  0.00000000000E+00  0.14999999963E+04  0.15000000000E+04  0.10566000000E+00 0. -1.
        994   -1    0    0    0    0 -0.00000000000E+00 -0.00000000000E+00  0.11368683772E-12  0.17120000000E+03  0.17120000000E+03 0.  0.
         13    1    1    2    0    0  0.24358962873E+02  0.12802465735E+02  0.53547251736E+02  0.60204497620E+02  0.10566000000E+00 0. -1.
        994    1    1    2    0    0 -0.10505164043E+02 -0.34234527397E+02  0.10967540261E+02  0.17524864700E+03  0.17120000000E+03 0.  0.
        998    1    1    2    0    0 -0.13853798830E+02  0.21432061663E+02  0.14354852043E+04  0.14357468554E+04  0.10000000000E+02 0. -1.
</event>
<event>
 5    1  0.1072898E-008  0.3840439E+03  0.7957747E-01  0.3433737E+00
         13   -1    0    0    0    0  0.00000000000E+00  0.00000000000E+00  0.14999999963E+04  0.15000000000E+04  0.10566000000E+00 0. -1.
        994   -1    0    0    0    0 -0.00000000000E+00 -0.00000000000E+00  0.11368683772E-12  0.17120000000E+03  0.17120000000E+03 0.  0.
         13    1    1    2    0    0  0.31181510126E+01 -0.10483871606E+02  0.27469802024E+02  0.29567475659E+02  0.10566000000E+00 0. -1.
        994    1    1    2    0    0  0.34971990243E+00  0.11325050419E+02  0.25291837521E+01  0.17159316957E+03  0.17120000000E+03 0.  0.
        998    1    1    2    0    0 -0.34678709150E+01 -0.84117881276E+00  0.14700010105E+04  0.14700393548E+04  0.10000000000E+02 0. -1.
</event>
<event>
 5    1  0.1072898E-008  0.3698064E+03  0.7957747E-01  0.3496781E+00
         13   -1    0    0    0    0  0.00000000000E+00  0.00000000000E+00  0.14999999963E+04  0.15000000000E+04  0.10566000000E+00 0. -1.
        994   -1    0    0    0    0 -0.00000000000E+00 -0.00000000000E+00  0.11368683772E-12  0.17120000000E+03  0.17120000000E+03 0.  0.
         13    1    1    2    0    0  0.61655307192E+02 -0.71336676857E+02  0.31024408768E+03  0.32425561441E+03  0.10566000000E+00 0. -1.
        994    1    1    2    0    0 -0.70301059981E+02  0.69747295229E+02  0.45930912029E+02  0.20304189939E+03  0.17120000000E+03 0.  0.
        998    1    1    2    0    0  0.86457527899E+01  0.15893816277E+01  0.11438249966E+04  0.11439024862E+04  0.10000000000E+02 0.  0.
</event>
<event>
 5    1  0.1072898E-008  0.3763839E+03  0.7957747E-01  0.3467057E+00
         13   -1    0    0    0    0  0.00000000000E+00  0.00000000000E+00  0.14999999963E+04  0.15000000000E+04  0.10566000000E+00 0. -1.
        994   -1    0    0    0    0 -0.00000000000E+00 -0.00000000000E+00  0.11368683772E-12  0.17120000000E+03  0.17120000000E+03 0.  0.
         13    1    1    2    0    0 -0.44585608799E+02  0.62413281228E+02  0.39518541626E+03  0.40256032912E+03  0.10566000000E+00 0. -1.
        994    1    1    2    0    0  0.38475515614E+02 -0.55447046971E+02  0.21539176063E+02  0.18527848344E+03  0.17120000000E+03 0.  0.
        998    1    1    2    0    0  0.61100931849E+01 -0.69662342567E+01  0.10832754040E+04  0.10833611874E+04  0.10000000000E+02 0. -1.
</event>
<event>
 5    1  0.1072898E-008  0.3732731E+03  0.7957747E-01  0.3480982E+00
         13   -1    0    0    0    0  0.00000000000E+00  0.00000000000E+00  0.14999999963E+04  0.15000000000E+04  0.10566000000E+00 0. -1.
        994   -1    0    0    0    0 -0.00000000000E+00 -0.00000000000E+00  0.11368683772E-12  0.17120000000E+03  0.17120000000E+03 0.  0.
         13    1    1    2    0    0 -0.35883841658E+02  0.11753706449E+03  0.42513249599E+03  0.44253842989E+03  0.10566000000E+00 0. -1.
        994    1    1    2    0    0  0.31583629282E+02 -0.11405848426E+03  0.64020095615E+02  0.21774957202E+03  0.17120000000E+03 0.  0.
        998    1    1    2    0    0  0.43002123758E+01 -0.34785802324E+01  0.10108474047E+04  0.10109119981E+04  0.10000000000E+02 0.  0.
</event>
<event>
 5    1  0.1072898E-008  0.3849020E+03  0.7957747E-01  0.3430088E+00
         13   -1    0    0    0    0  0.00000000000E+00  0.00000000000E+00  0.14999999963E+04  0.15000000000E+04  0.10566000000E+00 0.  1.
        994   -1    0    0    0    0 -0.00000000000E+00 -0.00000000000E+00  0.11368683772E-12  0.17120000000E+03  0.17120000000E+03 0.  0.
         13    1    1    2    0    0  0.10497393150E+02 -0.12998209585E+02  0.80273806027E+02  0.81994169387E+02  0.10566000000E+00 0.  1.
        994    1    1    2    0    0 -0.94692687053E+01  0.12797542930E+02  0.25129961722E+01  0.17195696934E+03  0.17120000000E+03 0.  0.
        998    1    1    2    0    0 -0.10281244445E+01  0.20066665453E+00  0.14172131941E+04  0.14172488613E+04  0.10000000000E+02 0.  1.
</event>
<event>
 5    1  0.1072898E-008  0.3833514E+03  0.7957747E-01  0.3436694E+00
         13   -1    0    0    0    0  0.00000000000E+00  0.00000000000E+00  0.14999999963E+04  0.15000000000E+04  0.10566000000E+00 0.  1.
        994   -1    0    0    0    0 -0.00000000000E+00 -0.00000000000E+00  0.11368683772E-12  0.17120000000E+03  0.17120000000E+03 0.  0.
         13    1    1    2    0    0 -0.93647067951E+00 -0.19492151655E+02  0.81801078740E+02  0.84096662244E+02  0.10566000000E+00 0.  1.
        994    1    1    2    0    0  0.20645075778E+02  0.17988745185E+01  0.38720481725E+01  0.17249315308E+03  0.17120000000E+03 0.  0.
        998    1    1    2    0    0 -0.19708605099E+02  0.17693277136E+02  0.14143268694E+04  0.14146101847E+04  0.10000000000E+02 0.  1.
</event>
<event>
 5    1  0.1072898E-008  0.3743077E+03  0.7957747E-01  0.3476325E+00
         13   -1    0    0    0    0  0.00000000000E+00  0.00000000000E+00  0.14999999963E+04  0.15000000000E+04  0.10566000000E+00 0.  1.
        994   -1    0    0    0    0 -0.00000000000E+00 -0.00000000000E+00  0.11368683772E-12  0.17120000000E+03  0.17120000000E+03 0.  0.
         13    1    1    2    0    0 -0.56271531078E+02  0.62112022262E+01  0.24898169489E+03  0.25533695345E+03  0.10566000000E+00 0.  1.
        994    1    1    2    0    0  0.18473629004E+02  0.45418835887E+01  0.82687065535E+01  0.17245206633E+03  0.17120000000E+03 0.  0.
        998    1    1    2    0    0  0.37797902074E+02 -0.10753085815E+02  0.12427495948E+04  0.12434109802E+04  0.10000000000E+02 0.  1.
</event>
<event>
 5    1  0.1072898E-008  0.3751121E+03  0.7957747E-01  0.3472722E+00
         13   -1    0    0    0    0  0.00000000000E+00  0.00000000000E+00  0.14999999963E+04  0.15000000000E+04  0.10566000000E+00 0. -1.
        994   -1    0    0    0    0 -0.00000000000E+00 -0.00000000000E+00  0.11368683772E-12  0.17120000000E+03  0.17120000000E+03 0.  0.
         13    1    1    2    0    0 -0.11410066244E+02  0.12959558620E+02  0.19535454666E+02  0.26072685408E+02  0.10566000000E+00 0. -1.
        994    1    1    2    0    0  0.78834064349E+01 -0.13185988426E+02  0.74235641205E+01  0.17204815515E+03  0.17120000000E+03 0.  0.
        998    1    1    2    0    0  0.35266598089E+01  0.22642980597E+00  0.14730409775E+04  0.14730791594E+04  0.10000000000E+02 0. -1.
</event>
<event>
 5    1  0.1072898E-008  0.3776621E+03  0.7957747E-01  0.3461402E+00
         13   -1    0    0    0    0  0.00000000000E+00  0.00000000000E+00  0.14999999963E+04  0.15000000000E+04  0.10566000000E+00 0.  1.
        994   -1    0    0    0    0 -0.00000000000E+00 -0.00000000000E+00  0.11368683772E-12  0.17120000000E+03  0.17120000000E+03 0.  0.
         13    1    1    2    0    0 -0.52133383755E+01 -0.17273936191E+02  0.28138555579E+02  0.33426894002E+02  0.10566000000E+00 0.  1.
        994    1    1    2    0    0  0.27597818447E+01  0.15882524633E+02  0.61939752281E+01  0.17206881273E+03  0.17120000000E+03 0.  0.
        998    1    1    2    0    0  0.24535565308E+01  0.13914115577E+01  0.14656674655E+04  0.14657042933E+04  0.10000000000E+02 0.  1.
</event>
<event>
 5    1  0.1424470E-008  0.3788133E+03  0.7957747E-01  0.3456342E+00
         13   -1    0    0    0    0  0.00000000000E+00  0.00000000000E+00  0.14999999963E+04  0.15000000000E+04  0.10566000000E+00 0. -1.
        994   -1    0    0    0    0 -0.00000000000E+00 -0.00000000000E+00  0.11368683772E-12  0.17120000000E+03  0.17120000000E+03 0.  0.
         13    1    1    2    0    0  0.57029185043E+01 -0.92533580651E+01  0.10304680219E+02  0.14978167892E+02  0.10566000000E+00 0. -1.
        994    1    1    2    0    0 -0.68260828125E+01  0.83308597543E+01  0.51227974408E+01  0.17161492267E+03  0.17120000000E+03 0.  0.
        998    1    1    2    0    0  0.11231643083E+01  0.92249831075E+00  0.14845725186E+04  0.14846069094E+04  0.10000000000E+02 0. -1.
</event>
<event>
 5    1  0.1072898E-008  0.3744639E+03  0.7957747E-01  0.3475624E+00
         13   -1    0    0    0    0  0.00000000000E+00  0.00000000000E+00  0.14999999963E+04  0.15000000000E+04  0.10566000000E+00 0. -1.
        994   -1    0    0    0    0 -0.00000000000E+00 -0.00000000000E+00  0.11368683772E-12  0.17120000000E+03  0.17120000000E+03 0.  0.
         13    1    1    2    0    0  0.21889628265E+02  0.45636743727E+02  0.19214688360E+03  0.19870154565E+03  0.10566000000E+00 0. -1.
        994    1    1    2    0    0  0.21998495580E+01 -0.23421481838E+02  0.88411008158E+01  0.17303470812E+03  0.17120000000E+03 0.  0.
        998    1    1    2    0    0 -0.24089477823E+02 -0.22215261888E+02  0.12990120119E+04  0.12994637462E+04  0.10000000000E+02 0. -1.
</event>
<event>
 5    1  0.1072898E-008  0.3845302E+03  0.7957747E-01  0.3431667E+00
         13   -1    0    0    0    0  0.00000000000E+00  0.00000000000E+00  0.14999999963E+04  0.15000000000E+04  0.10566000000E+00 0. -1.
        994   -1    0    0    0    0 -0.00000000000E+00 -0.00000000000E+00  0.11368683772E-12  0.17120000000E+03  0.17120000000E+03 0.  0.
         13    1    1    2    0    0  0.22468611114E+02  0.51976534892E+00  0.13117224224E+03  0.13308372154E+03  0.10566000000E+00 0. -1.
        994    1    1    2    0    0 -0.17504234151E+02 -0.85299971361E+00  0.28758098378E+01  0.17211866867E+03  0.17120000000E+03 0.  0.
        998    1    1    2    0    0 -0.49643769630E+01  0.33323436469E+00  0.13659519442E+04  0.13659976098E+04  0.10000000000E+02 0. -1.
</event>
<event>
 5    1  0.1072898E-008  0.3853780E+03  0.7957747E-01  0.3428071E+00
         13   -1    0    0    0    0  0.00000000000E+00  0.00000000000E+00  0.14999999963E+04  0.15000000000E+04  0.10566000000E+00 0.  1.
        994   -1    0    0    0    0 -0.00000000000E+00 -0.00000000000E+00  0.11368683772E-12  0.17120000000E+03  0.17120000000E+03 0.  0.
         13    1    1    2    0    0 -0.11254133813E+02 -0.38864221456E+01  0.51278077256E+02  0.52642304054E+02  0.10566000000E+00 0.  1.
        994    1    1    2    0    0  0.53111919520E+01 -0.10703488392E+02  0.19116649778E+01  0.17162711874E+03  0.17120000000E+03 0.  0.
        998    1    1    2    0    0  0.59429418615E+01  0.14589910537E+02  0.14468102540E+04  0.14469305772E+04  0.10000000000E+02 0.  1.
</event>
<event>
 5    1  0.1072898E-008  0.3796388E+03  0.7957747E-01  0.3452733E+00
         13   -1    0    0    0    0  0.00000000000E+00  0.00000000000E+00  0.14999999963E+04  0.15000000000E+04  0.10566000000E+00 0. -1.
        994   -1    0    0    0    0 -0.00000000000E+00 -0.00000000000E+00  0.11368683772E-12  0.17120000000E+03  0.17120000000E+03 0.  0.
         13    1    1    2    0    0  0.23632747924E+02 -0.84594527093E+01  0.69978715154E+02  0.74344474261E+02  0.10566000000E+00 0. -1.
        994    1    1    2    0    0 -0.15774977731E+02  0.17411766608E+02  0.61653286743E+01  0.17291463448E+03  0.17120000000E+03 0.  0.
        998    1    1    2    0    0 -0.78577701929E+01 -0.89523138984E+01  0.14238559525E+04  0.14239408913E+04  0.10000000000E+02 0. -1.
</event>
<event>
 5    1  0.1072898E-008  0.3804241E+03  0.7957747E-01  0.3449314E+00
         13   -1    0    0    0    0  0.00000000000E+00  0.00000000000E+00  0.14999999963E+04  0.15000000000E+04  0.10566000000E+00 0.  1.
        994   -1    0    0    0    0 -0.00000000000E+00 -0.00000000000E+00  0.11368683772E-12  0.17120000000E+03  0.17120000000E+03 0.  0.
         13    1    1    2    0    0 -0.31569940480E+02  0.41144993188E+02  0.26984835354E+03  0.27478667486E+03  0.10566000000E+00 0.  1.
        994    1    1    2    0    0  0.37442255201E+02 -0.43036970225E+02  0.14859614107E+02  0.18106449517E+03  0.17120000000E+03 0.  0.
        998    1    1    2    0    0 -0.58723147210E+01  0.18919770375E+01  0.12152920286E+04  0.12153488300E+04  0.10000000000E+02 0.  1.
</event>
<event>
 5    1  0.1072898E-008  0.3851181E+03  0.7957747E-01  0.3429172E+00
         13   -1    0    0    0    0  0.00000000000E+00  0.00000000000E+00  0.14999999963E+04  0.15000000000E+04  0.10566000000E+00 0. -1.
        994   -1    0    0    0    0 -0.00000000000E+00 -0.00000000000E+00  0.11368683772E-12  0.17120000000E+03  0.17120000000E+03 0.  0.
         13    1    1    2    0    0 -0.10062352496E+02  0.60433752141E+01  0.36401869714E+02  0.38247622206E+02  0.10566000000E+00 0. -1.
        994    1    1    2    0    0  0.57136282903E+02  0.36627175058E+01  0.12422699471E+02  0.18094677059E+03  0.17120000000E+03 0.  0.
        998    1    1    2    0    0 -0.47073930406E+02 -0.97060927199E+01  0.14511754271E+04  0.14520056072E+04  0.10000000000E+02 0. -1.
</event>
<event>
 5    1  0.1072898E-008  0.3825460E+03  0.7957747E-01  0.3440147E+00
         13   -1    0    0    0    0  0.00000000000E+00  0.00000000000E+00  0.14999999963E+04  0.15000000000E+04  0.10566000000E+00 0. -1.
        994   -1    0    0    0    0 -0.00000000000E+00 -0.00000000000E+00  0.11368683772E-12  0.17120000000E+03  0.17120000000E+03 0.  0.
         13    1    1    2    0    0 -0.11072107194E+02  0.12567775054E+02  0.49003176819E+02  0.51786707077E+02  0.10566000000E+00 0. -1.
        994    1    1    2    0    0  0.18537921585E+02  0.62542214686E+01  0.41233638533E+01  0.17236360391E+03  0.17120000000E+03 0.  0.
        998    1    1    2    0    0 -0.74658143908E+01 -0.18821996523E+02  0.14468734556E+04  0.14470496890E+04  0.10000000000E+02 0. -1.
</event>
<event>
 5    1  0.1072898E-008  0.3827181E+03  0.7957747E-01  0.3439408E+00
         13   -1    0    0    0    0  0.00000000000E+00  0.00000000000E+00  0.14999999963E+04  0.15000000000E+04  0.10566000000E+00 0. -1.
        994   -1    0    0    0    0 -0.00000000000E+00 -0.00000000000E+00  0.11368683772E-12  0.17120000000E+03  0.17120000000E+03 0.  0.
         13    1    1    2    0    0 -0.15106809017E+02 -0.18782000648E+02  0.10056596354E+03  0.10341423216E+03  0.10566000000E+00 0. -1.
        994    1    1    2    0    0  0.14718052174E+02  0.14560478277E+02  0.41886966711E+01  0.17249815584E+03  0.17120000000E+03 0.  0.
        998    1    1    2    0    0  0.38875684361E+00  0.42215223707E+01  0.13952453361E+04  0.13952876120E+04  0.10000000000E+02 0. -1.
</event>
<event>
 5    1  0.1072898E-008  0.3845186E+03  0.7957747E-01  0.3431717E+00
         13   -1    0    0    0    0  0.00000000000E+00  0.00000000000E+00  0.14999999963E+04  0.15000000000E+04  0.10566000000E+00 0. -1.
        994   -1    0    0    0    0 -0.00000000000E+00 -0.00000000000E+00  0.11368683772E-12  0.17120000000E+03  0.17120000000E+03 0.  0.
         13    1    1    2    0    0 -0.10331489376E+02 -0.16320861315E+02  0.10486160535E+03  0.10662587691E+03  0.10566000000E+00 0. -1.
        994    1    1    2    0    0  0.34382803768E+01  0.42738675259E+01  0.19684537486E+01  0.17129916090E+03  0.17120000000E+03 0.  0.
        998    1    1    2    0    0  0.68932089996E+01  0.12046993789E+02  0.13931699372E+04  0.13932749622E+04  0.10000000000E+02 0. -1.
</event>
<event>
 5    1  0.1072898E-008  0.3841562E+03  0.7957747E-01  0.3433259E+00
         13   -1    0    0    0    0  0.00000000000E+00  0.00000000000E+00  0.14999999963E+04  0.15000000000E+04  0.10566000000E+00 0. -1.
        994   -1    0    0    0    0 -0.00000000000E+00 -0.00000000000E+00  0.11368683772E-12  0.17120000000E+03  0.17120000000E+03 0.  0.
         13    1    1    2    0    0  0.18804069459E+01 -0.11941336008E+02  0.35024123365E+02  0.37051745134E+02  0.10566000000E+00 0. -1.
        994    1    1    2    0    0  0.35442873257E+01  0.97178888603E+01  0.24025945177E+01  0.17152904068E+03  0.17120000000E+03 0.  0.
        998    1    1    2    0    0 -0.54246942716E+01  0.22234471482E+01  0.14625732784E+04  0.14626192142E+04  0.10000000000E+02 0. -1.
</event>
<event>
 5    1  0.1072898E-008  0.3725499E+03  0.7957747E-01  0.3484254E+00
         13   -1    0    0    0    0  0.00000000000E+00  0.00000000000E+00  0.14999999963E+04  0.15000000000E+04  0.10566000000E+00 0.  1.
        994   -1    0    0    0    0 -0.00000000000E+00 -0.00000000000E+00  0.11368683772E-12  0.17120000000E+03  0.17120000000E+03 0.  0.
         13    1    1    2    0    0 -0.33983078609E+00  0.12346249498E+02  0.59088815262E+01  0.13692019813E+02  0.10566000000E+00 0.  1.
        994    1    1    2    0    0  0.85284147045E+00 -0.12907885234E+02  0.85160981000E+01  0.17189911218E+03  0.17120000000E+03 0.  0.
        998    1    1    2    0    0 -0.51301068436E+00  0.56163573609E+00  0.14855750167E+04  0.14856088680E+04  0.10000000000E+02 0.  1.
</event>
<event>
 5    1  0.1072898E-008  0.3790103E+03  0.7957747E-01  0.3455479E+00
         13   -1    0    0    0    0  0.00000000000E+00  0.00000000000E+00  0.14999999963E+04  0.15000000000E+04  0.10566000000E+00 0. -1.
        994   -1    0    0    0    0 -0.00000000000E+00 -0.00000000000E+00  0.11368683772E-12  0.17120000000E+03  0.17120000000E+03 0.  0.
         13    1    1    2    0    0  0.54651159817E+02  0.18075464632E+02  0.26798647073E+03  0.27409894445E+03  0.10566000000E+00 0. -1.
        994    1    1    2    0    0 -0.62233033176E+02 -0.30715108701E+02  0.20960495311E+02  0.18591705324E+03  0.17120000000E+03 0.  0.
        998    1    1    2    0    0  0.75818733595E+01  0.12639644068E+02  0.12110530302E+04  0.12111840023E+04  0.10000000000E+02 0. -1.
</event>
<event>
 5    1  0.1072898E-008  0.3796074E+03  0.7957747E-01  0.3452870E+00
         13   -1    0    0    0    0  0.00000000000E+00  0.00000000000E+00  0.14999999963E+04  0.15000000000E+04  0.10566000000E+00 0.  1.
        994   -1    0    0    0    0 -0.00000000000E+00 -0.00000000000E+00  0.11368683772E-12  0.17120000000E+03  0.17120000000E+03 0.  0.
         13    1    1    2    0    0 -0.56049812605E+01 -0.34402013246E+02  0.12322706068E+03  0.12806183654E+03  0.10566000000E+00 0.  1.
        994    1    1    2    0    0  0.15539297422E+02  0.40353448863E+02  0.10615924741E+02  0.17689547325E+03  0.17120000000E+03 0.  0.
        998    1    1    2    0    0 -0.99343161616E+01 -0.59514356166E+01  0.13661570109E+04  0.13662426902E+04  0.10000000000E+02 0.  1.
</event>
<event>
 5    1  0.1072898E-008  0.3812019E+03  0.7957747E-01  0.3445942E+00
         13   -1    0    0    0    0  0.00000000000E+00  0.00000000000E+00  0.14999999963E+04  0.15000000000E+04  0.10566000000E+00 0. -1.
        994   -1    0    0    0    0 -0.00000000000E+00 -0.00000000000E+00  0.11368683772E-12  0.17120000000E+03  0.17120000000E+03 0.  0.
         13    1    1    2    0    0  0.20227088528E+02  0.15128746882E+01  0.79408231979E+02  0.81957930491E+02  0.10566000000E+00 0. -1.
        994    1    1    2    0    0  0.48925403424E+02  0.21931112720E+02  0.13159301060E+02  0.17988128310E+03  0.17120000000E+03 0.  0.
        998    1    1    2    0    0 -0.69152491952E+02 -0.23443987409E+02  0.14074324632E+04  0.14093607864E+04  0.10000000000E+02 0. -1.
</event>
<event>
 5    1  0.1072898E-008  0.3746415E+03  0.7957747E-01  0.3474828E+00
         13   -1    0    0    0    0  0.00000000000E+00  0.00000000000E+00  0.14999999963E+04  0.15000000000E+04  0.10566000000E+00 0. -1.
        994   -1    0    0    0    0 -0.00000000000E+00 -0.00000000000E+00  0.11368683772E-12  0.17120000000E+03  0.17120000000E+03 0.  0.
         13    1    1    2    0    0  0.42047958152E+01  0.43305791292E+02  0.16313919634E+03  0.16884158378E+03  0.10566000000E+00 0. -1.
        994    1    1    2    0    0  0.20905269692E+01  0.81528435226E+01  0.71040590155E+01  0.17155391810E+03  0.17120000000E+03 0.  0.
        998    1    1    2    0    0 -0.62953227844E+01 -0.51458634814E+02  0.13297567409E+04  0.13308044981E+04  0.10000000000E+02 0. -1.
</event>
<event>
 5    1  0.1072898E-008  0.3690641E+03  0.7957747E-01  0.3500203E+00
         13   -1    0    0    0    0  0.00000000000E+00  0.00000000000E+00  0.14999999963E+04  0.15000000000E+04  0.10566000000E+00 0. -1.
        994   -1    0    0    0    0 -0.00000000000E+00 -0.00000000000E+00  0.11368683772E-12  0.17120000000E+03  0.17120000000E+03 0.  0.
         13    1    1    2    0    0  0.25259964549E+02  0.83136243065E+02  0.47165584096E+03  0.47959247721E+03  0.10566000000E+00 0. -1.
        994    1    1    2    0    0 -0.11142089746E+02 -0.16463374316E+02  0.11823054024E+02  0.17275535727E+03  0.17120000000E+03 0.  0.
        998    1    1    2    0    0 -0.14117874802E+02 -0.66672868748E+02  0.10165211013E+04  0.10188521655E+04  0.10000000000E+02 0. -1.
</event>
<event>
 5    1  0.1072898E-008  0.3827023E+03  0.7957747E-01  0.3439476E+00
         13   -1    0    0    0    0  0.00000000000E+00  0.00000000000E+00  0.14999999963E+04  0.15000000000E+04  0.10566000000E+00 0.  1.
        994   -1    0    0    0    0 -0.00000000000E+00 -0.00000000000E+00  0.11368683772E-12  0.17120000000E+03  0.17120000000E+03 0.  0.
         13    1    1    2    0    0  0.17363174294E+02  0.24373944668E+02  0.16727186687E+03  0.16992780117E+03  0.10566000000E+00 0.  1.
        994    1    1    2    0    0 -0.28405870139E+02  0.34491054104E+01  0.54928613980E+01  0.17366174395E+03  0.17120000000E+03 0.  0.
        998    1    1    2    0    0  0.11042695845E+02 -0.27823050079E+02  0.13272352680E+04  0.13276104549E+04  0.10000000000E+02 0.  1.
</event>
<event>
 5    1  0.1072898E-008  0.3832435E+03  0.7957747E-01  0.3437156E+00
         13   -1    0    0    0    0  0.00000000000E+00  0.00000000000E+00  0.14999999963E+04  0.15000000000E+04  0.10566000000E+00 0. -1.
        994   -1    0    0    0    0 -0.00000000000E+00 -0.00000000000E+00  0.11368683772E-12  0.17120000000E+03  0.17120000000E+03 0.  0.
         13    1    1    2    0    0  0.16609721957E+02  0.47502963652E+00  0.58287188090E+02  0.60609537006E+02  0.10566000000E+00 0. -1.
        994    1    1    2    0    0  0.26756670297E+01  0.63380648198E+01  0.26612750199E+01  0.17135884175E+03  0.17120000000E+03 0.  0.
        998    1    1    2    0    0 -0.19285388987E+02 -0.68130944563E+01  0.14390515332E+04  0.14392316212E+04  0.10000000000E+02 0. -1.
</event>
<event>
 5    1  0.1072898E-008  0.3837636E+03  0.7957747E-01  0.3434933E+00
         13   -1    0    0    0    0  0.00000000000E+00  0.00000000000E+00  0.14999999963E+04  0.15000000000E+04  0.10566000000E+00 0.  1.
        994   -1    0    0    0    0 -0.00000000000E+00 -0.00000000000E+00  0.11368683772E-12  0.17120000000E+03  0.17120000000E+03 0.  0.
         13    1    1    2    0    0 -0.26977552756E+02 -0.36020860280E+01  0.15645971670E+03  0.15880937469E+03  0.10566000000E+00 0.  1.
        994    1    1    2    0    0  0.21589632890E+02  0.57508298758E+01  0.38952120910E+01  0.17269567733E+03  0.17120000000E+03 0.  0.
        998    1    1    2    0    0  0.53879198665E+01 -0.21487438478E+01  0.13396450675E+04  0.13396949480E+04  0.10000000000E+02 0.  1.
</event>
<event>
 5    1  0.1072898E-008  0.3847911E+03  0.7957747E-01  0.3430559E+00
         13   -1    0    0    0    0  0.00000000000E+00  0.00000000000E+00  0.14999999963E+04  0.15000000000E+04  0.10566000000E+00 0.  1.
        994   -1    0    0    0    0 -0.00000000000E+00 -0.00000000000E+00  0.11368683772E-12  0.17120000000E+03  0.17120000000E+03 0.  0.
         13    1    1    2    0    0 -0.15244107850E+02  0.14906748617E+02  0.12789439895E+03  0.12965948645E+03  0.10566000000E+00 0.  1.
        994    1    1    2    0    0  0.17800706331E+02 -0.49404832292E+01  0.28577936556E+01  0.17221753832E+03  0.17120000000E+03 0.  0.
        998    1    1    2    0    0 -0.25565984812E+01 -0.99662653881E+01  0.13692478037E+04  0.13693229752E+04  0.10000000000E+02 0.  1.
</event>
<event>
 5    1  0.1072898E-008  0.3846763E+03  0.7957747E-01  0.3431046E+00
         13   -1    0    0    0    0  0.00000000000E+00  0.00000000000E+00  0.14999999963E+04  0.15000000000E+04  0.10566000000E+00 0.  1.
        994   -1    0    0    0    0 -0.00000000000E+00 -0.00000000000E+00  0.11368683772E-12  0.17120000000E+03  0.17120000000E+03 0.  0.
         13    1    1    2    0    0  0.77330199065E+01  0.12563917729E+02  0.59944992865E+02  0.61733823461E+02  0.10566000000E+00 0.  1.
        994    1    1    2    0    0 -0.21366982921E+01 -0.12341591032E+02  0.23075884331E+01  0.17167307684E+03  0.17120000000E+03 0.  0.
        998    1    1    2    0    0 -0.55963216144E+01 -0.22232669736E+00  0.14377474150E+04  0.14377930997E+04  0.10000000000E+02 0.  1.
</event>
<event>
 5    1  0.1072898E-008  0.3767709E+03  0.7957747E-01  0.3465341E+00
         13   -1    0    0    0    0  0.00000000000E+00  0.00000000000E+00  0.14999999963E+04  0.15000000000E+04  0.10566000000E+00 0. -1.
        994   -1    0    0    0    0 -0.00000000000E+00 -0.00000000000E+00  0.11368683772E-12  0.17120000000E+03  0.17120000000E+03 0.  0.
         13    1    1    2    0    0  0.17049498968E+02  0.12226046395E+01  0.22975014525E+02  0.28636386532E+02  0.10566000000E+00 0. -1.
        994    1    1    2    0    0 -0.10176714218E+02 -0.14149979413E+01  0.61289452163E+01  0.17161751572E+03  0.17120000000E+03 0.  0.
        998    1    1    2    0    0 -0.68727847504E+01  0.19239330176E+00  0.14708960365E+04  0.14709460978E+04  0.10000000000E+02 0. -1.
</event>
<event>
 5    1  0.1072898E-008  0.3692505E+03  0.7957747E-01  0.3499343E+00
         13   -1    0    0    0    0  0.00000000000E+00  0.00000000000E+00  0.14999999963E+04  0.15000000000E+04  0.10566000000E+00 0.  1.
        994   -1    0    0    0    0 -0.00000000000E+00 -0.00000000000E+00  0.11368683772E-12  0.17120000000E+03  0.17120000000E+03 0.  0.
         13    1    1    2    0    0  0.16767452065E+02  0.22206729959E+02  0.31561878644E+02  0.42076711514E+02  0.10566000000E+00 0.  1.
        994    1    1    2    0    0 -0.20090157654E+02 -0.23041772389E+02  0.13808541487E+02  0.17445530524E+03  0.17120000000E+03 0.  0.
        998    1    1    2    0    0  0.33227055887E+01  0.83504242971E+00  0.14546295761E+04  0.14546679832E+04  0.10000000000E+02 0.  1.
</event>
<event>
 5    1  0.1072898E-008  0.3857772E+03  0.7957747E-01  0.3426383E+00
         13   -1    0    0    0    0  0.00000000000E+00  0.00000000000E+00  0.14999999963E+04  0.15000000000E+04  0.10566000000E+00 0. -1.
        994   -1    0    0    0    0 -0.00000000000E+00 -0.00000000000E+00  0.11368683772E-12  0.17120000000E+03  0.17120000000E+03 0.  0.
         13    1    1    2    0    0  0.69722421615E+01  0.11256321777E+02  0.74923929129E+02  0.76084973950E+02  0.10566000000E+00 0. -1.
        994    1    1    2    0    0  0.10591969314E+02 -0.91498922715E+01  0.18876961804E+01  0.17178158731E+03  0.17120000000E+03 0.  0.
        998    1    1    2    0    0 -0.17564211475E+02 -0.21064295053E+01  0.14231883710E+04  0.14233334387E+04  0.10000000000E+02 0. -1.
</event>
<event>
 5    1  0.1072898E-008  0.3834749E+03  0.7957747E-01  0.3436166E+00
         13   -1    0    0    0    0  0.00000000000E+00  0.00000000000E+00  0.14999999963E+04  0.15000000000E+04  0.10566000000E+00 0. -1.
        994   -1    0    0    0    0 -0.00000000000E+00 -0.00000000000E+00  0.11368683772E-12  0.17120000000E+03  0.17120000000E+03 0.  0.
         13    1    1    2    0    0  0.21978872161E+02  0.27924168588E+01  0.10273356309E+03  0.10509550211E+03  0.10566000000E+00 0. -1.
        994    1    1    2    0    0 -0.13329664094E+02  0.25806636442E+01  0.29986843025E+01  0.17176370943E+03  0.17120000000E+03 0.  0.
        998    1    1    2    0    0 -0.86492080668E+01 -0.53730805030E+01  0.13942677489E+04  0.13943407885E+04  0.10000000000E+02 0. -1.
</event>
<event>
 5    1  0.1072898E-008  0.3805189E+03  0.7957747E-01  0.3448902E+00
         13   -1    0    0    0    0  0.00000000000E+00  0.00000000000E+00  0.14999999963E+04  0.15000000000E+04  0.10566000000E+00 0. -1.
        994   -1    0    0    0    0 -0.00000000000E+00 -0.00000000000E+00  0.11368683772E-12  0.17120000000E+03  0.17120000000E+03 0.  0.
         13    1    1    2    0    0 -0.13963247982E+02  0.11939654225E+02  0.42253157870E+02  0.46074593338E+02  0.10566000000E+00 0. -1.
        994    1    1    2    0    0  0.14181898619E+02 -0.10244254487E+01  0.45464486355E+01  0.17184960253E+03  0.17120000000E+03 0.  0.
        998    1    1    2    0    0 -0.21865063689E+00 -0.10915228776E+02  0.14532003898E+04  0.14532758041E+04  0.10000000000E+02 0. -1.
</event>
<event>
 5    1  0.1072898E-008  0.3719073E+03  0.7957747E-01  0.3487171E+00
         13   -1    0    0    0    0  0.00000000000E+00  0.00000000000E+00  0.14999999963E+04  0.15000000000E+04  0.10566000000E+00 0.  1.
        994   -1    0    0    0    0 -0.00000000000E+00 -0.00000000000E+00  0.11368683772E-12  0.17120000000E+03  0.17120000000E+03 0.  0.
         13    1    1    2    0    0 -0.32040389820E+02 -0.10693687714E+03  0.37635281303E+03  0.39256022890E+03  0.10566000000E+00 0.  1.
        994    1    1    2    0    0  0.29751657563E+02  0.10865201166E+03  0.58063374053E+02  0.21300520222E+03  0.17120000000E+03 0.  0.
        998    1    1    2    0    0  0.22887322567E+01 -0.17151345144E+01  0.10655838092E+04  0.10656345689E+04  0.10000000000E+02 0.  1.
</event>
<event>
 5    1  0.1072898E-008  0.3790443E+03  0.7957747E-01  0.3455330E+00
         13   -1    0    0    0    0  0.00000000000E+00  0.00000000000E+00  0.14999999963E+04  0.15000000000E+04  0.10566000000E+00 0. -1.
        994   -1    0    0    0    0 -0.00000000000E+00 -0.00000000000E+00  0.11368683772E-12  0.17120000000E+03  0.17120000000E+03 0.  0.
         13    1    1    2    0    0 -0.13042884755E+02  0.64416109046E+01  0.21788795122E+02  0.26198739486E+02  0.10566000000E+00 0. -1.
        994    1    1    2    0    0 -0.17684082130E+01  0.52480472819E+01  0.47192202546E+01  0.17135454563E+03  0.17120000000E+03 0.  0.
        998    1    1    2    0    0  0.14811292968E+02 -0.11689658186E+02  0.14734919809E+04  0.14736467149E+04  0.10000000000E+02 0. -1.
</event>
<event>
 5    1  0.1072898E-008  0.3801893E+03  0.7957747E-01  0.3450335E+00
         13   -1    0    0    0    0  0.00000000000E+00  0.00000000000E+00  0.14999999963E+04  0.15000000000E+04  0.10566000000E+00 0.  1.
        994   -1    0    0    0    0 -0.00000000000E+00 -0.00000000000E+00  0.11368683772E-12  0.17120000000E+03  0.17120000000E+03 0.  0.
         13    1    1    2    0    0  0.70433155420E+02 -0.13602425428E+02  0.42131687247E+03  0.42738012770E+03  0.10566000000E+00 0.  1.
        994    1    1    2    0    0 -0.76157183795E+02  0.20570964428E+02  0.25115882547E+02  0.19016658165E+03  0.17120000000E+03 0.  0.
        998    1    1    2    0    0  0.57240283746E+01 -0.69685389999E+01  0.10535672413E+04  0.10536532906E+04  0.10000000000E+02 0.  1.
</event>
<event>
 5    1  0.1072898E-008  0.3770659E+03  0.7957747E-01  0.3464035E+00
         13   -1    0    0    0    0  0.00000000000E+00  0.00000000000E+00  0.14999999963E+04  0.15000000000E+04  0.10566000000E+00 0. -1.
        994   -1    0    0    0    0 -0.00000000000E+00 -0.00000000000E+00  0.11368683772E-12  0.17120000000E+03  0.17120000000E+03 0.  0.
         13    1    1    2    0    0  0.76953988939E+02  0.11597229363E+01  0.26457651221E+03  0.27554310615E+03  0.10566000000E+00 0. -1.
        994    1    1    2    0    0 -0.14580084070E+03  0.51600322026E+02  0.91168960122E+02  0.24807599173E+03  0.17120000000E+03 0.  0.
        998    1    1    2    0    0  0.68846851759E+02 -0.52760044962E+02  0.11442545239E+04  0.11475809021E+04  0.10000000000E+02 0. -1.
</event>
<event>
 5    1  0.1072898E-008  0.3741427E+03  0.7957747E-01  0.3477066E+00
         13   -1    0    0    0    0  0.00000000000E+00  0.00000000000E+00  0.14999999963E+04  0.15000000000E+04  0.10566000000E+00 0. -1.
        994   -1    0    0    0    0 -0.00000000000E+00 -0.00000000000E+00  0.11368683772E-12  0.17120000000E+03  0.17120000000E+03 0.  0.
         13    1    1    2    0    0 -0.16361803440E+02  0.31134692192E+03  0.88919614577E+03  0.94227087996E+03  0.10566000000E+00 0. -1.
        994    1    1    2    0    0 -0.12202067025E+01 -0.31820037636E+03  0.50479319484E+03  0.62078867417E+03  0.17120000000E+03 0.  0.
        998    1    1    2    0    0  0.17582010143E+02  0.68534544353E+01  0.10601065567E+03  0.10814044587E+03  0.10000000000E+02 0.  0.
</event>
<event>
 5    1  0.1072898E-008  0.3863330E+03  0.7957747E-01  0.3424038E+00
         13   -1    0    0    0    0  0.00000000000E+00  0.00000000000E+00  0.14999999963E+04  0.15000000000E+04  0.10566000000E+00 0. -1.
        994   -1    0    0    0    0 -0.00000000000E+00 -0.00000000000E+00  0.11368683772E-12  0.17120000000E+03  0.17120000000E+03 0.  0.
         13    1    1    2    0    0 -0.88171538926E+01 -0.55650050893E+01  0.57882117877E+02  0.58813792756E+02  0.10566000000E+00 0. -1.
        994    1    1    2    0    0  0.36626955024E+01  0.38788983188E+01  0.10629728859E+01  0.17128640081E+03  0.17120000000E+03 0.  0.
        998    1    1    2    0    0  0.51544583902E+01  0.16861067706E+01  0.14410549055E+04  0.14410998064E+04  0.10000000000E+02 0. -1.
</event>
<event>
 5    1  0.1072898E-008  0.3792113E+03  0.7957747E-01  0.3454600E+00
         13   -1    0    0    0    0  0.00000000000E+00  0.00000000000E+00  0.14999999963E+04  0.15000000000E+04  0.10566000000E+00 0. -1.
        994   -1    0    0    0    0 -0.00000000000E+00 -0.00000000000E+00  0.11368683772E-12  0.17120000000E+03  0.17120000000E+03 0.  0.
         13    1    1    2    0    0  0.19721651974E+02 -0.14250064320E+02  0.59797360238E+02  0.64558061814E+02  0.10566000000E+00 0. -1.
        994    1    1    2    0    0 -0.24920242877E+02  0.19327010458E+02  0.78723680390E+01  0.17425833127E+03  0.17120000000E+03 0.  0.
        998    1    1    2    0    0  0.51985909031E+01 -0.50769461385E+01  0.14323302680E+04  0.14323836069E+04  0.10000000000E+02 0. -1.
</event>
<event>
 5    1  0.1072898E-008  0.3845962E+03  0.7957747E-01  0.3431387E+00
         13   -1    0    0    0    0  0.00000000000E+00  0.00000000000E+00  0.14999999963E+04  0.15000000000E+04  0.10566000000E+00 0.  1.
        994   -1    0    0    0    0 -0.00000000000E+00 -0.00000000000E+00  0.11368683772E-12  0.17120000000E+03  0.17120000000E+03 0.  0.
         13    1    1    2    0    0 -0.75949592119E+01 -0.14975297690E+02  0.73083008565E+02  0.74987200583E+02  0.10566000000E+00 0.  1.
        994    1    1    2    0    0  0.13245956119E+02  0.14441603123E+02  0.30963247595E+01  0.17234570630E+03  0.17120000000E+03 0.  0.
        998    1    1    2    0    0 -0.56509969073E+01  0.53369456720E+00  0.14238206630E+04  0.14238670931E+04  0.10000000000E+02 0.  1.
</event>
<event>
 5    1  0.1072898E-008  0.3839559E+03  0.7957747E-01  0.3434112E+00
         13   -1    0    0    0    0  0.00000000000E+00  0.00000000000E+00  0.14999999963E+04  0.15000000000E+04  0.10566000000E+00 0.  1.
        994   -1    0    0    0    0 -0.00000000000E+00 -0.00000000000E+00  0.11368683772E-12  0.17120000000E+03  0.17120000000E+03 0.  0.
         13    1    1    2    0    0  0.18476634051E+02  0.84742697953E+01  0.75861380638E+02  0.78537631049E+02  0.10566000000E+00 0.  1.
        994    1    1    2    0    0 -0.60559392095E+02  0.33551543569E+01  0.14384352039E+02  0.18219507846E+03  0.17120000000E+03 0.  0.
        998    1    1    2    0    0  0.42082758043E+02 -0.11829424152E+02  0.14097542636E+04  0.14104672905E+04  0.10000000000E+02 0.  1.
</event>
<event>
 5    1  0.1072898E-008  0.3834972E+03  0.7957747E-01  0.3436071E+00
         13   -1    0    0    0    0  0.00000000000E+00  0.00000000000E+00  0.14999999963E+04  0.15000000000E+04  0.10566000000E+00 0. -1.
        994   -1    0    0    0    0 -0.00000000000E+00 -0.00000000000E+00  0.11368683772E-12  0.17120000000E+03  0.17120000000E+03 0.  0.
         13    1    1    2    0    0 -0.10335800426E+02 -0.60950092699E+01  0.29484185839E+02  0.31832472211E+02  0.10566000000E+00 0. -1.
        994    1    1    2    0    0  0.91388172409E+01  0.13552132690E+01  0.26602248984E+01  0.17146973896E+03  0.17120000000E+03 0.  0.
        998    1    1    2    0    0  0.11969831852E+01  0.47397960009E+01  0.14678555855E+04  0.14678977888E+04  0.10000000000E+02 0. -1.
</event>
<event>
 5    1  0.1072898E-008  0.3851039E+03  0.7957747E-01  0.3429232E+00
         13   -1    0    0    0    0  0.00000000000E+00  0.00000000000E+00  0.14999999963E+04  0.15000000000E+04  0.10566000000E+00 0.  1.
        994   -1    0    0    0    0 -0.00000000000E+00 -0.00000000000E+00  0.11368683772E-12  0.17120000000E+03  0.17120000000E+03 0.  0.
         13    1    1    2    0    0  0.40118754986E+01  0.15411855879E+02  0.77924183364E+02  0.79534960637E+02  0.10566000000E+00 0.  1.
        994    1    1    2    0    0 -0.40682605868E+01 -0.14365176541E+02  0.23117112158E+01  0.17186533406E+03  0.17120000000E+03 0.  0.
        998    1    1    2    0    0  0.56385088169E-01 -0.10466793379E+01  0.14197641017E+04  0.14197997053E+04  0.10000000000E+02 0.  1.
</event>
<event>
 5    1  0.1072898E-008  0.3856619E+03  0.7957747E-01  0.3426870E+00
         13   -1    0    0    0    0  0.00000000000E+00  0.00000000000E+00  0.14999999963E+04  0.15000000000E+04  0.10566000000E+00 0. -1.
        994   -1    0    0    0    0 -0.00000000000E+00 -0.00000000000E+00  0.11368683772E-12  0.17120000000E+03  0.17120000000E+03 0.  0.
         13    1    1    2    0    0  0.10465530434E+02 -0.56492588077E+01  0.56965265633E+02  0.58193591615E+02  0.10566000000E+00 0. -1.
        994    1    1    2    0    0 -0.53885109704E+01 -0.59444816994E+01  0.15131495564E+01  0.17139458140E+03  0.17120000000E+03 0.  0.
        998    1    1    2    0    0 -0.50770194641E+01  0.11593740507E+02  0.14415215811E+04  0.14416118270E+04  0.10000000000E+02 0. -1.
</event>
<event>
 5    1  0.1072898E-008  0.3843365E+03  0.7957747E-01  0.3432491E+00
         13   -1    0    0    0    0  0.00000000000E+00  0.00000000000E+00  0.14999999963E+04  0.15000000000E+04  0.10566000000E+00 0. -1.
        994   -1    0    0    0    0 -0.00000000000E+00 -0.00000000000E+00  0.11368683772E-12  0.17120000000E+03  0.17120000000E+03 0.  0.
         13    1    1    2    0    0 -0.80420471625E+01  0.16546368820E+02  0.46085111223E+00  0.18403271216E+02  0.10566000000E+00 0. -1.
        994    1    1    2    0    0  0.11246907654E+02 -0.25844521015E+02  0.21660475926E+02  0.17485150390E+03  0.17120000000E+03 0.  0.
        998    1    1    2    0    0 -0.32048604918E+01  0.92981521949E+01  0.14778786692E+04  0.14779452249E+04  0.10000000000E+02 0. -1.
</event>
<event>
 5    1  0.1072898E-008  0.3795348E+03  0.7957747E-01  0.3453187E+00
         13   -1    0    0    0    0  0.00000000000E+00  0.00000000000E+00  0.14999999963E+04  0.15000000000E+04  0.10566000000E+00 0. -1.
        994   -1    0    0    0    0 -0.00000000000E+00 -0.00000000000E+00  0.11368683772E-12  0.17120000000E+03  0.17120000000E+03 0.  0.
         13    1    1    2    0    0 -0.93081613466E+01  0.31946308980E+02  0.13200349741E+03  0.13613281389E+03  0.10566000000E+00 0. -1.
        994    1    1    2    0    0  0.39815837524E+02 -0.11129891029E+01  0.96983660900E+01  0.17603987607E+03  0.17120000000E+03 0.  0.
        998    1    1    2    0    0 -0.30507676178E+02 -0.30833319877E+02  0.13582981328E+04  0.13590273100E+04  0.10000000000E+02 0. -1.
</event>
<event>
 5    1  0.1072898E-008  0.3824087E+03  0.7957747E-01  0.3440737E+00
         13   -1    0    0    0    0  0.00000000000E+00  0.00000000000E+00  0.14999999963E+04  0.15000000000E+04  0.10566000000E+00 0. -1.
        994   -1    0    0    0    0 -0.00000000000E+00 -0.00000000000E+00  0.11368683772E-12  0.17120000000E+03  0.17120000000E+03 0.  0.
         13    1    1    2    0    0  0.95011846454E+01  0.21008476139E+02  0.91956828798E+02  0.94803470959E+02  0.10566000000E+00 0. -1.
        994    1    1    2    0    0 -0.13952682228E+02 -0.55853635481E+01  0.36716082986E+01  0.17189762748E+03  0.17120000000E+03 0.  0.
        998    1    1    2    0    0  0.44514975824E+01 -0.15423112591E+02  0.14043715592E+04  0.14044989016E+04  0.10000000000E+02 0. -1.
</event>
<event>
 5    1  0.1072898E-008  0.3707612E+03  0.7957747E-01  0.3492400E+00
         13   -1    0    0    0    0  0.00000000000E+00  0.00000000000E+00  0.14999999963E+04  0.15000000000E+04  0.10566000000E+00 0.  1.
        994   -1    0    0    0    0 -0.00000000000E+00 -0.00000000000E+00  0.11368683772E-12  0.17120000000E+03  0.17120000000E+03 0.  0.
         13    1    1    2    0    0 -0.27681968340E+01 -0.11062619066E+02  0.45805238074E+00  0.11413388205E+02  0.10566000000E+00 0.  1.
        994    1    1    2    0    0  0.19172553879E+01  0.81803815068E+01  0.11589373937E+02  0.17179740422E+03  0.17120000000E+03 0.  0.
        998    1    1    2    0    0  0.85094144609E+00  0.28822375590E+01  0.14879525700E+04  0.14879892076E+04  0.10000000000E+02 0.  1.
</event>
<event>
 5    1  0.1072898E-008  0.3824085E+03  0.7957747E-01  0.3440738E+00
         13   -1    0    0    0    0  0.00000000000E+00  0.00000000000E+00  0.14999999963E+04  0.15000000000E+04  0.10566000000E+00 0.  1.
        994   -1    0    0    0    0 -0.00000000000E+00 -0.00000000000E+00  0.11368683772E-12  0.17120000000E+03  0.17120000000E+03 0.  0.
         13    1    1    2    0    0  0.23601933635E+02 -0.26466140194E+02  0.19640391661E+03  0.19957960184E+03  0.10566000000E+00 0.  1.
        994    1    1    2    0    0 -0.58651215475E+01  0.37168291215E+02  0.76322929464E+01  0.17545248194E+03  0.17120000000E+03 0.  0.
        998    1    1    2    0    0 -0.17736812088E+02 -0.10702151021E+02  0.12959637867E+04  0.12961679162E+04  0.10000000000E+02 0.  1.
</event>
<event>
 5    1  0.1072898E-008  0.3821143E+03  0.7957747E-01  0.3442004E+00
         13   -1    0    0    0    0  0.00000000000E+00  0.00000000000E+00  0.14999999963E+04  0.15000000000E+04  0.10566000000E+00 0. -1.
        994   -1    0    0    0    0 -0.00000000000E+00 -0.00000000000E+00  0.11368683772E-12  0.17120000000E+03  0.17120000000E+03 0.  0.
         13    1    1    2    0    0  0.17912476477E+02  0.95504798752E+01  0.64748297188E+02  0.67855888707E+02  0.10566000000E+00 0. -1.
        994    1    1    2    0    0 -0.16041390216E+02 -0.69416592656E+01  0.40845467521E+01  0.17213842208E+03  0.17120000000E+03 0.  0.
        998    1    1    2    0    0 -0.18710862615E+01 -0.26088206096E+01  0.14311671523E+04  0.14312056892E+04  0.10000000000E+02 0. -1.
</event>
<event>
 5    1  0.1072898E-008  0.3810210E+03  0.7957747E-01  0.3446725E+00
         13   -1    0    0    0    0  0.00000000000E+00  0.00000000000E+00  0.14999999963E+04  0.15000000000E+04  0.10566000000E+00 0. -1.
        994   -1    0    0    0    0 -0.00000000000E+00 -0.00000000000E+00  0.11368683772E-12  0.17120000000E+03  0.17120000000E+03 0.  0.
         13    1    1    2    0    0 -0.72028250043E+02  0.60702805072E+02  0.21822319558E+03  0.23768524060E+03  0.10566000000E+00 0. -1.
        994    1    1    2    0    0  0.72909359325E+02 -0.60930223213E+02  0.50514252593E+02  0.20221126698E+03  0.17120000000E+03 0.  0.
        998    1    1    2    0    0 -0.88110928132E+00  0.22741814154E+00  0.12312625481E+04  0.12313034924E+04  0.10000000000E+02 0. -1.
</event>
<event>
 5    1  0.1072898E-008  0.3794686E+03  0.7957747E-01  0.3453475E+00
         13   -1    0    0    0    0  0.00000000000E+00  0.00000000000E+00  0.14999999963E+04  0.15000000000E+04  0.10566000000E+00 0.  1.
        994   -1    0    0    0    0 -0.00000000000E+00 -0.00000000000E+00  0.11368683772E-12  0.17120000000E+03  0.17120000000E+03 0.  0.
         13    1    1    2    0    0 -0.45003357491E+02 -0.10483601133E+02  0.20220667193E+03  0.20741927927E+03  0.10566000000E+00 0.  1.
        994    1    1    2    0    0  0.50860809554E+02  0.90179021148E+01  0.13389037334E+02  0.17932331368E+03  0.17120000000E+03 0.  0.
        998    1    1    2    0    0 -0.58574520624E+01  0.14656990178E+01  0.12844042870E+04  0.12844574071E+04  0.10000000000E+02 0.  1.
</event>
<event>
 5    1  0.1072898E-008  0.3858707E+03  0.7957747E-01  0.3425988E+00
         13   -1    0    0    0    0  0.00000000000E+00  0.00000000000E+00  0.14999999963E+04  0.15000000000E+04  0.10566000000E+00 0. -1.
        994   -1    0    0    0    0 -0.00000000000E+00 -0.00000000000E+00  0.11368683772E-12  0.17120000000E+03  0.17120000000E+03 0.  0.
         13    1    1    2    0    0  0.24213587018E+01  0.13946493811E+02  0.85296206764E+02  0.86462834328E+02  0.10566000000E+00 0. -1.
        994    1    1    2    0    0 -0.16764654645E+02 -0.56234768822E+01  0.22245089946E+01  0.17212514511E+03  0.17120000000E+03 0.  0.
        998    1    1    2    0    0  0.14343295943E+02 -0.83230169293E+01  0.14124792805E+04  0.14126120206E+04  0.10000000000E+02 0. -1.
</event>
<event>
 5    1  0.1072898E-008  0.3844066E+03  0.7957747E-01  0.3432193E+00
         13   -1    0    0    0    0  0.00000000000E+00  0.00000000000E+00  0.14999999963E+04  0.15000000000E+04  0.10566000000E+00 0.  1.
        994   -1    0    0    0    0 -0.00000000000E+00 -0.00000000000E+00  0.11368683772E-12  0.17120000000E+03  0.17120000000E+03 0.  0.
         13    1    1    2    0    0  0.53011395151E+01  0.10958940972E+02  0.47372510178E+02  0.48911822211E+02  0.10566000000E+00 0.  1.
        994    1    1    2    0    0  0.27260121779E+02  0.23756792202E+02  0.62451605695E+01  0.17508838181E+03  0.17120000000E+03 0.  0.
        998    1    1    2    0    0 -0.32561261294E+02 -0.34715733173E+02  0.14463823255E+04  0.14471997960E+04  0.10000000000E+02 0.  1.
</event>
<event>
 5    1  0.1072898E-008  0.3840358E+03  0.7957747E-01  0.3433772E+00
         13   -1    0    0    0    0  0.00000000000E+00  0.00000000000E+00  0.14999999963E+04  0.15000000000E+04  0.10566000000E+00 0.  1.
        994   -1    0    0    0    0 -0.00000000000E+00 -0.00000000000E+00  0.11368683772E-12  0.17120000000E+03  0.17120000000E+03 0.  0.
         13    1    1    2    0    0  0.97923691735E+01  0.50660332129E+01  0.27782053621E+02  0.29889945700E+02  0.10566000000E+00 0.  1.
        994    1    1    2    0    0 -0.89229191785E+01 -0.79815774491E+01  0.25825658448E+01  0.17163750672E+03  0.17120000000E+03 0.  0.
        998    1    1    2    0    0 -0.86944999492E+00  0.29155442362E+01  0.14696353768E+04  0.14696725476E+04  0.10000000000E+02 0.  1.
</event>
<event>
 5    1  0.1072898E-008  0.3791610E+03  0.7957747E-01  0.3454820E+00
         13   -1    0    0    0    0  0.00000000000E+00  0.00000000000E+00  0.14999999963E+04  0.15000000000E+04  0.10566000000E+00 0.  1.
        994   -1    0    0    0    0 -0.00000000000E+00 -0.00000000000E+00  0.11368683772E-12  0.17120000000E+03  0.17120000000E+03 0.  0.
         13    1    1    2    0    0 -0.23462877608E+02 -0.16315830955E+02  0.88898329619E+02  0.93378997309E+02  0.10566000000E+00 0.  1.
        994    1    1    2    0    0  0.21462481198E+02 -0.36529686141E+01  0.61477836427E+01  0.17268820899E+03  0.17120000000E+03 0.  0.
        998    1    1    2    0    0  0.20003964100E+01  0.19968799569E+02  0.14049538830E+04  0.14051327937E+04  0.10000000000E+02 0.  1.
</event>
<event>
 5    1  0.1072898E-008  0.3850295E+03  0.7957747E-01  0.3429547E+00
         13   -1    0    0    0    0  0.00000000000E+00  0.00000000000E+00  0.14999999963E+04  0.15000000000E+04  0.10566000000E+00 0. -1.
        994   -1    0    0    0    0 -0.00000000000E+00 -0.00000000000E+00  0.11368683772E-12  0.17120000000E+03  0.17120000000E+03 0.  0.
         13    1    1    2    0    0 -0.20019275148E+02 -0.11251450035E+01  0.11261554882E+03  0.11438667024E+03  0.10566000000E+00 0. -1.
        994    1    1    2    0    0  0.24684479000E+02  0.29458903456E+01  0.36503173756E+01  0.17303400414E+03  0.17120000000E+03 0.  0.
        998    1    1    2    0    0 -0.46652038520E+01 -0.18207453421E+01  0.13837341301E+04  0.13837793256E+04  0.10000000000E+02 0. -1.
</event>
<event>
 5    1  0.1072898E-008  0.3862009E+03  0.7957747E-01  0.3424595E+00
         13   -1    0    0    0    0  0.00000000000E+00  0.00000000000E+00  0.14999999963E+04  0.15000000000E+04  0.10566000000E+00 0.  1.
        994   -1    0    0    0    0 -0.00000000000E+00 -0.00000000000E+00  0.11368683772E-12  0.17120000000E+03  0.17120000000E+03 0.  0.
         13    1    1    2    0    0 -0.98246664846E+01  0.35814828054E+01  0.56630316051E+02  0.57587802100E+02  0.10566000000E+00 0.  1.
        994    1    1    2    0    0  0.26192139248E+01  0.76447998782E+01  0.12490139340E+01  0.17139516703E+03  0.17120000000E+03 0.  0.
        998    1    1    2    0    0  0.72054525598E+01 -0.11226282684E+02  0.14421206663E+04  0.14422170309E+04  0.10000000000E+02 0.  1.
</event>
<event>
 5    1  0.1072898E-008  0.3820681E+03  0.7957747E-01  0.3442203E+00
         13   -1    0    0    0    0  0.00000000000E+00  0.00000000000E+00  0.14999999963E+04  0.15000000000E+04  0.10566000000E+00 0.  1.
        994   -1    0    0    0    0 -0.00000000000E+00 -0.00000000000E+00  0.11368683772E-12  0.17120000000E+03  0.17120000000E+03 0.  0.
         13    1    1    2    0    0 -0.57509977325E+01 -0.18374713867E+02  0.58013757189E+02  0.61125373388E+02  0.10566000000E+00 0.  1.
        994    1    1    2    0    0  0.50144619739E+01  0.15043034791E+02  0.39280654837E+01  0.17197763640E+03  0.17120000000E+03 0.  0.
        998    1    1    2    0    0  0.73653575863E+00  0.33316790756E+01  0.14380581736E+04  0.14380969902E+04  0.10000000000E+02 0.  1.
</event>
<event>
 5    1  0.1072898E-008  0.3826769E+03  0.7957747E-01  0.3439585E+00
         13   -1    0    0    0    0  0.00000000000E+00  0.00000000000E+00  0.14999999963E+04  0.15000000000E+04  0.10566000000E+00 0.  1.
        994   -1    0    0    0    0 -0.00000000000E+00 -0.00000000000E+00  0.11368683772E-12  0.17120000000E+03  0.17120000000E+03 0.  0.
         13    1    1    2    0    0 -0.47090779300E+01  0.26487430364E+02  0.11979380309E+03  0.12277754602E+03  0.10566000000E+00 0.  1.
        994    1    1    2    0    0 -0.86608167787E+01 -0.29595904815E+02  0.59453107493E+01  0.17405664035E+03  0.17120000000E+03 0.  0.
        998    1    1    2    0    0  0.13369894709E+02  0.31084744512E+01  0.13742608824E+04  0.13743658136E+04  0.10000000000E+02 0.  1.
</event>
<event>
 5    1  0.1072898E-008  0.3806105E+03  0.7957747E-01  0.3448505E+00
         13   -1    0    0    0    0  0.00000000000E+00  0.00000000000E+00  0.14999999963E+04  0.15000000000E+04  0.10566000000E+00 0. -1.
        994   -1    0    0    0    0 -0.00000000000E+00 -0.00000000000E+00  0.11368683772E-12  0.17120000000E+03  0.17120000000E+03 0.  0.
         13    1    1    2    0    0  0.28449284614E+02 -0.21665280042E+02  0.20621195630E+03  0.20928957986E+03  0.10566000000E+00 0. -1.
        994    1    1    2    0    0  0.89131979631E+01  0.17714979730E+01  0.41008725454E+01  0.17149005936E+03  0.17120000000E+03 0.  0.
        998    1    1    2    0    0 -0.37362482577E+02  0.19893782069E+02  0.12896871674E+04  0.12904203608E+04  0.10000000000E+02 0. -1.
</event>
<event>
 5    1  0.1072898E-008  0.3714232E+03  0.7957747E-01  0.3489375E+00
         13   -1    0    0    0    0  0.00000000000E+00  0.00000000000E+00  0.14999999963E+04  0.15000000000E+04  0.10566000000E+00 0.  1.
        994   -1    0    0    0    0 -0.00000000000E+00 -0.00000000000E+00  0.11368683772E-12  0.17120000000E+03  0.17120000000E+03 0.  0.
         13    1    1    2    0    0  0.15492676900E+02  0.10594403903E+01  0.10568670257E+02  0.18784392631E+02  0.10566000000E+00 0.  1.
        994    1    1    2    0    0 -0.19795924028E+01  0.78480050659E+01  0.87524934295E+01  0.17161455682E+03  0.17120000000E+03 0.  0.
        998    1    1    2    0    0 -0.13513084497E+02 -0.89074454562E+01  0.14806788326E+04  0.14808010506E+04  0.10000000000E+02 0.  1.
</event>
<event>
 5    1  0.1072898E-008  0.3780544E+03  0.7957747E-01  0.3459674E+00
         13   -1    0    0    0    0  0.00000000000E+00  0.00000000000E+00  0.14999999963E+04  0.15000000000E+04  0.10566000000E+00 0.  1.
        994   -1    0    0    0    0 -0.00000000000E+00 -0.00000000000E+00  0.11368683772E-12  0.17120000000E+03  0.17120000000E+03 0.  0.
         13    1    1    2    0    0  0.48175254355E+01 -0.10064468957E+03  0.49337400633E+03  0.50355782525E+03  0.10566000000E+00 0.  1.
        994    1    1    2    0    0 -0.60998458749E+01  0.73402526543E+01  0.15590561701E+02  0.17217314844E+03  0.17120000000E+03 0.  0.
        998    1    1    2    0    0  0.12823204394E+01  0.93304436916E+02  0.99103542825E+03  0.99546902631E+03  0.10000000000E+02 0.  1.
</event>
<event>
 5    1  0.1072898E-008  0.3813165E+03  0.7957747E-01  0.3445446E+00
         13   -1    0    0    0    0  0.00000000000E+00  0.00000000000E+00  0.14999999963E+04  0.15000000000E+04  0.10566000000E+00 0.  1.
        994   -1    0    0    0    0 -0.00000000000E+00 -0.00000000000E+00  0.11368683772E-12  0.17120000000E+03  0.17120000000E+03 0.  0.
         13    1    1    2    0    0  0.25948702558E+02  0.21511662170E+02  0.15471500423E+03  0.15834402569E+03  0.10566000000E+00 0.  1.
        994    1    1    2    0    0 -0.15092166098E+02 -0.24221534961E+02  0.61856661099E+01  0.17367256173E+03  0.17120000000E+03 0.  0.
        998    1    1    2    0    0 -0.10856536459E+02  0.27098727917E+01  0.13390993259E+04  0.13391834126E+04  0.10000000000E+02 0.  1.
</event>
<event>
 5    1  0.1072898E-008  0.3753201E+03  0.7957747E-01  0.3471792E+00
         13   -1    0    0    0    0  0.00000000000E+00  0.00000000000E+00  0.14999999963E+04  0.15000000000E+04  0.10566000000E+00 0. -1.
        994   -1    0    0    0    0 -0.00000000000E+00 -0.00000000000E+00  0.11368683772E-12  0.17120000000E+03  0.17120000000E+03 0.  0.
         13    1    1    2    0    0  0.40956929482E+02 -0.36112821063E+02  0.19701438680E+03  0.20444139915E+03  0.10566000000E+00 0. -1.
        994    1    1    2    0    0 -0.49910574743E+02  0.27406681980E+02  0.17604081645E+02  0.18127750930E+03  0.17120000000E+03 0.  0.
        998    1    1    2    0    0  0.89536452609E+01  0.87061390830E+01  0.12853815278E+04  0.12854810915E+04  0.10000000000E+02 0. -1.
</event>
<event>
 5    1  0.1072898E-008  0.3851463E+03  0.7957747E-01  0.3429052E+00
         13   -1    0    0    0    0  0.00000000000E+00  0.00000000000E+00  0.14999999963E+04  0.15000000000E+04  0.10566000000E+00 0. -1.
        994   -1    0    0    0    0 -0.00000000000E+00 -0.00000000000E+00  0.11368683772E-12  0.17120000000E+03  0.17120000000E+03 0.  0.
         13    1    1    2    0    0  0.10317732012E+02  0.73966464994E+01  0.51275823165E+02  0.52824115502E+02  0.10566000000E+00 0. -1.
        994    1    1    2    0    0 -0.10507319539E+02 -0.27758562107E+01  0.19458730447E+01  0.17155563402E+03  0.17120000000E+03 0.  0.
        998    1    1    2    0    0  0.18958752737E+00 -0.46207902888E+01  0.14467783001E+04  0.14468202505E+04  0.10000000000E+02 0. -1.
</event>
<event>
 5    1  0.1072898E-008  0.3827420E+03  0.7957747E-01  0.3439305E+00
         13   -1    0    0    0    0  0.00000000000E+00  0.00000000000E+00  0.14999999963E+04  0.15000000000E+04  0.10566000000E+00 0. -1.
        994   -1    0    0    0    0 -0.00000000000E+00 -0.00000000000E+00  0.11368683772E-12  0.17120000000E+03  0.17120000000E+03 0.  0.
         13    1    1    2    0    0  0.22386256856E+02  0.11404316653E+02  0.12602612825E+03  0.12850602748E+03  0.10566000000E+00 0. -1.
        994    1    1    2    0    0  0.18191584215E+01 -0.52677842137E+01  0.28582589545E+01  0.17131453100E+03  0.17120000000E+03 0.  0.
        998    1    1    2    0    0 -0.24205415277E+02 -0.61365324391E+01  0.13711156091E+04  0.13713794415E+04  0.10000000000E+02 0. -1.
</event>
<event>
 5    1  0.1072898E-008  0.3843653E+03  0.7957747E-01  0.3432369E+00
         13   -1    0    0    0    0  0.00000000000E+00  0.00000000000E+00  0.14999999963E+04  0.15000000000E+04  0.10566000000E+00 0. -1.
        994   -1    0    0    0    0 -0.00000000000E+00 -0.00000000000E+00  0.11368683772E-12  0.17120000000E+03  0.17120000000E+03 0.  0.
         13    1    1    2    0    0  0.14506480589E+02 -0.12903027829E+02  0.89227183482E+02  0.91314990787E+02  0.10566000000E+00 0. -1.
        994    1    1    2    0    0 -0.21930971170E+02  0.11705868919E+02  0.39848093924E+01  0.17304136375E+03  0.17120000000E+03 0.  0.
        998    1    1    2    0    0  0.74244905809E+01  0.11971589102E+01  0.14067880034E+04  0.14068436455E+04  0.10000000000E+02 0. -1.
</event>
<event>
 5    1  0.1072898E-008  0.3804922E+03  0.7957747E-01  0.3449018E+00
         13   -1    0    0    0    0  0.00000000000E+00  0.00000000000E+00  0.14999999963E+04  0.15000000000E+04  0.10566000000E+00 0. -1.
        994   -1    0    0    0    0 -0.00000000000E+00 -0.00000000000E+00  0.11368683772E-12  0.17120000000E+03  0.17120000000E+03 0.  0.
         13    1    1    2    0    0 -0.34198414040E+01  0.18749083420E+02  0.48189227740E+02  0.51821195264E+02  0.10566000000E+00 0. -1.
        994    1    1    2    0    0  0.27936330691E+01  0.42806851594E+01  0.39721228832E+01  0.17132234650E+03  0.17120000000E+03 0.  0.
        998    1    1    2    0    0  0.62620833498E+00 -0.23029768580E+02  0.14478386457E+04  0.14480564582E+04  0.10000000000E+02 0. -1.
</event>
<event>
 5    1  0.1072898E-008  0.3716357E+03  0.7957747E-01  0.3488407E+00
         13   -1    0    0    0    0  0.00000000000E+00  0.00000000000E+00  0.14999999963E+04  0.15000000000E+04  0.10566000000E+00 0. -1.
        994   -1    0    0    0    0 -0.00000000000E+00 -0.00000000000E+00  0.11368683772E-12  0.17120000000E+03  0.17120000000E+03 0.  0.
         13    1    1    2    0    0  0.40443435980E+01  0.16788294727E+02  0.14249470055E+02  0.22388883756E+02  0.10566000000E+00 0. -1.
        994    1    1    2    0    0 -0.76577890784E+01 -0.37309049228E+01  0.86661070387E+01  0.17163071635E+03  0.17120000000E+03 0.  0.
        998    1    1    2    0    0  0.36134454804E+01 -0.13057389804E+02  0.14770844192E+04  0.14771803999E+04  0.10000000000E+02 0. -1.
</event>
<event>
 5    1  0.1072898E-008  0.3737971E+03  0.7957747E-01  0.3478620E+00
         13   -1    0    0    0    0  0.00000000000E+00  0.00000000000E+00  0.14999999963E+04  0.15000000000E+04  0.10566000000E+00 0. -1.
        994   -1    0    0    0    0 -0.00000000000E+00 -0.00000000000E+00  0.11368683772E-12  0.17120000000E+03  0.17120000000E+03 0.  0.
         13    1    1    2    0    0 -0.61358799602E+01  0.97339224616E+01  0.54196743671E+01  0.12719367266E+02  0.10566000000E+00 0. -1.
        994    1    1    2    0    0  0.14107145325E+02 -0.25326683601E+02  0.10171576548E+02  0.17393491145E+03  0.17120000000E+03 0.  0.
        998    1    1    2    0    0 -0.79712653651E+01  0.15592761139E+02  0.14844087454E+04  0.14845457213E+04  0.10000000000E+02 0. -1.
</event>
<event>
 5    1  0.1072898E-008  0.3841947E+03  0.7957747E-01  0.3433095E+00
         13   -1    0    0    0    0  0.00000000000E+00  0.00000000000E+00  0.14999999963E+04  0.15000000000E+04  0.10566000000E+00 0.  1.
        994   -1    0    0    0    0 -0.00000000000E+00 -0.00000000000E+00  0.11368683772E-12  0.17120000000E+03  0.17120000000E+03 0.  0.
         13    1    1    2    0    0 -0.36457462073E+01 -0.24822610337E+02  0.14215823382E+03  0.14435521486E+03  0.10566000000E+00 0.  1.
        994    1    1    2    0    0  0.77168884056E+01  0.24409098926E+02  0.41943276189E+01  0.17315422854E+03  0.17120000000E+03 0.  0.
        998    1    1    2    0    0 -0.40711421983E+01  0.41351141164E+00  0.13536474348E+04  0.13536905566E+04  0.10000000000E+02 0.  1.
</event>
<event>
 5    1  0.1072898E-008  0.3839876E+03  0.7957747E-01  0.3433977E+00
         13   -1    0    0    0    0  0.00000000000E+00  0.00000000000E+00  0.14999999963E+04  0.15000000000E+04  0.10566000000E+00 0. -1.
        994   -1    0    0    0    0 -0.00000000000E+00 -0.00000000000E+00  0.11368683772E-12  0.17120000000E+03  0.17120000000E+03 0.  0.
         13    1    1    2    0    0  0.19230826032E+02  0.19546304244E+01  0.84810565939E+02  0.86985564946E+02  0.10566000000E+00 0. -1.
        994    1    1    2    0    0 -0.16443127685E+02 -0.20206590866E+01  0.30397209092E+01  0.17202656601E+03  0.17120000000E+03 0.  0.
        998    1    1    2    0    0 -0.27876983474E+01  0.66028662268E-01  0.14121497094E+04  0.14121878690E+04  0.10000000000E+02 0. -1.
</event>
<event>
 5    1  0.1072898E-008  0.3836443E+03  0.7957747E-01  0.3435442E+00
         13   -1    0    0    0    0  0.00000000000E+00  0.00000000000E+00  0.14999999963E+04  0.15000000000E+04  0.10566000000E+00 0. -1.
        994   -1    0    0    0    0 -0.00000000000E+00 -0.00000000000E+00  0.11368683772E-12  0.17120000000E+03  0.17120000000E+03 0.  0.
         13    1    1    2    0    0 -0.12308777968E+02 -0.19165950936E+02  0.11163788519E+03  0.11393800184E+03  0.10566000000E+00 0. -1.
        994    1    1    2    0    0  0.11849124090E+02  0.97038370124E+01  0.30798873068E+01  0.17191129079E+03  0.17120000000E+03 0.  0.
        998    1    1    2    0    0  0.45965387807E+00  0.94621139234E+01  0.13852822238E+04  0.13853507074E+04  0.10000000000E+02 0. -1.
</event>
<event>
 5    1  0.1072898E-008  0.3809929E+03  0.7957747E-01  0.3446846E+00
         13   -1    0    0    0    0  0.00000000000E+00  0.00000000000E+00  0.14999999963E+04  0.15000000000E+04  0.10566000000E+00 0. -1.
        994   -1    0    0    0    0 -0.00000000000E+00 -0.00000000000E+00  0.11368683772E-12  0.17120000000E+03  0.17120000000E+03 0.  0.
         13    1    1    2    0    0 -0.23050972090E+02  0.68395857884E+01  0.76082262227E+02  0.79791284221E+02  0.10566000000E+00 0. -1.
        994    1    1    2    0    0  0.21593239862E+02 -0.16582693992E+01  0.51970710532E+01  0.17264260023E+03  0.17120000000E+03 0.  0.
        998    1    1    2    0    0  0.14577322284E+01 -0.51813163892E+01  0.14187206630E+04  0.14187661156E+04  0.10000000000E+02 0. -1.
</event>
<event>
 5    1  0.1072898E-008  0.3710622E+03  0.7957747E-01  0.3491024E+00
         13   -1    0    0    0    0  0.00000000000E+00  0.00000000000E+00  0.14999999963E+04  0.15000000000E+04  0.10566000000E+00 0. -1.
        994   -1    0    0    0    0 -0.00000000000E+00 -0.00000000000E+00  0.11368683772E-12  0.17120000000E+03  0.17120000000E+03 0.  0.
         13    1    1    2    0    0 -0.52031471055E+02 -0.51812733739E+02  0.35177122032E+03  0.35935335809E+03  0.10566000000E+00 0. -1.
        994    1    1    2    0    0  0.82325963624E+01  0.26145699411E+02  0.11307785469E+02  0.17374889713E+03  0.17120000000E+03 0.  0.
        998    1    1    2    0    0  0.43798874693E+02  0.25667034328E+02  0.11369209905E+04  0.11380977448E+04  0.10000000000E+02 0. -1.
</event>
<event>
 5    1  0.1072898E-008  0.3823035E+03  0.7957747E-01  0.3441189E+00
         13   -1    0    0    0    0  0.00000000000E+00  0.00000000000E+00  0.14999999963E+04  0.15000000000E+04  0.10566000000E+00 0.  1.
        994   -1    0    0    0    0 -0.00000000000E+00 -0.00000000000E+00  0.11368683772E-12  0.17120000000E+03  0.17120000000E+03 0.  0.
         13    1    1    2    0    0  0.18304346283E+02 -0.19184452437E+02  0.10933828356E+03  0.11250761629E+03  0.10566000000E+00 0.  1.
        994    1    1    2    0    0 -0.16854777591E+02  0.21890620413E+02  0.55112681417E+01  0.17350244052E+03  0.17120000000E+03 0.  0.
        998    1    1    2    0    0 -0.14495686920E+01 -0.27061679758E+01  0.13851504446E+04  0.13851899432E+04  0.10000000000E+02 0.  1.
</event>
<event>
 5    1  0.1072898E-008  0.3787590E+03  0.7957747E-01  0.3456580E+00
         13   -1    0    0    0    0  0.00000000000E+00  0.00000000000E+00  0.14999999963E+04  0.15000000000E+04  0.10566000000E+00 0.  1.
        994   -1    0    0    0    0 -0.00000000000E+00 -0.00000000000E+00  0.11368683772E-12  0.17120000000E+03  0.17120000000E+03 0.  0.
         13    1    1    2    0    0 -0.12493282274E+02 -0.75078448813E+00  0.14640917609E+02  0.19261708433E+02  0.10566000000E+00 0.  1.
        994    1    1    2    0    0  0.17076453541E+01 -0.34764194964E+01  0.48112595417E+01  0.17131138247E+03  0.17120000000E+03 0.  0.
        998    1    1    2    0    0  0.10785636920E+02  0.42272039846E+01  0.14805478191E+04  0.14806269091E+04  0.10000000000E+02 0.  1.
</event>
<event>
 5    1  0.1072898E-008  0.3806863E+03  0.7957747E-01  0.3448176E+00
         13   -1    0    0    0    0  0.00000000000E+00  0.00000000000E+00  0.14999999963E+04  0.15000000000E+04  0.10566000000E+00 0.  1.
        994   -1    0    0    0    0 -0.00000000000E+00 -0.00000000000E+00  0.11368683772E-12  0.17120000000E+03  0.17120000000E+03 0.  0.
         13    1    1    2    0    0 -0.15923959054E+02 -0.51886475200E+02  0.30118681134E+03  0.30603804546E+03  0.10566000000E+00 0.  1.
        994    1    1    2    0    0  0.13301373516E+02  0.56512911960E+02  0.15112299343E+02  0.18140688341E+03  0.17120000000E+03 0.  0.
        998    1    1    2    0    0  0.26225855383E+01 -0.46264367600E+01  0.11837008856E+04  0.11837550711E+04  0.10000000000E+02 0.  0.
</event>
<event>
 5    1  0.1072898E-008  0.3716726E+03  0.7957747E-01  0.3488239E+00
         13   -1    0    0    0    0  0.00000000000E+00  0.00000000000E+00  0.14999999963E+04  0.15000000000E+04  0.10566000000E+00 0. -1.
        994   -1    0    0    0    0 -0.00000000000E+00 -0.00000000000E+00  0.11368683772E-12  0.17120000000E+03  0.17120000000E+03 0.  0.
         13    1    1    2    0    0 -0.36549106847E+02  0.25282454106E+01  0.70347962252E+02  0.79316304712E+02  0.10566000000E+00 0. -1.
        994    1    1    2    0    0  0.49269686630E+02 -0.66392463798E+01  0.16942586860E+02  0.17907560655E+03  0.17120000000E+03 0.  0.
        998    1    1    2    0    0 -0.12720579783E+02  0.41110009692E+01  0.14127094472E+04  0.14128080887E+04  0.10000000000E+02 0. -1.
</event>
<event>
 5    1  0.1072898E-008  0.3800452E+03  0.7957747E-01  0.3450962E+00
         13   -1    0    0    0    0  0.00000000000E+00  0.00000000000E+00  0.14999999963E+04  0.15000000000E+04  0.10566000000E+00 0.  1.
        994   -1    0    0    0    0 -0.00000000000E+00 -0.00000000000E+00  0.11368683772E-12  0.17120000000E+03  0.17120000000E+03 0.  0.
         13    1    1    2    0    0 -0.19352705254E+02  0.62289519111E+01  0.48596040259E+02  0.52677446174E+02  0.10566000000E+00 0.  1.
        994    1    1    2    0    0  0.16542335184E+02  0.52433002156E+01  0.51175352492E+01  0.17215333345E+03  0.17120000000E+03 0.  0.
        998    1    1    2    0    0  0.28103700702E+01 -0.11472252127E+02  0.14462864208E+04  0.14463692204E+04  0.10000000000E+02 0.  1.
</event>
<event>
 5    1  0.1072898E-008  0.3846508E+03  0.7957747E-01  0.3431155E+00
         13   -1    0    0    0    0  0.00000000000E+00  0.00000000000E+00  0.14999999963E+04  0.15000000000E+04  0.10566000000E+00 0. -1.
        994   -1    0    0    0    0 -0.00000000000E+00 -0.00000000000E+00  0.11368683772E-12  0.17120000000E+03  0.17120000000E+03 0.  0.
         13    1    1    2    0    0 -0.48221027056E+01 -0.18486512939E+02  0.97214717534E+02  0.99074296891E+02  0.10566000000E+00 0. -1.
        994    1    1    2    0    0 -0.67324160966E+01  0.19947152560E+02  0.32642201545E+01  0.17252046097E+03  0.17120000000E+03 0.  0.
        998    1    1    2    0    0  0.11554518802E+02 -0.14606396215E+01  0.13995210586E+04  0.13996052421E+04  0.10000000000E+02 0. -1.
</event>
<event>
 5    1  0.1072898E-008  0.3788662E+03  0.7957747E-01  0.3456110E+00
         13   -1    0    0    0    0  0.00000000000E+00  0.00000000000E+00  0.14999999963E+04  0.15000000000E+04  0.10566000000E+00 0. -1.
        994   -1    0    0    0    0 -0.00000000000E+00 -0.00000000000E+00  0.11368683772E-12  0.17120000000E+03  0.17120000000E+03 0.  0.
         13    1    1    2    0    0  0.19201417830E+02 -0.29801300676E+02  0.12499895678E+03  0.12992906653E+03  0.10566000000E+00 0. -1.
        994    1    1    2    0    0 -0.13270048962E+02  0.28393905518E+02  0.80097319124E+01  0.17422945754E+03  0.17120000000E+03 0.  0.
        998    1    1    2    0    0 -0.59313688683E+01  0.14073951579E+01  0.13669913076E+04  0.13670414759E+04  0.10000000000E+02 0.  0.
</event>
<event>
 5    1  0.1072898E-008  0.3857454E+03  0.7957747E-01  0.3426517E+00
         13   -1    0    0    0    0  0.00000000000E+00  0.00000000000E+00  0.14999999963E+04  0.15000000000E+04  0.10566000000E+00 0.  1.
        994   -1    0    0    0    0 -0.00000000000E+00 -0.00000000000E+00  0.11368683772E-12  0.17120000000E+03  0.17120000000E+03 0.  0.
         13    1    1    2    0    0  0.12080332727E+02 -0.29284507921E+01  0.60355371945E+02  0.61622174171E+02  0.10566000000E+00 0.  1.
        994    1    1    2    0    0 -0.11530831378E+02  0.20208646734E+01  0.17102625705E+01  0.17160830098E+03  0.17120000000E+03 0.  0.
        998    1    1    2    0    0 -0.54950134953E+00  0.90758611872E+00  0.14379343618E+04  0.14379695249E+04  0.10000000000E+02 0.  0.
</event>
<event>
 5    1  0.1072898E-008  0.3772136E+03  0.7957747E-01  0.3463382E+00
         13   -1    0    0    0    0  0.00000000000E+00  0.00000000000E+00  0.14999999963E+04  0.15000000000E+04  0.10566000000E+00 0. -1.
        994   -1    0    0    0    0 -0.00000000000E+00 -0.00000000000E+00  0.11368683772E-12  0.17120000000E+03  0.17120000000E+03 0.  0.
         13    1    1    2    0    0 -0.44828085614E+02 -0.11735331208E+02  0.64509490919E+02  0.79427708270E+02  0.10566000000E+00 0. -1.
        994    1    1    2    0    0  0.42916855766E+02  0.18283095376E+02  0.22651793711E+02  0.17888172585E+03  0.17120000000E+03 0.  0.
        998    1    1    2    0    0  0.19112298480E+01 -0.65477641677E+01  0.14128387116E+04  0.14128905659E+04  0.10000000000E+02 0. -1.
</event>
<event>
 5    1  0.1072898E-008  0.3237365E+03  0.7957747E-01  0.3739898E+00
         13   -1    0    0    0    0  0.00000000000E+00  0.00000000000E+00  0.14999999963E+04  0.15000000000E+04  0.10566000000E+00 0.  1.
        994   -1    0    0    0    0 -0.00000000000E+00 -0.00000000000E+00  0.11368683772E-12  0.17120000000E+03  0.17120000000E+03 0.  0.
         13    1    1    2    0    0  0.21719539134E+03 -0.26242156500E+01  0.82410804134E+03  0.85225277910E+03  0.10566000000E+00 0.  1.
        994    1    1    2    0    0 -0.18186468585E+03  0.16645922171E+02  0.15048813381E+03  0.29207527985E+03  0.17120000000E+03 0.  0.
        998    1    1    2    0    0 -0.35330705491E+02 -0.14021706521E+02  0.52540382113E+03  0.52687194105E+03  0.10000000000E+02 0.  1.
</event>
<event>
 5    1  0.1072898E-008  0.3737299E+03  0.7957747E-01  0.3478923E+00
         13   -1    0    0    0    0  0.00000000000E+00  0.00000000000E+00  0.14999999963E+04  0.15000000000E+04  0.10566000000E+00 0. -1.
        994   -1    0    0    0    0 -0.00000000000E+00 -0.00000000000E+00  0.11368683772E-12  0.17120000000E+03  0.17120000000E+03 0.  0.
         13    1    1    2    0    0 -0.46363936460E+02  0.12309142464E+02  0.14192248013E+03  0.14981031714E+03  0.10566000000E+00 0. -1.
        994    1    1    2    0    0  0.43128954808E+02 -0.17758506363E+02  0.14795678223E+02  0.17805567496E+03  0.17120000000E+03 0.  0.
        998    1    1    2    0    0  0.32349816520E+01  0.54493638982E+01  0.13432818379E+04  0.13433340079E+04  0.10000000000E+02 0. -1.
</event>
<event>
 5    1  0.1072898E-008  0.3825686E+03  0.7957747E-01  0.3440050E+00
         13   -1    0    0    0    0  0.00000000000E+00  0.00000000000E+00  0.14999999963E+04  0.15000000000E+04  0.10566000000E+00 0. -1.
        994   -1    0    0    0    0 -0.00000000000E+00 -0.00000000000E+00  0.11368683772E-12  0.17120000000E+03  0.17120000000E+03 0.  0.
         13    1    1    2    0    0 -0.22647090430E+02  0.12048877800E+02  0.11811475096E+03  0.12086840663E+03  0.10566000000E+00 0. -1.
        994    1    1    2    0    0  0.96683489359E+01 -0.62068512186E+01  0.32798182157E+01  0.17161643039E+03  0.17120000000E+03 0.  0.
        998    1    1    2    0    0  0.12978741495E+02 -0.58420265818E+01  0.13786054271E+04  0.13787151630E+04  0.10000000000E+02 0. -1.
</event>
<event>
 5    1  0.1072898E-008  0.3824088E+03  0.7957747E-01  0.3440737E+00
         13   -1    0    0    0    0  0.00000000000E+00  0.00000000000E+00  0.14999999963E+04  0.15000000000E+04  0.10566000000E+00 0.  1.
        994   -1    0    0    0    0 -0.00000000000E+00 -0.00000000000E+00  0.11368683772E-12  0.17120000000E+03  0.17120000000E+03 0.  0.
         13    1    1    2    0    0  0.17467640169E+02  0.14865739338E+02  0.87601128389E+02  0.90554279404E+02  0.10566000000E+00 0.  1.
        994    1    1    2    0    0 -0.14806116951E+02 -0.94020457277E+01  0.39429992975E+01  0.17214124086E+03  0.17120000000E+03 0.  0.
        998    1    1    2    0    0 -0.26615232188E+01 -0.54636936100E+01  0.14084558686E+04  0.14085044797E+04  0.10000000000E+02 0.  1.
</event>
<event>
 5    1  0.1072898E-008  0.3790724E+03  0.7957747E-01  0.3455207E+00
         13   -1    0    0    0    0  0.00000000000E+00  0.00000000000E+00  0.14999999963E+04  0.15000000000E+04  0.10566000000E+00 0. -1.
        994   -1    0    0    0    0 -0.00000000000E+00 -0.00000000000E+00  0.11368683772E-12  0.17120000000E+03  0.17120000000E+03 0.  0.
         13    1    1    2    0    0 -0.24876867300E+02  0.73994329072E+02  0.44427645205E+03  0.45108269339E+03  0.10566000000E+00 0. -1.
        994    1    1    2    0    0  0.27475081840E+02 -0.76841383361E+02  0.27266879656E+02  0.19160480434E+03  0.17120000000E+03 0.  0.
        998    1    1    2    0    0 -0.25982145399E+01  0.28470542890E+01  0.10284566646E+04  0.10285125023E+04  0.10000000000E+02 0. -1.
</event>
<event>
 5    1  0.1072898E-008  0.3788892E+03  0.7957747E-01  0.3456009E+00
         13   -1    0    0    0    0  0.00000000000E+00  0.00000000000E+00  0.14999999963E+04  0.15000000000E+04  0.10566000000E+00 0. -1.
        994   -1    0    0    0    0 -0.00000000000E+00 -0.00000000000E+00  0.11368683772E-12  0.17120000000E+03  0.17120000000E+03 0.  0.
         13    1    1    2    0    0 -0.18379785144E+02  0.15039179445E+02  0.56121735559E+02  0.60939755386E+02  0.10566000000E+00 0. -1.
        994    1    1    2    0    0  0.23274852750E+02 -0.11786908984E+02  0.69819918951E+01  0.17331716073E+03  0.17120000000E+03 0.  0.
        998    1    1    2    0    0 -0.48950676057E+01 -0.32522704610E+01  0.14368962688E+04  0.14369430839E+04  0.10000000000E+02 0. -1.
</event>
<event>
 5    1  0.1072898E-008  0.3851059E+03  0.7957747E-01  0.3429223E+00
         13   -1    0    0    0    0  0.00000000000E+00  0.00000000000E+00  0.14999999963E+04  0.15000000000E+04  0.10566000000E+00 0.  1.
        994   -1    0    0    0    0 -0.00000000000E+00 -0.00000000000E+00  0.11368683772E-12  0.17120000000E+03  0.17120000000E+03 0.  0.
         13    1    1    2    0    0  0.36847691930E+02  0.39890039812E+02  0.68819407709E+02  0.87664643490E+02  0.10566000000E+00 0.  1.
        994    1    1    2    0    0 -0.34541121443E+02 -0.30983618295E+02  0.27154190704E+02  0.17944320479E+03  0.17120000000E+03 0.  0.
        998    1    1    2    0    0 -0.23065704868E+01 -0.89064215165E+01  0.14040263979E+04  0.14040921517E+04  0.10000000000E+02 0.  1.
</event>
<event>
 5    1  0.1072898E-008  0.3803884E+03  0.7957747E-01  0.3449469E+00
         13   -1    0    0    0    0  0.00000000000E+00  0.00000000000E+00  0.14999999963E+04  0.15000000000E+04  0.10566000000E+00 0. -1.
        994   -1    0    0    0    0 -0.00000000000E+00 -0.00000000000E+00  0.11368683772E-12  0.17120000000E+03  0.17120000000E+03 0.  0.
         13    1    1    2    0    0  0.15480673984E+02 -0.49561441925E+01  0.30426263303E+02  0.34496134492E+02  0.10566000000E+00 0. -1.
        994    1    1    2    0    0 -0.24124864895E+02  0.13722331492E+02  0.65132461488E+01  0.17355740798E+03  0.17120000000E+03 0.  0.
        998    1    1    2    0    0  0.86441909106E+01 -0.87661872994E+01  0.14630604868E+04  0.14631464575E+04  0.10000000000E+02 0. -1.
</event>
<event>
 5    1  0.1072898E-008  0.3839425E+03  0.7957747E-01  0.3434170E+00
         13   -1    0    0    0    0  0.00000000000E+00  0.00000000000E+00  0.14999999963E+04  0.15000000000E+04  0.10566000000E+00 0.  1.
        994   -1    0    0    0    0 -0.00000000000E+00 -0.00000000000E+00  0.11368683772E-12  0.17120000000E+03  0.17120000000E+03 0.  0.
         13    1    1    2    0    0 -0.32658650898E+02  0.38125513247E+01  0.21327123279E+02  0.39191585544E+02  0.10566000000E+00 0.  1.
        994    1    1    2    0    0  0.32032291562E+02 -0.15130469962E+01  0.22299957305E+02  0.17559921728E+03  0.17120000000E+03 0.  0.
        998    1    1    2    0    0  0.62635933608E+00 -0.22995043285E+01  0.14563729157E+04  0.14564091972E+04  0.10000000000E+02 0.  1.
</event>
<event>
 5    1  0.1072898E-008  0.3857595E+03  0.7957747E-01  0.3426457E+00
         13   -1    0    0    0    0  0.00000000000E+00  0.00000000000E+00  0.14999999963E+04  0.15000000000E+04  0.10566000000E+00 0. -1.
        994   -1    0    0    0    0 -0.00000000000E+00 -0.00000000000E+00  0.11368683772E-12  0.17120000000E+03  0.17120000000E+03 0.  0.
         13    1    1    2    0    0  0.16722067329E+01 -0.13105332639E+02  0.72259130364E+02  0.73457056189E+02  0.10566000000E+00 0. -1.
        994    1    1    2    0    0  0.31046079748E+01  0.53799095977E+01  0.13800977332E+01  0.17131820302E+03  0.17120000000E+03 0.  0.
        998    1    1    2    0    0 -0.47768147077E+01  0.77254230408E+01  0.14263607682E+04  0.14264247408E+04  0.10000000000E+02 0. -1.
</event>
<event>
 5    1  0.1072898E-008  0.3763348E+03  0.7957747E-01  0.3467274E+00
         13   -1    0    0    0    0  0.00000000000E+00  0.00000000000E+00  0.14999999963E+04  0.15000000000E+04  0.10566000000E+00 0.  1.
        994   -1    0    0    0    0 -0.00000000000E+00 -0.00000000000E+00  0.11368683772E-12  0.17120000000E+03  0.17120000000E+03 0.  0.
         13    1    1    2    0    0 -0.77883601356E+02 -0.26612500882E+01  0.40368365754E+03  0.41113677060E+03  0.10566000000E+00 0.  1.
        994    1    1    2    0    0  0.69823337076E+02 -0.15533792980E+02  0.23510404598E+02  0.18702613788E+03  0.17120000000E+03 0.  0.
        998    1    1    2    0    0  0.80602642800E+01  0.18195043068E+02  0.10728059341E+04  0.10730370915E+04  0.10000000000E+02 0.  1.
</event>
<event>
 5    1  0.1072898E-008  0.3684638E+03  0.7957747E-01  0.3502981E+00
         13   -1    0    0    0    0  0.00000000000E+00  0.00000000000E+00  0.14999999963E+04  0.15000000000E+04  0.10566000000E+00 0.  1.
        994   -1    0    0    0    0 -0.00000000000E+00 -0.00000000000E+00  0.11368683772E-12  0.17120000000E+03  0.17120000000E+03 0.  0.
         13    1    1    2    0    0 -0.28468700302E+02 -0.31912402327E+02  0.90135665323E+02  0.99766315190E+02  0.10566000000E+00 0.  1.
        994    1    1    2    0    0  0.14104554793E+02  0.11190547338E+02  0.11201858438E+02  0.17250822719E+03  0.17120000000E+03 0.  0.
        998    1    1    2    0    0  0.14364145508E+02  0.20721854989E+02  0.13986624725E+04  0.13989254576E+04  0.10000000000E+02 0.  1.
</event>
<event>
 5    1  0.1072898E-008  0.3833676E+03  0.7957747E-01  0.3436625E+00
         13   -1    0    0    0    0  0.00000000000E+00  0.00000000000E+00  0.14999999963E+04  0.15000000000E+04  0.10566000000E+00 0. -1.
        994   -1    0    0    0    0 -0.00000000000E+00 -0.00000000000E+00  0.11368683772E-12  0.17120000000E+03  0.17120000000E+03 0.  0.
         13    1    1    2    0    0 -0.85967857896E+01  0.58039543389E+01  0.21181176568E+02  0.23584825984E+02  0.10566000000E+00 0. -1.
        994    1    1    2    0    0  0.54493634324E+01 -0.42874398781E+01  0.26017584967E+01  0.17136010869E+03  0.17120000000E+03 0.  0.
        998    1    1    2    0    0  0.31474223572E+01 -0.15165144608E+01  0.14762170612E+04  0.14762550653E+04  0.10000000000E+02 0. -1.
</event>
<event>
 5    1  0.1072898E-008  0.3719131E+03  0.7957747E-01  0.3487144E+00
         13   -1    0    0    0    0  0.00000000000E+00  0.00000000000E+00  0.14999999963E+04  0.15000000000E+04  0.10566000000E+00 0. -1.
        994   -1    0    0    0    0 -0.00000000000E+00 -0.00000000000E+00  0.11368683772E-12  0.17120000000E+03  0.17120000000E+03 0.  0.
         13    1    1    2    0    0 -0.55951719909E+02  0.17536144546E+02  0.16799330083E+03  0.17793221073E+03  0.10566000000E+00 0. -1.
        994    1    1    2    0    0 -0.55436782914E+01  0.17635855785E+01  0.12073174043E+02  0.17172374365E+03  0.17120000000E+03 0.  0.
        998    1    1    2    0    0  0.61495398200E+02 -0.19299730124E+02  0.13199335214E+04  0.13215440456E+04  0.10000000000E+02 0. -1.
</event>
<event>
 5    1  0.1072898E-008  0.3841366E+03  0.7957747E-01  0.3433342E+00
         13   -1    0    0    0    0  0.00000000000E+00  0.00000000000E+00  0.14999999963E+04  0.15000000000E+04  0.10566000000E+00 0. -1.
        994   -1    0    0    0    0 -0.00000000000E+00 -0.00000000000E+00  0.11368683772E-12  0.17120000000E+03  0.17120000000E+03 0.  0.
         13    1    1    2    0    0 -0.22744207746E+02  0.63750412772E+01  0.12964674634E+03  0.13178099308E+03  0.10566000000E+00 0. -1.
        994    1    1    2    0    0  0.19820289395E+02 -0.19478229956E+01  0.33685422233E+01  0.17238742693E+03  0.17120000000E+03 0.  0.
        998    1    1    2    0    0  0.29239183511E+01 -0.44272182815E+01  0.13669847077E+04  0.13670315800E+04  0.10000000000E+02 0. -1.
</event>
<event>
 5    1  0.1072898E-008  0.3686634E+03  0.7957747E-01  0.3502056E+00
         13   -1    0    0    0    0  0.00000000000E+00  0.00000000000E+00  0.14999999963E+04  0.15000000000E+04  0.10566000000E+00 0. -1.
        994   -1    0    0    0    0 -0.00000000000E+00 -0.00000000000E+00  0.11368683772E-12  0.17120000000E+03  0.17120000000E+03 0.  0.
         13    1    1    2    0    0  0.38448047153E+02  0.87704473743E+02  0.41368658257E+03  0.42462563136E+03  0.10566000000E+00 0. -1.
        994    1    1    2    0    0 -0.26154712780E+02 -0.62881544928E+02  0.26258522304E+02  0.18611047173E+03  0.17120000000E+03 0.  0.
        998    1    1    2    0    0 -0.12293334374E+02 -0.24822928815E+02  0.10600548914E+04  0.10604638969E+04  0.10000000000E+02 0. -1.
</event>
<event>
 5    1  0.1072898E-008  0.3719431E+03  0.7957747E-01  0.3487008E+00
         13   -1    0    0    0    0  0.00000000000E+00  0.00000000000E+00  0.14999999963E+04  0.15000000000E+04  0.10566000000E+00 0.  1.
        994   -1    0    0    0    0 -0.00000000000E+00 -0.00000000000E+00  0.11368683772E-12  0.17120000000E+03  0.17120000000E+03 0.  0.
         13    1    1    2    0    0 -0.29129895024E+02  0.49951331349E+02  0.11762724643E+03  0.13107198997E+03  0.10566000000E+00 0.  1.
        994    1    1    2    0    0  0.12201183571E+02 -0.79235488952E+02  0.34951423723E+02  0.19224508735E+03  0.17120000000E+03 0.  0.
        998    1    1    2    0    0  0.16928711453E+02  0.29284157602E+02  0.13474213261E+04  0.13478829227E+04  0.10000000000E+02 0.  1.
</event>
<event>
 5    1  0.1072898E-008  0.3727532E+03  0.7957747E-01  0.3483333E+00
         13   -1    0    0    0    0  0.00000000000E+00  0.00000000000E+00  0.14999999963E+04  0.15000000000E+04  0.10566000000E+00 0.  1.
        994   -1    0    0    0    0 -0.00000000000E+00 -0.00000000000E+00  0.11368683772E-12  0.17120000000E+03  0.17120000000E+03 0.  0.
         13    1    1    2    0    0 -0.34085695465E+02 -0.37740263431E+02  0.28884497971E+03  0.29328756467E+03  0.10566000000E+00 0.  1.
        994    1    1    2    0    0 -0.78193281262E+02  0.18814385715E+02  0.30327246429E+02  0.19156552983E+03  0.17120000000E+03 0.  0.
        998    1    1    2    0    0  0.11227897673E+03  0.18925877716E+02  0.11808277701E+04  0.11863469055E+04  0.10000000000E+02 0.  1.
</event>
<event>
 5    1  0.1072898E-008  0.3811507E+03  0.7957747E-01  0.3446163E+00
         13   -1    0    0    0    0  0.00000000000E+00  0.00000000000E+00  0.14999999963E+04  0.15000000000E+04  0.10566000000E+00 0. -1.
        994   -1    0    0    0    0 -0.00000000000E+00 -0.00000000000E+00  0.11368683772E-12  0.17120000000E+03  0.17120000000E+03 0.  0.
         13    1    1    2    0    0 -0.23440310825E+02 -0.14480877849E+01  0.97640828343E+02  0.10042553288E+03  0.10566000000E+00 0. -1.
        994    1    1    2    0    0 -0.28556589235E+02 -0.53070255086E+01  0.63680184137E+01  0.17376315768E+03  0.17120000000E+03 0.  0.
        998    1    1    2    0    0  0.51996900060E+02  0.67551132934E+01  0.13959911495E+04  0.13970113094E+04  0.10000000000E+02 0. -1.
</event>
<event>
 5    1  0.1072898E-008  0.3852727E+03  0.7957747E-01  0.3428516E+00
         13   -1    0    0    0    0  0.00000000000E+00  0.00000000000E+00  0.14999999963E+04  0.15000000000E+04  0.10566000000E+00 0.  1.
        994   -1    0    0    0    0 -0.00000000000E+00 -0.00000000000E+00  0.11368683772E-12  0.17120000000E+03  0.17120000000E+03 0.  0.
         13    1    1    2    0    0 -0.11743460080E+02 -0.28077279667E+01  0.54329336330E+02  0.55655010027E+02  0.10566000000E+00 0.  1.
        994    1    1    2    0    0 -0.91691794908E+01 -0.10782390213E+01  0.17749034435E+01  0.17145794451E+03  0.17120000000E+03 0.  0.
        998    1    1    2    0    0  0.20912639571E+02  0.38859669880E+01  0.14438957565E+04  0.14440870455E+04  0.10000000000E+02 0.  1.
</event>
<event>
 5    1  0.1072898E-008  0.3803982E+03  0.7957747E-01  0.3449426E+00
         13   -1    0    0    0    0  0.00000000000E+00  0.00000000000E+00  0.14999999963E+04  0.15000000000E+04  0.10566000000E+00 0. -1.
        994   -1    0    0    0    0 -0.00000000000E+00 -0.00000000000E+00  0.11368683772E-12  0.17120000000E+03  0.17120000000E+03 0.  0.
         13    1    1    2    0    0 -0.18991087236E+02  0.16779901384E+02  0.86908052270E+02  0.90527604621E+02  0.10566000000E+00 0. -1.
        994    1    1    2    0    0  0.77545875450E+01  0.89731460199E+01  0.44019603997E+01  0.17166673595E+03  0.17120000000E+03 0.  0.
        998    1    1    2    0    0  0.11236499691E+02 -0.25753047404E+02  0.14086899836E+04  0.14090056594E+04  0.10000000000E+02 0. -1.
</event>
<event>
 5    1  0.1072898E-008  0.3822718E+03  0.7957747E-01  0.3441326E+00
         13   -1    0    0    0    0  0.00000000000E+00  0.00000000000E+00  0.14999999963E+04  0.15000000000E+04  0.10566000000E+00 0.  1.
        994   -1    0    0    0    0 -0.00000000000E+00 -0.00000000000E+00  0.11368683772E-12  0.17120000000E+03  0.17120000000E+03 0.  0.
         13    1    1    2    0    0 -0.12710671975E+02 -0.19752244917E+02  0.93387701574E+02  0.96296346403E+02  0.10566000000E+00 0.  1.
        994    1    1    2    0    0  0.32025387966E+02 -0.68342074427E+01  0.65569148722E+01  0.17442696179E+03  0.17120000000E+03 0.  0.
        998    1    1    2    0    0 -0.19314715991E+02  0.26586452360E+02  0.14000553798E+04  0.14004766918E+04  0.10000000000E+02 0.  1.
</event>
<event>
 5    1  0.1072898E-008  0.3686956E+03  0.7957747E-01  0.3501907E+00
         13   -1    0    0    0    0  0.00000000000E+00  0.00000000000E+00  0.14999999963E+04  0.15000000000E+04  0.10566000000E+00 0. -1.
        994   -1    0    0    0    0 -0.00000000000E+00 -0.00000000000E+00  0.11368683772E-12  0.17120000000E+03  0.17120000000E+03 0.  0.
         13    1    1    2    0    0  0.13187220653E+02  0.73731820845E+01  0.66608811211E+01  0.16511968507E+02  0.10566000000E+00 0. -1.
        994    1    1    2    0    0 -0.92490204273E+00 -0.18749203657E+01  0.10265942116E+02  0.17152026218E+03  0.17120000000E+03 0.  0.
        998    1    1    2    0    0 -0.12262318611E+02 -0.54982617188E+01  0.14830731730E+04  0.14831677693E+04  0.10000000000E+02 0. -1.
</event>
<event>
 5    1  0.1072898E-008  0.3784855E+03  0.7957747E-01  0.3457780E+00
         13   -1    0    0    0    0  0.00000000000E+00  0.00000000000E+00  0.14999999963E+04  0.15000000000E+04  0.10566000000E+00 0.  1.
        994   -1    0    0    0    0 -0.00000000000E+00 -0.00000000000E+00  0.11368683772E-12  0.17120000000E+03  0.17120000000E+03 0.  0.
         13    1    1    2    0    0 -0.93508197626E+01  0.16747469906E+02  0.37099515649E+02  0.41764827354E+02  0.10566000000E+00 0.  1.
        994    1    1    2    0    0 -0.10449716275E+02 -0.54945958727E+01  0.53680762845E+01  0.17169054545E+03  0.17120000000E+03 0.  0.
        998    1    1    2    0    0  0.19800536038E+02 -0.11252874033E+02  0.14575324043E+04  0.14577446272E+04  0.10000000000E+02 0.  1.
</event>
<event>
 5    1  0.1072898E-008  0.3808755E+03  0.7957747E-01  0.3447355E+00
         13   -1    0    0    0    0  0.00000000000E+00  0.00000000000E+00  0.14999999963E+04  0.15000000000E+04  0.10566000000E+00 0. -1.
        994   -1    0    0    0    0 -0.00000000000E+00 -0.00000000000E+00  0.11368683772E-12  0.17120000000E+03  0.17120000000E+03 0.  0.
         13    1    1    2    0    0  0.40221706370E+02 -0.18368782749E+02  0.21079246707E+03  0.21538029896E+03  0.10566000000E+00 0. -1.
        994    1    1    2    0    0 -0.52244156452E+02  0.16601019060E+02  0.13774163722E+02  0.18028924900E+03  0.17120000000E+03 0.  0.
        998    1    1    2    0    0  0.12022450083E+02  0.17677636883E+01  0.12754333655E+04  0.12755304520E+04  0.10000000000E+02 0. -1.
</event>
<event>
 5    1  0.1072898E-008  0.3713972E+03  0.7957747E-01  0.3489494E+00
         13   -1    0    0    0    0  0.00000000000E+00  0.00000000000E+00  0.14999999963E+04  0.15000000000E+04  0.10566000000E+00 0. -1.
        994   -1    0    0    0    0 -0.00000000000E+00 -0.00000000000E+00  0.11368683772E-12  0.17120000000E+03  0.17120000000E+03 0.  0.
         13    1    1    2    0    0 -0.38139995590E+01  0.26064934873E+02  0.38773797468E+02  0.46875856864E+02  0.10566000000E+00 0. -1.
        994    1    1    2    0    0  0.11052497490E+02 -0.98235318451E+00  0.89643597373E+01  0.17179325500E+03  0.17120000000E+03 0.  0.
        998    1    1    2    0    0 -0.72384979313E+01 -0.25082581689E+02  0.14522618391E+04  0.14525308881E+04  0.10000000000E+02 0. -1.
</event>
<event>
 5    1  0.1072898E-008  0.3846338E+03  0.7957747E-01  0.3431227E+00
         13   -1    0    0    0    0  0.00000000000E+00  0.00000000000E+00  0.14999999963E+04  0.15000000000E+04  0.10566000000E+00 0.  1.
        994   -1    0    0    0    0 -0.00000000000E+00 -0.00000000000E+00  0.11368683772E-12  0.17120000000E+03  0.17120000000E+03 0.  0.
         13    1    1    2    0    0 -0.11831079605E+02 -0.57792073595E+01  0.49952576250E+02  0.51658926821E+02  0.10566000000E+00 0.  1.
        994    1    1    2    0    0 -0.28571323423E+01  0.54898110588E+01  0.19381791497E+01  0.17132278824E+03  0.17120000000E+03 0.  0.
        998    1    1    2    0    0  0.14688211948E+02  0.28939630072E+00  0.14481092409E+04  0.14482182849E+04  0.10000000000E+02 0.  1.
</event>
<event>
 5    1  0.1072898E-008  0.3740039E+03  0.7957747E-01  0.3477690E+00
         13   -1    0    0    0    0  0.00000000000E+00  0.00000000000E+00  0.14999999963E+04  0.15000000000E+04  0.10566000000E+00 0.  1.
        994   -1    0    0    0    0 -0.00000000000E+00 -0.00000000000E+00  0.11368683772E-12  0.17120000000E+03  0.17120000000E+03 0.  0.
         13    1    1    2    0    0  0.36423555390E+02  0.10464166655E+03  0.47020052376E+03  0.48307876943E+03  0.10566000000E+00 0.  1.
        994    1    1    2    0    0 -0.65316829118E+02 -0.47597075615E+02  0.36609849565E+02  0.19282502654E+03  0.17120000000E+03 0.  0.
        998    1    1    2    0    0  0.28893273728E+02 -0.57044590937E+02  0.99318962296E+03  0.99529620404E+03  0.10000000000E+02 0.  1.
</event>
<event>
 5    1  0.1072898E-008  0.3697468E+03  0.7957747E-01  0.3497055E+00
         13   -1    0    0    0    0  0.00000000000E+00  0.00000000000E+00  0.14999999963E+04  0.15000000000E+04  0.10566000000E+00 0.  1.
        994   -1    0    0    0    0 -0.00000000000E+00 -0.00000000000E+00  0.11368683772E-12  0.17120000000E+03  0.17120000000E+03 0.  0.
         13    1    1    2    0    0 -0.26010426332E+02  0.43451482604E+02  0.11273738635E+03  0.12358925141E+03  0.10566000000E+00 0.  1.
        994    1    1    2    0    0 -0.10996128136E+02 -0.49898443833E+02  0.19980363080E+02  0.17977603967E+03  0.17120000000E+03 0.  0.
        998    1    1    2    0    0  0.37006554468E+02  0.64469612287E+01  0.13672822468E+04  0.13678347089E+04  0.10000000000E+02 0.  1.
</event>
<event>
 5    1  0.1072898E-008  0.3827772E+03  0.7957747E-01  0.3439154E+00
         13   -1    0    0    0    0  0.00000000000E+00  0.00000000000E+00  0.14999999963E+04  0.15000000000E+04  0.10566000000E+00 0. -1.
        994   -1    0    0    0    0 -0.00000000000E+00 -0.00000000000E+00  0.11368683772E-12  0.17120000000E+03  0.17120000000E+03 0.  0.
         13    1    1    2    0    0  0.17888201236E+02 -0.13619002234E+02  0.11948093435E+03  0.12157783434E+03  0.10566000000E+00 0. -1.
        994    1    1    2    0    0  0.24759273183E+02 -0.62399027652E+01  0.49003816378E+01  0.17316296294E+03  0.17120000000E+03 0.  0.
        998    1    1    2    0    0 -0.42647474419E+02  0.19858904999E+02  0.13756186803E+04  0.13764592027E+04  0.10000000000E+02 0. -1.
</event>
<event>
 5    1  0.1072898E-008  0.3776949E+03  0.7957747E-01  0.3461257E+00
         13   -1    0    0    0    0  0.00000000000E+00  0.00000000000E+00  0.14999999963E+04  0.15000000000E+04  0.10566000000E+00 0.  1.
        994   -1    0    0    0    0 -0.00000000000E+00 -0.00000000000E+00  0.11368683772E-12  0.17120000000E+03  0.17120000000E+03 0.  0.
         13    1    1    2    0    0 -0.58156346279E+02 -0.45360065822E+02  0.44379478743E+03  0.44988167411E+03  0.10566000000E+00 0.  1.
        994    1    1    2    0    0  0.22747720638E+02  0.67052853681E+02  0.22380371003E+02  0.18661153498E+03  0.17120000000E+03 0.  0.
        998    1    1    2    0    0  0.35408625641E+02 -0.21692787859E+02  0.10338248378E+04  0.10347067909E+04  0.10000000000E+02 0.  1.
</event>
<event>
 5    1  0.1072898E-008  0.3703972E+03  0.7957747E-01  0.3494068E+00
         13   -1    0    0    0    0  0.00000000000E+00  0.00000000000E+00  0.14999999963E+04  0.15000000000E+04  0.10566000000E+00 0. -1.
        994   -1    0    0    0    0 -0.00000000000E+00 -0.00000000000E+00  0.11368683772E-12  0.17120000000E+03  0.17120000000E+03 0.  0.
         13    1    1    2    0    0  0.72974696613E+01 -0.23856586340E+02  0.32402221738E+02  0.40893824874E+02  0.10566000000E+00 0. -1.
        994    1    1    2    0    0 -0.30115608544E+02 -0.14979797012E+02  0.12978092969E+02  0.17495489445E+03  0.17120000000E+03 0.  0.
        998    1    1    2    0    0  0.22818138883E+02  0.38836383353E+02  0.14546196816E+04  0.14553512807E+04  0.10000000000E+02 0. -1.
</event>
<event>
 5    1  0.1072898E-008  0.3788261E+03  0.7957747E-01  0.3456286E+00
         13   -1    0    0    0    0  0.00000000000E+00  0.00000000000E+00  0.14999999963E+04  0.15000000000E+04  0.10566000000E+00 0. -1.
        994   -1    0    0    0    0 -0.00000000000E+00 -0.00000000000E+00  0.11368683772E-12  0.17120000000E+03  0.17120000000E+03 0.  0.
         13    1    1    2    0    0  0.12553351292E+02  0.20993422881E+02  0.63069341734E+02  0.67646607186E+02  0.10566000000E+00 0. -1.
        994    1    1    2    0    0 -0.10260651305E+01 -0.10300765865E+02  0.50865909231E+01  0.17158808815E+03  0.17120000000E+03 0.  0.
        998    1    1    2    0    0 -0.11527286162E+02 -0.10692657016E+02  0.14318440636E+04  0.14319653047E+04  0.10000000000E+02 0. -1.
</event>
<event>
 5    1  0.1072898E-008  0.3824303E+03  0.7957747E-01  0.3440644E+00
         13   -1    0    0    0    0  0.00000000000E+00  0.00000000000E+00  0.14999999963E+04  0.15000000000E+04  0.10566000000E+00 0.  1.
        994   -1    0    0    0    0 -0.00000000000E+00 -0.00000000000E+00  0.11368683772E-12  0.17120000000E+03  0.17120000000E+03 0.  0.
         13    1    1    2    0    0  0.12674572239E+02 -0.71612256410E+01  0.34549817472E+02  0.37491718893E+02  0.10566000000E+00 0.  1.
        994    1    1    2    0    0 -0.16275934270E+02  0.43865467906E+01  0.38542169029E+01  0.17207104003E+03  0.17120000000E+03 0.  0.
        998    1    1    2    0    0  0.36013620302E+01  0.27746788505E+01  0.14615959619E+04  0.14616372411E+04  0.10000000000E+02 0.  1.
</event>
<event>
 5    1  0.1072898E-008  0.3842051E+03  0.7957747E-01  0.3433050E+00
         13   -1    0    0    0    0  0.00000000000E+00  0.00000000000E+00  0.14999999963E+04  0.15000000000E+04  0.10566000000E+00 0. -1.
        994   -1    0    0    0    0 -0.00000000000E+00 -0.00000000000E+00  0.11368683772E-12  0.17120000000E+03  0.17120000000E+03 0.  0.
         13    1    1    2    0    0 -0.73617971143E+01 -0.75724139992E+01  0.27433512680E+02  0.29396365294E+02  0.10566000000E+00 0. -1.
        994    1    1    2    0    0  0.46364565081E+01 -0.33056863995E+00  0.20965351962E+01  0.17127592202E+03  0.17120000000E+03 0.  0.
        998    1    1    2    0    0  0.27253406062E+01  0.79029826392E+01  0.14704699484E+04  0.14705277127E+04  0.10000000000E+02 0. -1.
</event>
<event>
 5    1  0.1072898E-008  0.3815937E+03  0.7957747E-01  0.3444248E+00
         13   -1    0    0    0    0  0.00000000000E+00  0.00000000000E+00  0.14999999963E+04  0.15000000000E+04  0.10566000000E+00 0. -1.
        994   -1    0    0    0    0 -0.00000000000E+00 -0.00000000000E+00  0.11368683772E-12  0.17120000000E+03  0.17120000000E+03 0.  0.
         13    1    1    2    0    0 -0.57313956589E+01  0.12804846693E+02  0.29751051023E+02  0.32892996155E+02  0.10566000000E+00 0. -1.
        994    1    1    2    0    0  0.61851869281E+00  0.66107330876E+01  0.34774218935E+01  0.17136398928E+03  0.17120000000E+03 0.  0.
        998    1    1    2    0    0  0.51128769661E+01 -0.19415579781E+02  0.14667715234E+04  0.14669430146E+04  0.10000000000E+02 0. -1.
</event>
<event>
 5    1  0.1072898E-008  0.3799231E+03  0.7957747E-01  0.3451494E+00
         13   -1    0    0    0    0  0.00000000000E+00  0.00000000000E+00  0.14999999963E+04  0.15000000000E+04  0.10566000000E+00 0. -1.
        994   -1    0    0    0    0 -0.00000000000E+00 -0.00000000000E+00  0.11368683772E-12  0.17120000000E+03  0.17120000000E+03 0.  0.
         13    1    1    2    0    0  0.26028530436E+02  0.11584007026E+02  0.10829065065E+03  0.11197566610E+03  0.10566000000E+00 0. -1.
        994    1    1    2    0    0  0.16315647222E+02 -0.25865149426E+02  0.73054143464E+01  0.17406325108E+03  0.17120000000E+03 0.  0.
        998    1    1    2    0    0 -0.42344177658E+02  0.14281142400E+02  0.13844039313E+04  0.13851610828E+04  0.10000000000E+02 0. -1.
</event>
<event>
 5    1  0.1072898E-008  0.3819054E+03  0.7957747E-01  0.3442903E+00
         13   -1    0    0    0    0  0.00000000000E+00  0.00000000000E+00  0.14999999963E+04  0.15000000000E+04  0.10566000000E+00 0. -1.
        994   -1    0    0    0    0 -0.00000000000E+00 -0.00000000000E+00  0.11368683772E-12  0.17120000000E+03  0.17120000000E+03 0.  0.
         13    1    1    2    0    0 -0.13688143605E+02  0.58669933030E+01  0.33138064609E+02  0.36330832304E+02  0.10566000000E+00 0. -1.
        994    1    1    2    0    0  0.12472498897E+02 -0.10332215443E+02  0.40462701673E+01  0.17201200600E+03  0.17120000000E+03 0.  0.
        998    1    1    2    0    0  0.12156447081E+01  0.44652221396E+01  0.14628156615E+04  0.14628571617E+04  0.10000000000E+02 0. -1.
</event>
<event>
 5    1  0.1072898E-008  0.3806464E+03  0.7957747E-01  0.3448349E+00
         13   -1    0    0    0    0  0.00000000000E+00  0.00000000000E+00  0.14999999963E+04  0.15000000000E+04  0.10566000000E+00 0.  1.
        994   -1    0    0    0    0 -0.00000000000E+00 -0.00000000000E+00  0.11368683772E-12  0.17120000000E+03  0.17120000000E+03 0.  0.
         13    1    1    2    0    0  0.32649344508E+02 -0.43400208380E+02  0.32405132440E+03  0.32857089006E+03  0.10566000000E+00 0.  1.
        994    1    1    2    0    0 -0.33036126650E+02  0.36036082320E+02  0.11821193010E+02  0.17843532581E+03  0.17120000000E+03 0.  0.
        998    1    1    2    0    0  0.38678214242E+00  0.73641260599E+01  0.11641274789E+04  0.11641937841E+04  0.10000000000E+02 0.  1.
</event>
<event>
 5    1  0.1072898E-008  0.3740949E+03  0.7957747E-01  0.3477280E+00
         13   -1    0    0    0    0  0.00000000000E+00  0.00000000000E+00  0.14999999963E+04  0.15000000000E+04  0.10566000000E+00 0. -1.
        994   -1    0    0    0    0 -0.00000000000E+00 -0.00000000000E+00  0.11368683772E-12  0.17120000000E+03  0.17120000000E+03 0.  0.
         13    1    1    2    0    0 -0.22993117913E+02  0.44915287615E+01  0.15389236378E+02  0.28030288303E+02  0.10566000000E+00 0. -1.
        994    1    1    2    0    0  0.15971595442E+02  0.43186799761E+01  0.14092163951E+02  0.17257396079E+03  0.17120000000E+03 0.  0.
        998    1    1    2    0    0  0.70215224710E+01 -0.88102087376E+01  0.14705185959E+04  0.14705957509E+04  0.10000000000E+02 0. -1.
</event>
<event>
 5    1  0.1072898E-008  0.3800503E+03  0.7957747E-01  0.3450940E+00
         13   -1    0    0    0    0  0.00000000000E+00  0.00000000000E+00  0.14999999963E+04  0.15000000000E+04  0.10566000000E+00 0.  1.
        994   -1    0    0    0    0 -0.00000000000E+00 -0.00000000000E+00  0.11368683772E-12  0.17120000000E+03  0.17120000000E+03 0.  0.
         13    1    1    2    0    0  0.64911362472E+01  0.18159964942E+02  0.47125115239E+02  0.50918629467E+02  0.10566000000E+00 0.  1.
        994    1    1    2    0    0  0.20996447790E+01  0.73839814302E+01  0.43047784545E+01  0.17142608555E+03  0.17120000000E+03 0.  0.
        998    1    1    2    0    0 -0.85907810262E+01 -0.25543946373E+02  0.14485701026E+04  0.14488552850E+04  0.10000000000E+02 0.  1.
</event>
<event>
 5    1  0.1072898E-008  0.3732669E+03  0.7957747E-01  0.3481010E+00
         13   -1    0    0    0    0  0.00000000000E+00  0.00000000000E+00  0.14999999963E+04  0.15000000000E+04  0.10566000000E+00 0.  1.
        994   -1    0    0    0    0 -0.00000000000E+00 -0.00000000000E+00  0.11368683772E-12  0.17120000000E+03  0.17120000000E+03 0.  0.
         13    1    1    2    0    0 -0.47469786615E+02  0.49529140944E+02  0.32474243979E+03  0.33190989712E+03  0.10566000000E+00 0.  1.
        994    1    1    2    0    0 -0.26949195317E+02  0.39776599951E+02  0.20885600615E+02  0.17903654751E+03  0.17120000000E+03 0.  0.
        998    1    1    2    0    0  0.74418981933E+02 -0.89305740894E+02  0.11543719559E+04  0.11602535554E+04  0.10000000000E+02 0.  1.
</event>
<event>
 5    1  0.1072898E-008  0.3828740E+03  0.7957747E-01  0.3438739E+00
         13   -1    0    0    0    0  0.00000000000E+00  0.00000000000E+00  0.14999999963E+04  0.15000000000E+04  0.10566000000E+00 0. -1.
        994   -1    0    0    0    0 -0.00000000000E+00 -0.00000000000E+00  0.11368683772E-12  0.17120000000E+03  0.17120000000E+03 0.  0.
         13    1    1    2    0    0  0.24985861681E+02  0.10898558209E+02  0.13655421009E+03  0.13924846610E+03  0.10566000000E+00 0. -1.
        994    1    1    2    0    0 -0.20553097182E+02  0.36616800620E+01  0.41339693787E+01  0.17251773070E+03  0.17120000000E+03 0.  0.
        998    1    1    2    0    0 -0.44327644991E+01 -0.14560238271E+02  0.13593118168E+04  0.13594338032E+04  0.10000000000E+02 0. -1.
</event>
<event>
 5    1  0.1072898E-008  0.3856846E+03  0.7957747E-01  0.3426774E+00
         13   -1    0    0    0    0  0.00000000000E+00  0.00000000000E+00  0.14999999963E+04  0.15000000000E+04  0.10566000000E+00 0. -1.
        994   -1    0    0    0    0 -0.00000000000E+00 -0.00000000000E+00  0.11368683772E-12  0.17120000000E+03  0.17120000000E+03 0.  0.
         13    1    1    2    0    0 -0.59894429980E+01 -0.10470000013E+02  0.54183988687E+02  0.55510450563E+02  0.10566000000E+00 0. -1.
        994    1    1    2    0    0  0.75917719537E+01  0.13314500697E+02  0.20618493582E+01  0.17189706848E+03  0.17120000000E+03 0.  0.
        998    1    1    2    0    0 -0.16023289557E+01 -0.28445006843E+01  0.14437541582E+04  0.14437924810E+04  0.10000000000E+02 0. -1.
</event>
<event>
 5    1  0.1072898E-008  0.3722885E+03  0.7957747E-01  0.3485439E+00
         13   -1    0    0    0    0  0.00000000000E+00  0.00000000000E+00  0.14999999963E+04  0.15000000000E+04  0.10566000000E+00 0. -1.
        994   -1    0    0    0    0 -0.00000000000E+00 -0.00000000000E+00  0.11368683772E-12  0.17120000000E+03  0.17120000000E+03 0.  0.
         13    1    1    2    0    0  0.16924328858E+02 -0.17380227802E+02  0.32861911079E+02  0.40846316719E+02  0.10566000000E+00 0. -1.
        994    1    1    2    0    0 -0.24110992233E+02  0.40278016649E+01  0.10130499549E+02  0.17323287839E+03  0.17120000000E+03 0.  0.
        998    1    1    2    0    0  0.71866633747E+01  0.13352426137E+02  0.14570075857E+04  0.14571208049E+04  0.10000000000E+02 0. -1.
</event>
<event>
 5    1  0.1072898E-008  0.3810969E+03  0.7957747E-01  0.3446396E+00
         13   -1    0    0    0    0  0.00000000000E+00  0.00000000000E+00  0.14999999963E+04  0.15000000000E+04  0.10566000000E+00 0. -1.
        994   -1    0    0    0    0 -0.00000000000E+00 -0.00000000000E+00  0.11368683772E-12  0.17120000000E+03  0.17120000000E+03 0.  0.
         13    1    1    2    0    0  0.24431569961E+02  0.10241654450E+02  0.94405470797E+02  0.98052012611E+02  0.10566000000E+00 0. -1.
        994    1    1    2    0    0 -0.16400924692E+02 -0.15234695910E+02  0.52512597924E+01  0.17273708930E+03  0.17120000000E+03 0.  0.
        998    1    1    2    0    0 -0.80306452696E+01  0.49930414599E+01  0.14003432657E+04  0.14004108981E+04  0.10000000000E+02 0. -1.
</event>
<event>
 5    1  0.1072898E-008  0.3804446E+03  0.7957747E-01  0.3449225E+00
         13   -1    0    0    0    0  0.00000000000E+00  0.00000000000E+00  0.14999999963E+04  0.15000000000E+04  0.10566000000E+00 0.  1.
        994   -1    0    0    0    0 -0.00000000000E+00 -0.00000000000E+00  0.11368683772E-12  0.17120000000E+03  0.17120000000E+03 0.  0.
         13    1    1    2    0    0  0.22154303326E+02 -0.14269253426E+02  0.85830037853E+02  0.89784360059E+02  0.10566000000E+00 0.  1.
        994    1    1    2    0    0 -0.39368280173E+01  0.31894181404E+02  0.73638384013E+01  0.17434564388E+03  0.17120000000E+03 0.  0.
        998    1    1    2    0    0 -0.18217475309E+02 -0.17624927978E+02  0.14068061200E+04  0.14070699961E+04  0.10000000000E+02 0.  1.
</event>
<event>
 5    1  0.1072898E-008  0.3850234E+03  0.7957747E-01  0.3429573E+00
         13   -1    0    0    0    0  0.00000000000E+00  0.00000000000E+00  0.14999999963E+04  0.15000000000E+04  0.10566000000E+00 0.  1.
        994   -1    0    0    0    0 -0.00000000000E+00 -0.00000000000E+00  0.11368683772E-12  0.17120000000E+03  0.17120000000E+03 0.  0.
         13    1    1    2    0    0  0.10131620019E+02  0.12640380802E+02  0.84919979346E+02  0.86451391008E+02  0.10566000000E+00 0.  1.
        994    1    1    2    0    0  0.39086659172E+01 -0.87585776489E+01  0.19210788478E+01  0.17147921418E+03  0.17120000000E+03 0.  0.
        998    1    1    2    0    0 -0.14040285936E+02 -0.38818031531E+01  0.14131589381E+04  0.14132693948E+04  0.10000000000E+02 0.  1.
</event>
<event>
 5    1  0.1072898E-008  0.3702150E+03  0.7957747E-01  0.3494904E+00
         13   -1    0    0    0    0  0.00000000000E+00  0.00000000000E+00  0.14999999963E+04  0.15000000000E+04  0.10566000000E+00 0.  1.
        994   -1    0    0    0    0 -0.00000000000E+00 -0.00000000000E+00  0.11368683772E-12  0.17120000000E+03  0.17120000000E+03 0.  0.
         13    1    1    2    0    0  0.60605360544E+02  0.46258384094E+02  0.25532131472E+03  0.26646169094E+03  0.10566000000E+00 0.  1.
        994    1    1    2    0    0 -0.59800414021E+02 -0.52825088025E+02  0.31487110362E+02  0.19148748670E+03  0.17120000000E+03 0.  0.
        998    1    1    2    0    0 -0.80494652291E+00  0.65667039308E+01  0.12131915712E+04  0.12132508224E+04  0.10000000000E+02 0.  0.
</event>
<event>
 5    1  0.1072898E-008  0.3824050E+03  0.7957747E-01  0.3440753E+00
         13   -1    0    0    0    0  0.00000000000E+00  0.00000000000E+00  0.14999999963E+04  0.15000000000E+04  0.10566000000E+00 0. -1.
        994   -1    0    0    0    0 -0.00000000000E+00 -0.00000000000E+00  0.11368683772E-12  0.17120000000E+03  0.17120000000E+03 0.  0.
         13    1    1    2    0    0 -0.28315641632E+02  0.52405068726E+01  0.13437945555E+03  0.13743030129E+03  0.10566000000E+00 0. -1.
        994    1    1    2    0    0  0.23378329311E+02 -0.58676491769E+01  0.48532407223E+01  0.17295655389E+03  0.17120000000E+03 0.  0.
        998    1    1    2    0    0  0.49373123209E+01  0.62714230434E+00  0.13607673000E+04  0.13608131448E+04  0.10000000000E+02 0. -1.
</event>
<event>
 5    1  0.1072898E-008  0.3837709E+03  0.7957747E-01  0.3434902E+00
         13   -1    0    0    0    0  0.00000000000E+00  0.00000000000E+00  0.14999999963E+04  0.15000000000E+04  0.10566000000E+00 0.  1.
        994   -1    0    0    0    0 -0.00000000000E+00 -0.00000000000E+00  0.11368683772E-12  0.17120000000E+03  0.17120000000E+03 0.  0.
         13    1    1    2    0    0  0.15382813688E+02  0.13442287829E+02  0.90338861578E+02  0.92619906793E+02  0.10566000000E+00 0.  1.
        994    1    1    2    0    0 -0.12645705955E+02 -0.10930987965E+02  0.31646747689E+01  0.17204317930E+03  0.17120000000E+03 0.  0.
        998    1    1    2    0    0 -0.27371077326E+01 -0.25112998643E+01  0.14064964599E+04  0.14065369139E+04  0.10000000000E+02 0.  1.
</event>
<event>
 5    1  0.1072898E-008  0.3836083E+03  0.7957747E-01  0.3435596E+00
         13   -1    0    0    0    0  0.00000000000E+00  0.00000000000E+00  0.14999999963E+04  0.15000000000E+04  0.10566000000E+00 0.  1.
        994   -1    0    0    0    0 -0.00000000000E+00 -0.00000000000E+00  0.11368683772E-12  0.17120000000E+03  0.17120000000E+03 0.  0.
         13    1    1    2    0    0  0.43943045005E+02 -0.50638942017E+02  0.11534644216E+03  0.13341703990E+03  0.10566000000E+00 0.  1.
        994    1    1    2    0    0 -0.53449108534E+02  0.17516292197E+02  0.30034340248E+02  0.18268861292E+03  0.17120000000E+03 0.  0.
        998    1    1    2    0    0  0.95060635289E+01  0.33122649820E+02  0.13546192139E+04  0.13550943472E+04  0.10000000000E+02 0.  1.
</event>
<event>
 5    1  0.1072898E-008  0.3799697E+03  0.7957747E-01  0.3451291E+00
         13   -1    0    0    0    0  0.00000000000E+00  0.00000000000E+00  0.14999999963E+04  0.15000000000E+04  0.10566000000E+00 0.  1.
        994   -1    0    0    0    0 -0.00000000000E+00 -0.00000000000E+00  0.11368683772E-12  0.17120000000E+03  0.17120000000E+03 0.  0.
         13    1    1    2    0    0  0.29203138275E+02 -0.27241013397E+02  0.18283517970E+03  0.18714595960E+03  0.10566000000E+00 0.  1.
        994    1    1    2    0    0 -0.11785091776E+02  0.30696544901E+02  0.77715194919E+01  0.17450215693E+03  0.17120000000E+03 0.  0.
        998    1    1    2    0    0 -0.17418046499E+02 -0.34555315036E+01  0.13093932971E+04  0.13095518835E+04  0.10000000000E+02 0.  1.
</event>
<event>
 5    1  0.1072898E-008  0.3842128E+03  0.7957747E-01  0.3433018E+00
         13   -1    0    0    0    0  0.00000000000E+00  0.00000000000E+00  0.14999999963E+04  0.15000000000E+04  0.10566000000E+00 0.  1.
        994   -1    0    0    0    0 -0.00000000000E+00 -0.00000000000E+00  0.11368683772E-12  0.17120000000E+03  0.17120000000E+03 0.  0.
         13    1    1    2    0    0 -0.94488954412E+01 -0.34880306315E+01  0.24252917997E+02  0.26261438996E+02  0.10566000000E+00 0.  1.
        994    1    1    2    0    0 -0.56960057547E+00  0.30600495312E+02  0.51159765463E+01  0.17398944788E+03  0.17120000000E+03 0.  0.
        998    1    1    2    0    0  0.10018496017E+02 -0.27112464680E+02  0.14706311017E+04  0.14709491131E+04  0.10000000000E+02 0.  1.
</event>
<event>
 5    1  0.1072898E-008  0.3812229E+03  0.7957747E-01  0.3445851E+00
         13   -1    0    0    0    0  0.00000000000E+00  0.00000000000E+00  0.14999999963E+04  0.15000000000E+04  0.10566000000E+00 0.  1.
        994   -1    0    0    0    0 -0.00000000000E+00 -0.00000000000E+00  0.11368683772E-12  0.17120000000E+03  0.17120000000E+03 0.  0.
         13    1    1    2    0    0  0.13253663550E+02  0.10323619691E+01  0.23457755592E+02  0.26962990008E+02  0.10566000000E+00 0.  1.
        994    1    1    2    0    0 -0.12781485040E+02 -0.40755382861E+01  0.41165696710E+01  0.17177416138E+03  0.17120000000E+03 0.  0.
        998    1    1    2    0    0 -0.47217850948E+00  0.30431763170E+01  0.14724256710E+04  0.14724628486E+04  0.10000000000E+02 0.  1.
</event>
<event>
 5    1  0.1072898E-008  0.3828268E+03  0.7957747E-01  0.3438942E+00
         13   -1    0    0    0    0  0.00000000000E+00  0.00000000000E+00  0.14999999963E+04  0.15000000000E+04  0.10566000000E+00 0. -1.
        994   -1    0    0    0    0 -0.00000000000E+00 -0.00000000000E+00  0.11368683772E-12  0.17120000000E+03  0.17120000000E+03 0.  0.
         13    1    1    2    0    0  0.22405994821E+02 -0.15184963290E+02  0.15823734222E+03  0.16053560150E+03  0.10566000000E+00 0. -1.
        994    1    1    2    0    0  0.52274147592E+01  0.53452223065E+00  0.28044161483E+01  0.17130357944E+03  0.17120000000E+03 0.  0.
        998    1    1    2    0    0 -0.27633409580E+02  0.14650441060E+02  0.13389582379E+04  0.13393608191E+04  0.10000000000E+02 0. -1.
</event>
<event>
 5    1  0.1072898E-008  0.3861535E+03  0.7957747E-01  0.3424795E+00
         13   -1    0    0    0    0  0.00000000000E+00  0.00000000000E+00  0.14999999963E+04  0.15000000000E+04  0.10566000000E+00 0. -1.
        994   -1    0    0    0    0 -0.00000000000E+00 -0.00000000000E+00  0.11368683772E-12  0.17120000000E+03  0.17120000000E+03 0.  0.
         13    1    1    2    0    0 -0.10777838913E+02  0.44886323084E+01  0.65373977096E+02  0.66408415709E+02  0.10566000000E+00 0. -1.
        994    1    1    2    0    0  0.56741910828E+01 -0.63483482731E+01  0.12961148352E+01  0.17141650412E+03  0.17120000000E+03 0.  0.
        998    1    1    2    0    0  0.51036478299E+01  0.18597159648E+01  0.14333299043E+04  0.14333750802E+04  0.10000000000E+02 0. -1.
</event>
<event>
 5    1  0.1072898E-008  0.3750502E+03  0.7957747E-01  0.3472998E+00
         13   -1    0    0    0    0  0.00000000000E+00  0.00000000000E+00  0.14999999963E+04  0.15000000000E+04  0.10566000000E+00 0. -1.
        994   -1    0    0    0    0 -0.00000000000E+00 -0.00000000000E+00  0.11368683772E-12  0.17120000000E+03  0.17120000000E+03 0.  0.
         13    1    1    2    0    0  0.10552218605E+02  0.28072194871E+02  0.72772158880E+02  0.78709565584E+02  0.10566000000E+00 0. -1.
        994    1    1    2    0    0  0.12957313487E+00  0.11793591411E+02  0.71258807920E+01  0.17175367176E+03  0.17120000000E+03 0.  0.
        998    1    1    2    0    0 -0.10681791740E+02 -0.39865786282E+02  0.14201019566E+04  0.14207367627E+04  0.10000000000E+02 0. -1.
</event>
<event>
 5    1  0.1072898E-008  0.3845361E+03  0.7957747E-01  0.3431642E+00
         13   -1    0    0    0    0  0.00000000000E+00  0.00000000000E+00  0.14999999963E+04  0.15000000000E+04  0.10566000000E+00 0.  1.
        994   -1    0    0    0    0 -0.00000000000E+00 -0.00000000000E+00  0.11368683772E-12  0.17120000000E+03  0.17120000000E+03 0.  0.
         13    1    1    2    0    0 -0.14623612998E+02 -0.81377894812E+01  0.72249412895E+02  0.74162406261E+02  0.10566000000E+00 0.  1.
        994    1    1    2    0    0  0.15878633665E+02  0.64421598093E+01  0.28283195390E+01  0.17207867916E+03  0.17120000000E+03 0.  0.
        998    1    1    2    0    0 -0.12550206673E+01  0.16956296720E+01  0.14249222638E+04  0.14249589146E+04  0.10000000000E+02 0.  1.
</event>
<event>
 5    1  0.1072898E-008  0.3730791E+03  0.7957747E-01  0.3481858E+00
         13   -1    0    0    0    0  0.00000000000E+00  0.00000000000E+00  0.14999999963E+04  0.15000000000E+04  0.10566000000E+00 0. -1.
        994   -1    0    0    0    0 -0.00000000000E+00 -0.00000000000E+00  0.11368683772E-12  0.17120000000E+03  0.17120000000E+03 0.  0.
         13    1    1    2    0    0  0.19195780563E+01  0.95651576437E+02  0.45023004613E+03  0.46028253765E+03  0.10566000000E+00 0. -1.
        994    1    1    2    0    0 -0.10250189829E+02 -0.86132357712E+02  0.33865436276E+02  0.19488498457E+03  0.17120000000E+03 0.  0.
        998    1    1    2    0    0  0.83306117723E+01 -0.95192187253E+01  0.10159045139E+04  0.10160324778E+04  0.10000000000E+02 0. -1.
</event>
<event>
 5    1  0.1072898E-008  0.2329053E+03  0.7957747E-01  0.4533517E+00
         13   -1    0    0    0    0  0.00000000000E+00  0.00000000000E+00  0.14999999963E+04  0.15000000000E+04  0.10566000000E+00 0.  1.
        994   -1    0    0    0    0 -0.00000000000E+00 -0.00000000000E+00  0.11368683772E-12  0.17120000000E+03  0.17120000000E+03 0.  0.
         13    1    1    2    0    0  0.16487672767E+03  0.98173897075E+02  0.28815199588E+03  0.34619941261E+03  0.10566000000E+00 0.  1.
        994    1    1    2    0    0 -0.11882934922E+03  0.33355015961E+02  0.16242018581E+03  0.26631321425E+03  0.17120000000E+03 0.  0.
        998    1    1    2    0    0 -0.46047378446E+02 -0.13152891304E+03  0.10494278146E+04  0.10586873731E+04  0.10000000000E+02 0.  1.
</event>
<event>
 5    1  0.1072898E-008  0.3891195E+03  0.7957747E-01  0.3412387E+00
         13   -1    0    0    0    0  0.00000000000E+00  0.00000000000E+00  0.14999999963E+04  0.15000000000E+04  0.10566000000E+00 0.  1.
        994   -1    0    0    0    0 -0.00000000000E+00 -0.00000000000E+00  0.11368683772E-12  0.17120000000E+03  0.17120000000E+03 0.  0.
         13    1    1    2    0    0 -0.75990401519E+01 -0.49849186973E+02  0.49751635918E+02  0.70837301569E+02  0.10566000000E+00 0.  1.
        994    1    1    2    0    0  0.64025612967E+01  0.51156061678E+02  0.31463548043E+02  0.18154153875E+03  0.17120000000E+03 0.  0.
        998    1    1    2    0    0  0.11964788552E+01 -0.13068747054E+01  0.14187848123E+04  0.14188211597E+04  0.10000000000E+02 0.  1.
</event>
<event>
 5    1  0.1072898E-008  0.3839387E+03  0.7957747E-01  0.3434186E+00
         13   -1    0    0    0    0  0.00000000000E+00  0.00000000000E+00  0.14999999963E+04  0.15000000000E+04  0.10566000000E+00 0.  1.
        994   -1    0    0    0    0 -0.00000000000E+00 -0.00000000000E+00  0.11368683772E-12  0.17120000000E+03  0.17120000000E+03 0.  0.
         13    1    1    2    0    0  0.16568839452E+02 -0.72337646486E+01  0.75526448645E+02  0.77660217619E+02  0.10566000000E+00 0.  1.
        994    1    1    2    0    0 -0.10371248227E+02  0.39889835594E+01  0.25655556441E+01  0.17157941851E+03  0.17120000000E+03 0.  0.
        998    1    1    2    0    0 -0.61975912247E+01  0.32447810892E+01  0.14219079920E+04  0.14219603639E+04  0.10000000000E+02 0.  1.
</event>
<event>
 5    1  0.1072898E-008  0.3750250E+03  0.7957747E-01  0.3473111E+00
         13   -1    0    0    0    0  0.00000000000E+00  0.00000000000E+00  0.14999999963E+04  0.15000000000E+04  0.10566000000E+00 0. -1.
        994   -1    0    0    0    0 -0.00000000000E+00 -0.00000000000E+00  0.11368683772E-12  0.17120000000E+03  0.17120000000E+03 0.  0.
         13    1    1    2    0    0 -0.51540787374E+01  0.18945218111E+02  0.25549779333E+02  0.32222479807E+02  0.10566000000E+00 0. -1.
        994    1    1    2    0    0  0.97710280074E+01 -0.20420036001E+02  0.84096152280E+01  0.17289480179E+03  0.17120000000E+03 0.  0.
        998    1    1    2    0    0 -0.46169492700E+01  0.14748178897E+01  0.14660406017E+04  0.14660827184E+04  0.10000000000E+02 0. -1.
</event>
<event>
 5    1  0.1072898E-008  0.3804458E+03  0.7957747E-01  0.3449220E+00
         13   -1    0    0    0    0  0.00000000000E+00  0.00000000000E+00  0.14999999963E+04  0.15000000000E+04  0.10566000000E+00 0. -1.
        994   -1    0    0    0    0 -0.00000000000E+00 -0.00000000000E+00  0.11368683772E-12  0.17120000000E+03  0.17120000000E+03 0.  0.
         13    1    1    2    0    0  0.32330134718E+03 -0.14121653099E+00  0.42989007470E+03  0.53789336166E+03  0.10566000000E+00 0. -1.
        994    1    1    2    0    0 -0.31059660124E+03  0.74181365896E+00  0.10439479835E+04  0.11025459769E+04  0.17120000000E+03 0.  0.
        998    1    1    2    0    0 -0.12704745934E+02 -0.60059712797E+00  0.26161938061E+02  0.30760661392E+02  0.10000000000E+02 0.  1.
</event>
<event>
 5    1  0.1072898E-008  0.3738261E+03  0.7957747E-01  0.3478489E+00
         13   -1    0    0    0    0  0.00000000000E+00  0.00000000000E+00  0.14999999963E+04  0.15000000000E+04  0.10566000000E+00 0. -1.
        994   -1    0    0    0    0 -0.00000000000E+00 -0.00000000000E+00  0.11368683772E-12  0.17120000000E+03  0.17120000000E+03 0.  0.
         13    1    1    2    0    0 -0.11516202796E+02  0.54024181044E+02  0.22696346378E+03  0.23358865580E+03  0.10566000000E+00 0. -1.
        994    1    1    2    0    0 -0.70546794646E-01 -0.17742555652E+02  0.83578357384E+01  0.17231975127E+03  0.17120000000E+03 0.  0.
        998    1    1    2    0    0  0.11586749590E+02 -0.36281625392E+02  0.12646786968E+04  0.12652915929E+04  0.10000000000E+02 0. -1.
</event>
<event>
 5    1  0.1072898E-008  0.3826389E+03  0.7957747E-01  0.3439748E+00
         13   -1    0    0    0    0  0.00000000000E+00  0.00000000000E+00  0.14999999963E+04  0.15000000000E+04  0.10566000000E+00 0. -1.
        994   -1    0    0    0    0 -0.00000000000E+00 -0.00000000000E+00  0.11368683772E-12  0.17120000000E+03  0.17120000000E+03 0.  0.
         13    1    1    2    0    0  0.14809109611E+00 -0.10738277001E+02  0.19407952729E+02  0.22181350660E+02  0.10566000000E+00 0. -1.
        994    1    1    2    0    0 -0.41473969903E+01  0.85060630974E+01  0.31037720000E+01  0.17148943819E+03  0.17120000000E+03 0.  0.
        998    1    1    2    0    0  0.39993058942E+01  0.22322139032E+01  0.14774882715E+04  0.14775292111E+04  0.10000000000E+02 0. -1.
</event>
<event>
 5    1  0.1072898E-008  0.3712257E+03  0.7957747E-01  0.3490276E+00
         13   -1    0    0    0    0  0.00000000000E+00  0.00000000000E+00  0.14999999963E+04  0.15000000000E+04  0.10566000000E+00 0. -1.
        994   -1    0    0    0    0 -0.00000000000E+00 -0.00000000000E+00  0.11368683772E-12  0.17120000000E+03  0.17120000000E+03 0.  0.
         13    1    1    2    0    0  0.23124713488E+02 -0.21168038664E+02  0.37029039183E+02  0.48518029037E+02  0.10566000000E+00 0. -1.
        994    1    1    2    0    0 -0.20454952872E+02  0.22278531219E+02  0.14806828119E+02  0.17448042930E+03  0.17120000000E+03 0.  0.
        998    1    1    2    0    0 -0.26697606159E+01 -0.11104925547E+01  0.14481641290E+04  0.14482015417E+04  0.10000000000E+02 0.  0.
</event>
<event>
 5    1  0.1072898E-008  0.3760832E+03  0.7957747E-01  0.3468392E+00
         13   -1    0    0    0    0  0.00000000000E+00  0.00000000000E+00  0.14999999963E+04  0.15000000000E+04  0.10566000000E+00 0. -1.
        994   -1    0    0    0    0 -0.00000000000E+00 -0.00000000000E+00  0.11368683772E-12  0.17120000000E+03  0.17120000000E+03 0.  0.
         13    1    1    2    0    0 -0.28224796983E+02 -0.65102156225E+02  0.16798429549E+03  0.18235587351E+03  0.10566000000E+00 0. -1.
        994    1    1    2    0    0  0.36158877468E+02  0.39963384646E+02  0.24641749026E+02  0.18116620084E+03  0.17120000000E+03 0.  0.
        998    1    1    2    0    0 -0.79340804849E+01  0.25138771578E+02  0.13073739518E+04  0.13076779256E+04  0.10000000000E+02 0.  1.
</event>
<event>
 5    1  0.1072898E-008  0.3861181E+03  0.7957747E-01  0.3424944E+00
         13   -1    0    0    0    0  0.00000000000E+00  0.00000000000E+00  0.14999999963E+04  0.15000000000E+04  0.10566000000E+00 0.  1.
        994   -1    0    0    0    0 -0.00000000000E+00 -0.00000000000E+00  0.11368683772E-12  0.17120000000E+03  0.17120000000E+03 0.  0.
         13    1    1    2    0    0 -0.46714681788E+01 -0.10598834323E+02  0.59618956614E+02  0.60733755489E+02  0.10566000000E+00 0.  1.
        994    1    1    2    0    0  0.26029412230E+00  0.17115016789E+02  0.20367068983E+01  0.17206562622E+03  0.17120000000E+03 0.  0.
        998    1    1    2    0    0  0.44111740565E+01 -0.65161824657E+01  0.14383443328E+04  0.14384006183E+04  0.10000000000E+02 0.  1.
</event>
<event>
 5    1  0.1072898E-008  0.3765625E+03  0.7957747E-01  0.3466264E+00
         13   -1    0    0    0    0  0.00000000000E+00  0.00000000000E+00  0.14999999963E+04  0.15000000000E+04  0.10566000000E+00 0. -1.
        994   -1    0    0    0    0 -0.00000000000E+00 -0.00000000000E+00  0.11368683772E-12  0.17120000000E+03  0.17120000000E+03 0.  0.
         13    1    1    2    0    0  0.18696358512E+02  0.41213310756E+02  0.16277839803E+03  0.16895238629E+03  0.10566000000E+00 0. -1.
        994    1    1    2    0    0 -0.34533588956E+02 -0.24855908922E+02  0.12024757041E+02  0.17681747582E+03  0.17120000000E+03 0.  0.
        998    1    1    2    0    0  0.15837230443E+02 -0.16357401834E+02  0.13251968412E+04  0.13254301379E+04  0.10000000000E+02 0. -1.
</event>
<event>
 5    1  0.1072898E-008  0.3773837E+03  0.7957747E-01  0.3462630E+00
         13   -1    0    0    0    0  0.00000000000E+00  0.00000000000E+00  0.14999999963E+04  0.15000000000E+04  0.10566000000E+00 0.  1.
        994   -1    0    0    0    0 -0.00000000000E+00 -0.00000000000E+00  0.11368683772E-12  0.17120000000E+03  0.17120000000E+03 0.  0.
         13    1    1    2    0    0 -0.20034036923E+02  0.18276424736E+02  0.18175083098E+02  0.32645599186E+02  0.10566000000E+00 0.  1.
        994    1    1    2    0    0  0.74118499399E+01 -0.30246159437E+02  0.18385904225E+02  0.17497784761E+03  0.17120000000E+03 0.  0.
        998    1    1    2    0    0  0.12622186983E+02  0.11969734701E+02  0.14634390090E+04  0.14635765532E+04  0.10000000000E+02 0.  1.
</event>
<event>
 5    1  0.1072898E-008  0.3736029E+03  0.7957747E-01  0.3479495E+00
         13   -1    0    0    0    0  0.00000000000E+00  0.00000000000E+00  0.14999999963E+04  0.15000000000E+04  0.10566000000E+00 0. -1.
        994   -1    0    0    0    0 -0.00000000000E+00 -0.00000000000E+00  0.11368683772E-12  0.17120000000E+03  0.17120000000E+03 0.  0.
         13    1    1    2    0    0 -0.11280156597E+02 -0.32152119110E+02  0.38794333261E+02  0.51633440263E+02  0.10566000000E+00 0. -1.
        994    1    1    2    0    0  0.20167482986E+02  0.32244252570E+02  0.17995458004E+02  0.17629434393E+03  0.17120000000E+03 0.  0.
        998    1    1    2    0    0 -0.88873263890E+01 -0.92133460271E-01  0.14432102050E+04  0.14432722158E+04  0.10000000000E+02 0. -1.
</event>
<event>
 5    1  0.1072898E-008  0.3758287E+03  0.7957747E-01  0.3469525E+00
         13   -1    0    0    0    0  0.00000000000E+00  0.00000000000E+00  0.14999999963E+04  0.15000000000E+04  0.10566000000E+00 0.  1.
        994   -1    0    0    0    0 -0.00000000000E+00 -0.00000000000E+00  0.11368683772E-12  0.17120000000E+03  0.17120000000E+03 0.  0.
         13    1    1    2    0    0 -0.25638386121E+02  0.78080251511E+02  0.38224342919E+03  0.39097813601E+03  0.10566000000E+00 0.  1.
        994    1    1    2    0    0  0.29959669506E+02 -0.81345022366E+02  0.32167624341E+02  0.19457335510E+03  0.17120000000E+03 0.  0.
        998    1    1    2    0    0 -0.43212833855E+01  0.32647708551E+01  0.10855889428E+04  0.10856485089E+04  0.10000000000E+02 0.  1.
</event>
<event>
 5    1  0.1072898E-008  0.3741405E+03  0.7957747E-01  0.3477076E+00
         13   -1    0    0    0    0  0.00000000000E+00  0.00000000000E+00  0.14999999963E+04  0.15000000000E+04  0.10566000000E+00 0.  1.
        994   -1    0    0    0    0 -0.00000000000E+00 -0.00000000000E+00  0.11368683772E-12  0.17120000000E+03  0.17120000000E+03 0.  0.
         13    1    1    2    0    0  0.26880111377E+01  0.14002097511E+02  0.11615582070E+02  0.18390678330E+02  0.10566000000E+00 0.  1.
        994    1    1    2    0    0 -0.14045116040E+01  0.10484506257E+02  0.75023224967E+01  0.17169048421E+03  0.17120000000E+03 0.  0.
        998    1    1    2    0    0 -0.12834995337E+01 -0.24486603768E+02  0.14808820917E+04  0.14811188375E+04  0.10000000000E+02 0.  1.
</event>
<event>
 5    1  0.1072898E-008  0.3793211E+03  0.7957747E-01  0.3454120E+00
         13   -1    0    0    0    0  0.00000000000E+00  0.00000000000E+00  0.14999999963E+04  0.15000000000E+04  0.10566000000E+00 0.  1.
        994   -1    0    0    0    0 -0.00000000000E+00 -0.00000000000E+00  0.11368683772E-12  0.17120000000E+03  0.17120000000E+03 0.  0.
         13    1    1    2    0    0  0.10298616985E-01 -0.10397948368E+02  0.99304109053E+01  0.14378513870E+02  0.10566000000E+00 0.  1.
        994    1    1    2    0    0 -0.81625491659E+01  0.14086513376E+02  0.53647689341E+01  0.17205603103E+03  0.17120000000E+03 0.  0.
        998    1    1    2    0    0  0.81522505489E+01 -0.36885650072E+01  0.14847048164E+04  0.14847654551E+04  0.10000000000E+02 0.  1.
</event>
<event>
 5    1  0.1072898E-008  0.3792012E+03  0.7957747E-01  0.3454644E+00
         13   -1    0    0    0    0  0.00000000000E+00  0.00000000000E+00  0.14999999963E+04  0.15000000000E+04  0.10566000000E+00 0.  1.
        994   -1    0    0    0    0 -0.00000000000E+00 -0.00000000000E+00  0.11368683772E-12  0.17120000000E+03  0.17120000000E+03 0.  0.
         13    1    1    2    0    0 -0.46009396659E+01 -0.28581061487E+02  0.87943670396E+02  0.92585884714E+02  0.10566000000E+00 0.  1.
        994    1    1    2    0    0  0.46439527815E+01  0.24150338955E+02  0.65667358756E+01  0.17308196668E+03  0.17120000000E+03 0.  0.
        998    1    1    2    0    0 -0.43013115577E-01  0.44307225320E+01  0.14054895900E+04  0.14055321486E+04  0.10000000000E+02 0.  0.
</event>
<event>
 5    1  0.1072898E-008  0.3835069E+03  0.7957747E-01  0.3436029E+00
         13   -1    0    0    0    0  0.00000000000E+00  0.00000000000E+00  0.14999999963E+04  0.15000000000E+04  0.10566000000E+00 0.  1.
        994   -1    0    0    0    0 -0.00000000000E+00 -0.00000000000E+00  0.11368683772E-12  0.17120000000E+03  0.17120000000E+03 0.  0.
         13    1    1    2    0    0  0.79835301656E+01 -0.91729294832E+01  0.30692482229E+02  0.33013921588E+02  0.10566000000E+00 0.  1.
        994    1    1    2    0    0 -0.22904518950E+00  0.76765099231E+01  0.25682000715E+01  0.17139141436E+03  0.17120000000E+03 0.  0.
        998    1    1    2    0    0 -0.77544849761E+01  0.14964195601E+01  0.14667393140E+04  0.14667946640E+04  0.10000000000E+02 0.  1.
</event>
<event>
 5    1  0.1072898E-008  0.3961118E+03  0.7957747E-01  0.3383871E+00
         13   -1    0    0    0    0  0.00000000000E+00  0.00000000000E+00  0.14999999963E+04  0.15000000000E+04  0.10566000000E+00 0.  1.
        994   -1    0    0    0    0 -0.00000000000E+00 -0.00000000000E+00  0.11368683772E-12  0.17120000000E+03  0.17120000000E+03 0.  0.
         13    1    1    2    0    0 -0.30312421859E+02  0.62894099215E+02  0.67798097684E+02  0.97319596427E+02  0.10566000000E+00 0.  1.
        994    1    1    2    0    0 -0.22749020378E+01 -0.14577337103E+03  0.11304247607E+03  0.25168053615E+03  0.17120000000E+03 0.  0.
        998    1    1    2    0    0  0.32587323897E+02  0.82879271818E+02  0.13191594225E+04  0.13221998674E+04  0.10000000000E+02 0.  1.
</event>
<event>
 5    1  0.1072898E-008  0.3726735E+03  0.7957747E-01  0.3483694E+00
         13   -1    0    0    0    0  0.00000000000E+00  0.00000000000E+00  0.14999999963E+04  0.15000000000E+04  0.10566000000E+00 0.  1.
        994   -1    0    0    0    0 -0.00000000000E+00 -0.00000000000E+00  0.11368683772E-12  0.17120000000E+03  0.17120000000E+03 0.  0.
         13    1    1    2    0    0  0.12549948775E+02 -0.22390982608E+02  0.38154287843E+02  0.45984977560E+02  0.10566000000E+00 0.  1.
        994    1    1    2    0    0 -0.14177118930E+02  0.17428201872E+02  0.96095103380E+01  0.17293500401E+03  0.17120000000E+03 0.  0.
        998    1    1    2    0    0  0.16271701553E+01  0.49627807365E+01  0.14522361981E+04  0.14522800184E+04  0.10000000000E+02 0.  1.
</event>
<event>
 5    1  0.1072898E-008  0.3715623E+03  0.7957747E-01  0.3488741E+00
         13   -1    0    0    0    0  0.00000000000E+00  0.00000000000E+00  0.14999999963E+04  0.15000000000E+04  0.10566000000E+00 0. -1.
        994   -1    0    0    0    0 -0.00000000000E+00 -0.00000000000E+00  0.11368683772E-12  0.17120000000E+03  0.17120000000E+03 0.  0.
         13    1    1    2    0    0  0.14314654472E+02 -0.23329479031E+02  0.44353464995E+02  0.52119237769E+02  0.10566000000E+00 0. -1.
        994    1    1    2    0    0 -0.16254448835E-01 -0.11661255623E+02  0.89225477560E+01  0.17182851046E+03  0.17120000000E+03 0.  0.
        998    1    1    2    0    0 -0.14298400023E+02  0.34990734655E+02  0.14467239835E+04  0.14472522518E+04  0.10000000000E+02 0. -1.
</event>
<event>
 5    1  0.1072898E-008  0.3313582E+03  0.7957747E-01  0.3694809E+00
         13   -1    0    0    0    0  0.00000000000E+00  0.00000000000E+00  0.14999999963E+04  0.15000000000E+04  0.10566000000E+00 0.  1.
        994   -1    0    0    0    0 -0.00000000000E+00 -0.00000000000E+00  0.11368683772E-12  0.17120000000E+03  0.17120000000E+03 0.  0.
         13    1    1    2    0    0  0.23151492660E+03  0.15614181148E+02  0.79476177689E+03  0.82794278610E+03  0.10566000000E+00 0.  1.
        994    1    1    2    0    0 -0.22701329899E+03 -0.19116007067E+02  0.22555254419E+03  0.36343341871E+03  0.17120000000E+03 0.  0.
        998    1    1    2    0    0 -0.45016276020E+01  0.35018259188E+01  0.47968567520E+03  0.47982379519E+03  0.10000000000E+02 0.  1.
</event>
<event>
 5    1  0.1072898E-008  0.3841779E+03  0.7957747E-01  0.3433166E+00
         13   -1    0    0    0    0  0.00000000000E+00  0.00000000000E+00  0.14999999963E+04  0.15000000000E+04  0.10566000000E+00 0. -1.
        994   -1    0    0    0    0 -0.00000000000E+00 -0.00000000000E+00  0.11368683772E-12  0.17120000000E+03  0.17120000000E+03 0.  0.
         13    1    1    2    0    0 -0.16137702372E+02 -0.16495959751E+02  0.12537548809E+03  0.12748163125E+03  0.10566000000E+00 0. -1.
        994    1    1    2    0    0  0.36203873054E+02 -0.66591428331E+01  0.65199082515E+01  0.17523416850E+03  0.17120000000E+03 0.  0.
        998    1    1    2    0    0 -0.20066170683E+02  0.23155102584E+02  0.13681045999E+04  0.13684842003E+04  0.10000000000E+02 0. -1.
</event>
<event>
 5    1  0.1072898E-008  0.3771217E+03  0.7957747E-01  0.3463788E+00
         13   -1    0    0    0    0  0.00000000000E+00  0.00000000000E+00  0.14999999963E+04  0.15000000000E+04  0.10566000000E+00 0.  1.
        994   -1    0    0    0    0 -0.00000000000E+00 -0.00000000000E+00  0.11368683772E-12  0.17120000000E+03  0.17120000000E+03 0.  0.
         13    1    1    2    0    0 -0.12424802934E+02 -0.95546411946E+01  0.19915273271E+02  0.25343562690E+02  0.10566000000E+00 0.  1.
        994    1    1    2    0    0  0.64793579824E+01 -0.17395423691E+01  0.57451391930E+01  0.17142769529E+03  0.17120000000E+03 0.  0.
        998    1    1    2    0    0  0.59454449517E+01  0.11294183564E+02  0.14743395838E+04  0.14744287420E+04  0.10000000000E+02 0.  1.
</event>
<event>
 5    1  0.1072898E-008  0.3858462E+03  0.7957747E-01  0.3426091E+00
         13   -1    0    0    0    0  0.00000000000E+00  0.00000000000E+00  0.14999999963E+04  0.15000000000E+04  0.10566000000E+00 0. -1.
        994   -1    0    0    0    0 -0.00000000000E+00 -0.00000000000E+00  0.11368683772E-12  0.17120000000E+03  0.17120000000E+03 0.  0.
         13    1    1    2    0    0 -0.10293481871E+02  0.67138085026E+01  0.63523030819E+02  0.64700986098E+02  0.10566000000E+00 0. -1.
        994    1    1    2    0    0  0.16381475480E+02  0.11418007301E+02  0.25193433250E+01  0.17237897413E+03  0.17120000000E+03 0.  0.
        998    1    1    2    0    0 -0.60879936086E+01 -0.18131815804E+02  0.14339576221E+04  0.14341200398E+04  0.10000000000E+02 0. -1.
</event>
<event>
 5    1  0.1072898E-008  0.3856531E+03  0.7957747E-01  0.3426907E+00
         13   -1    0    0    0    0  0.00000000000E+00  0.00000000000E+00  0.14999999963E+04  0.15000000000E+04  0.10566000000E+00 0.  1.
        994   -1    0    0    0    0 -0.00000000000E+00 -0.00000000000E+00  0.11368683772E-12  0.17120000000E+03  0.17120000000E+03 0.  0.
         13    1    1    2    0    0 -0.11542321114E+02 -0.45954231582E+01  0.58444554067E+02  0.59750482465E+02  0.10566000000E+00 0.  1.
        994    1    1    2    0    0  0.90209108622E+01  0.69233408610E+01  0.17307094662E+01  0.17158596923E+03  0.17120000000E+03 0.  0.
        998    1    1    2    0    0  0.25214102517E+01 -0.23279177028E+01  0.14398247327E+04  0.14398635483E+04  0.10000000000E+02 0.  1.
</event>
<event>
 5    1  0.1072898E-008  0.3820339E+03  0.7957747E-01  0.3442350E+00
         13   -1    0    0    0    0  0.00000000000E+00  0.00000000000E+00  0.14999999963E+04  0.15000000000E+04  0.10566000000E+00 0.  1.
        994   -1    0    0    0    0 -0.00000000000E+00 -0.00000000000E+00  0.11368683772E-12  0.17120000000E+03  0.17120000000E+03 0.  0.
         13    1    1    2    0    0 -0.11057745794E+02 -0.49517987021E+01  0.22466752871E+02  0.25525677289E+02  0.10566000000E+00 0.  1.
        994    1    1    2    0    0  0.80787023450E+01  0.75437741861E-01  0.33267168048E+01  0.17142280527E+03  0.17120000000E+03 0.  0.
        998    1    1    2    0    0  0.29790434491E+01  0.48763609602E+01  0.14742065266E+04  0.14742515174E+04  0.10000000000E+02 0.  1.
</event>
<event>
 5    1  0.1072898E-008  0.3821239E+03  0.7957747E-01  0.3441962E+00
         13   -1    0    0    0    0  0.00000000000E+00  0.00000000000E+00  0.14999999963E+04  0.15000000000E+04  0.10566000000E+00 0. -1.
        994   -1    0    0    0    0 -0.00000000000E+00 -0.00000000000E+00  0.11368683772E-12  0.17120000000E+03  0.17120000000E+03 0.  0.
         13    1    1    2    0    0  0.29360516351E+01  0.12111018044E+02  0.27101953870E+02  0.29829921638E+02  0.10566000000E+00 0. -1.
        994    1    1    2    0    0  0.28123276694E+01  0.26272618078E+02  0.53858901247E+01  0.17331072517E+03  0.17120000000E+03 0.  0.
        998    1    1    2    0    0 -0.57483793045E+01 -0.38383636122E+02  0.14675121523E+04  0.14680593532E+04  0.10000000000E+02 0. -1.
</event>
<event>
 5    1  0.1072898E-008  0.3854942E+03  0.7957747E-01  0.3427579E+00
         13   -1    0    0    0    0  0.00000000000E+00  0.00000000000E+00  0.14999999963E+04  0.15000000000E+04  0.10566000000E+00 0. -1.
        994   -1    0    0    0    0 -0.00000000000E+00 -0.00000000000E+00  0.11368683772E-12  0.17120000000E+03  0.17120000000E+03 0.  0.
         13    1    1    2    0    0  0.22610876392E+02 -0.57492250165E+01  0.13518895029E+03  0.13718734914E+03  0.10566000000E+00 0. -1.
        994    1    1    2    0    0 -0.55082753029E+02  0.75889972814E+01  0.11602870822E+02  0.18037674233E+03  0.17120000000E+03 0.  0.
        998    1    1    2    0    0  0.32471876637E+02 -0.18397722649E+01  0.13532081752E+04  0.13536359085E+04  0.10000000000E+02 0. -1.
</event>
<event>
 5    1  0.1072898E-008  0.3736085E+03  0.7957747E-01  0.3479470E+00
         13   -1    0    0    0    0  0.00000000000E+00  0.00000000000E+00  0.14999999963E+04  0.15000000000E+04  0.10566000000E+00 0.  1.
        994   -1    0    0    0    0 -0.00000000000E+00 -0.00000000000E+00  0.11368683772E-12  0.17120000000E+03  0.17120000000E+03 0.  0.
         13    1    1    2    0    0  0.25043624417E+02  0.11053385532E+03  0.44776588981E+03  0.46188658731E+03  0.10566000000E+00 0.  1.
        994    1    1    2    0    0 -0.33852212409E+02 -0.13728665602E+03  0.79086346857E+02  0.23570678494E+03  0.17120000000E+03 0.  0.
        998    1    1    2    0    0  0.88085879926E+01  0.26752800699E+02  0.97314775961E+03  0.97360662775E+03  0.10000000000E+02 0.  1.
</event>
<event>
 5    1  0.1072898E-008  0.3713787E+03  0.7957747E-01  0.3489578E+00
         13   -1    0    0    0    0  0.00000000000E+00  0.00000000000E+00  0.14999999963E+04  0.15000000000E+04  0.10566000000E+00 0. -1.
        994   -1    0    0    0    0 -0.00000000000E+00 -0.00000000000E+00  0.11368683772E-12  0.17120000000E+03  0.17120000000E+03 0.  0.
         13    1    1    2    0    0  0.17795631301E+02 -0.97176244171E+01  0.12720709690E+02  0.23936255696E+02  0.10566000000E+00 0. -1.
        994    1    1    2    0    0 -0.69055788952E+01  0.47820292062E+01  0.11917621121E+02  0.17181974426E+03  0.17120000000E+03 0.  0.
        998    1    1    2    0    0 -0.10890052406E+02  0.49355952109E+01  0.14753616655E+04  0.14754440000E+04  0.10000000000E+02 0. -1.
</event>
<event>
 5    1  0.1072898E-008  0.3687862E+03  0.7957747E-01  0.3501488E+00
         13   -1    0    0    0    0  0.00000000000E+00  0.00000000000E+00  0.14999999963E+04  0.15000000000E+04  0.10566000000E+00 0.  1.
        994   -1    0    0    0    0 -0.00000000000E+00 -0.00000000000E+00  0.11368683772E-12  0.17120000000E+03  0.17120000000E+03 0.  0.
         13    1    1    2    0    0  0.45104478846E+02  0.37786269299E+02  0.16010404658E+03  0.17057412775E+03  0.10566000000E+00 0.  1.
        994    1    1    2    0    0 -0.39352522975E+02 -0.31778404566E+02  0.18841582006E+02  0.17950747414E+03  0.17120000000E+03 0.  0.
        998    1    1    2    0    0 -0.57519558712E+01 -0.60078647329E+01  0.13210543677E+04  0.13211183981E+04  0.10000000000E+02 0.  1.
</event>
<event>
 5    1  0.1072898E-008  0.3718184E+03  0.7957747E-01  0.3487575E+00
         13   -1    0    0    0    0  0.00000000000E+00  0.00000000000E+00  0.14999999963E+04  0.15000000000E+04  0.10566000000E+00 0.  1.
        994   -1    0    0    0    0 -0.00000000000E+00 -0.00000000000E+00  0.11368683772E-12  0.17120000000E+03  0.17120000000E+03 0.  0.
         13    1    1    2    0    0  0.26074810844E+02 -0.25805821784E+01  0.35753808699E+02  0.44327205703E+02  0.10566000000E+00 0.  1.
        994    1    1    2    0    0 -0.39524693644E+02  0.60552138037E+00  0.13709952780E+02  0.17623839215E+03  0.17120000000E+03 0.  0.
        998    1    1    2    0    0  0.13449882800E+02  0.19750607981E+01  0.14505362348E+04  0.14506344021E+04  0.10000000000E+02 0.  1.
</event>
<event>
 5    1  0.1072898E-008  0.3865480E+03  0.7957747E-01  0.3423133E+00
         13   -1    0    0    0    0  0.00000000000E+00  0.00000000000E+00  0.14999999963E+04  0.15000000000E+04  0.10566000000E+00 0.  1.
        994   -1    0    0    0    0 -0.00000000000E+00 -0.00000000000E+00  0.11368683772E-12  0.17120000000E+03  0.17120000000E+03 0.  0.
         13    1    1    2    0    0 -0.39624131315E+01  0.92180642034E+01  0.60457136692E+02  0.61284173866E+02  0.10566000000E+00 0.  1.
        994    1    1    2    0    0 -0.91644309275E+01 -0.98165942586E+01  0.14539107338E+01  0.17173207672E+03  0.17120000000E+03 0.  0.
        998    1    1    2    0    0  0.13126844059E+02  0.59853005522E+00  0.14380889489E+04  0.14381837494E+04  0.10000000000E+02 0.  1.
</event>
<event>
 5    1  0.1072898E-008  0.3728561E+03  0.7957747E-01  0.3482867E+00
         13   -1    0    0    0    0  0.00000000000E+00  0.00000000000E+00  0.14999999963E+04  0.15000000000E+04  0.10566000000E+00 0.  1.
        994   -1    0    0    0    0 -0.00000000000E+00 -0.00000000000E+00  0.11368683772E-12  0.17120000000E+03  0.17120000000E+03 0.  0.
         13    1    1    2    0    0  0.14470761004E+02 -0.11205503266E+01  0.98841893550E+01  0.17560379276E+02  0.10566000000E+00 0.  1.
        994    1    1    2    0    0 -0.16875106471E+02  0.64154416045E+01  0.89005519728E+01  0.17237919519E+03  0.17120000000E+03 0.  0.
        998    1    1    2    0    0  0.24043454665E+01 -0.52948912779E+01  0.14812152550E+04  0.14812604255E+04  0.10000000000E+02 0.  1.
</event>
<event>
 5    1  0.1072898E-008  0.3814329E+03  0.7957747E-01  0.3444943E+00
         13   -1    0    0    0    0  0.00000000000E+00  0.00000000000E+00  0.14999999963E+04  0.15000000000E+04  0.10566000000E+00 0.  1.
        994   -1    0    0    0    0 -0.00000000000E+00 -0.00000000000E+00  0.11368683772E-12  0.17120000000E+03  0.17120000000E+03 0.  0.
         13    1    1    2    0    0  0.22242349491E+02 -0.12300633619E+02  0.92665709725E+02  0.96088358406E+02  0.10566000000E+00 0.  1.
        994    1    1    2    0    0 -0.11870330480E+02  0.14621124655E+02  0.45925261923E+01  0.17229397357E+03  0.17120000000E+03 0.  0.
        998    1    1    2    0    0 -0.10372019011E+02 -0.23204910360E+01  0.14027417604E+04  0.14028176680E+04  0.10000000000E+02 0.  1.
</event>
<event>
 5    1  0.1072898E-008  0.3809666E+03  0.7957747E-01  0.3446960E+00
         13   -1    0    0    0    0  0.00000000000E+00  0.00000000000E+00  0.14999999963E+04  0.15000000000E+04  0.10566000000E+00 0.  1.
        994   -1    0    0    0    0 -0.00000000000E+00 -0.00000000000E+00  0.11368683772E-12  0.17120000000E+03  0.17120000000E+03 0.  0.
         13    1    1    2    0    0 -0.22077547073E+01 -0.18259539178E+02  0.43226198627E+02  0.46976593785E+02  0.10566000000E+00 0.  1.
        994    1    1    2    0    0  0.17338031842E+02  0.21449439880E+02  0.61849331035E+01  0.17351766255E+03  0.17120000000E+03 0.  0.
        998    1    1    2    0    0 -0.15130277134E+02 -0.31899007025E+01  0.14505888645E+04  0.14507057437E+04  0.10000000000E+02 0.  1.
</event>
<event>
 5    1  0.1072898E-008  0.3761216E+03  0.7957747E-01  0.3468222E+00
         13   -1    0    0    0    0  0.00000000000E+00  0.00000000000E+00  0.14999999963E+04  0.15000000000E+04  0.10566000000E+00 0.  1.
        994   -1    0    0    0    0 -0.00000000000E+00 -0.00000000000E+00  0.11368683772E-12  0.17120000000E+03  0.17120000000E+03 0.  0.
         13    1    1    2    0    0 -0.10183484759E+02 -0.17819021934E+02  0.89486590225E+01  0.22389965763E+02  0.10566000000E+00 0.  1.
        994    1    1    2    0    0 -0.10068013953E+02  0.49447177422E+01  0.14662653884E+02  0.17219247532E+03  0.17120000000E+03 0.  0.
        998    1    1    2    0    0  0.20251498712E+02  0.12874304192E+02  0.14763886834E+04  0.14766175589E+04  0.10000000000E+02 0.  1.
</event>
<event>
 5    1  0.1072898E-008  0.3844494E+03  0.7957747E-01  0.3432011E+00
         13   -1    0    0    0    0  0.00000000000E+00  0.00000000000E+00  0.14999999963E+04  0.15000000000E+04  0.10566000000E+00 0.  1.
        994   -1    0    0    0    0 -0.00000000000E+00 -0.00000000000E+00  0.11368683772E-12  0.17120000000E+03  0.17120000000E+03 0.  0.
         13    1    1    2    0    0  0.10649370494E+02 -0.19359495401E+02  0.11646098330E+03  0.11853847877E+03  0.10566000000E+00 0.  1.
        994    1    1    2    0    0 -0.12211091318E+02  0.22774802106E+02  0.41069245447E+01  0.17318807462E+03  0.17120000000E+03 0.  0.
        998    1    1    2    0    0  0.15617208234E+01 -0.34153067045E+01  0.13794320884E+04  0.13794734466E+04  0.10000000000E+02 0.  1.
</event>
<event>
 5    1  0.1072898E-008  0.3844004E+03  0.7957747E-01  0.3432219E+00
         13   -1    0    0    0    0  0.00000000000E+00  0.00000000000E+00  0.14999999963E+04  0.15000000000E+04  0.10566000000E+00 0.  1.
        994   -1    0    0    0    0 -0.00000000000E+00 -0.00000000000E+00  0.11368683772E-12  0.17120000000E+03  0.17120000000E+03 0.  0.
         13    1    1    2    0    0  0.16494754100E+02 -0.90568442585E+01  0.88985360498E+02  0.90953333572E+02  0.10566000000E+00 0.  1.
        994    1    1    2    0    0 -0.20645939871E+02 -0.34673753315E+01  0.33735798554E+01  0.17250825652E+03  0.17120000000E+03 0.  0.
        998    1    1    2    0    0  0.41511857706E+01  0.12524219590E+02  0.14076410559E+04  0.14077384099E+04  0.10000000000E+02 0.  1.
</event>
<event>
 5    1  0.1072898E-008  0.3845061E+03  0.7957747E-01  0.3431769E+00
         13   -1    0    0    0    0  0.00000000000E+00  0.00000000000E+00  0.14999999963E+04  0.15000000000E+04  0.10566000000E+00 0.  1.
        994   -1    0    0    0    0 -0.00000000000E+00 -0.00000000000E+00  0.11368683772E-12  0.17120000000E+03  0.17120000000E+03 0.  0.
         13    1    1    2    0    0 -0.95056726146E+01 -0.40666606198E+01  0.29064889237E+02  0.30849221884E+02  0.10566000000E+00 0.  1.
        994    1    1    2    0    0 -0.38661539704E+01  0.52843179909E+01  0.20167641334E+01  0.17133703190E+03  0.17120000000E+03 0.  0.
        998    1    1    2    0    0  0.13371826585E+02 -0.12176573710E+01  0.14689183429E+04  0.14690137462E+04  0.10000000000E+02 0.  1.
</event>
<event>
 5    1  0.1072898E-008  0.3856429E+03  0.7957747E-01  0.3426950E+00
         13   -1    0    0    0    0  0.00000000000E+00  0.00000000000E+00  0.14999999963E+04  0.15000000000E+04  0.10566000000E+00 0.  1.
        994   -1    0    0    0    0 -0.00000000000E+00 -0.00000000000E+00  0.11368683772E-12  0.17120000000E+03  0.17120000000E+03 0.  0.
         13    1    1    2    0    0 -0.44881704855E+01 -0.12260102317E+02  0.67102580293E+02  0.68360962758E+02  0.10566000000E+00 0.  1.
        994    1    1    2    0    0  0.31030728414E+00  0.53715318171E+01  0.14062784301E+01  0.17129030114E+03  0.17120000000E+03 0.  0.
        998    1    1    2    0    0  0.41778632014E+01  0.68885704995E+01  0.14314911376E+04  0.14315487361E+04  0.10000000000E+02 0.  1.
</event>
<event>
 5    1  0.1072898E-008  0.3720400E+03  0.7957747E-01  0.3486568E+00
         13   -1    0    0    0    0  0.00000000000E+00  0.00000000000E+00  0.14999999963E+04  0.15000000000E+04  0.10566000000E+00 0.  1.
        994   -1    0    0    0    0 -0.00000000000E+00 -0.00000000000E+00  0.11368683772E-12  0.17120000000E+03  0.17120000000E+03 0.  0.
         13    1    1    2    0    0 -0.74242609608E+01 -0.25394805694E+02  0.38089916544E+02  0.46377459109E+02  0.10566000000E+00 0.  1.
        994    1    1    2    0    0  0.99000254265E+01  0.28306649096E+02  0.11300575641E+02  0.17417353386E+03  0.17120000000E+03 0.  0.
        998    1    1    2    0    0 -0.24757644657E+01 -0.29118434018E+01  0.14506095041E+04  0.14506490070E+04  0.10000000000E+02 0.  1.
</event>
<event>
 5    1  0.1072898E-008  0.3767504E+03  0.7957747E-01  0.3465431E+00
         13   -1    0    0    0    0  0.00000000000E+00  0.00000000000E+00  0.14999999963E+04  0.15000000000E+04  0.10566000000E+00 0.  1.
        994   -1    0    0    0    0 -0.00000000000E+00 -0.00000000000E+00  0.11368683772E-12  0.17120000000E+03  0.17120000000E+03 0.  0.
         13    1    1    2    0    0 -0.83565215632E+01  0.46193132723E+02  0.26129402311E+03  0.26547733357E+03  0.10566000000E+00 0.  1.
        994    1    1    2    0    0 -0.83848300736E+02 -0.12287417885E+02  0.30449552545E+02  0.19343767323E+03  0.17120000000E+03 0.  0.
        998    1    1    2    0    0  0.92204822299E+02 -0.33905714838E+02  0.12082564206E+04  0.12122849932E+04  0.10000000000E+02 0.  1.
</event>
<event>
 5    1  0.1072898E-008  0.3840686E+03  0.7957747E-01  0.3433632E+00
         13   -1    0    0    0    0  0.00000000000E+00  0.00000000000E+00  0.14999999963E+04  0.15000000000E+04  0.10566000000E+00 0. -1.
        994   -1    0    0    0    0 -0.00000000000E+00 -0.00000000000E+00  0.11368683772E-12  0.17120000000E+03  0.17120000000E+03 0.  0.
         13    1    1    2    0    0 -0.11186903950E+02 -0.59538765779E+01  0.37568978284E+02  0.39648893549E+02  0.10566000000E+00 0. -1.
        994    1    1    2    0    0  0.81263282996E+01  0.65982834824E+01  0.24547946259E+01  0.17153728625E+03  0.17120000000E+03 0.  0.
        998    1    1    2    0    0  0.30605756507E+01 -0.64440690454E+00  0.14599762234E+04  0.14600138202E+04  0.10000000000E+02 0. -1.
</event>
<event>
 5    1  0.1406178E-008  0.3840920E+03  0.7957747E-01  0.3433532E+00
         13   -1    0    0    0    0  0.00000000000E+00  0.00000000000E+00  0.14999999963E+04  0.15000000000E+04  0.10566000000E+00 0. -1.
        994   -1    0    0    0    0 -0.00000000000E+00 -0.00000000000E+00  0.11368683772E-12  0.17120000000E+03  0.17120000000E+03 0.  0.
         13    1    1    2    0    0 -0.53087256305E+01  0.10152606804E+02  0.30614143884E+02  0.32687841203E+02  0.10566000000E+00 0. -1.
        994    1    1    2    0    0  0.63073302156E+01 -0.88217478358E+01  0.24696286207E+01  0.17156090672E+03  0.17120000000E+03 0.  0.
        998    1    1    2    0    0 -0.99860458516E+00 -0.13308589678E+01  0.14669162238E+04  0.14669512521E+04  0.10000000000E+02 0. -1.
</event>
<event>
 5    1  0.1072898E-008  0.3748887E+03  0.7957747E-01  0.3473720E+00
         13   -1    0    0    0    0  0.00000000000E+00  0.00000000000E+00  0.14999999963E+04  0.15000000000E+04  0.10566000000E+00 0.  1.
        994   -1    0    0    0    0 -0.00000000000E+00 -0.00000000000E+00  0.11368683772E-12  0.17120000000E+03  0.17120000000E+03 0.  0.
         13    1    1    2    0    0 -0.12844329477E+02 -0.24899300936E+02  0.61514743024E+02  0.67594576411E+02  0.10566000000E+00 0.  1.
        994    1    1    2    0    0 -0.46227833409E+01 -0.99437089117E+01  0.71448725654E+01  0.17169955351E+03  0.17120000000E+03 0.  0.
        998    1    1    2    0    0  0.17467112818E+02  0.34843009848E+02  0.14313403807E+04  0.14319058701E+04  0.10000000000E+02 0.  1.
</event>
<event>
 5    1  0.1072898E-008  0.3843618E+03  0.7957747E-01  0.3432383E+00
         13   -1    0    0    0    0  0.00000000000E+00  0.00000000000E+00  0.14999999963E+04  0.15000000000E+04  0.10566000000E+00 0.  1.
        994   -1    0    0    0    0 -0.00000000000E+00 -0.00000000000E+00  0.11368683772E-12  0.17120000000E+03  0.17120000000E+03 0.  0.
         13    1    1    2    0    0 -0.38231258696E+01  0.21235080218E+02  0.10934691549E+03  0.11145539024E+03  0.10566000000E+00 0.  1.
        994    1    1    2    0    0 -0.14643977163E+02 -0.28718591061E+02  0.53795197383E+01  0.17429166008E+03  0.17120000000E+03 0.  0.
        998    1    1    2    0    0  0.18467103033E+02  0.74835108437E+01  0.13852735611E+04  0.13854529497E+04  0.10000000000E+02 0.  1.
</event>
<event>
 5    1  0.1072898E-008  0.3806081E+03  0.7957747E-01  0.3448515E+00
         13   -1    0    0    0    0  0.00000000000E+00  0.00000000000E+00  0.14999999963E+04  0.15000000000E+04  0.10566000000E+00 0.  1.
        994   -1    0    0    0    0 -0.00000000000E+00 -0.00000000000E+00  0.11368683772E-12  0.17120000000E+03  0.17120000000E+03 0.  0.
         13    1    1    2    0    0  0.25542338688E+02  0.13233190950E+02  0.11126592640E+03  0.11492452284E+03  0.10566000000E+00 0.  1.
        994    1    1    2    0    0 -0.30208174058E+01 -0.16707537834E+02  0.47887932158E+01  0.17210647779E+03  0.17120000000E+03 0.  0.
        998    1    1    2    0    0 -0.22521521282E+02  0.34743468839E+01  0.13839452767E+04  0.13841689994E+04  0.10000000000E+02 0.  1.
</event>
<event>
 5    1  0.1072898E-008  0.3702170E+03  0.7957747E-01  0.3494894E+00
         13   -1    0    0    0    0  0.00000000000E+00  0.00000000000E+00  0.14999999963E+04  0.15000000000E+04  0.10566000000E+00 0. -1.
        994   -1    0    0    0    0 -0.00000000000E+00 -0.00000000000E+00  0.11368683772E-12  0.17120000000E+03  0.17120000000E+03 0.  0.
         13    1    1    2    0    0  0.71523356423E+01 -0.13293387523E+02  0.82392418184E+01  0.17197858203E+02  0.10566000000E+00 0. -1.
        994    1    1    2    0    0 -0.23205870074E+02  0.41093834112E+01  0.11076986839E+02  0.17316910543E+03  0.17120000000E+03 0.  0.
        998    1    1    2    0    0  0.16053534431E+02  0.91840041121E+01  0.14806837676E+04  0.14808330364E+04  0.10000000000E+02 0. -1.
</event>
<event>
 5    1  0.1072898E-008  0.3762195E+03  0.7957747E-01  0.3467786E+00
         13   -1    0    0    0    0  0.00000000000E+00  0.00000000000E+00  0.14999999963E+04  0.15000000000E+04  0.10566000000E+00 0. -1.
        994   -1    0    0    0    0 -0.00000000000E+00 -0.00000000000E+00  0.11368683772E-12  0.17120000000E+03  0.17120000000E+03 0.  0.
         13    1    1    2    0    0 -0.63999110236E+02 -0.25621032254E+02  0.32158016748E+03  0.32888620933E+03  0.10566000000E+00 0. -1.
        994    1    1    2    0    0  0.59861136853E+02  0.21569559380E+02  0.19884777901E+02  0.18372110926E+03  0.17120000000E+03 0.  0.
        998    1    1    2    0    0  0.41379733839E+01  0.40514728734E+01  0.11585350509E+04  0.11585926814E+04  0.10000000000E+02 0.  0.
</event>
<event>
 5    1  0.1072898E-008  0.3822376E+03  0.7957747E-01  0.3441473E+00
         13   -1    0    0    0    0  0.00000000000E+00  0.00000000000E+00  0.14999999963E+04  0.15000000000E+04  0.10566000000E+00 0.  1.
        994   -1    0    0    0    0 -0.00000000000E+00 -0.00000000000E+00  0.11368683772E-12  0.17120000000E+03  0.17120000000E+03 0.  0.
         13    1    1    2    0    0  0.72635194231E+01  0.88393328624E+01  0.19928088823E+02  0.22978955765E+02  0.10566000000E+00 0.  1.
        994    1    1    2    0    0 -0.14152298822E+02 -0.12930799635E+02  0.42283160458E+01  0.17232182624E+03  0.17120000000E+03 0.  0.
        998    1    1    2    0    0  0.68887793990E+01  0.40914667729E+01  0.14758435914E+04  0.14758992180E+04  0.10000000000E+02 0.  1.
</event>
<event>
 5    1  0.1072898E-008  0.4127574E+03  0.7957747E-01  0.3319855E+00
         13   -1    0    0    0    0  0.00000000000E+00  0.00000000000E+00  0.14999999963E+04  0.15000000000E+04  0.10566000000E+00 0. -1.
        994   -1    0    0    0    0 -0.00000000000E+00 -0.00000000000E+00  0.11368683772E-12  0.17120000000E+03  0.17120000000E+03 0.  0.
         13    1    1    2    0    0  0.17750712156E+01 -0.12610847133E+03  0.46139127043E+03  0.47831831766E+03  0.10566000000E+00 0. -1.
        994    1    1    2    0    0  0.84991363076E+02 -0.45801852356E+02  0.75322665942E+02  0.21048583202E+03  0.17120000000E+03 0.  0.
        998    1    1    2    0    0 -0.86766434291E+02  0.17191032369E+03  0.96328605991E+03  0.98239585032E+03  0.10000000000E+02 0.  1.
</event>
<event>
 5    1  0.1072898E-008  0.3743372E+03  0.7957747E-01  0.3476192E+00
         13   -1    0    0    0    0  0.00000000000E+00  0.00000000000E+00  0.14999999963E+04  0.15000000000E+04  0.10566000000E+00 0.  1.
        994   -1    0    0    0    0 -0.00000000000E+00 -0.00000000000E+00  0.11368683772E-12  0.17120000000E+03  0.17120000000E+03 0.  0.
         13    1    1    2    0    0 -0.60407447043E+02 -0.20530431392E+02  0.37451925795E+03  0.37991478519E+03  0.10566000000E+00 0.  1.
        994    1    1    2    0    0  0.73496040069E+01 -0.44017478857E+00  0.72041730131E+01  0.17150962230E+03  0.17120000000E+03 0.  0.
        998    1    1    2    0    0  0.53057843036E+02  0.20970606181E+02  0.11182765653E+04  0.11197755925E+04  0.10000000000E+02 0.  1.
</event>
<event>
 5    1  0.1072898E-008  0.3699465E+03  0.7957747E-01  0.3496137E+00
         13   -1    0    0    0    0  0.00000000000E+00  0.00000000000E+00  0.14999999963E+04  0.15000000000E+04  0.10566000000E+00 0.  1.
        994   -1    0    0    0    0 -0.00000000000E+00 -0.00000000000E+00  0.11368683772E-12  0.17120000000E+03  0.17120000000E+03 0.  0.
         13    1    1    2    0    0  0.40925353922E+02  0.20287901818E+02  0.10704882930E+03  0.11638705500E+03  0.10566000000E+00 0.  1.
        994    1    1    2    0    0 -0.28797352106E+02 -0.16286974641E+02  0.13091743463E+02  0.17485819048E+03  0.17120000000E+03 0.  0.
        998    1    1    2    0    0 -0.12128001816E+02 -0.40009271770E+01  0.13798594235E+04  0.13799547545E+04  0.10000000000E+02 0.  1.
</event>
<event>
 5    1  0.1072898E-008  0.3841261E+03  0.7957747E-01  0.3433387E+00
         13   -1    0    0    0    0  0.00000000000E+00  0.00000000000E+00  0.14999999963E+04  0.15000000000E+04  0.10566000000E+00 0. -1.
        994   -1    0    0    0    0 -0.00000000000E+00 -0.00000000000E+00  0.11368683772E-12  0.17120000000E+03  0.17120000000E+03 0.  0.
         13    1    1    2    0    0  0.13294729737E+02 -0.89782818808E+01  0.63048677284E+02  0.65057714805E+02  0.10566000000E+00 0. -1.
        994    1    1    2    0    0 -0.52153571616E+01  0.53762457389E+01  0.22496970125E+01  0.17137854330E+03  0.17120000000E+03 0.  0.
        998    1    1    2    0    0 -0.80793725758E+01  0.36020361420E+01  0.14347016220E+04  0.14347637419E+04  0.10000000000E+02 0. -1.
</event>
<event>
 5    1  0.1072898E-008  0.4001791E+03  0.7957747E-01  0.3367741E+00
         13   -1    0    0    0    0  0.00000000000E+00  0.00000000000E+00  0.14999999963E+04  0.15000000000E+04  0.10566000000E+00 0.  1.
        994   -1    0    0    0    0 -0.00000000000E+00 -0.00000000000E+00  0.11368683772E-12  0.17120000000E+03  0.17120000000E+03 0.  0.
         13    1    1    2    0    0  0.79041314446E+02  0.38351172337E+02  0.11706191292E+03  0.14636203206E+03  0.10566000000E+00 0.  1.
        994    1    1    2    0    0 -0.83926766178E+02 -0.44804386375E+02  0.64308989009E+02  0.20614611611E+03  0.17120000000E+03 0.  0.
        998    1    1    2    0    0  0.48854517321E+01  0.64532140380E+01  0.13186290944E+04  0.13186918518E+04  0.10000000000E+02 0.  1.
</event>
<event>
 5    1  0.1072898E-008  0.3853879E+03  0.7957747E-01  0.3428029E+00
         13   -1    0    0    0    0  0.00000000000E+00  0.00000000000E+00  0.14999999963E+04  0.15000000000E+04  0.10566000000E+00 0.  1.
        994   -1    0    0    0    0 -0.00000000000E+00 -0.00000000000E+00  0.11368683772E-12  0.17120000000E+03  0.17120000000E+03 0.  0.
         13    1    1    2    0    0  0.81208757560E+00 -0.10557549042E+02  0.40251334354E+02  0.41620937151E+02  0.10566000000E+00 0.  1.
        994    1    1    2    0    0  0.43793310013E+01  0.18341631098E+01  0.15117148341E+01  0.17127249626E+03  0.17120000000E+03 0.  0.
        998    1    1    2    0    0 -0.51914185769E+01  0.87233859323E+01  0.14582369471E+04  0.14583065666E+04  0.10000000000E+02 0.  1.
</event>
<event>
 5    1  0.1072898E-008  0.3737682E+03  0.7957747E-01  0.3478750E+00
         13   -1    0    0    0    0  0.00000000000E+00  0.00000000000E+00  0.14999999963E+04  0.15000000000E+04  0.10566000000E+00 0. -1.
        994   -1    0    0    0    0 -0.00000000000E+00 -0.00000000000E+00  0.11368683772E-12  0.17120000000E+03  0.17120000000E+03 0.  0.
         13    1    1    2    0    0  0.33686726557E+02  0.69843934716E+02  0.19953358559E+03  0.21407156211E+03  0.10566000000E+00 0. -1.
        994    1    1    2    0    0 -0.31611007788E+02 -0.69044286783E+02  0.33666691878E+02  0.19028729724E+03  0.17120000000E+03 0.  0.
        998    1    1    2    0    0 -0.20757187695E+01 -0.79964793321E+00  0.12667997188E+04  0.12668411406E+04  0.10000000000E+02 0.  0.
</event>
<event>
 5    1  0.1072898E-008  0.3809524E+03  0.7957747E-01  0.3447022E+00
         13   -1    0    0    0    0  0.00000000000E+00  0.00000000000E+00  0.14999999963E+04  0.15000000000E+04  0.10566000000E+00 0.  1.
        994   -1    0    0    0    0 -0.00000000000E+00 -0.00000000000E+00  0.11368683772E-12  0.17120000000E+03  0.17120000000E+03 0.  0.
         13    1    1    2    0    0  0.33822999849E+02  0.10871152890E+02  0.20939161989E+03  0.21238417768E+03  0.10566000000E+00 0.  1.
        994    1    1    2    0    0  0.33068555464E+01  0.60555262737E+00  0.36908375932E+01  0.17127277737E+03  0.17120000000E+03 0.  0.
        998    1    1    2    0    0 -0.37129855395E+02 -0.11476705517E+02  0.12869175388E+04  0.12875430449E+04  0.10000000000E+02 0.  1.
</event>
<event>
 5    1  0.1072898E-008  0.3710728E+03  0.7957747E-01  0.3490975E+00
         13   -1    0    0    0    0  0.00000000000E+00  0.00000000000E+00  0.14999999963E+04  0.15000000000E+04  0.10566000000E+00 0.  1.
        994   -1    0    0    0    0 -0.00000000000E+00 -0.00000000000E+00  0.11368683772E-12  0.17120000000E+03  0.17120000000E+03 0.  0.
         13    1    1    2    0    0  0.44021008723E+02 -0.15605278808E+02  0.14817217318E+03  0.15535886845E+03  0.10566000000E+00 0.  1.
        994    1    1    2    0    0  0.70447117889E+01 -0.18343045846E+02  0.10040562087E+02  0.17261618749E+03  0.17120000000E+03 0.  0.
        998    1    1    2    0    0 -0.51065720511E+02  0.33948324654E+02  0.13417872610E+04  0.13432249441E+04  0.10000000000E+02 0.  1.
</event>
<event>
 5    1  0.1072898E-008  0.3743116E+03  0.7957747E-01  0.3476307E+00
         13   -1    0    0    0    0  0.00000000000E+00  0.00000000000E+00  0.14999999963E+04  0.15000000000E+04  0.10566000000E+00 0. -1.
        994   -1    0    0    0    0 -0.00000000000E+00 -0.00000000000E+00  0.11368683772E-12  0.17120000000E+03  0.17120000000E+03 0.  0.
         13    1    1    2    0    0  0.75051717146E+01  0.28075879279E+02  0.24359692974E+02  0.37920817575E+02  0.10566000000E+00 0. -1.
        994    1    1    2    0    0  0.83838182310E+01 -0.58267346449E+02  0.25641994533E+02  0.18284508184E+03  0.17120000000E+03 0.  0.
        998    1    1    2    0    0 -0.15888989946E+02  0.30191467171E+02  0.14499983088E+04  0.14504341006E+04  0.10000000000E+02 0. -1.
</event>
<event>
 5    1  0.1072898E-008  0.3753541E+03  0.7957747E-01  0.3471640E+00
         13   -1    0    0    0    0  0.00000000000E+00  0.00000000000E+00  0.14999999963E+04  0.15000000000E+04  0.10566000000E+00 0. -1.
        994   -1    0    0    0    0 -0.00000000000E+00 -0.00000000000E+00  0.11368683772E-12  0.17120000000E+03  0.17120000000E+03 0.  0.
         13    1    1    2    0    0  0.46586266272E+02  0.13436428992E+03  0.77088096850E+03  0.78388871747E+03  0.10566000000E+00 0. -1.
        994    1    1    2    0    0 -0.37178037344E+00 -0.15338619105E+03  0.91095815374E+02  0.24725563574E+03  0.17120000000E+03 0.  0.
        998    1    1    2    0    0 -0.46214485899E+02  0.19021901128E+02  0.63802321240E+03  0.64005564679E+03  0.10000000000E+02 0. -1.
</event>
<event>
 5    1  0.1072898E-008  0.3735153E+03  0.7957747E-01  0.3479890E+00
         13   -1    0    0    0    0  0.00000000000E+00  0.00000000000E+00  0.14999999963E+04  0.15000000000E+04  0.10566000000E+00 0. -1.
        994   -1    0    0    0    0 -0.00000000000E+00 -0.00000000000E+00  0.11368683772E-12  0.17120000000E+03  0.17120000000E+03 0.  0.
         13    1    1    2    0    0  0.10619500915E+02 -0.74175441159E+00  0.44029157342E+01  0.11520452694E+02  0.10566000000E+00 0. -1.
        994    1    1    2    0    0  0.14905668762E+02  0.15595585066E+02  0.90347247153E+01  0.17279024129E+03  0.17120000000E+03 0.  0.
        998    1    1    2    0    0 -0.25525169676E+02 -0.14853830654E+02  0.14865623558E+04  0.14868893060E+04  0.10000000000E+02 0. -1.
</event>
<event>
 5    1  0.1072898E-008  0.3781341E+03  0.7957747E-01  0.3459323E+00
         13   -1    0    0    0    0  0.00000000000E+00  0.00000000000E+00  0.14999999963E+04  0.15000000000E+04  0.10566000000E+00 0. -1.
        994   -1    0    0    0    0 -0.00000000000E+00 -0.00000000000E+00  0.11368683772E-12  0.17120000000E+03  0.17120000000E+03 0.  0.
         13    1    1    2    0    0  0.50293994489E+02  0.41397505725E+01  0.23820239617E+03  0.24348925258E+03  0.10566000000E+00 0. -1.
        994    1    1    2    0    0 -0.35807417927E+02  0.76465885019E+01  0.96007322125E+01  0.17533469581E+03  0.17120000000E+03 0.  0.
        998    1    1    2    0    0 -0.14486576562E+02 -0.11786339074E+02  0.12521968679E+04  0.12523760516E+04  0.10000000000E+02 0. -1.
</event>
<event>
 5    1  0.1072898E-008  0.3847341E+03  0.7957747E-01  0.3430801E+00
         13   -1    0    0    0    0  0.00000000000E+00  0.00000000000E+00  0.14999999963E+04  0.15000000000E+04  0.10566000000E+00 0. -1.
        994   -1    0    0    0    0 -0.00000000000E+00 -0.00000000000E+00  0.11368683772E-12  0.17120000000E+03  0.17120000000E+03 0.  0.
         13    1    1    2    0    0 -0.10759823588E+02  0.12389142063E+01  0.35448021211E+02  0.37065915392E+02  0.10566000000E+00 0. -1.
        994    1    1    2    0    0 -0.80558863107E+01  0.16249070236E+01  0.19845256076E+01  0.17140862280E+03  0.17120000000E+03 0.  0.
        998    1    1    2    0    0  0.18815709899E+02 -0.28638212299E+01  0.14625674495E+04  0.14627254618E+04  0.10000000000E+02 0. -1.
</event>
<event>
 5    1  0.1072898E-008  0.3784238E+03  0.7957747E-01  0.3458050E+00
         13   -1    0    0    0    0  0.00000000000E+00  0.00000000000E+00  0.14999999963E+04  0.15000000000E+04  0.10566000000E+00 0.  1.
        994   -1    0    0    0    0 -0.00000000000E+00 -0.00000000000E+00  0.11368683772E-12  0.17120000000E+03  0.17120000000E+03 0.  0.
         13    1    1    2    0    0 -0.15734257303E+02 -0.27088819582E+02  0.10161304252E+03  0.10633246246E+03  0.10566000000E+00 0.  1.
        994    1    1    2    0    0  0.62064885191E+01  0.92207344980E+01  0.53461866333E+01  0.17164371284E+03  0.17120000000E+03 0.  0.
        998    1    1    2    0    0  0.95277687838E+01  0.17868085084E+02  0.13930407671E+04  0.13932238247E+04  0.10000000000E+02 0.  1.
</event>
<event>
 5    1  0.1072898E-008  0.3762795E+03  0.7957747E-01  0.3467520E+00
         13   -1    0    0    0    0  0.00000000000E+00  0.00000000000E+00  0.14999999963E+04  0.15000000000E+04  0.10566000000E+00 0. -1.
        994   -1    0    0    0    0 -0.00000000000E+00 -0.00000000000E+00  0.11368683772E-12  0.17120000000E+03  0.17120000000E+03 0.  0.
         13    1    1    2    0    0 -0.44020419359E+02 -0.62259370451E+02  0.26145819598E+03  0.27234982273E+03  0.10566000000E+00 0. -1.
        994    1    1    2    0    0 -0.19812231639E+02  0.65943573346E+01  0.15858550449E+02  0.17319625774E+03  0.17120000000E+03 0.  0.
        998    1    1    2    0    0  0.63832650998E+02  0.55665013116E+02  0.12226832498E+04  0.12256539195E+04  0.10000000000E+02 0. -1.
</event>
<event>
 5    1  0.1072898E-008  0.3826090E+03  0.7957747E-01  0.3439877E+00
         13   -1    0    0    0    0  0.00000000000E+00  0.00000000000E+00  0.14999999963E+04  0.15000000000E+04  0.10566000000E+00 0.  1.
        994   -1    0    0    0    0 -0.00000000000E+00 -0.00000000000E+00  0.11368683772E-12  0.17120000000E+03  0.17120000000E+03 0.  0.
         13    1    1    2    0    0  0.27530296491E+03 -0.81935702646E+02  0.90482429214E+03  0.94932196470E+03  0.10566000000E+00 0.  1.
        994    1    1    2    0    0 -0.28787100494E+03  0.10451769343E+03  0.43278953673E+03  0.55714440392E+03  0.17120000000E+03 0.  0.
        998    1    1    2    0    0  0.12568040026E+02 -0.22581990783E+02  0.16238616741E+03  0.16473363137E+03  0.10000000000E+02 0.  1.
</event>
<event>
 5    1  0.1072898E-008  0.3819531E+03  0.7957747E-01  0.3442698E+00
         13   -1    0    0    0    0  0.00000000000E+00  0.00000000000E+00  0.14999999963E+04  0.15000000000E+04  0.10566000000E+00 0. -1.
        994   -1    0    0    0    0 -0.00000000000E+00 -0.00000000000E+00  0.11368683772E-12  0.17120000000E+03  0.17120000000E+03 0.  0.
         13    1    1    2    0    0 -0.21556384552E+02 -0.30136382923E+02  0.17959821328E+03  0.18338050242E+03  0.10566000000E+00 0. -1.
        994    1    1    2    0    0  0.30753665100E+02  0.34912000591E+02  0.10373825818E+02  0.17771238551E+03  0.17120000000E+03 0.  0.
        998    1    1    2    0    0 -0.91972805482E+01 -0.47756176676E+01  0.13100279572E+04  0.13101071121E+04  0.10000000000E+02 0. -1.
</event>
<event>
 5    1  0.1072898E-008  0.3819531E+03  0.7957747E-01  0.3442698E+00
         13   -1    0    0    0    0  0.00000000000E+00  0.00000000000E+00  0.14999999963E+04  0.15000000000E+04  0.10566000000E+00 0.  1.
        994   -1    0    0    0    0 -0.00000000000E+00 -0.00000000000E+00  0.11368683772E-12  0.17120000000E+03  0.17120000000E+03 0.  0.
         13    1    1    2    0    0 -0.88501136906E+01  0.28579959045E+02  0.13120301180E+03  0.13457109660E+03  0.10566000000E+00 0.  1.
        994    1    1    2    0    0  0.14620030662E+02 -0.25726754025E+02  0.60642312308E+01  0.17384425809E+03  0.17120000000E+03 0.  0.
        998    1    1    2    0    0 -0.57699169710E+01 -0.28532050203E+01  0.13627327533E+04  0.13627846453E+04  0.10000000000E+02 0.  1.
</event>
<event>
 5    1  0.1072898E-008  0.3733012E+03  0.7957747E-01  0.3480856E+00
         13   -1    0    0    0    0  0.00000000000E+00  0.00000000000E+00  0.14999999963E+04  0.15000000000E+04  0.10566000000E+00 0. -1.
        994   -1    0    0    0    0 -0.00000000000E+00 -0.00000000000E+00  0.11368683772E-12  0.17120000000E+03  0.17120000000E+03 0.  0.
         13    1    1    2    0    0 -0.26066493914E+02 -0.90307007215E+02  0.39278038390E+03  0.40387034900E+03  0.10566000000E+00 0. -1.
        994    1    1    2    0    0  0.29851209130E+02  0.98260141248E+02  0.44514853329E+02  0.20454134597E+03  0.17120000000E+03 0.  0.
        998    1    1    2    0    0 -0.37847152163E+01 -0.79531340332E+01  0.10627047590E+04  0.10627883050E+04  0.10000000000E+02 0. -1.
</event>
<event>
 5    1  0.1072898E-008  0.3854319E+03  0.7957747E-01  0.3427843E+00
         13   -1    0    0    0    0  0.00000000000E+00  0.00000000000E+00  0.14999999963E+04  0.15000000000E+04  0.10566000000E+00 0.  1.
        994   -1    0    0    0    0 -0.00000000000E+00 -0.00000000000E+00  0.11368683772E-12  0.17120000000E+03  0.17120000000E+03 0.  0.
         13    1    1    2    0    0  0.10996186997E+02 -0.79465288807E+01  0.66001572529E+02  0.67381616114E+02  0.10566000000E+00 0.  1.
        994    1    1    2    0    0 -0.75614767448E+01  0.21458420675E+01  0.16187934472E+01  0.17138798400E+03  0.17120000000E+03 0.  0.
        998    1    1    2    0    0 -0.34347102526E+01  0.58006868132E+01  0.14323796303E+04  0.14324303999E+04  0.10000000000E+02 0.  1.
</event>
<event>
 5    1  0.1072898E-008  0.3833481E+03  0.7957747E-01  0.3436709E+00
         13   -1    0    0    0    0  0.00000000000E+00  0.00000000000E+00  0.14999999963E+04  0.15000000000E+04  0.10566000000E+00 0. -1.
        994   -1    0    0    0    0 -0.00000000000E+00 -0.00000000000E+00  0.11368683772E-12  0.17120000000E+03  0.17120000000E+03 0.  0.
         13    1    1    2    0    0 -0.83979915404E+01 -0.22482326541E+02  0.12790136021E+03  0.13013358666E+03  0.10566000000E+00 0. -1.
        994    1    1    2    0    0 -0.25739027022E+01  0.36764151713E+01  0.25191156741E+01  0.17127733927E+03  0.17120000000E+03 0.  0.
        998    1    1    2    0    0  0.10971894243E+02  0.18805911370E+02  0.13695795204E+04  0.13697890741E+04  0.10000000000E+02 0. -1.
</event>
<event>
 5    1  0.1072898E-008  0.3733115E+03  0.7957747E-01  0.3480809E+00
         13   -1    0    0    0    0  0.00000000000E+00  0.00000000000E+00  0.14999999963E+04  0.15000000000E+04  0.10566000000E+00 0. -1.
        994   -1    0    0    0    0 -0.00000000000E+00 -0.00000000000E+00  0.11368683772E-12  0.17120000000E+03  0.17120000000E+03 0.  0.
         13    1    1    2    0    0  0.82928215682E+01  0.12104769403E+02  0.10958427564E+02  0.18313782530E+02  0.10566000000E+00 0. -1.
        994    1    1    2    0    0 -0.58549734161E+01 -0.56396924553E+01  0.77743530100E+01  0.17156913303E+03  0.17120000000E+03 0.  0.
        998    1    1    2    0    0 -0.24378481521E+01 -0.64650769480E+01  0.14812672157E+04  0.14813170844E+04  0.10000000000E+02 0. -1.
</event>
<event>
 5    1  0.1072898E-008  0.3830927E+03  0.7957747E-01  0.3437802E+00
         13   -1    0    0    0    0  0.00000000000E+00  0.00000000000E+00  0.14999999963E+04  0.15000000000E+04  0.10566000000E+00 0.  1.
        994   -1    0    0    0    0 -0.00000000000E+00 -0.00000000000E+00  0.11368683772E-12  0.17120000000E+03  0.17120000000E+03 0.  0.
         13    1    1    2    0    0  0.33475114186E+01 -0.28054822863E+02  0.13929115056E+03  0.14212781116E+03  0.10566000000E+00 0.  1.
        994    1    1    2    0    0 -0.18004901821E+01  0.30444501206E+02  0.56639882906E+01  0.17398744260E+03  0.17120000000E+03 0.  0.
        998    1    1    2    0    0 -0.15470212364E+01 -0.23896783429E+01  0.13550448574E+04  0.13550847462E+04  0.10000000000E+02 0.  1.
</event>
<event>
 5    1  0.1072898E-008  0.3787595E+03  0.7957747E-01  0.3456578E+00
         13   -1    0    0    0    0  0.00000000000E+00  0.00000000000E+00  0.14999999963E+04  0.15000000000E+04  0.10566000000E+00 0. -1.
        994   -1    0    0    0    0 -0.00000000000E+00 -0.00000000000E+00  0.11368683772E-12  0.17120000000E+03  0.17120000000E+03 0.  0.
         13    1    1    2    0    0 -0.82024288146E+00  0.10440555463E+02  0.92887622480E+01  0.13998937992E+02  0.10566000000E+00 0. -1.
        994    1    1    2    0    0  0.32826199634E+00 -0.12096691269E+02  0.52523334463E+01  0.17170749751E+03  0.17120000000E+03 0.  0.
        998    1    1    2    0    0  0.49198088511E+00  0.16561358061E+01  0.14854589006E+04  0.14854935645E+04  0.10000000000E+02 0.  0.
</event>
<event>
 5    1  0.1072898E-008  0.3832050E+03  0.7957747E-01  0.3437321E+00
         13   -1    0    0    0    0  0.00000000000E+00  0.00000000000E+00  0.14999999963E+04  0.15000000000E+04  0.10566000000E+00 0.  1.
        994   -1    0    0    0    0 -0.00000000000E+00 -0.00000000000E+00  0.11368683772E-12  0.17120000000E+03  0.17120000000E+03 0.  0.
         13    1    1    2    0    0 -0.24100038585E+02  0.12639956322E+02  0.13887946105E+03  0.14152065652E+03  0.10566000000E+00 0.  1.
        994    1    1    2    0    0  0.20250658086E+02 -0.10882850596E+02  0.42742061806E+01  0.17278956690E+03  0.17120000000E+03 0.  0.
        998    1    1    2    0    0  0.38493804990E+01 -0.17571057251E+01  0.13568463290E+04  0.13568897766E+04  0.10000000000E+02 0.  1.
</event>
<event>
 5    1  0.1072898E-008  0.3714964E+03  0.7957747E-01  0.3489042E+00
         13   -1    0    0    0    0  0.00000000000E+00  0.00000000000E+00  0.14999999963E+04  0.15000000000E+04  0.10566000000E+00 0.  1.
        994   -1    0    0    0    0 -0.00000000000E+00 -0.00000000000E+00  0.11368683772E-12  0.17120000000E+03  0.17120000000E+03 0.  0.
         13    1    1    2    0    0  0.86989072003E+02 -0.31892753208E+02  0.29419393606E+03  0.30843853445E+03  0.10566000000E+00 0.  1.
        994    1    1    2    0    0 -0.85036114495E+02  0.28902011893E+02  0.40648578606E+02  0.19755559724E+03  0.17120000000E+03 0.  0.
        998    1    1    2    0    0 -0.19529575081E+01  0.29907413151E+01  0.11651574816E+04  0.11652058683E+04  0.10000000000E+02 0.  1.
</event>
<event>
 5    1  0.1072898E-008  0.3826404E+03  0.7957747E-01  0.3439741E+00
         13   -1    0    0    0    0  0.00000000000E+00  0.00000000000E+00  0.14999999963E+04  0.15000000000E+04  0.10566000000E+00 0. -1.
        994   -1    0    0    0    0 -0.00000000000E+00 -0.00000000000E+00  0.11368683772E-12  0.17120000000E+03  0.17120000000E+03 0.  0.
         13    1    1    2    0    0 -0.14541780529E+02  0.20103745497E+02  0.97197406292E+02  0.10031436048E+03  0.10566000000E+00 0. -1.
        994    1    1    2    0    0  0.33218869195E+02 -0.18732147719E+02  0.76410274215E+01  0.17556255845E+03  0.17120000000E+03 0.  0.
        998    1    1    2    0    0 -0.18677088666E+02 -0.13715977776E+01  0.13951615626E+04  0.13953230811E+04  0.10000000000E+02 0. -1.
</event>
<event>
 5    1  0.1072898E-008  0.3790451E+03  0.7957747E-01  0.3455327E+00
         13   -1    0    0    0    0  0.00000000000E+00  0.00000000000E+00  0.14999999963E+04  0.15000000000E+04  0.10566000000E+00 0. -1.
        994   -1    0    0    0    0 -0.00000000000E+00 -0.00000000000E+00  0.11368683772E-12  0.17120000000E+03  0.17120000000E+03 0.  0.
         13    1    1    2    0    0 -0.77859656369E+02 -0.35723787913E+02  0.17238722739E+03  0.19249852583E+03  0.10566000000E+00 0. -1.
        994    1    1    2    0    0  0.11189026775E+03  0.44193927224E+02  0.70117018212E+02  0.22067707507E+03  0.17120000000E+03 0.  0.
        998    1    1    2    0    0 -0.34030611378E+02 -0.84701393104E+01  0.12574957507E+04  0.12580243991E+04  0.10000000000E+02 0. -1.
</event>
<event>
 5    1  0.1072898E-008  0.3826102E+03  0.7957747E-01  0.3439871E+00
         13   -1    0    0    0    0  0.00000000000E+00  0.00000000000E+00  0.14999999963E+04  0.15000000000E+04  0.10566000000E+00 0. -1.
        994   -1    0    0    0    0 -0.00000000000E+00 -0.00000000000E+00  0.11368683772E-12  0.17120000000E+03  0.17120000000E+03 0.  0.
         13    1    1    2    0    0 -0.10063448143E+02 -0.77140334412E+01  0.27219061677E+02  0.30027783519E+02  0.10566000000E+00 0. -1.
        994    1    1    2    0    0  0.95770476487E+01  0.64524231951E+01  0.32634202419E+01  0.17162005570E+03  0.17120000000E+03 0.  0.
        998    1    1    2    0    0  0.48640049472E+00  0.12616102461E+01  0.14695175144E+04  0.14695521608E+04  0.10000000000E+02 0. -1.
</event>
<event>
 5    1  0.1072898E-008  0.3692282E+03  0.7957747E-01  0.3499445E+00
         13   -1    0    0    0    0  0.00000000000E+00  0.00000000000E+00  0.14999999963E+04  0.15000000000E+04  0.10566000000E+00 0. -1.
        994   -1    0    0    0    0 -0.00000000000E+00 -0.00000000000E+00  0.11368683772E-12  0.17120000000E+03  0.17120000000E+03 0.  0.
         13    1    1    2    0    0 -0.11363964551E+03  0.13144550798E+01  0.43491372676E+03  0.44951713839E+03  0.10566000000E+00 0. -1.
        994    1    1    2    0    0  0.11967306657E+03 -0.53205712347E+01  0.61208126304E+02  0.21772879016E+03  0.17120000000E+03 0.  0.
        998    1    1    2    0    0 -0.60334210640E+01  0.40061161549E+01  0.10038781432E+04  0.10039540714E+04  0.10000000000E+02 0. -1.
</event>
<event>
 5    1  0.1072898E-008  0.3846023E+03  0.7957747E-01  0.3431361E+00
         13   -1    0    0    0    0  0.00000000000E+00  0.00000000000E+00  0.14999999963E+04  0.15000000000E+04  0.10566000000E+00 0. -1.
        994   -1    0    0    0    0 -0.00000000000E+00 -0.00000000000E+00  0.11368683772E-12  0.17120000000E+03  0.17120000000E+03 0.  0.
         13    1    1    2    0    0  0.13561434515E+02  0.33778969766E+01  0.73633303160E+02  0.74947963230E+02  0.10566000000E+00 0. -1.
        994    1    1    2    0    0  0.38894317237E+02  0.29621791662E+01  0.68541424592E+01  0.17572126134E+03  0.17120000000E+03 0.  0.
        998    1    1    2    0    0 -0.52455751752E+02 -0.63400761429E+01  0.14195125507E+04  0.14205307754E+04  0.10000000000E+02 0. -1.
</event>
<event>
 5    1  0.1072898E-008  0.4451941E+03  0.7957747E-01  0.3208648E+00
         13   -1    0    0    0    0  0.00000000000E+00  0.00000000000E+00  0.14999999963E+04  0.15000000000E+04  0.10566000000E+00 0.  1.
        994   -1    0    0    0    0 -0.00000000000E+00 -0.00000000000E+00  0.11368683772E-12  0.17120000000E+03  0.17120000000E+03 0.  0.
         13    1    1    2    0    0 -0.28294654665E+02  0.93658739810E+02  0.65256736291E+02  0.11760527123E+03  0.10566000000E+00 0.  1.
        994    1    1    2    0    0  0.23416519758E+02 -0.83640961795E+02  0.95765885223E+02  0.21453365391E+03  0.17120000000E+03 0.  0.
        998    1    1    2    0    0  0.48781349075E+01 -0.10017778015E+02  0.13389773748E+04  0.13390610749E+04  0.10000000000E+02 0.  1.
</event>
<event>
 5    1  0.1072898E-008  0.3873468E+03  0.7957747E-01  0.3419780E+00
         13   -1    0    0    0    0  0.00000000000E+00  0.00000000000E+00  0.14999999963E+04  0.15000000000E+04  0.10566000000E+00 0.  1.
        994   -1    0    0    0    0 -0.00000000000E+00 -0.00000000000E+00  0.11368683772E-12  0.17120000000E+03  0.17120000000E+03 0.  0.
         13    1    1    2    0    0 -0.67758276930E+01  0.16003173273E+02 -0.19079938077E+01  0.17483277729E+02  0.10566000000E+00 0.  1.
        994    1    1    2    0    0 -0.92617081951E+00 -0.26828020545E+02  0.23110808640E+02  0.17482605628E+03  0.17120000000E+03 0.  0.
        998    1    1    2    0    0  0.77019985125E+01  0.10824847272E+02  0.14787971814E+04  0.14788906660E+04  0.10000000000E+02 0.  1.
</event>
<event>
 5    1  0.1072898E-008  0.3842789E+03  0.7957747E-01  0.3432736E+00
         13   -1    0    0    0    0  0.00000000000E+00  0.00000000000E+00  0.14999999963E+04  0.15000000000E+04  0.10566000000E+00 0.  1.
        994   -1    0    0    0    0 -0.00000000000E+00 -0.00000000000E+00  0.11368683772E-12  0.17120000000E+03  0.17120000000E+03 0.  0.
         13    1    1    2    0    0 -0.18161207511E+02  0.13698601570E+01  0.86115587045E+02  0.88020517331E+02  0.10566000000E+00 0.  1.
        994    1    1    2    0    0  0.67800415363E+01  0.53574976222E+01  0.22347632339E+01  0.17143251124E+03  0.17120000000E+03 0.  0.
        998    1    1    2    0    0  0.11381165975E+02 -0.67273577792E+01  0.14116496460E+04  0.14117469714E+04  0.10000000000E+02 0.  1.
</event>
<event>
 5    1  0.1072898E-008  0.3856251E+03  0.7957747E-01  0.3427025E+00
         13   -1    0    0    0    0  0.00000000000E+00  0.00000000000E+00  0.14999999963E+04  0.15000000000E+04  0.10566000000E+00 0. -1.
        994   -1    0    0    0    0 -0.00000000000E+00 -0.00000000000E+00  0.11368683772E-12  0.17120000000E+03  0.17120000000E+03 0.  0.
         13    1    1    2    0    0  0.90992774797E+01 -0.71347199984E+01  0.48012066912E+02  0.49384924960E+02  0.10566000000E+00 0. -1.
        994    1    1    2    0    0 -0.11141532924E+02  0.14495765760E+02  0.24179139609E+01  0.17219043902E+03  0.17120000000E+03 0.  0.
        998    1    1    2    0    0  0.20422554444E+01 -0.73610457616E+01  0.14495700154E+04  0.14496246360E+04  0.10000000000E+02 0. -1.
</event>
<event>
 5    1  0.1072898E-008  0.3818860E+03  0.7957747E-01  0.3442987E+00
         13   -1    0    0    0    0  0.00000000000E+00  0.00000000000E+00  0.14999999963E+04  0.15000000000E+04  0.10566000000E+00 0. -1.
        994   -1    0    0    0    0 -0.00000000000E+00 -0.00000000000E+00  0.11368683772E-12  0.17120000000E+03  0.17120000000E+03 0.  0.
         13    1    1    2    0    0  0.46683278673E+01  0.90573788661E+01  0.14502082387E+02  0.17724304065E+02  0.10566000000E+00 0. -1.
        994    1    1    2    0    0 -0.16831195118E+02 -0.13419561389E+02  0.47250459706E+01  0.17261268730E+03  0.17120000000E+03 0.  0.
        998    1    1    2    0    0  0.12162867251E+02  0.43621825227E+01  0.14807728679E+04  0.14808630086E+04  0.10000000000E+02 0. -1.
</event>
<event>
 5    1  0.1072898E-008  0.3843591E+03  0.7957747E-01  0.3432395E+00
         13   -1    0    0    0    0  0.00000000000E+00  0.00000000000E+00  0.14999999963E+04  0.15000000000E+04  0.10566000000E+00 0.  1.
        994   -1    0    0    0    0 -0.00000000000E+00 -0.00000000000E+00  0.11368683772E-12  0.17120000000E+03  0.17120000000E+03 0.  0.
         13    1    1    2    0    0 -0.90841546579E+01  0.78258375607E+01  0.35382730918E+02  0.37359261377E+02  0.10566000000E+00 0.  1.
        994    1    1    2    0    0  0.13305704626E+02 -0.75954909122E+01  0.27225885509E+01  0.17190574669E+03  0.17120000000E+03 0.  0.
        998    1    1    2    0    0 -0.42215499686E+01 -0.23034664856E+00  0.14618946768E+04  0.14619349919E+04  0.10000000000E+02 0.  1.
</event>
<event>
 5    1  0.1072898E-008  0.3847929E+03  0.7957747E-01  0.3430551E+00
         13   -1    0    0    0    0  0.00000000000E+00  0.00000000000E+00  0.14999999963E+04  0.15000000000E+04  0.10566000000E+00 0.  1.
        994   -1    0    0    0    0 -0.00000000000E+00 -0.00000000000E+00  0.11368683772E-12  0.17120000000E+03  0.17120000000E+03 0.  0.
         13    1    1    2    0    0 -0.13119059908E+02  0.78708266845E+01  0.68411451936E+02  0.70101337830E+02  0.10566000000E+00 0.  1.
        994    1    1    2    0    0  0.49899045742E+01 -0.68296770634E+01  0.19684693879E+01  0.17142012282E+03  0.17120000000E+03 0.  0.
        998    1    1    2    0    0  0.81291553336E+01 -0.10411496211E+01  0.14296200750E+04  0.14296785393E+04  0.10000000000E+02 0.  1.
</event>
<event>
 5    1  0.1072898E-008  0.3820322E+03  0.7957747E-01  0.3442357E+00
         13   -1    0    0    0    0  0.00000000000E+00  0.00000000000E+00  0.14999999963E+04  0.15000000000E+04  0.10566000000E+00 0.  1.
        994   -1    0    0    0    0 -0.00000000000E+00 -0.00000000000E+00  0.11368683772E-12  0.17120000000E+03  0.17120000000E+03 0.  0.
         13    1    1    2    0    0  0.14711507065E+02 -0.70244375612E+01  0.41038138537E+02  0.44157798199E+02  0.10566000000E+00 0.  1.
        994    1    1    2    0    0 -0.14467682791E+02  0.35720180289E+01  0.38485769685E+01  0.17189044390E+03  0.17120000000E+03 0.  0.
        998    1    1    2    0    0 -0.24382427328E+00  0.34524195323E+01  0.14551132808E+04  0.14551517579E+04  0.10000000000E+02 0.  1.
</event>
<event>
 5    1  0.1072898E-008  0.3853887E+03  0.7957747E-01  0.3428025E+00
         13   -1    0    0    0    0  0.00000000000E+00  0.00000000000E+00  0.14999999963E+04  0.15000000000E+04  0.10566000000E+00 0.  1.
        994   -1    0    0    0    0 -0.00000000000E+00 -0.00000000000E+00  0.11368683772E-12  0.17120000000E+03  0.17120000000E+03 0.  0.
         13    1    1    2    0    0  0.73462201372E+01 -0.77139134194E+01  0.39606336634E+02  0.41013954652E+02  0.10566000000E+00 0.  1.
        994    1    1    2    0    0 -0.42293344379E+01  0.53973351436E+01  0.15917162835E+01  0.17134465868E+03  0.17120000000E+03 0.  0.
        998    1    1    2    0    0 -0.31168856993E+01  0.23165782758E+01  0.14588019434E+04  0.14588413867E+04  0.10000000000E+02 0.  1.
</event>
<event>
 5    1  0.1072898E-008  0.3799740E+03  0.7957747E-01  0.3451272E+00
         13   -1    0    0    0    0  0.00000000000E+00  0.00000000000E+00  0.14999999963E+04  0.15000000000E+04  0.10566000000E+00 0. -1.
        994   -1    0    0    0    0 -0.00000000000E+00 -0.00000000000E+00  0.11368683772E-12  0.17120000000E+03  0.17120000000E+03 0.  0.
         13    1    1    2    0    0  0.61775159419E+01 -0.45912246197E+02  0.25315906726E+03  0.25736281891E+03  0.10566000000E+00 0. -1.
        994    1    1    2    0    0 -0.46221759555E+01  0.28060654717E+02  0.68548349250E+01  0.17368129898E+03  0.17120000000E+03 0.  0.
        998    1    1    2    0    0 -0.15553399864E+01  0.17851591481E+02  0.12399860941E+04  0.12401558821E+04  0.10000000000E+02 0. -1.
</event>
<event>
 5    1  0.1072898E-008  0.3717046E+03  0.7957747E-01  0.3488093E+00
         13   -1    0    0    0    0  0.00000000000E+00  0.00000000000E+00  0.14999999963E+04  0.15000000000E+04  0.10566000000E+00 0.  1.
        994   -1    0    0    0    0 -0.00000000000E+00 -0.00000000000E+00  0.11368683772E-12  0.17120000000E+03  0.17120000000E+03 0.  0.
         13    1    1    2    0    0 -0.64108625046E+02  0.62731887278E+02  0.38763491332E+03  0.39787691900E+03  0.10566000000E+00 0.  1.
        994    1    1    2    0    0  0.42107760837E+02 -0.69409426151E+02  0.31388473756E+02  0.19205574255E+03  0.17120000000E+03 0.  0.
        998    1    1    2    0    0  0.22000864209E+02  0.66775388725E+01  0.10809766092E+04  0.10812673385E+04  0.10000000000E+02 0.  1.
</event>
<event>
 5    1  0.1072898E-008  0.3734383E+03  0.7957747E-01  0.3480237E+00
         13   -1    0    0    0    0  0.00000000000E+00  0.00000000000E+00  0.14999999963E+04  0.15000000000E+04  0.10566000000E+00 0. -1.
        994   -1    0    0    0    0 -0.00000000000E+00 -0.00000000000E+00  0.11368683772E-12  0.17120000000E+03  0.17120000000E+03 0.  0.
         13    1    1    2    0    0 -0.10523956886E+02 -0.14844097822E+02  0.72269041387E+01  0.19579075978E+02  0.10566000000E+00 0. -1.
        994    1    1    2    0    0  0.71393179541E+01  0.14687676319E+02  0.13712836583E+02  0.17252298277E+03  0.17120000000E+03 0.  0.
        998    1    1    2    0    0  0.33846389319E+01  0.15642150344E+00  0.14790602556E+04  0.14790979413E+04  0.10000000000E+02 0. -1.
</event>
<event>
 5    1  0.1072898E-008  0.3850778E+03  0.7957747E-01  0.3429342E+00
         13   -1    0    0    0    0  0.00000000000E+00  0.00000000000E+00  0.14999999963E+04  0.15000000000E+04  0.10566000000E+00 0. -1.
        994   -1    0    0    0    0 -0.00000000000E+00 -0.00000000000E+00  0.11368683772E-12  0.17120000000E+03  0.17120000000E+03 0.  0.
         13    1    1    2    0    0 -0.20864218816E+01  0.14403233904E+02  0.63765718736E+02  0.65405537634E+02  0.10566000000E+00 0. -1.
        994    1    1    2    0    0 -0.16241785802E+02 -0.19470264233E+02  0.37080433994E+01  0.17310712400E+03  0.17120000000E+03 0.  0.
        998    1    1    2    0    0  0.18328207684E+02  0.50670303291E+01  0.14325262341E+04  0.14326873384E+04  0.10000000000E+02 0. -1.
</event>
<event>
 5    1  0.1072898E-008  0.3830315E+03  0.7957747E-01  0.3438064E+00
         13   -1    0    0    0    0  0.00000000000E+00  0.00000000000E+00  0.14999999963E+04  0.15000000000E+04  0.10566000000E+00 0. -1.
        994   -1    0    0    0    0 -0.00000000000E+00 -0.00000000000E+00  0.11368683772E-12  0.17120000000E+03  0.17120000000E+03 0.  0.
         13    1    1    2    0    0  0.10758010467E+02 -0.35285804315E+01  0.23282822213E+02  0.25889894617E+02  0.10566000000E+00 0. -1.
        994    1    1    2    0    0 -0.12602489915E+02  0.74875077999E+00  0.31383177232E+01  0.17169354216E+03  0.17120000000E+03 0.  0.
        998    1    1    2    0    0  0.18444794479E+01  0.27798296515E+01  0.14735788563E+04  0.14736165632E+04  0.10000000000E+02 0. -1.
</event>
<event>
 5    1  0.1072898E-008  0.3844756E+03  0.7957747E-01  0.3431899E+00
         13   -1    0    0    0    0  0.00000000000E+00  0.00000000000E+00  0.14999999963E+04  0.15000000000E+04  0.10566000000E+00 0.  1.
        994   -1    0    0    0    0 -0.00000000000E+00 -0.00000000000E+00  0.11368683772E-12  0.17120000000E+03  0.17120000000E+03 0.  0.
         13    1    1    2    0    0  0.87396043867E+02  0.99129420482E+02  0.37944027209E+03  0.40179552229E+03  0.10566000000E+00 0.  1.
        994    1    1    2    0    0 -0.76041976625E+02 -0.81276456902E+02  0.66023248754E+02  0.21460837363E+03  0.17120000000E+03 0.  0.
        998    1    1    2    0    0 -0.11354067242E+02 -0.17852963580E+02  0.10545364754E+04  0.10547961041E+04  0.10000000000E+02 0.  1.
</event>
<event>
 5    1  0.1072898E-008  0.3864111E+03  0.7957747E-01  0.3423710E+00
         13   -1    0    0    0    0  0.00000000000E+00  0.00000000000E+00  0.14999999963E+04  0.15000000000E+04  0.10566000000E+00 0. -1.
        994   -1    0    0    0    0 -0.00000000000E+00 -0.00000000000E+00  0.11368683772E-12  0.17120000000E+03  0.17120000000E+03 0.  0.
         13    1    1    2    0    0  0.84968297504E+01 -0.76332890286E+01  0.59592882355E+02  0.60677722507E+02  0.10566000000E+00 0. -1.
        994    1    1    2    0    0 -0.12933257698E+02  0.32910144272E+02  0.50351400738E+01  0.17488607545E+03  0.17120000000E+03 0.  0.
        998    1    1    2    0    0  0.44364279478E+01 -0.25276855243E+02  0.14353719738E+04  0.14356362020E+04  0.10000000000E+02 0. -1.
</event>
<event>
 5    1  0.1072898E-008  0.3841885E+03  0.7957747E-01  0.3433121E+00
         13   -1    0    0    0    0  0.00000000000E+00  0.00000000000E+00  0.14999999963E+04  0.15000000000E+04  0.10566000000E+00 0.  1.
        994   -1    0    0    0    0 -0.00000000000E+00 -0.00000000000E+00  0.11368683772E-12  0.17120000000E+03  0.17120000000E+03 0.  0.
         13    1    1    2    0    0 -0.10619932968E+02 -0.26321247231E+01  0.28071327702E+02  0.30128419471E+02  0.10566000000E+00 0.  1.
        994    1    1    2    0    0  0.14797413888E+02  0.21911196918E+01  0.27717520839E+01  0.17187462603E+03  0.17120000000E+03 0.  0.
        998    1    1    2    0    0 -0.41774809199E+01  0.44100503132E+00  0.14691569165E+04  0.14691969545E+04  0.10000000000E+02 0.  1.
</event>
<event>
 5    1  0.1072898E-008  0.3772800E+03  0.7957747E-01  0.3463088E+00
         13   -1    0    0    0    0  0.00000000000E+00  0.00000000000E+00  0.14999999963E+04  0.15000000000E+04  0.10566000000E+00 0. -1.
        994   -1    0    0    0    0 -0.00000000000E+00 -0.00000000000E+00  0.11368683772E-12  0.17120000000E+03  0.17120000000E+03 0.  0.
         13    1    1    2    0    0 -0.58941577722E+01 -0.46142583493E+02  0.17224220154E+03  0.17841318972E+03  0.10566000000E+00 0. -1.
        994    1    1    2    0    0  0.44352654480E+01  0.47383441448E+02  0.13190949965E+02  0.17818053559E+03  0.17120000000E+03 0.  0.
        998    1    1    2    0    0  0.14588923243E+01 -0.12408579551E+01  0.13145668448E+04  0.13146062747E+04  0.10000000000E+02 0. -1.
</event>
<event>
 5    1  0.1072898E-008  0.3712514E+03  0.7957747E-01  0.3490160E+00
         13   -1    0    0    0    0  0.00000000000E+00  0.00000000000E+00  0.14999999963E+04  0.15000000000E+04  0.10566000000E+00 0. -1.
        994   -1    0    0    0    0 -0.00000000000E+00 -0.00000000000E+00  0.11368683772E-12  0.17120000000E+03  0.17120000000E+03 0.  0.
         13    1    1    2    0    0 -0.30233710375E+02 -0.26588088185E+02  0.85147077677E+02  0.94186196851E+02  0.10566000000E+00 0. -1.
        994    1    1    2    0    0  0.43253990019E+02  0.17157716444E+02  0.16108229057E+02  0.17814098330E+03  0.17120000000E+03 0.  0.
        998    1    1    2    0    0 -0.13020279643E+02  0.94303717405E+01  0.13987446895E+04  0.13988728199E+04  0.10000000000E+02 0. -1.
</event>
<event>
 5    1  0.1072898E-008  0.3835574E+03  0.7957747E-01  0.3435814E+00
         13   -1    0    0    0    0  0.00000000000E+00  0.00000000000E+00  0.14999999963E+04  0.15000000000E+04  0.10566000000E+00 0. -1.
        994   -1    0    0    0    0 -0.00000000000E+00 -0.00000000000E+00  0.11368683772E-12  0.17120000000E+03  0.17120000000E+03 0.  0.
         13    1    1    2    0    0  0.11896574941E+02 -0.50590862398E+01  0.34074719586E+02  0.36444759950E+02  0.10566000000E+00 0. -1.
        994    1    1    2    0    0 -0.14454726690E+02  0.36240937741E+01  0.30821486498E+01  0.17187499184E+03  0.17120000000E+03 0.  0.
        998    1    1    2    0    0  0.25581517490E+01  0.14349924657E+01  0.14628431280E+04  0.14628802482E+04  0.10000000000E+02 0. -1.
</event>
<event>
 5    1  0.1072898E-008  0.3816309E+03  0.7957747E-01  0.3444088E+00
         13   -1    0    0    0    0  0.00000000000E+00  0.00000000000E+00  0.14999999963E+04  0.15000000000E+04  0.10566000000E+00 0. -1.
        994   -1    0    0    0    0 -0.00000000000E+00 -0.00000000000E+00  0.11368683772E-12  0.17120000000E+03  0.17120000000E+03 0.  0.
         13    1    1    2    0    0  0.63654328761E+01 -0.89234321056E+01  0.17409718046E+02  0.20573182124E+02  0.10566000000E+00 0. -1.
        994    1    1    2    0    0  0.15466573325E+01 -0.59149554940E+01  0.34364421452E+01  0.17134359627E+03  0.17120000000E+03 0.  0.
        998    1    1    2    0    0 -0.79120902086E+01  0.14838387600E+02  0.14791538361E+04  0.14792832216E+04  0.10000000000E+02 0. -1.
</event>
<event>
 5    1  0.1072898E-008  0.3836883E+03  0.7957747E-01  0.3435254E+00
         13   -1    0    0    0    0  0.00000000000E+00  0.00000000000E+00  0.14999999963E+04  0.15000000000E+04  0.10566000000E+00 0.  1.
        994   -1    0    0    0    0 -0.00000000000E+00 -0.00000000000E+00  0.11368683772E-12  0.17120000000E+03  0.17120000000E+03 0.  0.
         13    1    1    2    0    0  0.20783278049E+02 -0.11059849677E+02  0.11410849878E+03  0.11651191175E+03  0.10566000000E+00 0.  1.
        994    1    1    2    0    0 -0.22646961772E+02  0.55657568968E+01  0.40810444508E+01  0.17282927255E+03  0.17120000000E+03 0.  0.
        998    1    1    2    0    0  0.18636837229E+01  0.54940927803E+01  0.13818104530E+04  0.13818588157E+04  0.10000000000E+02 0.  1.
</event>
<event>
 5    1  0.1072898E-008  0.3747246E+03  0.7957747E-01  0.3474455E+00
         13   -1    0    0    0    0  0.00000000000E+00  0.00000000000E+00  0.14999999963E+04  0.15000000000E+04  0.10566000000E+00 0.  1.
        994   -1    0    0    0    0 -0.00000000000E+00 -0.00000000000E+00  0.11368683772E-12  0.17120000000E+03  0.17120000000E+03 0.  0.
         13    1    1    2    0    0 -0.86713479057E+02 -0.55198258735E+02  0.46220531715E+03  0.47349745679E+03  0.10566000000E+00 0.  1.
        994    1    1    2    0    0  0.90274921526E+02  0.72352735229E+02  0.53817668315E+02  0.21351876071E+03  0.17120000000E+03 0.  0.
        998    1    1    2    0    0 -0.35614424691E+01 -0.17154476494E+02  0.98397701081E+03  0.98418378250E+03  0.10000000000E+02 0.  1.
</event>
<event>
 5    1  0.1072898E-008  0.3824997E+03  0.7957747E-01  0.3440346E+00
         13   -1    0    0    0    0  0.00000000000E+00  0.00000000000E+00  0.14999999963E+04  0.15000000000E+04  0.10566000000E+00 0. -1.
        994   -1    0    0    0    0 -0.00000000000E+00 -0.00000000000E+00  0.11368683772E-12  0.17120000000E+03  0.17120000000E+03 0.  0.
         13    1    1    2    0    0 -0.32885840759E+02  0.33119537162E+02  0.51700695201E+02  0.69651671283E+02  0.10566000000E+00 0. -1.
        994    1    1    2    0    0  0.44938868549E+02 -0.35750685592E+02  0.29867524959E+02  0.18302765494E+03  0.17120000000E+03 0.  0.
        998    1    1    2    0    0 -0.12053027790E+02  0.26311484299E+01  0.14184317761E+04  0.14185206738E+04  0.10000000000E+02 0. -1.
</event>
<event>
 5    1  0.1072898E-008  0.3813530E+03  0.7957747E-01  0.3445288E+00
         13   -1    0    0    0    0  0.00000000000E+00  0.00000000000E+00  0.14999999963E+04  0.15000000000E+04  0.10566000000E+00 0. -1.
        994   -1    0    0    0    0 -0.00000000000E+00 -0.00000000000E+00  0.11368683772E-12  0.17120000000E+03  0.17120000000E+03 0.  0.
         13    1    1    2    0    0  0.14566025387E+02  0.21612956277E+02  0.13959894513E+03  0.14201114611E+03  0.10566000000E+00 0. -1.
        994    1    1    2    0    0  0.18779512533E+02  0.30065256781E+02  0.76449953574E+01  0.17499850202E+03  0.17120000000E+03 0.  0.
        998    1    1    2    0    0 -0.33345537920E+02 -0.51678213058E+02  0.13527560558E+04  0.13541903519E+04  0.10000000000E+02 0. -1.
</event>
<event>
 5    1  0.1072898E-008  0.3813123E+03  0.7957747E-01  0.3445464E+00
         13   -1    0    0    0    0  0.00000000000E+00  0.00000000000E+00  0.14999999963E+04  0.15000000000E+04  0.10566000000E+00 0. -1.
        994   -1    0    0    0    0 -0.00000000000E+00 -0.00000000000E+00  0.11368683772E-12  0.17120000000E+03  0.17120000000E+03 0.  0.
         13    1    1    2    0    0  0.12091691482E+02 -0.28838731940E+02  0.13385081146E+03  0.13745520127E+03  0.10566000000E+00 0. -1.
        994    1    1    2    0    0 -0.74746691014E+01  0.24242719004E+02  0.56172760324E+01  0.17316054370E+03  0.17120000000E+03 0.  0.
        998    1    1    2    0    0 -0.46170223803E+01  0.45960129359E+01  0.13605319088E+04  0.13605842550E+04  0.10000000000E+02 0. -1.
</event>
<event>
 5    1  0.1072898E-008  0.3815497E+03  0.7957747E-01  0.3444438E+00
         13   -1    0    0    0    0  0.00000000000E+00  0.00000000000E+00  0.14999999963E+04  0.15000000000E+04  0.10566000000E+00 0. -1.
        994   -1    0    0    0    0 -0.00000000000E+00 -0.00000000000E+00  0.11368683772E-12  0.17120000000E+03  0.17120000000E+03 0.  0.
         13    1    1    2    0    0  0.32741259964E+01 -0.17337935845E+02  0.14048562887E+01  0.17700528399E+02  0.10566000000E+00 0. -1.
        994    1    1    2    0    0  0.12420394767E+02  0.11155321515E+02  0.18197492783E+02  0.17297195191E+03  0.17120000000E+03 0.  0.
        998    1    1    2    0    0 -0.15694520763E+02  0.61826143295E+01  0.14803976472E+04  0.14805275197E+04  0.10000000000E+02 0. -1.
</event>
<event>
 5    1  0.1072898E-008  0.3858873E+03  0.7957747E-01  0.3425918E+00
         13   -1    0    0    0    0  0.00000000000E+00  0.00000000000E+00  0.14999999963E+04  0.15000000000E+04  0.10566000000E+00 0.  1.
        994   -1    0    0    0    0 -0.00000000000E+00 -0.00000000000E+00  0.11368683772E-12  0.17120000000E+03  0.17120000000E+03 0.  0.
         13    1    1    2    0    0 -0.13743966769E+02 -0.60692466921E+01  0.90344699473E+02  0.91585524320E+02  0.10566000000E+00 0.  1.
        994    1    1    2    0    0  0.15777912564E+02  0.50074173291E+01  0.20893231622E+01  0.17201111018E+03  0.17120000000E+03 0.  0.
        998    1    1    2    0    0 -0.20339457950E+01  0.10618293629E+01  0.14075659736E+04  0.14076033655E+04  0.10000000000E+02 0.  0.
</event>
<event>
 5    1  0.1072898E-008  0.3819493E+03  0.7957747E-01  0.3442714E+00
         13   -1    0    0    0    0  0.00000000000E+00  0.00000000000E+00  0.14999999963E+04  0.15000000000E+04  0.10566000000E+00 0. -1.
        994   -1    0    0    0    0 -0.00000000000E+00 -0.00000000000E+00  0.11368683772E-12  0.17120000000E+03  0.17120000000E+03 0.  0.
         13    1    1    2    0    0  0.22505077665E+02  0.29079011133E+02  0.22136432646E+03  0.22439751247E+03  0.10566000000E+00 0. -1.
        994    1    1    2    0    0 -0.27661973831E+02 -0.13557301833E+01  0.57042063603E+01  0.17351945358E+03  0.17120000000E+03 0.  0.
        998    1    1    2    0    0  0.51568961656E+01 -0.27723280950E+02  0.12729314635E+04  0.12732830339E+04  0.10000000000E+02 0. -1.
</event>
<event>
 5    1  0.1072898E-008  0.3694692E+03  0.7957747E-01  0.3498334E+00
         13   -1    0    0    0    0  0.00000000000E+00  0.00000000000E+00  0.14999999963E+04  0.15000000000E+04  0.10566000000E+00 0.  1.
        994   -1    0    0    0    0 -0.00000000000E+00 -0.00000000000E+00  0.11368683772E-12  0.17120000000E+03  0.17120000000E+03 0.  0.
         13    1    1    2    0    0 -0.27452516268E+02  0.55254744631E+02  0.15575529615E+03  0.16753044767E+03  0.10566000000E+00 0.  1.
        994    1    1    2    0    0  0.30057541121E+02 -0.56768284395E+02  0.25198441571E+02  0.18458194752E+03  0.17120000000E+03 0.  0.
        998    1    1    2    0    0 -0.26050248533E+01  0.15135397646E+01  0.13190462586E+04  0.13190876048E+04  0.10000000000E+02 0.  1.
</event>
<event>
 5    1  0.1072898E-008  0.3785571E+03  0.7957747E-01  0.3457465E+00
         13   -1    0    0    0    0  0.00000000000E+00  0.00000000000E+00  0.14999999963E+04  0.15000000000E+04  0.10566000000E+00 0. -1.
        994   -1    0    0    0    0 -0.00000000000E+00 -0.00000000000E+00  0.11368683772E-12  0.17120000000E+03  0.17120000000E+03 0.  0.
         13    1    1    2    0    0  0.29099101781E+02  0.46922976421E+01  0.89259632011E+02  0.94000364108E+02  0.10566000000E+00 0. -1.
        994    1    1    2    0    0 -0.10233575082E+02 -0.26580296180E+02  0.75929826620E+01  0.17371911694E+03  0.17120000000E+03 0.  0.
        998    1    1    2    0    0 -0.18865526699E+02  0.21887998538E+02  0.14031473816E+04  0.14034805190E+04  0.10000000000E+02 0. -1.
</event>
<event>
 5    1  0.1072898E-008  0.3788832E+03  0.7957747E-01  0.3456036E+00
         13   -1    0    0    0    0  0.00000000000E+00  0.00000000000E+00  0.14999999963E+04  0.15000000000E+04  0.10566000000E+00 0. -1.
        994   -1    0    0    0    0 -0.00000000000E+00 -0.00000000000E+00  0.11368683772E-12  0.17120000000E+03  0.17120000000E+03 0.  0.
         13    1    1    2    0    0 -0.12453022678E+02 -0.50132567498E+02  0.25481676708E+03  0.25999990009E+03  0.10566000000E+00 0. -1.
        994    1    1    2    0    0  0.45870955976E+02  0.34585875554E+02  0.15852391902E+02  0.18127621388E+03  0.17120000000E+03 0.  0.
        998    1    1    2    0    0 -0.33417933298E+02  0.15546691944E+02  0.12293308373E+04  0.12299238860E+04  0.10000000000E+02 0. -1.
</event>
<event>
 5    1  0.1072898E-008  0.3706314E+03  0.7957747E-01  0.3492994E+00
         13   -1    0    0    0    0  0.00000000000E+00  0.00000000000E+00  0.14999999963E+04  0.15000000000E+04  0.10566000000E+00 0. -1.
        994   -1    0    0    0    0 -0.00000000000E+00 -0.00000000000E+00  0.11368683772E-12  0.17120000000E+03  0.17120000000E+03 0.  0.
         13    1    1    2    0    0 -0.13282935074E+03  0.55729304369E+01  0.65115308999E+03  0.66458637643E+03  0.10566000000E+00 0. -1.
        994    1    1    2    0    0  0.11732518049E+03  0.76240564844E+01  0.58259719412E+02  0.21570108743E+03  0.17120000000E+03 0.  0.
        998    1    1    2    0    0  0.15504170252E+02 -0.13196986921E+02  0.79058718688E+03  0.79091253614E+03  0.10000000000E+02 0.  1.
</event>
<event>
 5    1  0.1072898E-008  0.3694855E+03  0.7957747E-01  0.3498259E+00
         13   -1    0    0    0    0  0.00000000000E+00  0.00000000000E+00  0.14999999963E+04  0.15000000000E+04  0.10566000000E+00 0.  1.
        994   -1    0    0    0    0 -0.00000000000E+00 -0.00000000000E+00  0.11368683772E-12  0.17120000000E+03  0.17120000000E+03 0.  0.
         13    1    1    2    0    0 -0.58355261229E+02  0.66378345604E+02  0.49829164593E+03  0.50606916212E+03  0.10566000000E+00 0.  1.
        994    1    1    2    0    0  0.61056083973E+02  0.76651862676E+01  0.22771115710E+02  0.18334275056E+03  0.17120000000E+03 0.  0.
        998    1    1    2    0    0 -0.27008227434E+01 -0.74043531872E+02  0.97893723464E+03  0.98178808733E+03  0.10000000000E+02 0.  1.
</event>
<event>
 5    1  0.1072898E-008  0.3822521E+03  0.7957747E-01  0.3441410E+00
         13   -1    0    0    0    0  0.00000000000E+00  0.00000000000E+00  0.14999999963E+04  0.15000000000E+04  0.10566000000E+00 0.  1.
        994   -1    0    0    0    0 -0.00000000000E+00 -0.00000000000E+00  0.11368683772E-12  0.17120000000E+03  0.17120000000E+03 0.  0.
         13    1    1    2    0    0  0.82175450153E+01  0.11841061457E+02  0.35203365943E+02  0.38039807048E+02  0.10566000000E+00 0.  1.
        994    1    1    2    0    0 -0.75728479751E+01  0.92377025584E+01  0.34741788090E+01  0.17165137079E+03  0.17120000000E+03 0.  0.
        998    1    1    2    0    0 -0.64469704015E+00 -0.21078764016E+02  0.14613224515E+04  0.14615088222E+04  0.10000000000E+02 0.  1.
</event>
<event>
 5    1  0.1072898E-008  0.3774795E+03  0.7957747E-01  0.3462207E+00
         13   -1    0    0    0    0  0.00000000000E+00  0.00000000000E+00  0.14999999963E+04  0.15000000000E+04  0.10566000000E+00 0.  1.
        994   -1    0    0    0    0 -0.00000000000E+00 -0.00000000000E+00  0.11368683772E-12  0.17120000000E+03  0.17120000000E+03 0.  0.
         13    1    1    2    0    0  0.16202069992E+02  0.62365715747E+02  0.31658256177E+03  0.32307355069E+03  0.10566000000E+00 0.  1.
        994    1    1    2    0    0 -0.62557753499E+02 -0.49061414554E+02  0.27022819299E+02  0.19068342268E+03  0.17120000000E+03 0.  0.
        998    1    1    2    0    0  0.46355683507E+02 -0.13304301192E+02  0.11563946152E+04  0.11574430266E+04  0.10000000000E+02 0.  1.
</event>
<event>
 5    1  0.1072898E-008  0.3814545E+03  0.7957747E-01  0.3444850E+00
         13   -1    0    0    0    0  0.00000000000E+00  0.00000000000E+00  0.14999999963E+04  0.15000000000E+04  0.10566000000E+00 0. -1.
        994   -1    0    0    0    0 -0.00000000000E+00 -0.00000000000E+00  0.11368683772E-12  0.17120000000E+03  0.17120000000E+03 0.  0.
         13    1    1    2    0    0 -0.21927102962E+02  0.11472226414E+03  0.61616971300E+03  0.62714202707E+03  0.10566000000E+00 0. -1.
        994    1    1    2    0    0  0.40012585539E+01 -0.15836981574E+03  0.91967974566E+02  0.25072805378E+03  0.17120000000E+03 0.  0.
        998    1    1    2    0    0  0.17925844409E+02  0.43647551596E+02  0.79186230871E+03  0.79332991915E+03  0.10000000000E+02 0.  1.
</event>
<event>
 5    1  0.1072898E-008  0.3859068E+03  0.7957747E-01  0.3425835E+00
         13   -1    0    0    0    0  0.00000000000E+00  0.00000000000E+00  0.14999999963E+04  0.15000000000E+04  0.10566000000E+00 0.  1.
        994   -1    0    0    0    0 -0.00000000000E+00 -0.00000000000E+00  0.11368683772E-12  0.17120000000E+03  0.17120000000E+03 0.  0.
         13    1    1    2    0    0  0.23382244058E+00 -0.13544266249E+02  0.69831269039E+02  0.71133108471E+02  0.10566000000E+00 0.  1.
        994    1    1    2    0    0  0.18538055852E+02  0.25444701208E+02  0.44371606177E+01  0.17412702469E+03  0.17120000000E+03 0.  0.
        998    1    1    2    0    0 -0.18771878293E+02 -0.11900434958E+02  0.14257315666E+04  0.14259398668E+04  0.10000000000E+02 0.  1.
</event>
<event>
 5    1  0.1163337E-008  0.3860184E+03  0.7957747E-01  0.3425365E+00
         13   -1    0    0    0    0  0.00000000000E+00  0.00000000000E+00  0.14999999963E+04  0.15000000000E+04  0.10566000000E+00 0. -1.
        994   -1    0    0    0    0 -0.00000000000E+00 -0.00000000000E+00  0.11368683772E-12  0.17120000000E+03  0.17120000000E+03 0.  0.
         13    1    1    2    0    0  0.97594117835E+01  0.88155842024E+01  0.78735776360E+02  0.79826651479E+02  0.10566000000E+00 0. -1.
        994    1    1    2    0    0 -0.95457177606E+01 -0.19033728984E+00  0.14242373883E+01  0.17147193767E+03  0.17120000000E+03 0.  0.
        998    1    1    2    0    0 -0.21369402294E+00 -0.86252469125E+01  0.14198399825E+04  0.14199014109E+04  0.10000000000E+02 0. -1.
</event>
<event>
 5    1  0.1072898E-008  0.3846428E+03  0.7957747E-01  0.3431188E+00
         13   -1    0    0    0    0  0.00000000000E+00  0.00000000000E+00  0.14999999963E+04  0.15000000000E+04  0.10566000000E+00 0. -1.
        994   -1    0    0    0    0 -0.00000000000E+00 -0.00000000000E+00  0.11368683772E-12  0.17120000000E+03  0.17120000000E+03 0.  0.
         13    1    1    2    0    0 -0.29277583692E+01  0.13483762378E+02  0.54211655530E+02  0.55940132072E+02  0.10566000000E+00 0. -1.
        994    1    1    2    0    0 -0.57009343811E+01 -0.46089575083E+01  0.19845405650E+01  0.17136837965E+03  0.17120000000E+03 0.  0.
        998    1    1    2    0    0  0.86286927502E+01 -0.88748048696E+01  0.14438038002E+04  0.14438914883E+04  0.10000000000E+02 0. -1.
</event>
<event>
 5    1  0.1072898E-008  0.3775394E+03  0.7957747E-01  0.3461943E+00
         13   -1    0    0    0    0  0.00000000000E+00  0.00000000000E+00  0.14999999963E+04  0.15000000000E+04  0.10566000000E+00 0. -1.
        994   -1    0    0    0    0 -0.00000000000E+00 -0.00000000000E+00  0.11368683772E-12  0.17120000000E+03  0.17120000000E+03 0.  0.
         13    1    1    2    0    0  0.11574365775E+02 -0.43474822465E+01  0.11762754182E+02  0.17065757967E+02  0.10566000000E+00 0. -1.
        994    1    1    2    0    0 -0.87083660944E+01  0.79380714426E+01  0.58485180962E+01  0.17170467024E+03  0.17120000000E+03 0.  0.
        998    1    1    2    0    0 -0.28659996811E+01 -0.35905891961E+01  0.14823887240E+04  0.14824295718E+04  0.10000000000E+02 0. -1.
</event>
<event>
 5    1  0.1072898E-008  0.3824234E+03  0.7957747E-01  0.3440674E+00
         13   -1    0    0    0    0  0.00000000000E+00  0.00000000000E+00  0.14999999963E+04  0.15000000000E+04  0.10566000000E+00 0.  1.
        994   -1    0    0    0    0 -0.00000000000E+00 -0.00000000000E+00  0.11368683772E-12  0.17120000000E+03  0.17120000000E+03 0.  0.
         13    1    1    2    0    0  0.10172607476E+01 -0.22628422161E+02  0.85590138732E+02  0.88536790777E+02  0.10566000000E+00 0.  1.
        994    1    1    2    0    0 -0.51129512154E+01  0.17136812856E+02  0.39761505170E+01  0.17217741547E+03  0.17120000000E+03 0.  0.
        998    1    1    2    0    0  0.40956904678E+01  0.54916093049E+01  0.14104337070E+04  0.14104857938E+04  0.10000000000E+02 0.  1.
</event>
<event>
 5    1  0.1072898E-008  0.3812551E+03  0.7957747E-01  0.3445711E+00
         13   -1    0    0    0    0  0.00000000000E+00  0.00000000000E+00  0.14999999963E+04  0.15000000000E+04  0.10566000000E+00 0. -1.
        994   -1    0    0    0    0 -0.00000000000E+00 -0.00000000000E+00  0.11368683772E-12  0.17120000000E+03  0.17120000000E+03 0.  0.
         13    1    1    2    0    0 -0.14139934432E+02 -0.13681742111E+01  0.27193514794E+02  0.30680744080E+02  0.10566000000E+00 0. -1.
        994    1    1    2    0    0  0.12400880164E+02  0.57262708030E+01  0.41222599647E+01  0.17179349532E+03  0.17120000000E+03 0.  0.
        998    1    1    2    0    0  0.17390542681E+01 -0.43580965918E+01  0.14686842215E+04  0.14687257606E+04  0.10000000000E+02 0. -1.
</event>
<event>
 5    1  0.1072898E-008  0.3808676E+03  0.7957747E-01  0.3447389E+00
         13   -1    0    0    0    0  0.00000000000E+00  0.00000000000E+00  0.14999999963E+04  0.15000000000E+04  0.10566000000E+00 0.  1.
        994   -1    0    0    0    0 -0.00000000000E+00 -0.00000000000E+00  0.11368683772E-12  0.17120000000E+03  0.17120000000E+03 0.  0.
         13    1    1    2    0    0  0.16241089643E+02  0.58684044605E+01  0.39540309009E+02  0.43146939222E+02  0.10566000000E+00 0.  1.
        994    1    1    2    0    0 -0.69876419933E+01 -0.23765008829E+01  0.38774161142E+01  0.17140288578E+03  0.17120000000E+03 0.  0.
        998    1    1    2    0    0 -0.92534476495E+01 -0.34919035776E+01  0.14565822712E+04  0.14566501750E+04  0.10000000000E+02 0.  1.
</event>
<event>
 5    1  0.1072898E-008  0.3824481E+03  0.7957747E-01  0.3440568E+00
         13   -1    0    0    0    0  0.00000000000E+00  0.00000000000E+00  0.14999999963E+04  0.15000000000E+04  0.10566000000E+00 0. -1.
        994   -1    0    0    0    0 -0.00000000000E+00 -0.00000000000E+00  0.11368683772E-12  0.17120000000E+03  0.17120000000E+03 0.  0.
         13    1    1    2    0    0  0.39730339877E+02  0.34772642399E+01  0.23194378172E+03  0.23534765840E+03  0.10566000000E+00 0. -1.
        994    1    1    2    0    0 -0.40842856188E+02 -0.85022211333E+00  0.84563663411E+01  0.17620956816E+03  0.17120000000E+03 0.  0.
        998    1    1    2    0    0  0.11125163117E+01 -0.26270421266E+01  0.12595998482E+04  0.12596427734E+04  0.10000000000E+02 0.  0.
</event>
<event>
 5    1  0.1072898E-008  0.3765432E+03  0.7957747E-01  0.3466350E+00
         13   -1    0    0    0    0  0.00000000000E+00  0.00000000000E+00  0.14999999963E+04  0.15000000000E+04  0.10566000000E+00 0. -1.
        994   -1    0    0    0    0 -0.00000000000E+00 -0.00000000000E+00  0.11368683772E-12  0.17120000000E+03  0.17120000000E+03 0.  0.
         13    1    1    2    0    0  0.99059384824E+01  0.25574904849E+01  0.62815400461E+01  0.12005718812E+02  0.10566000000E+00 0. -1.
        994    1    1    2    0    0 -0.24744578206E+01  0.65167578659E+01  0.60527485738E+01  0.17144872948E+03  0.17120000000E+03 0.  0.
        998    1    1    2    0    0 -0.74314806618E+01 -0.90742483508E+01  0.14876657077E+04  0.14877455517E+04  0.10000000000E+02 0. -1.
</event>
<event>
 5    1  0.1072898E-008  0.3840669E+03  0.7957747E-01  0.3433639E+00
         13   -1    0    0    0    0  0.00000000000E+00  0.00000000000E+00  0.14999999963E+04  0.15000000000E+04  0.10566000000E+00 0.  1.
        994   -1    0    0    0    0 -0.00000000000E+00 -0.00000000000E+00  0.11368683772E-12  0.17120000000E+03  0.17120000000E+03 0.  0.
         13    1    1    2    0    0  0.10175258787E+02 -0.11910964144E+02  0.59432445026E+02  0.61462457192E+02  0.10566000000E+00 0.  1.
        994    1    1    2    0    0 -0.10609395579E+02 -0.62485509395E+00  0.24667719366E+01  0.17154729576E+03  0.17120000000E+03 0.  0.
        998    1    1    2    0    0  0.43413679219E+00  0.12535819238E+02  0.14381007793E+04  0.14381902470E+04  0.10000000000E+02 0.  1.
</event>
<event>
 5    1  0.1072898E-008  0.3711521E+03  0.7957747E-01  0.3490613E+00
         13   -1    0    0    0    0  0.00000000000E+00  0.00000000000E+00  0.14999999963E+04  0.15000000000E+04  0.10566000000E+00 0. -1.
        994   -1    0    0    0    0 -0.00000000000E+00 -0.00000000000E+00  0.11368683772E-12  0.17120000000E+03  0.17120000000E+03 0.  0.
         13    1    1    2    0    0 -0.18595642194E+02 -0.19127749889E+02  0.36788459572E+02  0.45443048381E+02  0.10566000000E+00 0. -1.
        994    1    1    2    0    0  0.19157114033E+02  0.17745643953E+02  0.11020143405E+02  0.17353036178E+03  0.17120000000E+03 0.  0.
        998    1    1    2    0    0 -0.56147183834E+00  0.13821059356E+01  0.14521913933E+04  0.14522265898E+04  0.10000000000E+02 0.  0.
</event>
<event>
 5    1  0.1072898E-008  0.3833117E+03  0.7957747E-01  0.3436864E+00
         13   -1    0    0    0    0  0.00000000000E+00  0.00000000000E+00  0.14999999963E+04  0.15000000000E+04  0.10566000000E+00 0. -1.
        994   -1    0    0    0    0 -0.00000000000E+00 -0.00000000000E+00  0.11368683772E-12  0.17120000000E+03  0.17120000000E+03 0.  0.
         13    1    1    2    0    0 -0.10342893604E+02 -0.10417636857E+02  0.42347055523E+02  0.44819492203E+02  0.10566000000E+00 0. -1.
        994    1    1    2    0    0  0.19066219136E+02 -0.80545228164E+00  0.36758106628E+01  0.17229950972E+03  0.17120000000E+03 0.  0.
        998    1    1    2    0    0 -0.87233255316E+01  0.11223089139E+02  0.14539771301E+04  0.14540809981E+04  0.10000000000E+02 0. -1.
</event>
<event>
 5    1  0.1072898E-008  0.3757951E+03  0.7957747E-01  0.3469675E+00
         13   -1    0    0    0    0  0.00000000000E+00  0.00000000000E+00  0.14999999963E+04  0.15000000000E+04  0.10566000000E+00 0. -1.
        994   -1    0    0    0    0 -0.00000000000E+00 -0.00000000000E+00  0.11368683772E-12  0.17120000000E+03  0.17120000000E+03 0.  0.
         13    1    1    2    0    0 -0.23659727669E+02 -0.13103940540E+01  0.40680034832E+02  0.47078405282E+02  0.10566000000E+00 0. -1.
        994    1    1    2    0    0  0.28439535243E+02  0.40411598870E+01  0.90733933871E+01  0.17383010270E+03  0.17120000000E+03 0.  0.
        998    1    1    2    0    0 -0.47798075739E+01 -0.27307658330E+01  0.14502465681E+04  0.14502914920E+04  0.10000000000E+02 0. -1.
</event>
<event>
 5    1  0.1072898E-008  0.3792117E+03  0.7957747E-01  0.3454598E+00
         13   -1    0    0    0    0  0.00000000000E+00  0.00000000000E+00  0.14999999963E+04  0.15000000000E+04  0.10566000000E+00 0.  1.
        994   -1    0    0    0    0 -0.00000000000E+00 -0.00000000000E+00  0.11368683772E-12  0.17120000000E+03  0.17120000000E+03 0.  0.
         13    1    1    2    0    0  0.25934777447E+02 -0.27397557061E+02  0.18310789681E+03  0.18695387627E+03  0.10566000000E+00 0.  1.
        994    1    1    2    0    0  0.60861869884E+01  0.36783532077E+01  0.47011081160E+01  0.17141211268E+03  0.17120000000E+03 0.  0.
        998    1    1    2    0    0 -0.32020964435E+02  0.23719203853E+02  0.13121909914E+04  0.13128340111E+04  0.10000000000E+02 0.  1.
</event>
<event>
 5    1  0.1072898E-008  0.3829169E+03  0.7957747E-01  0.3438555E+00
         13   -1    0    0    0    0  0.00000000000E+00  0.00000000000E+00  0.14999999963E+04  0.15000000000E+04  0.10566000000E+00 0.  1.
        994   -1    0    0    0    0 -0.00000000000E+00 -0.00000000000E+00  0.11368683772E-12  0.17120000000E+03  0.17120000000E+03 0.  0.
         13    1    1    2    0    0  0.72934358727E+01  0.24149569886E+02  0.10806304952E+03  0.11096859812E+03  0.10566000000E+00 0.  1.
        994    1    1    2    0    0 -0.27566836360E+01 -0.30360644882E+02  0.57511233885E+01  0.17398817052E+03  0.17120000000E+03 0.  0.
        998    1    1    2    0    0 -0.45367522367E+01  0.62110749964E+01  0.13861858234E+04  0.13862432314E+04  0.10000000000E+02 0. -1.
</event>
<event>
 5    1  0.1072898E-008  0.3779605E+03  0.7957747E-01  0.3460087E+00
         13   -1    0    0    0    0  0.00000000000E+00  0.00000000000E+00  0.14999999963E+04  0.15000000000E+04  0.10566000000E+00 0.  1.
        994   -1    0    0    0    0 -0.00000000000E+00 -0.00000000000E+00  0.11368683772E-12  0.17120000000E+03  0.17120000000E+03 0.  0.
         13    1    1    2    0    0 -0.11191023307E+02  0.85828461344E+01  0.17101738236E+02  0.22167202465E+02  0.10566000000E+00 0.  1.
        994    1    1    2    0    0  0.43440113411E+01 -0.77305384328E+01  0.54309119062E+01  0.17151549919E+03  0.17120000000E+03 0.  0.
        998    1    1    2    0    0  0.68470119656E+01 -0.85230770165E+00  0.14774673461E+04  0.14775172983E+04  0.10000000000E+02 0.  1.
</event>
<event>
 5    1  0.1072898E-008  0.3812267E+03  0.7957747E-01  0.3445835E+00
         13   -1    0    0    0    0  0.00000000000E+00  0.00000000000E+00  0.14999999963E+04  0.15000000000E+04  0.10566000000E+00 0.  1.
        994   -1    0    0    0    0 -0.00000000000E+00 -0.00000000000E+00  0.11368683772E-12  0.17120000000E+03  0.17120000000E+03 0.  0.
         13    1    1    2    0    0  0.16078616912E+02  0.10234225935E+02  0.51952737129E+02  0.55338588359E+02  0.10566000000E+00 0.  1.
        994    1    1    2    0    0 -0.61070867635E+01  0.10203896745E+00  0.36394406608E+01  0.17134757789E+03  0.17120000000E+03 0.  0.
        998    1    1    2    0    0 -0.99715301481E+01 -0.10336264903E+02  0.14444078185E+04  0.14445138338E+04  0.10000000000E+02 0.  1.
</event>
<event>
 5    1  0.1072898E-008  0.3833128E+03  0.7957747E-01  0.3436859E+00
         13   -1    0    0    0    0  0.00000000000E+00  0.00000000000E+00  0.14999999963E+04  0.15000000000E+04  0.10566000000E+00 0. -1.
        994   -1    0    0    0    0 -0.00000000000E+00 -0.00000000000E+00  0.11368683772E-12  0.17120000000E+03  0.17120000000E+03 0.  0.
         13    1    1    2    0    0  0.15184443813E+01 -0.11784209573E+02  0.27635239561E+02  0.30081404526E+02  0.10566000000E+00 0. -1.
        994    1    1    2    0    0 -0.27434599411E+01  0.91301444869E+01  0.27707083936E+01  0.17148761744E+03  0.17120000000E+03 0.  0.
        998    1    1    2    0    0  0.12250155598E+01  0.26540650859E+01  0.14695940483E+04  0.14696309780E+04  0.10000000000E+02 0. -1.
</event>
<event>
 5    1  0.1072898E-008  0.3832881E+03  0.7957747E-01  0.3436965E+00
         13   -1    0    0    0    0  0.00000000000E+00  0.00000000000E+00  0.14999999963E+04  0.15000000000E+04  0.10566000000E+00 0. -1.
        994   -1    0    0    0    0 -0.00000000000E+00 -0.00000000000E+00  0.11368683772E-12  0.17120000000E+03  0.17120000000E+03 0.  0.
         13    1    1    2    0    0 -0.20563172763E+02  0.17764052412E+02  0.15555094747E+03  0.15790666248E+03  0.10566000000E+00 0. -1.
        994    1    1    2    0    0  0.10803035247E+01 -0.14690880986E+02  0.32003633113E+01  0.17186236169E+03  0.17120000000E+03 0.  0.
        998    1    1    2    0    0  0.19482869238E+02 -0.30731714257E+01  0.13412486855E+04  0.13414309758E+04  0.10000000000E+02 0. -1.
</event>
<event>
 5    1  0.1219013E-008  0.3849975E+03  0.7957747E-01  0.3429683E+00
         13   -1    0    0    0    0  0.00000000000E+00  0.00000000000E+00  0.14999999963E+04  0.15000000000E+04  0.10566000000E+00 0.  1.
        994   -1    0    0    0    0 -0.00000000000E+00 -0.00000000000E+00  0.11368683772E-12  0.17120000000E+03  0.17120000000E+03 0.  0.
         13    1    1    2    0    0 -0.98243798371E+00  0.12647904154E+02  0.47879128015E+02  0.49531371144E+02  0.10566000000E+00 0.  1.
        994    1    1    2    0    0  0.29225523669E+01 -0.13545120963E+02  0.22630751959E+01  0.17177477441E+03  0.17120000000E+03 0.  0.
        998    1    1    2    0    0 -0.19401143832E+01  0.89721680976E+00  0.14498577931E+04  0.14498938544E+04  0.10000000000E+02 0.  1.
</event>
<event>
 5    1  0.1072898E-008  0.3842845E+03  0.7957747E-01  0.3432712E+00
         13   -1    0    0    0    0  0.00000000000E+00  0.00000000000E+00  0.14999999963E+04  0.15000000000E+04  0.10566000000E+00 0.  1.
        994   -1    0    0    0    0 -0.00000000000E+00 -0.00000000000E+00  0.11368683772E-12  0.17120000000E+03  0.17120000000E+03 0.  0.
         13    1    1    2    0    0 -0.13913614984E+02  0.83499182105E+01  0.64929827490E+02  0.66926851696E+02  0.10566000000E+00 0.  1.
        994    1    1    2    0    0  0.10828712180E+01 -0.25065049306E+02  0.40633176331E+01  0.17307622557E+03  0.17120000000E+03 0.  0.
        998    1    1    2    0    0  0.12830743766E+02  0.16715131096E+02  0.14310068512E+04  0.14311969227E+04  0.10000000000E+02 0.  1.
</event>
<event>
 5    1  0.1072898E-008  0.3824958E+03  0.7957747E-01  0.3440363E+00
         13   -1    0    0    0    0  0.00000000000E+00  0.00000000000E+00  0.14999999963E+04  0.15000000000E+04  0.10566000000E+00 0.  1.
        994   -1    0    0    0    0 -0.00000000000E+00 -0.00000000000E+00  0.11368683772E-12  0.17120000000E+03  0.17120000000E+03 0.  0.
         13    1    1    2    0    0  0.46059497310E+00 -0.10809487785E+02  0.19224652030E+02  0.22060271613E+02  0.10566000000E+00 0.  1.
        994    1    1    2    0    0 -0.39247561911E+00  0.74500385845E+01  0.30631192022E+01  0.17138984746E+03  0.17120000000E+03 0.  0.
        998    1    1    2    0    0 -0.68119353990E-01  0.33594492006E+01  0.14777122250E+04  0.14777498809E+04  0.10000000000E+02 0.  1.
</event>
<event>
 5    1  0.1072898E-008  0.3801619E+03  0.7957747E-01  0.3450454E+00
         13   -1    0    0    0    0  0.00000000000E+00  0.00000000000E+00  0.14999999963E+04  0.15000000000E+04  0.10566000000E+00 0. -1.
        994   -1    0    0    0    0 -0.00000000000E+00 -0.00000000000E+00  0.11368683772E-12  0.17120000000E+03  0.17120000000E+03 0.  0.
         13    1    1    2    0    0 -0.87788709810E+01 -0.23015019140E+02  0.10470225420E+03  0.10756083339E+03  0.10566000000E+00 0. -1.
        994    1    1    2    0    0 -0.33602217132E+02 -0.38001220248E+02  0.12697162204E+02  0.17900798771E+03  0.17120000000E+03 0.  0.
        998    1    1    2    0    0  0.42381088113E+02  0.61016239388E+02  0.13826005799E+04  0.13846311789E+04  0.10000000000E+02 0. -1.
</event>
<event>
 5    1  0.1072898E-008  0.3797160E+03  0.7957747E-01  0.3452396E+00
         13   -1    0    0    0    0  0.00000000000E+00  0.00000000000E+00  0.14999999963E+04  0.15000000000E+04  0.10566000000E+00 0.  1.
        994   -1    0    0    0    0 -0.00000000000E+00 -0.00000000000E+00  0.11368683772E-12  0.17120000000E+03  0.17120000000E+03 0.  0.
         13    1    1    2    0    0  0.36592163887E+02  0.84716485705E+01  0.13423968470E+03  0.13939533493E+03  0.10566000000E+00 0.  1.
        994    1    1    2    0    0 -0.56078637646E+02 -0.84201096691E+01  0.15112625908E+02  0.18097940023E+03  0.17120000000E+03 0.  0.
        998    1    1    2    0    0  0.19486473759E+02 -0.51538901380E-01  0.13506476857E+04  0.13508252648E+04  0.10000000000E+02 0.  1.
</event>
<event>
 5    1  0.1072898E-008  0.3801717E+03  0.7957747E-01  0.3450411E+00
         13   -1    0    0    0    0  0.00000000000E+00  0.00000000000E+00  0.14999999963E+04  0.15000000000E+04  0.10566000000E+00 0.  1.
        994   -1    0    0    0    0 -0.00000000000E+00 -0.00000000000E+00  0.11368683772E-12  0.17120000000E+03  0.17120000000E+03 0.  0.
         13    1    1    2    0    0  0.75723478028E+01 -0.83793325860E+01  0.13913883297E+02  0.17920964770E+02  0.10566000000E+00 0.  1.
        994    1    1    2    0    0 -0.51350805653E+01  0.10307102717E+02  0.44896556234E+01  0.17164557211E+03  0.17120000000E+03 0.  0.
        998    1    1    2    0    0 -0.24372672375E+01 -0.19277701308E+01  0.14815964574E+04  0.14816334631E+04  0.10000000000E+02 0.  1.
</event>
<event>
 5    1  0.1072898E-008  0.3858126E+03  0.7957747E-01  0.3426233E+00
         13   -1    0    0    0    0  0.00000000000E+00  0.00000000000E+00  0.14999999963E+04  0.15000000000E+04  0.10566000000E+00 0. -1.
        994   -1    0    0    0    0 -0.00000000000E+00 -0.00000000000E+00  0.11368683772E-12  0.17120000000E+03  0.17120000000E+03 0.  0.
         13    1    1    2    0    0  0.11412121811E+02 -0.53623523891E+01  0.71232065850E+02  0.72339544626E+02  0.10566000000E+00 0. -1.
        994    1    1    2    0    0 -0.11328452949E+02 -0.27298387201E+02  0.40976914491E+01  0.17378080120E+03  0.17120000000E+03 0.  0.
        998    1    1    2    0    0 -0.83668861967E-01  0.32660739591E+02  0.14246702390E+04  0.14250796542E+04  0.10000000000E+02 0. -1.
</event>
<event>
 5    1  0.1072898E-008  0.3854986E+03  0.7957747E-01  0.3427561E+00
         13   -1    0    0    0    0  0.00000000000E+00  0.00000000000E+00  0.14999999963E+04  0.15000000000E+04  0.10566000000E+00 0.  1.
        994   -1    0    0    0    0 -0.00000000000E+00 -0.00000000000E+00  0.11368683772E-12  0.17120000000E+03  0.17120000000E+03 0.  0.
         13    1    1    2    0    0  0.80984448250E+01  0.78016049203E+01  0.46707887103E+02  0.48042561647E+02  0.10566000000E+00 0.  1.
        994    1    1    2    0    0 -0.52202040754E+01 -0.12168966559E+01  0.14771556259E+01  0.17129026054E+03  0.17120000000E+03 0.  0.
        998    1    1    2    0    0 -0.28782407496E+01 -0.65847082645E+01  0.14518149535E+04  0.14518671778E+04  0.10000000000E+02 0.  1.
</event>
<event>
 5    1  0.1072898E-008  0.3833581E+03  0.7957747E-01  0.3436666E+00
         13   -1    0    0    0    0  0.00000000000E+00  0.00000000000E+00  0.14999999963E+04  0.15000000000E+04  0.10566000000E+00 0.  1.
        994   -1    0    0    0    0 -0.00000000000E+00 -0.00000000000E+00  0.11368683772E-12  0.17120000000E+03  0.17120000000E+03 0.  0.
         13    1    1    2    0    0 -0.10060248436E+02 -0.11957753407E+02  0.47955302469E+02  0.50437274550E+02  0.10566000000E+00 0.  1.
        994    1    1    2    0    0  0.22058490858E+02  0.24987603363E+01  0.40785875388E+01  0.17268148626E+03  0.17120000000E+03 0.  0.
        998    1    1    2    0    0 -0.11998242422E+02  0.94589930706E+01  0.14479661063E+04  0.14480812392E+04  0.10000000000E+02 0.  1.
</event>
<event>
 5    1  0.1072898E-008  0.3718949E+03  0.7957747E-01  0.3487227E+00
         13   -1    0    0    0    0  0.00000000000E+00  0.00000000000E+00  0.14999999963E+04  0.15000000000E+04  0.10566000000E+00 0. -1.
        994   -1    0    0    0    0 -0.00000000000E+00 -0.00000000000E+00  0.11368683772E-12  0.17120000000E+03  0.17120000000E+03 0.  0.
         13    1    1    2    0    0  0.23533361277E+02  0.28804717101E+02  0.79831553300E+02  0.88071669035E+02  0.10566000000E+00 0. -1.
        994    1    1    2    0    0  0.15612960172E+01 -0.34902782660E+02  0.12486691021E+02  0.17517419712E+03  0.17120000000E+03 0.  0.
        998    1    1    2    0    0 -0.25094657294E+02  0.60980655594E+01  0.14076817520E+04  0.14079541338E+04  0.10000000000E+02 0. -1.
</event>
<event>
 5    1  0.1072898E-008  0.3770077E+03  0.7957747E-01  0.3464292E+00
         13   -1    0    0    0    0  0.00000000000E+00  0.00000000000E+00  0.14999999963E+04  0.15000000000E+04  0.10566000000E+00 0. -1.
        994   -1    0    0    0    0 -0.00000000000E+00 -0.00000000000E+00  0.11368683772E-12  0.17120000000E+03  0.17120000000E+03 0.  0.
         13    1    1    2    0    0  0.12260211368E+02 -0.31024350810E+02  0.10108821494E+03  0.10645027707E+03  0.10566000000E+00 0. -1.
        994    1    1    2    0    0  0.45010049910E+01  0.12630184897E+02  0.62585436318E+01  0.17183826694E+03  0.17120000000E+03 0.  0.
        998    1    1    2    0    0 -0.16761216359E+02  0.18394165914E+02  0.13926532377E+04  0.13929114560E+04  0.10000000000E+02 0. -1.
</event>
<event>
 5    1  0.1072898E-008  0.3806143E+03  0.7957747E-01  0.3448488E+00
         13   -1    0    0    0    0  0.00000000000E+00  0.00000000000E+00  0.14999999963E+04  0.15000000000E+04  0.10566000000E+00 0.  1.
        994   -1    0    0    0    0 -0.00000000000E+00 -0.00000000000E+00  0.11368683772E-12  0.17120000000E+03  0.17120000000E+03 0.  0.
         13    1    1    2    0    0  0.38931458355E+02 -0.27679632967E+02  0.25925158944E+03  0.26361566403E+03  0.10566000000E+00 0.  1.
        994    1    1    2    0    0 -0.23777759712E+02  0.42044694325E+02  0.11646560693E+02  0.17826446801E+03  0.17120000000E+03 0.  0.
        998    1    1    2    0    0 -0.15153698643E+02 -0.14365061358E+02  0.12291018461E+04  0.12293198680E+04  0.10000000000E+02 0.  1.
</event>
<event>
 5    1  0.1072898E-008  0.3780990E+03  0.7957747E-01  0.3459478E+00
         13   -1    0    0    0    0  0.00000000000E+00  0.00000000000E+00  0.14999999963E+04  0.15000000000E+04  0.10566000000E+00 0. -1.
        994   -1    0    0    0    0 -0.00000000000E+00 -0.00000000000E+00  0.11368683772E-12  0.17120000000E+03  0.17120000000E+03 0.  0.
         13    1    1    2    0    0  0.18751532246E+02  0.14178124947E+02  0.51098921028E+02  0.56247222890E+02  0.10566000000E+00 0. -1.
        994    1    1    2    0    0 -0.14732909625E+02 -0.16665485003E+02  0.67621320375E+01  0.17277141964E+03  0.17120000000E+03 0.  0.
        998    1    1    2    0    0 -0.40186226213E+01  0.24873600560E+01  0.14421389432E+04  0.14421813575E+04  0.10000000000E+02 0. -1.
</event>
<event>
 5    1  0.1072898E-008  0.3857033E+03  0.7957747E-01  0.3426695E+00
         13   -1    0    0    0    0  0.00000000000E+00  0.00000000000E+00  0.14999999963E+04  0.15000000000E+04  0.10566000000E+00 0. -1.
        994   -1    0    0    0    0 -0.00000000000E+00 -0.00000000000E+00  0.11368683772E-12  0.17120000000E+03  0.17120000000E+03 0.  0.
         13    1    1    2    0    0 -0.29821925201E+01 -0.11413629904E+02  0.55788290619E+02  0.57022004122E+02  0.10566000000E+00 0. -1.
        994    1    1    2    0    0  0.36658771955E+01  0.41415320053E+01  0.13817435695E+01  0.17129489239E+03  0.17120000000E+03 0.  0.
        998    1    1    2    0    0 -0.68368467540E+00  0.72720978990E+01  0.14428299621E+04  0.14428831035E+04  0.10000000000E+02 0. -1.
</event>
<event>
 5    1  0.1072898E-008  0.3851796E+03  0.7957747E-01  0.3428911E+00
         13   -1    0    0    0    0  0.00000000000E+00  0.00000000000E+00  0.14999999963E+04  0.15000000000E+04  0.10566000000E+00 0.  1.
        994   -1    0    0    0    0 -0.00000000000E+00 -0.00000000000E+00  0.11368683772E-12  0.17120000000E+03  0.17120000000E+03 0.  0.
         13    1    1    2    0    0 -0.18565225653E+01  0.11571188341E+02  0.43520944579E+02  0.45071308576E+02  0.10566000000E+00 0.  1.
        994    1    1    2    0    0  0.26632200743E+02 -0.87153455232E+01  0.41261181488E+01  0.17352722039E+03  0.17120000000E+03 0.  0.
        998    1    1    2    0    0 -0.24775678178E+02 -0.28558428178E+01  0.14523529336E+04  0.14526014710E+04  0.10000000000E+02 0.  1.
</event>
<event>
 5    1  0.1072898E-008  0.3839926E+03  0.7957747E-01  0.3433956E+00
         13   -1    0    0    0    0  0.00000000000E+00  0.00000000000E+00  0.14999999963E+04  0.15000000000E+04  0.10566000000E+00 0. -1.
        994   -1    0    0    0    0 -0.00000000000E+00 -0.00000000000E+00  0.11368683772E-12  0.17120000000E+03  0.17120000000E+03 0.  0.
         13    1    1    2    0    0 -0.10745330648E+02  0.21657910496E+02  0.75571260400E+01  0.25330782377E+02  0.10566000000E+00 0. -1.
        994    1    1    2    0    0  0.20201159770E+02 -0.19784946562E+02  0.21483474445E+02  0.17484424680E+03  0.17120000000E+03 0.  0.
        998    1    1    2    0    0 -0.94558291221E+01 -0.18729639345E+01  0.14709593958E+04  0.14710249708E+04  0.10000000000E+02 0. -1.
</event>
<event>
 5    1  0.1072898E-008  0.3798597E+03  0.7957747E-01  0.3451770E+00
         13   -1    0    0    0    0  0.00000000000E+00  0.00000000000E+00  0.14999999963E+04  0.15000000000E+04  0.10566000000E+00 0. -1.
        994   -1    0    0    0    0 -0.00000000000E+00 -0.00000000000E+00  0.11368683772E-12  0.17120000000E+03  0.17120000000E+03 0.  0.
         13    1    1    2    0    0  0.19192701285E+02 -0.61020233656E+01  0.51370634195E+02  0.55177420141E+02  0.10566000000E+00 0. -1.
        994    1    1    2    0    0  0.13329560664E+02  0.17146693473E+01  0.48083010652E+01  0.17179399593E+03  0.17120000000E+03 0.  0.
        998    1    1    2    0    0 -0.32522261949E+02  0.43873540183E+01  0.14438210610E+04  0.14442285839E+04  0.10000000000E+02 0. -1.
</event>
<event>
 5    1  0.1072898E-008  0.3758510E+03  0.7957747E-01  0.3469425E+00
         13   -1    0    0    0    0  0.00000000000E+00  0.00000000000E+00  0.14999999963E+04  0.15000000000E+04  0.10566000000E+00 0.  1.
        994   -1    0    0    0    0 -0.00000000000E+00 -0.00000000000E+00  0.11368683772E-12  0.17120000000E+03  0.17120000000E+03 0.  0.
         13    1    1    2    0    0 -0.43949095833E+02  0.37362850133E+02  0.10589902913E+03  0.12059071743E+03  0.10566000000E+00 0.  1.
        994    1    1    2    0    0  0.45820562489E+02 -0.35583357658E+02  0.26179217737E+02  0.18264854429E+03  0.17120000000E+03 0.  0.
        998    1    1    2    0    0 -0.18714666562E+01 -0.17794924744E+01  0.13679217494E+04  0.13679607383E+04  0.10000000000E+02 0.  1.
</event>
<event>
 5    1  0.1072898E-008  0.3844232E+03  0.7957747E-01  0.3432122E+00
         13   -1    0    0    0    0  0.00000000000E+00  0.00000000000E+00  0.14999999963E+04  0.15000000000E+04  0.10566000000E+00 0. -1.
        994   -1    0    0    0    0 -0.00000000000E+00 -0.00000000000E+00  0.11368683772E-12  0.17120000000E+03  0.17120000000E+03 0.  0.
         13    1    1    2    0    0 -0.12777730784E+02  0.29277360102E+01  0.46175186730E+02  0.48000011205E+02  0.10566000000E+00 0. -1.
        994    1    1    2    0    0 -0.13455631327E+01 -0.12571933738E+02  0.24436726622E+01  0.17168364976E+03  0.17120000000E+03 0.  0.
        998    1    1    2    0    0  0.14123293917E+02  0.96441977279E+01  0.14513811369E+04  0.14515163390E+04  0.10000000000E+02 0. -1.
</event>
<event>
 5    1  0.1072898E-008  0.3817629E+03  0.7957747E-01  0.3443518E+00
         13   -1    0    0    0    0  0.00000000000E+00  0.00000000000E+00  0.14999999963E+04  0.15000000000E+04  0.10566000000E+00 0.  1.
        994   -1    0    0    0    0 -0.00000000000E+00 -0.00000000000E+00  0.11368683772E-12  0.17120000000E+03  0.17120000000E+03 0.  0.
         13    1    1    2    0    0 -0.29605501747E+01 -0.43600272507E+02  0.23295151264E+03  0.23701511982E+03  0.10566000000E+00 0.  1.
        994    1    1    2    0    0  0.62796032376E+01  0.51356875843E+02  0.12194486869E+02  0.17926267772E+03  0.17120000000E+03 0.  0.
        998    1    1    2    0    0 -0.33190530629E+01 -0.77566033357E+01  0.12548539968E+04  0.12549222025E+04  0.10000000000E+02 0.  1.
</event>
<event>
 5    1  0.1072898E-008  0.3842738E+03  0.7957747E-01  0.3432758E+00
         13   -1    0    0    0    0  0.00000000000E+00  0.00000000000E+00  0.14999999963E+04  0.15000000000E+04  0.10566000000E+00 0. -1.
        994   -1    0    0    0    0 -0.00000000000E+00 -0.00000000000E+00  0.11368683772E-12  0.17120000000E+03  0.17120000000E+03 0.  0.
         13    1    1    2    0    0  0.22788572213E+02  0.16419962114E+01  0.12602531419E+03  0.12807968674E+03  0.10566000000E+00 0. -1.
        994    1    1    2    0    0 -0.18672907978E+02 -0.52793115268E+00  0.31422702069E+01  0.17224479692E+03  0.17120000000E+03 0.  0.
        998    1    1    2    0    0 -0.41156642345E+01 -0.11140650587E+01  0.13708324119E+04  0.13708755163E+04  0.10000000000E+02 0. -1.
</event>
<event>
 5    1  0.1072898E-008  0.3693032E+03  0.7957747E-01  0.3499099E+00
         13   -1    0    0    0    0  0.00000000000E+00  0.00000000000E+00  0.14999999963E+04  0.15000000000E+04  0.10566000000E+00 0.  1.
        994   -1    0    0    0    0 -0.00000000000E+00 -0.00000000000E+00  0.11368683772E-12  0.17120000000E+03  0.17120000000E+03 0.  0.
         13    1    1    2    0    0 -0.20014404143E+02 -0.16873515464E+02  0.31830441338E+02  0.41212620120E+02  0.10566000000E+00 0.  1.
        994    1    1    2    0    0  0.27296246201E+02 -0.83078823335E+01  0.12460589995E+02  0.17400808104E+03  0.17120000000E+03 0.  0.
        998    1    1    2    0    0 -0.72818420578E+01  0.25181397797E+02  0.14557089649E+04  0.14559792988E+04  0.10000000000E+02 0.  1.
</event>
<event>
 5    1  0.1072898E-008  0.3757899E+03  0.7957747E-01  0.3469697E+00
         13   -1    0    0    0    0  0.00000000000E+00  0.00000000000E+00  0.14999999963E+04  0.15000000000E+04  0.10566000000E+00 0.  1.
        994   -1    0    0    0    0 -0.00000000000E+00 -0.00000000000E+00  0.11368683772E-12  0.17120000000E+03  0.17120000000E+03 0.  0.
         13    1    1    2    0    0  0.77203361686E+02 -0.77987830196E+01  0.36673482607E+03  0.37485413682E+03  0.10566000000E+00 0.  1.
        994    1    1    2    0    0 -0.75149379948E+02  0.76764376412E+01  0.25871447496E+02  0.18890507880E+03  0.17120000000E+03 0.  0.
        998    1    1    2    0    0 -0.20539817376E+01  0.12234537843E+00  0.11073937227E+04  0.11074407844E+04  0.10000000000E+02 0.  0.
</event>
<event>
 5    1  0.1072898E-008  0.3702267E+03  0.7957747E-01  0.3494850E+00
         13   -1    0    0    0    0  0.00000000000E+00  0.00000000000E+00  0.14999999963E+04  0.15000000000E+04  0.10566000000E+00 0. -1.
        994   -1    0    0    0    0 -0.00000000000E+00 -0.00000000000E+00  0.11368683772E-12  0.17120000000E+03  0.17120000000E+03 0.  0.
         13    1    1    2    0    0  0.79991305260E+01 -0.18113733262E+02  0.12722434385E+02  0.23536459432E+02  0.10566000000E+00 0. -1.
        994    1    1    2    0    0 -0.15606420168E+02  0.15059993770E+02  0.12706111591E+02  0.17303539821E+03  0.17120000000E+03 0.  0.
        998    1    1    2    0    0  0.76072896425E+01  0.30537394928E+01  0.14745714503E+04  0.14746281424E+04  0.10000000000E+02 0. -1.
</event>
<event>
 5    1  0.1072898E-008  0.3803426E+03  0.7957747E-01  0.3449668E+00
         13   -1    0    0    0    0  0.00000000000E+00  0.00000000000E+00  0.14999999963E+04  0.15000000000E+04  0.10566000000E+00 0. -1.
        994   -1    0    0    0    0 -0.00000000000E+00 -0.00000000000E+00  0.11368683772E-12  0.17120000000E+03  0.17120000000E+03 0.  0.
         13    1    1    2    0    0  0.17552008103E+02  0.88766489690E+01  0.46229511433E+02  0.50239892285E+02  0.10566000000E+00 0. -1.
        994    1    1    2    0    0 -0.18007733403E+02 -0.76343080210E+01  0.52387876371E+01  0.17239328878E+03  0.17120000000E+03 0.  0.
        998    1    1    2    0    0  0.45572529987E+00 -0.12423409480E+01  0.14485316972E+04  0.14485668189E+04  0.10000000000E+02 0. -1.
</event>
<event>
 5    1  0.1072898E-008  0.3798303E+03  0.7957747E-01  0.3451898E+00
         13   -1    0    0    0    0  0.00000000000E+00  0.00000000000E+00  0.14999999963E+04  0.15000000000E+04  0.10566000000E+00 0. -1.
        994   -1    0    0    0    0 -0.00000000000E+00 -0.00000000000E+00  0.11368683772E-12  0.17120000000E+03  0.17120000000E+03 0.  0.
         13    1    1    2    0    0  0.30131928675E+02 -0.42453381870E+02  0.30651471693E+03  0.31090433516E+03  0.10566000000E+00 0. -1.
        994    1    1    2    0    0 -0.11744496377E+02  0.33775959696E+02  0.85078253750E+01  0.17510160405E+03  0.17120000000E+03 0.  0.
        998    1    1    2    0    0 -0.18387432298E+02  0.86774221733E+01  0.11849774540E+04  0.11851940608E+04  0.10000000000E+02 0. -1.
</event>
<event>
 5    1  0.1072898E-008  0.3806157E+03  0.7957747E-01  0.3448482E+00
         13   -1    0    0    0    0  0.00000000000E+00  0.00000000000E+00  0.14999999963E+04  0.15000000000E+04  0.10566000000E+00 0. -1.
        994   -1    0    0    0    0 -0.00000000000E+00 -0.00000000000E+00  0.11368683772E-12  0.17120000000E+03  0.17120000000E+03 0.  0.
         13    1    1    2    0    0  0.10486030846E+02  0.17376523421E+02  0.54028201395E+02  0.57714453295E+02  0.10566000000E+00 0. -1.
        994    1    1    2    0    0  0.61943349709E+01 -0.10753080863E+02  0.43365828877E+01  0.17170394429E+03  0.17120000000E+03 0.  0.
        998    1    1    2    0    0 -0.16680365816E+02 -0.66234425584E+01  0.14416352120E+04  0.14417816024E+04  0.10000000000E+02 0. -1.
</event>
<event>
 5    1  0.1072898E-008  0.3764660E+03  0.7957747E-01  0.3466692E+00
         13   -1    0    0    0    0  0.00000000000E+00  0.00000000000E+00  0.14999999963E+04  0.15000000000E+04  0.10566000000E+00 0. -1.
        994   -1    0    0    0    0 -0.00000000000E+00 -0.00000000000E+00  0.11368683772E-12  0.17120000000E+03  0.17120000000E+03 0.  0.
         13    1    1    2    0    0 -0.21918874817E+02 -0.80914104531E+02  0.26824967357E+03  0.28104346269E+03  0.10566000000E+00 0. -1.
        994    1    1    2    0    0  0.34225695889E+01  0.28635616702E+02  0.17380282788E+02  0.17447987493E+03  0.17120000000E+03 0.  0.
        998    1    1    2    0    0  0.18496305228E+02  0.52278487830E+02  0.12143700399E+04  0.12156766624E+04  0.10000000000E+02 0. -1.
</event>
<event>
 5    1  0.1072898E-008  0.3764705E+03  0.7957747E-01  0.3466672E+00
         13   -1    0    0    0    0  0.00000000000E+00  0.00000000000E+00  0.14999999963E+04  0.15000000000E+04  0.10566000000E+00 0. -1.
        994   -1    0    0    0    0 -0.00000000000E+00 -0.00000000000E+00  0.11368683772E-12  0.17120000000E+03  0.17120000000E+03 0.  0.
         13    1    1    2    0    0  0.26404560404E+02 -0.48379865328E+02  0.94651524946E+02  0.10952960567E+03  0.10566000000E+00 0. -1.
        994    1    1    2    0    0 -0.59520584520E+02  0.29792697322E+02  0.30425371990E+02  0.18618659473E+03  0.17120000000E+03 0.  0.
        998    1    1    2    0    0  0.33116024116E+02  0.18587168005E+02  0.13749230993E+04  0.13754837996E+04  0.10000000000E+02 0. -1.
</event>
<event>
 5    1  0.1072898E-008  0.3852623E+03  0.7957747E-01  0.3428561E+00
         13   -1    0    0    0    0  0.00000000000E+00  0.00000000000E+00  0.14999999963E+04  0.15000000000E+04  0.10566000000E+00 0. -1.
        994   -1    0    0    0    0 -0.00000000000E+00 -0.00000000000E+00  0.11368683772E-12  0.17120000000E+03  0.17120000000E+03 0.  0.
         13    1    1    2    0    0  0.30318094768E+00  0.12436838402E+02  0.52146906164E+02  0.53610426734E+02  0.10566000000E+00 0. -1.
        994    1    1    2    0    0  0.81756396096E+00 -0.68354372208E+01  0.16557255002E+01  0.17134635403E+03  0.17120000000E+03 0.  0.
        998    1    1    2    0    0 -0.11207449086E+01 -0.56014011810E+01  0.14461973646E+04  0.14462432192E+04  0.10000000000E+02 0. -1.
</event>
<event>
 5    1  0.1072898E-008  0.3848460E+03  0.7957747E-01  0.3430326E+00
         13   -1    0    0    0    0  0.00000000000E+00  0.00000000000E+00  0.14999999963E+04  0.15000000000E+04  0.10566000000E+00 0.  1.
        994   -1    0    0    0    0 -0.00000000000E+00 -0.00000000000E+00  0.11368683772E-12  0.17120000000E+03  0.17120000000E+03 0.  0.
         13    1    1    2    0    0  0.85886905637E+01  0.10236044566E+02  0.55767345238E+02  0.57345881917E+02  0.10566000000E+00 0.  1.
        994    1    1    2    0    0  0.50070040816E+01 -0.98823468788E+00  0.17923405094E+01  0.17128543190E+03  0.17120000000E+03 0.  0.
        998    1    1    2    0    0 -0.13595694645E+02 -0.92478098786E+01  0.14424403105E+04  0.14425686862E+04  0.10000000000E+02 0.  1.
</event>
<event>
 5    1  0.1072898E-008  0.3833785E+03  0.7957747E-01  0.3436579E+00
         13   -1    0    0    0    0  0.00000000000E+00  0.00000000000E+00  0.14999999963E+04  0.15000000000E+04  0.10566000000E+00 0.  1.
        994   -1    0    0    0    0 -0.00000000000E+00 -0.00000000000E+00  0.11368683772E-12  0.17120000000E+03  0.17120000000E+03 0.  0.
         13    1    1    2    0    0 -0.22157697615E+02  0.68474235009E+02  0.10726132277E+03  0.12916921828E+03  0.10566000000E+00 0.  1.
        994    1    1    2    0    0  0.51825181312E+02 -0.10849931869E+03  0.73392925592E+02  0.22170681790E+03  0.17120000000E+03 0.  0.
        998    1    1    2    0    0 -0.29667483697E+02  0.40025083684E+02  0.13193457479E+04  0.13203239638E+04  0.10000000000E+02 0.  1.
</event>
<event>
 5    1  0.1072898E-008  0.3826570E+03  0.7957747E-01  0.3439670E+00
         13   -1    0    0    0    0  0.00000000000E+00  0.00000000000E+00  0.14999999963E+04  0.15000000000E+04  0.10566000000E+00 0. -1.
        994   -1    0    0    0    0 -0.00000000000E+00 -0.00000000000E+00  0.11368683772E-12  0.17120000000E+03  0.17120000000E+03 0.  0.
         13    1    1    2    0    0  0.27165544029E+01 -0.12148178310E+02  0.26363040917E+02  0.29154399231E+02  0.10566000000E+00 0. -1.
        994    1    1    2    0    0  0.51405812135E+01  0.13634529290E+02  0.35017840999E+01  0.17185467249E+03  0.17120000000E+03 0.  0.
        998    1    1    2    0    0 -0.78571356164E+01 -0.14863509804E+01  0.14701351713E+04  0.14701909283E+04  0.10000000000E+02 0. -1.
</event>
<event>
 5    1  0.1072898E-008  0.3846041E+03  0.7957747E-01  0.3431353E+00
         13   -1    0    0    0    0  0.00000000000E+00  0.00000000000E+00  0.14999999963E+04  0.15000000000E+04  0.10566000000E+00 0. -1.
        994   -1    0    0    0    0 -0.00000000000E+00 -0.00000000000E+00  0.11368683772E-12  0.17120000000E+03  0.17120000000E+03 0.  0.
         13    1    1    2    0    0 -0.78400149363E+01  0.12255928092E+02  0.56668617366E+02  0.58506554896E+02  0.10566000000E+00 0. -1.
        994    1    1    2    0    0  0.18749628259E+02 -0.35832339114E+01  0.30276081471E+01  0.17228753448E+03  0.17120000000E+03 0.  0.
        998    1    1    2    0    0 -0.10909613323E+02 -0.86726941806E+01  0.14403037708E+04  0.14404059106E+04  0.10000000000E+02 0. -1.
</event>
<event>
 5    1  0.1072898E-008  0.3821751E+03  0.7957747E-01  0.3441742E+00
         13   -1    0    0    0    0  0.00000000000E+00  0.00000000000E+00  0.14999999963E+04  0.15000000000E+04  0.10566000000E+00 0. -1.
        994   -1    0    0    0    0 -0.00000000000E+00 -0.00000000000E+00  0.11368683772E-12  0.17120000000E+03  0.17120000000E+03 0.  0.
         13    1    1    2    0    0  0.10578401424E+02 -0.31014988012E+01  0.18978968477E+02  0.21948445959E+02  0.10566000000E+00 0. -1.
        994    1    1    2    0    0 -0.16231462851E+01  0.97363691136E+01  0.33626252819E+01  0.17151728407E+03  0.17120000000E+03 0.  0.
        998    1    1    2    0    0 -0.89552551393E+01 -0.66348703124E+01  0.14776584025E+04  0.14777342700E+04  0.10000000000E+02 0. -1.
</event>
<event>
 5    1  0.1072898E-008  0.4521119E+03  0.7957747E-01  0.3186939E+00
         13   -1    0    0    0    0  0.00000000000E+00  0.00000000000E+00  0.14999999963E+04  0.15000000000E+04  0.10566000000E+00 0.  1.
        994   -1    0    0    0    0 -0.00000000000E+00 -0.00000000000E+00  0.11368683772E-12  0.17120000000E+03  0.17120000000E+03 0.  0.
         13    1    1    2    0    0 -0.48996565446E+02  0.81006758812E+02  0.47921244043E+02  0.10610944912E+03  0.10566000000E+00 0.  1.
        994    1    1    2    0    0  0.49691894712E+02 -0.93697349992E+02  0.12314074656E+03  0.23605414900E+03  0.17120000000E+03 0.  0.
        998    1    1    2    0    0 -0.69532926526E+00  0.12690591179E+02  0.13289380057E+04  0.13290364019E+04  0.10000000000E+02 0.  1.
</event>
<event>
 5    1  0.1072898E-008  0.3695989E+03  0.7957747E-01  0.3497736E+00
         13   -1    0    0    0    0  0.00000000000E+00  0.00000000000E+00  0.14999999963E+04  0.15000000000E+04  0.10566000000E+00 0. -1.
        994   -1    0    0    0    0 -0.00000000000E+00 -0.00000000000E+00  0.11368683772E-12  0.17120000000E+03  0.17120000000E+03 0.  0.
         13    1    1    2    0    0 -0.50598632340E+01 -0.15099619732E+02  0.68995009042E+01  0.17355546916E+02  0.10566000000E+00 0. -1.
        994    1    1    2    0    0  0.11878310873E+02  0.13449504648E+02  0.11851727469E+02  0.17254531836E+03  0.17120000000E+03 0.  0.
        998    1    1    2    0    0 -0.68184476388E+01  0.16501150840E+01  0.14812487679E+04  0.14812991347E+04  0.10000000000E+02 0. -1.
</event>
<event>
 5    1  0.1082705E-008  0.3855926E+03  0.7957747E-01  0.3427163E+00
         13   -1    0    0    0    0  0.00000000000E+00  0.00000000000E+00  0.14999999963E+04  0.15000000000E+04  0.10566000000E+00 0. -1.
        994   -1    0    0    0    0 -0.00000000000E+00 -0.00000000000E+00  0.11368683772E-12  0.17120000000E+03  0.17120000000E+03 0.  0.
         13    1    1    2    0    0 -0.54748645784E+01 -0.12471893401E+02  0.61995294869E+02  0.63474010564E+02  0.10566000000E+00 0. -1.
        994    1    1    2    0    0 -0.47419593572E+01  0.31924503538E+02  0.47627707454E+01  0.17428076225E+03  0.17120000000E+03 0.  0.
        998    1    1    2    0    0  0.10216823936E+02 -0.19452610137E+02  0.14332419307E+04  0.14334452272E+04  0.10000000000E+02 0. -1.
</event>
<event>
 5    1  0.1072898E-008  0.3772914E+03  0.7957747E-01  0.3463038E+00
         13   -1    0    0    0    0  0.00000000000E+00  0.00000000000E+00  0.14999999963E+04  0.15000000000E+04  0.10566000000E+00 0. -1.
        994   -1    0    0    0    0 -0.00000000000E+00 -0.00000000000E+00  0.11368683772E-12  0.17120000000E+03  0.17120000000E+03 0.  0.
         13    1    1    2    0    0 -0.37890613393E+02  0.60498663032E+01  0.17613938571E+03  0.18027033541E+03  0.10566000000E+00 0. -1.
        994    1    1    2    0    0 -0.16294561218E+02  0.36078917864E+02  0.10811401535E+02  0.17604978683E+03  0.17120000000E+03 0.  0.
        998    1    1    2    0    0  0.54185174610E+02 -0.42128784167E+02  0.13130492090E+04  0.13148798778E+04  0.10000000000E+02 0. -1.
</event>
<event>
 5    1  0.1072898E-008  0.3691959E+03  0.7957747E-01  0.3499595E+00
         13   -1    0    0    0    0  0.00000000000E+00  0.00000000000E+00  0.14999999963E+04  0.15000000000E+04  0.10566000000E+00 0. -1.
        994   -1    0    0    0    0 -0.00000000000E+00 -0.00000000000E+00  0.11368683772E-12  0.17120000000E+03  0.17120000000E+03 0.  0.
         13    1    1    2    0    0 -0.25928513041E+01 -0.20881919880E+02  0.18021752664E+02  0.27705093194E+02  0.10566000000E+00 0. -1.
        994    1    1    2    0    0 -0.11053128900E+01  0.30891498164E+02  0.13010166744E+02  0.17445403639E+03  0.17120000000E+03 0.  0.
        998    1    1    2    0    0  0.36981641941E+01 -0.10009578284E+02  0.14689680769E+04  0.14690408704E+04  0.10000000000E+02 0. -1.
</event>
<event>
 5    1  0.1072898E-008  0.3726455E+03  0.7957747E-01  0.3483820E+00
         13   -1    0    0    0    0  0.00000000000E+00  0.00000000000E+00  0.14999999963E+04  0.15000000000E+04  0.10566000000E+00 0. -1.
        994   -1    0    0    0    0 -0.00000000000E+00 -0.00000000000E+00  0.11368683772E-12  0.17120000000E+03  0.17120000000E+03 0.  0.
         13    1    1    2    0    0 -0.15521271967E+02 -0.27866288470E+02  0.58626793532E+02  0.66742430286E+02  0.10566000000E+00 0. -1.
        994    1    1    2    0    0  0.21498429925E+02  0.28685463937E+02  0.12308676599E+02  0.17534532172E+03  0.17120000000E+03 0.  0.
        998    1    1    2    0    0 -0.59771579583E+01 -0.81917546693E+00  0.14290645261E+04  0.14291122480E+04  0.10000000000E+02 0. -1.
</event>
<event>
 5    1  0.1072898E-008  0.3784710E+03  0.7957747E-01  0.3457843E+00
         13   -1    0    0    0    0  0.00000000000E+00  0.00000000000E+00  0.14999999963E+04  0.15000000000E+04  0.10566000000E+00 0. -1.
        994   -1    0    0    0    0 -0.00000000000E+00 -0.00000000000E+00  0.11368683772E-12  0.17120000000E+03  0.17120000000E+03 0.  0.
         13    1    1    2    0    0  0.93906250179E+01  0.72241943097E+01  0.12181302985E+02  0.16993178870E+02  0.10566000000E+00 0. -1.
        994    1    1    2    0    0 -0.62973428296E+01 -0.32861064893E+01  0.50765276971E+01  0.17142247856E+03  0.17120000000E+03 0.  0.
        998    1    1    2    0    0 -0.30932821883E+01 -0.39380878204E+01  0.14827421656E+04  0.14827843426E+04  0.10000000000E+02 0. -1.
</event>
<event>
 5    1  0.1072898E-008  0.3784206E+03  0.7957747E-01  0.3458064E+00
         13   -1    0    0    0    0  0.00000000000E+00  0.00000000000E+00  0.14999999963E+04  0.15000000000E+04  0.10566000000E+00 0. -1.
        994   -1    0    0    0    0 -0.00000000000E+00 -0.00000000000E+00  0.11368683772E-12  0.17120000000E+03  0.17120000000E+03 0.  0.
         13    1    1    2    0    0 -0.29848379142E+02  0.24034655555E+02  0.13593384493E+03  0.14123247419E+03  0.10566000000E+00 0. -1.
        994    1    1    2    0    0  0.26747544728E+02 -0.25913548342E+02  0.96074440296E+01  0.17546705137E+03  0.17120000000E+03 0.  0.
        998    1    1    2    0    0  0.31008344137E+01  0.18788927876E+01  0.13544587073E+04  0.13545004744E+04  0.10000000000E+02 0. -1.
</event>
<event>
 5    1  0.1072898E-008  0.3820359E+03  0.7957747E-01  0.3442341E+00
         13   -1    0    0    0    0  0.00000000000E+00  0.00000000000E+00  0.14999999963E+04  0.15000000000E+04  0.10566000000E+00 0. -1.
        994   -1    0    0    0    0 -0.00000000000E+00 -0.00000000000E+00  0.11368683772E-12  0.17120000000E+03  0.17120000000E+03 0.  0.
         13    1    1    2    0    0  0.24398886606E+02  0.13912273558E+02  0.15025448120E+03  0.15285704860E+03  0.10566000000E+00 0. -1.
        994    1    1    2    0    0  0.87160680225E+01 -0.11795291490E+01  0.33658828234E+01  0.17145882975E+03  0.17120000000E+03 0.  0.
        998    1    1    2    0    0 -0.33114954629E+02 -0.12732744409E+02  0.13463796323E+04  0.13468841217E+04  0.10000000000E+02 0. -1.
</event>
<event>
 5    1  0.1072898E-008  0.3817007E+03  0.7957747E-01  0.3443787E+00
         13   -1    0    0    0    0  0.00000000000E+00  0.00000000000E+00  0.14999999963E+04  0.15000000000E+04  0.10566000000E+00 0. -1.
        994   -1    0    0    0    0 -0.00000000000E+00 -0.00000000000E+00  0.11368683772E-12  0.17120000000E+03  0.17120000000E+03 0.  0.
         13    1    1    2    0    0  0.10143125404E+02  0.26312696834E+02  0.10921319362E+03  0.11279527398E+03  0.10566000000E+00 0. -1.
        994    1    1    2    0    0 -0.14585176624E+02 -0.30261116347E+02  0.70374687516E+01  0.17460649617E+03  0.17120000000E+03 0.  0.
        998    1    1    2    0    0  0.44420512198E+01  0.39484195132E+01  0.13837493339E+04  0.13837982298E+04  0.10000000000E+02 0. -1.
</event>
<event>
 5    1  0.1072898E-008  0.3802767E+03  0.7957747E-01  0.3449954E+00
         13   -1    0    0    0    0  0.00000000000E+00  0.00000000000E+00  0.14999999963E+04  0.15000000000E+04  0.10566000000E+00 0. -1.
        994   -1    0    0    0    0 -0.00000000000E+00 -0.00000000000E+00  0.11368683772E-12  0.17120000000E+03  0.17120000000E+03 0.  0.
         13    1    1    2    0    0 -0.64504076474E+01  0.25324358308E+02  0.81402863889E+02  0.85494843680E+02  0.10566000000E+00 0. -1.
        994    1    1    2    0    0  0.11809717955E+02 -0.20905871872E+02  0.59214025411E+01  0.17297695779E+03  0.17120000000E+03 0.  0.
        998    1    1    2    0    0 -0.53593103076E+01 -0.44184864353E+01  0.14126757298E+04  0.14127281985E+04  0.10000000000E+02 0. -1.
</event>
<event>
 5    1  0.1072898E-008  0.3733366E+03  0.7957747E-01  0.3480696E+00
         13   -1    0    0    0    0  0.00000000000E+00  0.00000000000E+00  0.14999999963E+04  0.15000000000E+04  0.10566000000E+00 0. -1.
        994   -1    0    0    0    0 -0.00000000000E+00 -0.00000000000E+00  0.11368683772E-12  0.17120000000E+03  0.17120000000E+03 0.  0.
         13    1    1    2    0    0  0.11118643041E+03 -0.12666979260E+02  0.50230903785E+03  0.51462341119E+03  0.10566000000E+00 0. -1.
        994    1    1    2    0    0 -0.11660347100E+03  0.16675188950E+02  0.56558002283E+02  0.21536638316E+03  0.17120000000E+03 0.  0.
        998    1    1    2    0    0  0.54170405866E+01 -0.40082096897E+01  0.94113295614E+03  0.94121020564E+03  0.10000000000E+02 0. -1.
</event>
<event>
 5    1  0.1072898E-008  0.3766096E+03  0.7957747E-01  0.3466055E+00
         13   -1    0    0    0    0  0.00000000000E+00  0.00000000000E+00  0.14999999963E+04  0.15000000000E+04  0.10566000000E+00 0. -1.
        994   -1    0    0    0    0 -0.00000000000E+00 -0.00000000000E+00  0.11368683772E-12  0.17120000000E+03  0.17120000000E+03 0.  0.
         13    1    1    2    0    0  0.15211690986E+02 -0.31353868783E+02  0.97240435546E+02  0.10329653479E+03  0.10566000000E+00 0. -1.
        994    1    1    2    0    0 -0.15657380695E+02  0.27288302455E+02  0.92081450098E+01  0.17431016882E+03  0.17120000000E+03 0.  0.
        998    1    1    2    0    0  0.44568970937E+00  0.40655663276E+01  0.13935514157E+04  0.13935932964E+04  0.10000000000E+02 0. -1.
</event>
<event>
 5    1  0.1180079E-008  0.3850131E+03  0.7957747E-01  0.3429617E+00
         13   -1    0    0    0    0  0.00000000000E+00  0.00000000000E+00  0.14999999963E+04  0.15000000000E+04  0.10566000000E+00 0.  1.
        994   -1    0    0    0    0 -0.00000000000E+00 -0.00000000000E+00  0.11368683772E-12  0.17120000000E+03  0.17120000000E+03 0.  0.
         13    1    1    2    0    0  0.23842591485E+01 -0.97310310342E+01  0.30792737935E+02  0.32381808632E+02  0.10566000000E+00 0.  1.
        994    1    1    2    0    0 -0.19832451460E+01  0.57803106228E+01  0.17464481961E+01  0.17131793640E+03  0.17120000000E+03 0.  0.
        998    1    1    2    0    0 -0.40101400242E+00  0.39507204114E+01  0.14674608101E+04  0.14675002550E+04  0.10000000000E+02 0.  1.
</event>
<event>
 5    1  0.1072898E-008  0.3748061E+03  0.7957747E-01  0.3474091E+00
         13   -1    0    0    0    0  0.00000000000E+00  0.00000000000E+00  0.14999999963E+04  0.15000000000E+04  0.10566000000E+00 0. -1.
        994   -1    0    0    0    0 -0.00000000000E+00 -0.00000000000E+00  0.11368683772E-12  0.17120000000E+03  0.17120000000E+03 0.  0.
         13    1    1    2    0    0 -0.10790101483E+02  0.68868937914E+01 -0.22087115253E+00  0.12802950605E+02  0.10566000000E+00 0. -1.
        994    1    1    2    0    0  0.14806569884E+02 -0.57500317657E+01  0.14400618959E+02  0.17253728641E+03  0.17120000000E+03 0.  0.
        998    1    1    2    0    0 -0.40164684010E+01 -0.11368620258E+01  0.14858202485E+04  0.14858597630E+04  0.10000000000E+02 0. -1.
</event>
<event>
 5    1  0.1072898E-008  0.3860231E+03  0.7957747E-01  0.3425345E+00
         13   -1    0    0    0    0  0.00000000000E+00  0.00000000000E+00  0.14999999963E+04  0.15000000000E+04  0.10566000000E+00 0.  1.
        994   -1    0    0    0    0 -0.00000000000E+00 -0.00000000000E+00  0.11368683772E-12  0.17120000000E+03  0.17120000000E+03 0.  0.
         13    1    1    2    0    0 -0.40355742029E+01  0.11586216039E+02  0.68891171398E+02  0.69975216483E+02  0.10566000000E+00 0.  1.
        994    1    1    2    0    0  0.39233436024E+01 -0.51603516618E+01  0.12607752916E+01  0.17132732242E+03  0.17120000000E+03 0.  0.
        998    1    1    2    0    0  0.11223060056E+00 -0.64258643771E+01  0.14298480496E+04  0.14298974611E+04  0.10000000000E+02 0.  1.
</event>
<event>
 5    1  0.1072898E-008  0.3848091E+03  0.7957747E-01  0.3430482E+00
         13   -1    0    0    0    0  0.00000000000E+00  0.00000000000E+00  0.14999999963E+04  0.15000000000E+04  0.10566000000E+00 0.  1.
        994   -1    0    0    0    0 -0.00000000000E+00 -0.00000000000E+00  0.11368683772E-12  0.17120000000E+03  0.17120000000E+03 0.  0.
         13    1    1    2    0    0 -0.15590668760E+02  0.79342822944E+01  0.10147679292E+03  0.10297364931E+03  0.10566000000E+00 0.  1.
        994    1    1    2    0    0 -0.69684078189E+01 -0.83190206711E+00  0.18870545828E+01  0.17135417049E+03  0.17120000000E+03 0.  0.
        998    1    1    2    0    0  0.22559076579E+02 -0.71023802273E+01  0.13966361488E+04  0.13968721802E+04  0.10000000000E+02 0.  1.
</event>
<event>
 5    1  0.1072898E-008  0.3840060E+03  0.7957747E-01  0.3433899E+00
         13   -1    0    0    0    0  0.00000000000E+00  0.00000000000E+00  0.14999999963E+04  0.15000000000E+04  0.10566000000E+00 0.  1.
        994   -1    0    0    0    0 -0.00000000000E+00 -0.00000000000E+00  0.11368683772E-12  0.17120000000E+03  0.17120000000E+03 0.  0.
         13    1    1    2    0    0 -0.14622285758E+02 -0.80357997067E+01  0.67792906218E+02  0.69816005437E+02  0.10566000000E+00 0.  1.
        994    1    1    2    0    0  0.95618167785E+01 -0.91801388272E+01  0.27043707517E+01  0.17173368019E+03  0.17120000000E+03 0.  0.
        998    1    1    2    0    0  0.50604689798E+01  0.17215938534E+02  0.14295027193E+04  0.14296503144E+04  0.10000000000E+02 0.  1.
</event>
<event>
 5    1  0.1072898E-008  0.3804668E+03  0.7957747E-01  0.3449129E+00
         13   -1    0    0    0    0  0.00000000000E+00  0.00000000000E+00  0.14999999963E+04  0.15000000000E+04  0.10566000000E+00 0.  1.
        994   -1    0    0    0    0 -0.00000000000E+00 -0.00000000000E+00  0.11368683772E-12  0.17120000000E+03  0.17120000000E+03 0.  0.
         13    1    1    2    0    0  0.36662186482E+01  0.27459858886E+02  0.10189101626E+03  0.10559012912E+03  0.10566000000E+00 0.  1.
        994    1    1    2    0    0  0.60700585281E+00 -0.81022019204E+01  0.41180764438E+01  0.17144215551E+03  0.17120000000E+03 0.  0.
        998    1    1    2    0    0 -0.42732245010E+01 -0.19357656965E+02  0.13939909036E+04  0.13941677154E+04  0.10000000000E+02 0.  1.
</event>
<event>
 5    1  0.1072898E-008  0.2856509E+03  0.7957747E-01  0.4004102E+00
         13   -1    0    0    0    0  0.00000000000E+00  0.00000000000E+00  0.14999999963E+04  0.15000000000E+04  0.10566000000E+00 0.  1.
        994   -1    0    0    0    0 -0.00000000000E+00 -0.00000000000E+00  0.11368683772E-12  0.17120000000E+03  0.17120000000E+03 0.  0.
         13    1    1    2    0    0  0.91592285667E+02  0.16769576257E+03  0.86592921742E+03  0.88676064207E+03  0.10566000000E+00 0.  1.
        994    1    1    2    0    0  0.94501857170E+01 -0.32542129603E+02  0.57734439208E+02  0.18382328927E+03  0.17120000000E+03 0.  0.
        998    1    1    2    0    0 -0.10104247138E+03 -0.13515363296E+03  0.57633633965E+03  0.60061606865E+03  0.10000000000E+02 0. -1.
</event>
<event>
 5    1  0.1457593E-008  0.3860510E+03  0.7957747E-01  0.3425227E+00
         13   -1    0    0    0    0  0.00000000000E+00  0.00000000000E+00  0.14999999963E+04  0.15000000000E+04  0.10566000000E+00 0. -1.
        994   -1    0    0    0    0 -0.00000000000E+00 -0.00000000000E+00  0.11368683772E-12  0.17120000000E+03  0.17120000000E+03 0.  0.
         13    1    1    2    0    0 -0.93741271872E+01 -0.50125159044E+01  0.50405578865E+02  0.51514397220E+02  0.10566000000E+00 0. -1.
        994    1    1    2    0    0  0.10243498388E+02  0.33220019124E+01  0.14894039931E+01  0.17154481420E+03  0.17120000000E+03 0.  0.
        998    1    1    2    0    0 -0.86937120059E+00  0.16905139919E+01  0.14481050134E+04  0.14481407886E+04  0.10000000000E+02 0. -1.
</event>
<event>
 5    1  0.1072898E-008  0.3827824E+03  0.7957747E-01  0.3439132E+00
         13   -1    0    0    0    0  0.00000000000E+00  0.00000000000E+00  0.14999999963E+04  0.15000000000E+04  0.10566000000E+00 0. -1.
        994   -1    0    0    0    0 -0.00000000000E+00 -0.00000000000E+00  0.11368683772E-12  0.17120000000E+03  0.17120000000E+03 0.  0.
         13    1    1    2    0    0 -0.36185666053E+01 -0.11616859250E+02  0.25971020415E+02  0.28680141362E+02  0.10566000000E+00 0. -1.
        994    1    1    2    0    0  0.70844941093E+01  0.79484396598E+01  0.31107494249E+01  0.17155898260E+03  0.17120000000E+03 0.  0.
        998    1    1    2    0    0 -0.34659275040E+01  0.36684195904E+01  0.14709182264E+04  0.14709608760E+04  0.10000000000E+02 0. -1.
</event>
<event>
 5    1  0.1072898E-008  0.3818060E+03  0.7957747E-01  0.3443332E+00
         13   -1    0    0    0    0  0.00000000000E+00  0.00000000000E+00  0.14999999963E+04  0.15000000000E+04  0.10566000000E+00 0.  1.
        994   -1    0    0    0    0 -0.00000000000E+00 -0.00000000000E+00  0.11368683772E-12  0.17120000000E+03  0.17120000000E+03 0.  0.
         13    1    1    2    0    0 -0.67473975452E+01 -0.18186002859E+02  0.55178499132E+02  0.58488768188E+02  0.10566000000E+00 0.  1.
        994    1    1    2    0    0  0.55704066571E+01  0.20471941638E+02  0.47215028480E+01  0.17257422291E+03  0.17120000000E+03 0.  0.
        998    1    1    2    0    0  0.11769908881E+01 -0.22859387786E+01  0.14400999943E+04  0.14401370089E+04  0.10000000000E+02 0.  1.
</event>
<event>
 5    1  0.1072898E-008  0.3706469E+03  0.7957747E-01  0.3492923E+00
         13   -1    0    0    0    0  0.00000000000E+00  0.00000000000E+00  0.14999999963E+04  0.15000000000E+04  0.10566000000E+00 0.  1.
        994   -1    0    0    0    0 -0.00000000000E+00 -0.00000000000E+00  0.11368683772E-12  0.17120000000E+03  0.17120000000E+03 0.  0.
         13    1    1    2    0    0 -0.52198150438E+02  0.12016767155E+02  0.11990911464E+03  0.13132881077E+03  0.10566000000E+00 0.  1.
        994    1    1    2    0    0  0.39403340604E+02 -0.11427153071E+02  0.17202293620E+02  0.17688573143E+03  0.17120000000E+03 0.  0.
        998    1    1    2    0    0  0.12794809833E+02 -0.58961408409E+00  0.13628885880E+04  0.13629854578E+04  0.10000000000E+02 0. -1.
</event>
<event>
 5    1  0.1072898E-008  0.3805147E+03  0.7957747E-01  0.3448921E+00
         13   -1    0    0    0    0  0.00000000000E+00  0.00000000000E+00  0.14999999963E+04  0.15000000000E+04  0.10566000000E+00 0. -1.
        994   -1    0    0    0    0 -0.00000000000E+00 -0.00000000000E+00  0.11368683772E-12  0.17120000000E+03  0.17120000000E+03 0.  0.
         13    1    1    2    0    0  0.70963788460E+01  0.25946881547E+02  0.83301482057E+02  0.87537119736E+02  0.10566000000E+00 0. -1.
        994    1    1    2    0    0 -0.12867273640E+02 -0.35311009781E+02  0.86016001608E+01  0.17548749718E+03  0.17120000000E+03 0.  0.
        998    1    1    2    0    0  0.57708947944E+01  0.93641282346E+01  0.14080969141E+04  0.14081753831E+04  0.10000000000E+02 0. -1.
</event>
<event>
 5    1  0.1072898E-008  0.3884374E+03  0.7957747E-01  0.3415223E+00
         13   -1    0    0    0    0  0.00000000000E+00  0.00000000000E+00  0.14999999963E+04  0.15000000000E+04  0.10566000000E+00 0. -1.
        994   -1    0    0    0    0 -0.00000000000E+00 -0.00000000000E+00  0.11368683772E-12  0.17120000000E+03  0.17120000000E+03 0.  0.
         13    1    1    2    0    0 -0.11960001355E+03  0.33103160760E+02  0.30942512441E+03  0.33338251495E+03  0.10566000000E+00 0. -1.
        994    1    1    2    0    0  0.11116975193E+03  0.45203370383E+01  0.68979587283E+02  0.21551512860E+03  0.17120000000E+03 0.  0.
        998    1    1    2    0    0  0.84302616180E+01 -0.37623497798E+02  0.11215952846E+04  0.11223023565E+04  0.10000000000E+02 0. -1.
</event>
<event>
 5    1  0.1072898E-008  0.3695600E+03  0.7957747E-01  0.3497916E+00
         13   -1    0    0    0    0  0.00000000000E+00  0.00000000000E+00  0.14999999963E+04  0.15000000000E+04  0.10566000000E+00 0.  1.
        994   -1    0    0    0    0 -0.00000000000E+00 -0.00000000000E+00  0.11368683772E-12  0.17120000000E+03  0.17120000000E+03 0.  0.
         13    1    1    2    0    0 -0.36451542151E+02 -0.12540047341E+02  0.60730412746E+02  0.71931647477E+02  0.10566000000E+00 0.  1.
        994    1    1    2    0    0  0.51286535107E+02  0.57461818145E+01  0.20061428940E+02  0.17993117634E+03  0.17120000000E+03 0.  0.
        998    1    1    2    0    0 -0.14834992957E+02  0.67938655266E+01  0.14192081546E+04  0.14193371762E+04  0.10000000000E+02 0.  1.
</event>
<event>
 5    1  0.1072898E-008  0.3761457E+03  0.7957747E-01  0.3468114E+00
         13   -1    0    0    0    0  0.00000000000E+00  0.00000000000E+00  0.14999999963E+04  0.15000000000E+04  0.10566000000E+00 0. -1.
        994   -1    0    0    0    0 -0.00000000000E+00 -0.00000000000E+00  0.11368683772E-12  0.17120000000E+03  0.17120000000E+03 0.  0.
         13    1    1    2    0    0  0.14215328321E+01  0.24767586798E+02  0.15306227830E+02  0.29150401126E+02  0.10566000000E+00 0. -1.
        994    1    1    2    0    0 -0.25466525571E+01 -0.25609563990E+02  0.16596141589E+02  0.17391724217E+03  0.17120000000E+03 0.  0.
        998    1    1    2    0    0  0.11251197250E+01  0.84197719187E+00  0.14680976269E+04  0.14681323567E+04  0.10000000000E+02 0. -1.
</event>
<event>
 5    1  0.1072898E-008  0.3789566E+03  0.7957747E-01  0.3455714E+00
         13   -1    0    0    0    0  0.00000000000E+00  0.00000000000E+00  0.14999999963E+04  0.15000000000E+04  0.10566000000E+00 0.  1.
        994   -1    0    0    0    0 -0.00000000000E+00 -0.00000000000E+00  0.11368683772E-12  0.17120000000E+03  0.17120000000E+03 0.  0.
         13    1    1    2    0    0 -0.11674326957E+02 -0.18948162528E+02  0.57506431080E+02  0.61662983650E+02  0.10566000000E+00 0.  1.
        994    1    1    2    0    0 -0.15578233762E+02 -0.80297976292E+01  0.56918130788E+01  0.17218883748E+03  0.17120000000E+03 0.  0.
        998    1    1    2    0    0  0.27252560719E+02  0.26977960158E+02  0.14368017521E+04  0.14373481789E+04  0.10000000000E+02 0.  1.
</event>
<event>
 5    1  0.1072898E-008  0.3832559E+03  0.7957747E-01  0.3437103E+00
         13   -1    0    0    0    0  0.00000000000E+00  0.00000000000E+00  0.14999999963E+04  0.15000000000E+04  0.10566000000E+00 0. -1.
        994   -1    0    0    0    0 -0.00000000000E+00 -0.00000000000E+00  0.11368683772E-12  0.17120000000E+03  0.17120000000E+03 0.  0.
         13    1    1    2    0    0  0.24937771508E+02  0.88332747133E+01  0.13916421702E+03  0.14165666117E+03  0.10566000000E+00 0. -1.
        994    1    1    2    0    0 -0.13352606484E+02 -0.10770060712E+02  0.34724669956E+01  0.17209237152E+03  0.17120000000E+03 0.  0.
        998    1    1    2    0    0 -0.11585165024E+02  0.19367859989E+01  0.13573633123E+04  0.13574509673E+04  0.10000000000E+02 0. -1.
</event>
<event>
 5    1  0.1072898E-008  0.3855891E+03  0.7957747E-01  0.3427177E+00
         13   -1    0    0    0    0  0.00000000000E+00  0.00000000000E+00  0.14999999963E+04  0.15000000000E+04  0.10566000000E+00 0.  1.
        994   -1    0    0    0    0 -0.00000000000E+00 -0.00000000000E+00  0.11368683772E-12  0.17120000000E+03  0.17120000000E+03 0.  0.
         13    1    1    2    0    0 -0.11080947448E+02  0.10364550034E+01  0.47043166411E+02  0.48341827700E+02  0.10566000000E+00 0.  1.
        994    1    1    2    0    0  0.51071494920E+01 -0.65167186982E+01  0.15629615096E+01  0.17140721527E+03  0.17120000000E+03 0.  0.
        998    1    1    2    0    0  0.59737979565E+01  0.54802636948E+01  0.14513938684E+04  0.14514509570E+04  0.10000000000E+02 0.  1.
</event>
<event>
 5    1  0.1072898E-008  0.3828891E+03  0.7957747E-01  0.3438674E+00
         13   -1    0    0    0    0  0.00000000000E+00  0.00000000000E+00  0.14999999963E+04  0.15000000000E+04  0.10566000000E+00 0.  1.
        994   -1    0    0    0    0 -0.00000000000E+00 -0.00000000000E+00  0.11368683772E-12  0.17120000000E+03  0.17120000000E+03 0.  0.
         13    1    1    2    0    0 -0.20113782582E+02 -0.13941550054E+02  0.12378013324E+03  0.12617631956E+03  0.10566000000E+00 0.  1.
        994    1    1    2    0    0  0.27178383027E+01 -0.48480494256E+01  0.27840734139E+01  0.17131281707E+03  0.17120000000E+03 0.  0.
        998    1    1    2    0    0  0.17395944279E+02  0.18789599479E+02  0.13734357896E+04  0.13737108634E+04  0.10000000000E+02 0.  1.
</event>
<event>
 5    1  0.1072898E-008  0.3757688E+03  0.7957747E-01  0.3469791E+00
         13   -1    0    0    0    0  0.00000000000E+00  0.00000000000E+00  0.14999999963E+04  0.15000000000E+04  0.10566000000E+00 0. -1.
        994   -1    0    0    0    0 -0.00000000000E+00 -0.00000000000E+00  0.11368683772E-12  0.17120000000E+03  0.17120000000E+03 0.  0.
         13    1    1    2    0    0  0.27218853136E+02 -0.64510287336E+02  0.14974990301E+03  0.16531027722E+03  0.10566000000E+00 0. -1.
        994    1    1    2    0    0 -0.24765865549E+02  0.72473414654E+02  0.35261203649E+02  0.19083641270E+03  0.17120000000E+03 0.  0.
        998    1    1    2    0    0 -0.24529875875E+01 -0.79631273175E+01  0.13149888896E+04  0.13150533101E+04  0.10000000000E+02 0. -1.
</event>
<event>
 5    1  0.1072898E-008  0.3770163E+03  0.7957747E-01  0.3464254E+00
         13   -1    0    0    0    0  0.00000000000E+00  0.00000000000E+00  0.14999999963E+04  0.15000000000E+04  0.10566000000E+00 0.  1.
        994   -1    0    0    0    0 -0.00000000000E+00 -0.00000000000E+00  0.11368683772E-12  0.17120000000E+03  0.17120000000E+03 0.  0.
         13    1    1    2    0    0  0.22471560767E+02  0.20376318450E+02  0.78841619772E+02  0.84475899339E+02  0.10566000000E+00 0.  1.
        994    1    1    2    0    0 -0.16725530709E+02 -0.12392507378E+02  0.71112858313E+01  0.17260743901E+03  0.17120000000E+03 0.  0.
        998    1    1    2    0    0 -0.57460300582E+01 -0.79838110726E+01  0.14140470907E+04  0.14141166616E+04  0.10000000000E+02 0.  1.
</event>
<event>
 5    1  0.1072898E-008  0.3848022E+03  0.7957747E-01  0.3430512E+00
         13   -1    0    0    0    0  0.00000000000E+00  0.00000000000E+00  0.14999999963E+04  0.15000000000E+04  0.10566000000E+00 0. -1.
        994   -1    0    0    0    0 -0.00000000000E+00 -0.00000000000E+00  0.11368683772E-12  0.17120000000E+03  0.17120000000E+03 0.  0.
         13    1    1    2    0    0 -0.35612542954E+01  0.12732106197E+02  0.54509401837E+02  0.56089884231E+02  0.10566000000E+00 0. -1.
        994    1    1    2    0    0  0.48878681507E+01  0.62916171102E+01  0.19373006209E+01  0.17139623343E+03  0.17120000000E+03 0.  0.
        998    1    1    2    0    0 -0.13266138553E+01 -0.19023723307E+02  0.14435532938E+04  0.14437138823E+04  0.10000000000E+02 0. -1.
</event>
<event>
 5    1  0.1072898E-008  0.3818288E+03  0.7957747E-01  0.3443234E+00
         13   -1    0    0    0    0  0.00000000000E+00  0.00000000000E+00  0.14999999963E+04  0.15000000000E+04  0.10566000000E+00 0. -1.
        994   -1    0    0    0    0 -0.00000000000E+00 -0.00000000000E+00  0.11368683772E-12  0.17120000000E+03  0.17120000000E+03 0.  0.
         13    1    1    2    0    0 -0.20861412544E+02 -0.22233707298E+02  0.14036713447E+03  0.14364010539E+03  0.10566000000E+00 0. -1.
        994    1    1    2    0    0  0.25385690690E+02  0.60068191686E+01  0.54773452778E+01  0.17326268057E+03  0.17120000000E+03 0.  0.
        998    1    1    2    0    0 -0.45242781463E+01  0.16226888129E+02  0.13541555165E+04  0.13542972140E+04  0.10000000000E+02 0. -1.
</event>
<event>
 5    1  0.1072898E-008  0.3824084E+03  0.7957747E-01  0.3440738E+00
         13   -1    0    0    0    0  0.00000000000E+00  0.00000000000E+00  0.14999999963E+04  0.15000000000E+04  0.10566000000E+00 0.  1.
        994   -1    0    0    0    0 -0.00000000000E+00 -0.00000000000E+00  0.11368683772E-12  0.17120000000E+03  0.17120000000E+03 0.  0.
         13    1    1    2    0    0  0.26618545768E+01  0.10549989674E+02  0.19249372883E+02  0.22111926021E+02  0.10566000000E+00 0.  1.
        994    1    1    2    0    0  0.29394868424E+01 -0.62029414591E+01  0.30786050971E+01  0.17136520906E+03  0.17120000000E+03 0.  0.
        998    1    1    2    0    0 -0.56013414192E+01 -0.43470482149E+01  0.14776720183E+04  0.14777228649E+04  0.10000000000E+02 0.  1.
</event>
<event>
 5    1  0.1072898E-008  0.3814632E+03  0.7957747E-01  0.3444812E+00
         13   -1    0    0    0    0  0.00000000000E+00  0.00000000000E+00  0.14999999963E+04  0.15000000000E+04  0.10566000000E+00 0. -1.
        994   -1    0    0    0    0 -0.00000000000E+00 -0.00000000000E+00  0.11368683772E-12  0.17120000000E+03  0.17120000000E+03 0.  0.
         13    1    1    2    0    0  0.99532170516E+00  0.29894815630E+02  0.12084363510E+03  0.12449050557E+03  0.10566000000E+00 0. -1.
        994    1    1    2    0    0 -0.55705460813E+01 -0.30505854819E+02  0.66021304945E+01  0.17411107457E+03  0.17120000000E+03 0.  0.
        998    1    1    2    0    0  0.45752243761E+01  0.61103918895E+00  0.13725542307E+04  0.13725984199E+04  0.10000000000E+02 0. -1.
</event>
<event>
 5    1  0.1072898E-008  0.3753222E+03  0.7957747E-01  0.3471783E+00
         13   -1    0    0    0    0  0.00000000000E+00  0.00000000000E+00  0.14999999963E+04  0.15000000000E+04  0.10566000000E+00 0. -1.
        994   -1    0    0    0    0 -0.00000000000E+00 -0.00000000000E+00  0.11368683772E-12  0.17120000000E+03  0.17120000000E+03 0.  0.
         13    1    1    2    0    0  0.26248995042E+02  0.63620463572E+01  0.56479024860E+02  0.62604926226E+02  0.10566000000E+00 0. -1.
        994    1    1    2    0    0 -0.63549935636E+01  0.20506259506E+02  0.80798786349E+01  0.17272989626E+03  0.17120000000E+03 0.  0.
        998    1    1    2    0    0 -0.19894001479E+02 -0.26868305863E+02  0.14354410928E+04  0.14358651775E+04  0.10000000000E+02 0. -1.
</event>
<event>
 5    1  0.1072898E-008  0.3802695E+03  0.7957747E-01  0.3449986E+00
         13   -1    0    0    0    0  0.00000000000E+00  0.00000000000E+00  0.14999999963E+04  0.15000000000E+04  0.10566000000E+00 0.  1.
        994   -1    0    0    0    0 -0.00000000000E+00 -0.00000000000E+00  0.11368683772E-12  0.17120000000E+03  0.17120000000E+03 0.  0.
         13    1    1    2    0    0  0.18769577077E+02  0.18970072365E+02  0.93303299295E+02  0.97044719035E+02  0.10566000000E+00 0.  1.
        994    1    1    2    0    0  0.10925557924E+01 -0.70807472158E+01  0.41686301799E+01  0.17140054882E+03  0.17120000000E+03 0.  0.
        998    1    1    2    0    0 -0.19862132870E+02 -0.11889325149E+02  0.14025280668E+04  0.14027547321E+04  0.10000000000E+02 0.  1.
</event>
<event>
 5    1  0.1072898E-008  0.3789960E+03  0.7957747E-01  0.3455542E+00
         13   -1    0    0    0    0  0.00000000000E+00  0.00000000000E+00  0.14999999963E+04  0.15000000000E+04  0.10566000000E+00 0. -1.
        994   -1    0    0    0    0 -0.00000000000E+00 -0.00000000000E+00  0.11368683772E-12  0.17120000000E+03  0.17120000000E+03 0.  0.
         13    1    1    2    0    0 -0.11775188877E+02  0.93569780581E+01  0.22246664692E+02  0.26853926443E+02  0.10566000000E+00 0. -1.
        994    1    1    2    0    0  0.15977927973E+02 -0.17690766676E+01  0.55080523706E+01  0.17204128125E+03  0.17120000000E+03 0.  0.
        998    1    1    2    0    0 -0.42027390959E+01 -0.75879013905E+01  0.14722452792E+04  0.14723047923E+04  0.10000000000E+02 0. -1.
</event>
<event>
 5    1  0.1072898E-008  0.3829268E+03  0.7957747E-01  0.3438513E+00
         13   -1    0    0    0    0  0.00000000000E+00  0.00000000000E+00  0.14999999963E+04  0.15000000000E+04  0.10566000000E+00 0.  1.
        994   -1    0    0    0    0 -0.00000000000E+00 -0.00000000000E+00  0.11368683772E-12  0.17120000000E+03  0.17120000000E+03 0.  0.
         13    1    1    2    0    0  0.12322847680E+02  0.71698681993E+01  0.37620170792E+02  0.40231181929E+02  0.10566000000E+00 0.  1.
        994    1    1    2    0    0 -0.73130694806E+01 -0.22614032048E+01  0.28569736477E+01  0.17139485765E+03  0.17120000000E+03 0.  0.
        998    1    1    2    0    0 -0.50097781989E+01 -0.49084649945E+01  0.14595228518E+04  0.14595739604E+04  0.10000000000E+02 0.  1.
</event>
<event>
 5    1  0.1072898E-008  0.3756576E+03  0.7957747E-01  0.3470287E+00
         13   -1    0    0    0    0  0.00000000000E+00  0.00000000000E+00  0.14999999963E+04  0.15000000000E+04  0.10566000000E+00 0. -1.
        994   -1    0    0    0    0 -0.00000000000E+00 -0.00000000000E+00  0.11368683772E-12  0.17120000000E+03  0.17120000000E+03 0.  0.
         13    1    1    2    0    0  0.50080992844E+02 -0.46295436582E+02  0.29071350499E+03  0.29860630676E+03  0.10566000000E+00 0. -1.
        994    1    1    2    0    0 -0.52943713889E+02  0.45580545057E+02  0.23078893537E+02  0.18634027545E+03  0.17120000000E+03 0.  0.
        998    1    1    2    0    0  0.28627210447E+01  0.71489152438E+00  0.11862075978E+04  0.11862534178E+04  0.10000000000E+02 0.  0.
</event>
<event>
 5    1  0.1072898E-008  0.3724814E+03  0.7957747E-01  0.3484564E+00
         13   -1    0    0    0    0  0.00000000000E+00  0.00000000000E+00  0.14999999963E+04  0.15000000000E+04  0.10566000000E+00 0. -1.
        994   -1    0    0    0    0 -0.00000000000E+00 -0.00000000000E+00  0.11368683772E-12  0.17120000000E+03  0.17120000000E+03 0.  0.
         13    1    1    2    0    0 -0.48836065732E+02  0.66544588998E+01  0.89561943055E+02  0.10222815633E+03  0.10566000000E+00 0. -1.
        994    1    1    2    0    0  0.52360921667E+02  0.19908413610E+02  0.23407284220E+02  0.18164622761E+03  0.17120000000E+03 0.  0.
        998    1    1    2    0    0 -0.35248559345E+01 -0.26562872510E+02  0.13870307690E+04  0.13873256161E+04  0.10000000000E+02 0. -1.
</event>
<event>
 5    1  0.1072898E-008  0.3829036E+03  0.7957747E-01  0.3438612E+00
         13   -1    0    0    0    0  0.00000000000E+00  0.00000000000E+00  0.14999999963E+04  0.15000000000E+04  0.10566000000E+00 0.  1.
        994   -1    0    0    0    0 -0.00000000000E+00 -0.00000000000E+00  0.11368683772E-12  0.17120000000E+03  0.17120000000E+03 0.  0.
         13    1    1    2    0    0 -0.11075963582E+02 -0.40812175678E+01  0.24901018770E+02  0.27557307669E+02  0.10566000000E+00 0.  1.
        994    1    1    2    0    0  0.78667398535E+01  0.89287856939E+01  0.31436021187E+01  0.17164186856E+03  0.17120000000E+03 0.  0.
        998    1    1    2    0    0  0.32092237282E+01 -0.48475681260E+01  0.14719553754E+04  0.14720008238E+04  0.10000000000E+02 0.  1.
</event>
<event>
 5    1  0.1072898E-008  0.3768244E+03  0.7957747E-01  0.3465104E+00
         13   -1    0    0    0    0  0.00000000000E+00  0.00000000000E+00  0.14999999963E+04  0.15000000000E+04  0.10566000000E+00 0.  1.
        994   -1    0    0    0    0 -0.00000000000E+00 -0.00000000000E+00  0.11368683772E-12  0.17120000000E+03  0.17120000000E+03 0.  0.
         13    1    1    2    0    0  0.88185025941E+01  0.75171307308E+01  0.90707781441E+01  0.14716093999E+02  0.10566000000E+00 0.  1.
        994    1    1    2    0    0 -0.85350727490E+01 -0.47632309283E+01  0.60676738003E+01  0.17158610812E+03  0.17120000000E+03 0.  0.
        998    1    1    2    0    0 -0.28342984510E+00 -0.27538998025E+01  0.14848615443E+04  0.14848977979E+04  0.10000000000E+02 0.  1.
</event>
<event>
 5    1  0.1072898E-008  0.3841026E+03  0.7957747E-01  0.3433487E+00
         13   -1    0    0    0    0  0.00000000000E+00  0.00000000000E+00  0.14999999963E+04  0.15000000000E+04  0.10566000000E+00 0.  1.
        994   -1    0    0    0    0 -0.00000000000E+00 -0.00000000000E+00  0.11368683772E-12  0.17120000000E+03  0.17120000000E+03 0.  0.
         13    1    1    2    0    0  0.97578976093E+00 -0.10789629095E+02  0.29096815258E+02  0.31048415158E+02  0.10566000000E+00 0.  1.
        994    1    1    2    0    0 -0.54152767127E-01 -0.51892414223E+01  0.21651633764E+01  0.17129232059E+03  0.17120000000E+03 0.  0.
        998    1    1    2    0    0 -0.92163699380E+00  0.15978870517E+02  0.14687380176E+04  0.14688592643E+04  0.10000000000E+02 0.  1.
</event>
<event>
 5    1  0.1072898E-008  0.3742708E+03  0.7957747E-01  0.3476490E+00
         13   -1    0    0    0    0  0.00000000000E+00  0.00000000000E+00  0.14999999963E+04  0.15000000000E+04  0.10566000000E+00 0.  1.
        994   -1    0    0    0    0 -0.00000000000E+00 -0.00000000000E+00  0.11368683772E-12  0.17120000000E+03  0.17120000000E+03 0.  0.
         13    1    1    2    0    0 -0.21695584105E+02  0.18020261491E+02  0.56593712764E+02  0.63232014694E+02  0.10566000000E+00 0.  1.
        994    1    1    2    0    0 -0.17115721801E+01 -0.53721750878E+01  0.71619941595E+01  0.17144247987E+03  0.17120000000E+03 0.  0.
        998    1    1    2    0    0  0.23407156285E+02 -0.12648086403E+02  0.14362442894E+04  0.14365255054E+04  0.10000000000E+02 0.  1.
</event>
<event>
 5    1  0.1072898E-008  0.3851178E+03  0.7957747E-01  0.3429173E+00
         13   -1    0    0    0    0  0.00000000000E+00  0.00000000000E+00  0.14999999963E+04  0.15000000000E+04  0.10566000000E+00 0. -1.
        994   -1    0    0    0    0 -0.00000000000E+00 -0.00000000000E+00  0.11368683772E-12  0.17120000000E+03  0.17120000000E+03 0.  0.
         13    1    1    2    0    0 -0.10484029011E+02 -0.63697340464E-01  0.34770298265E+02  0.36316714157E+02  0.10566000000E+00 0. -1.
        994    1    1    2    0    0  0.75176484824E+01  0.53530619553E+01  0.18517085675E+01  0.17145856390E+03  0.17120000000E+03 0.  0.
        998    1    1    2    0    0  0.29663805288E+01 -0.52893646148E+01  0.14633779894E+04  0.14634247219E+04  0.10000000000E+02 0. -1.
</event>
<event>
 5    1  0.1072898E-008  0.3785396E+03  0.7957747E-01  0.3457542E+00
         13   -1    0    0    0    0  0.00000000000E+00  0.00000000000E+00  0.14999999963E+04  0.15000000000E+04  0.10566000000E+00 0.  1.
        994   -1    0    0    0    0 -0.00000000000E+00 -0.00000000000E+00  0.11368683772E-12  0.17120000000E+03  0.17120000000E+03 0.  0.
         13    1    1    2    0    0  0.11721398397E+02  0.30581941660E+01  0.12725990598E+02  0.17570023696E+02  0.10566000000E+00 0.  1.
        994    1    1    2    0    0 -0.15026662956E+02 -0.19335521429E+01  0.56435982568E+01  0.17196170918E+03  0.17120000000E+03 0.  0.
        998    1    1    2    0    0  0.33052645590E+01 -0.11246420231E+01  0.14816304074E+04  0.14816682671E+04  0.10000000000E+02 0.  1.
</event>
<event>
 5    1  0.1072898E-008  0.3983863E+03  0.7957747E-01  0.3374810E+00
         13   -1    0    0    0    0  0.00000000000E+00  0.00000000000E+00  0.14999999963E+04  0.15000000000E+04  0.10566000000E+00 0.  1.
        994   -1    0    0    0    0 -0.00000000000E+00 -0.00000000000E+00  0.11368683772E-12  0.17120000000E+03  0.17120000000E+03 0.  0.
         13    1    1    2    0    0 -0.30613368640E+02 -0.82224599146E+01  0.81542109868E+01  0.32730559228E+02  0.10566000000E+00 0.  1.
        994    1    1    2    0    0  0.12711413126E+02 -0.10641811553E+02  0.27888533567E+02  0.17424706161E+03  0.17120000000E+03 0.  0.
        998    1    1    2    0    0  0.17901955514E+02  0.18864271468E+02  0.14639572517E+04  0.14642223792E+04  0.10000000000E+02 0.  1.
</event>
<event>
 5    1  0.1072898E-008  0.3804681E+03  0.7957747E-01  0.3449123E+00
         13   -1    0    0    0    0  0.00000000000E+00  0.00000000000E+00  0.14999999963E+04  0.15000000000E+04  0.10566000000E+00 0.  1.
        994   -1    0    0    0    0 -0.00000000000E+00 -0.00000000000E+00  0.11368683772E-12  0.17120000000E+03  0.17120000000E+03 0.  0.
         13    1    1    2    0    0 -0.20417667340E+02  0.36313084572E+02  0.20483167805E+03  0.20902523472E+03  0.10566000000E+00 0.  1.
        994    1    1    2    0    0  0.14099598385E+02 -0.31339378266E+02  0.78488057320E+01  0.17479130143E+03  0.17120000000E+03 0.  0.
        998    1    1    2    0    0  0.63180689547E+01 -0.49737063054E+01  0.12873195125E+04  0.12873834639E+04  0.10000000000E+02 0.  1.
</event>
<event>
 5    1  0.1072898E-008  0.3782383E+03  0.7957747E-01  0.3458865E+00
         13   -1    0    0    0    0  0.00000000000E+00  0.00000000000E+00  0.14999999963E+04  0.15000000000E+04  0.10566000000E+00 0. -1.
        994   -1    0    0    0    0 -0.00000000000E+00 -0.00000000000E+00  0.11368683772E-12  0.17120000000E+03  0.17120000000E+03 0.  0.
         13    1    1    2    0    0  0.81514540735E+01 -0.17562700915E+02  0.38599237825E+02  0.43183411071E+02  0.10566000000E+00 0. -1.
        994    1    1    2    0    0  0.12787235481E+02 -0.11007586179E+02  0.59829145704E+01  0.17213342387E+03  0.17120000000E+03 0.  0.
        998    1    1    2    0    0 -0.20938689555E+02  0.28570287095E+02  0.14554178439E+04  0.14558831651E+04  0.10000000000E+02 0. -1.
</event>
<event>
 5    1  0.1072898E-008  0.4194626E+03  0.7957747E-01  0.3295488E+00
         13   -1    0    0    0    0  0.00000000000E+00  0.00000000000E+00  0.14999999963E+04  0.15000000000E+04  0.10566000000E+00 0.  1.
        994   -1    0    0    0    0 -0.00000000000E+00 -0.00000000000E+00  0.11368683772E-12  0.17120000000E+03  0.17120000000E+03 0.  0.
         13    1    1    2    0    0 -0.26936514424E+02  0.25177405099E+02  0.10484841549E+01  0.36886149432E+02  0.10566000000E+00 0.  1.
        994    1    1    2    0    0  0.30195320365E+02 -0.17100596268E+02  0.45110371389E+02  0.18041223177E+03  0.17120000000E+03 0.  0.
        998    1    1    2    0    0 -0.32588059412E+01 -0.80768088316E+01  0.14538411407E+04  0.14539016188E+04  0.10000000000E+02 0.  1.
</event>
<event>
 5    1  0.1072898E-008  0.3732870E+03  0.7957747E-01  0.3480919E+00
         13   -1    0    0    0    0  0.00000000000E+00  0.00000000000E+00  0.14999999963E+04  0.15000000000E+04  0.10566000000E+00 0. -1.
        994   -1    0    0    0    0 -0.00000000000E+00 -0.00000000000E+00  0.11368683772E-12  0.17120000000E+03  0.17120000000E+03 0.  0.
         13    1    1    2    0    0  0.53490744478E+01  0.14319899261E+02  0.11971131951E+02  0.19416263196E+02  0.10566000000E+00 0. -1.
        994    1    1    2    0    0 -0.43373118725E+01 -0.14985498502E+02  0.83935304744E+01  0.17211411561E+03  0.17120000000E+03 0.  0.
        998    1    1    2    0    0 -0.10117625753E+01  0.66559924170E+00  0.14796353339E+04  0.14796696212E+04  0.10000000000E+02 0. -1.
</event>
<event>
 5    1  0.1072898E-008  0.3763639E+03  0.7957747E-01  0.3467145E+00
         13   -1    0    0    0    0  0.00000000000E+00  0.00000000000E+00  0.14999999963E+04  0.15000000000E+04  0.10566000000E+00 0.  1.
        994   -1    0    0    0    0 -0.00000000000E+00 -0.00000000000E+00  0.11368683772E-12  0.17120000000E+03  0.17120000000E+03 0.  0.
         13    1    1    2    0    0  0.62758150730E+02  0.66209719065E+01  0.25210500527E+03  0.25988337307E+03  0.10566000000E+00 0.  1.
        994    1    1    2    0    0 -0.77650384372E+02  0.11024501905E+02  0.27085319778E+02  0.19024767116E+03  0.17120000000E+03 0.  0.
        998    1    1    2    0    0  0.14892233642E+02 -0.17645473811E+02  0.12208096712E+04  0.12210689558E+04  0.10000000000E+02 0.  1.
</event>
<event>
 5    1  0.1072898E-008  0.3834198E+03  0.7957747E-01  0.3436402E+00
         13   -1    0    0    0    0  0.00000000000E+00  0.00000000000E+00  0.14999999963E+04  0.15000000000E+04  0.10566000000E+00 0.  1.
        994   -1    0    0    0    0 -0.00000000000E+00 -0.00000000000E+00  0.11368683772E-12  0.17120000000E+03  0.17120000000E+03 0.  0.
         13    1    1    2    0    0 -0.12394813470E+02 -0.21699724693E+01  0.31781948457E+02  0.34182504198E+02  0.10566000000E+00 0.  1.
        994    1    1    2    0    0  0.15982146327E+02 -0.29297227201E+02  0.61070623952E+01  0.17452934634E+03  0.17120000000E+03 0.  0.
        998    1    1    2    0    0 -0.35873328569E+01  0.31467199670E+02  0.14621109854E+04  0.14624881495E+04  0.10000000000E+02 0.  1.
</event>
<event>
 5    1  0.1072898E-008  0.4277763E+03  0.7957747E-01  0.3266316E+00
         13   -1    0    0    0    0  0.00000000000E+00  0.00000000000E+00  0.14999999963E+04  0.15000000000E+04  0.10566000000E+00 0.  1.
        994   -1    0    0    0    0 -0.00000000000E+00 -0.00000000000E+00  0.11368683772E-12  0.17120000000E+03  0.17120000000E+03 0.  0.
         13    1    1    2    0    0 -0.37122482630E+02 -0.13841406113E+03  0.35861653414E+03  0.38618953994E+03  0.10566000000E+00 0.  1.
        994    1    1    2    0    0  0.53748561242E+02 -0.34123882358E+02  0.63720530974E+02  0.19345049302E+03  0.17120000000E+03 0.  0.
        998    1    1    2    0    0 -0.16626078612E+02  0.17253794349E+03  0.10776629312E+04  0.10915599670E+04  0.10000000000E+02 0.  1.
</event>
<event>
 5    1  0.1072898E-008  0.3829951E+03  0.7957747E-01  0.3438220E+00
         13   -1    0    0    0    0  0.00000000000E+00  0.00000000000E+00  0.14999999963E+04  0.15000000000E+04  0.10566000000E+00 0.  1.
        994   -1    0    0    0    0 -0.00000000000E+00 -0.00000000000E+00  0.11368683772E-12  0.17120000000E+03  0.17120000000E+03 0.  0.
         13    1    1    2    0    0 -0.43282206284E+01 -0.16716088686E+02  0.54673409673E+02  0.57335451547E+02  0.10566000000E+00 0.  1.
        994    1    1    2    0    0  0.77452575469E+01  0.14688859403E+02  0.35421233543E+01  0.17203993212E+03  0.17120000000E+03 0.  0.
        998    1    1    2    0    0 -0.34170369185E+01  0.20272292828E+01  0.14417844633E+04  0.14418246163E+04  0.10000000000E+02 0.  1.
</event>
<event>
 5    1  0.1072898E-008  0.3734496E+03  0.7957747E-01  0.3480186E+00
         13   -1    0    0    0    0  0.00000000000E+00  0.00000000000E+00  0.14999999963E+04  0.15000000000E+04  0.10566000000E+00 0.  1.
        994   -1    0    0    0    0 -0.00000000000E+00 -0.00000000000E+00  0.11368683772E-12  0.17120000000E+03  0.17120000000E+03 0.  0.
         13    1    1    2    0    0  0.72653727069E+02  0.62859913585E+02  0.27034273935E+03  0.28690615308E+03  0.10566000000E+00 0.  1.
        994    1    1    2    0    0 -0.51998525797E+02 -0.10714828422E+03  0.64826144953E+02  0.21839521644E+03  0.17120000000E+03 0.  0.
        998    1    1    2    0    0 -0.20655201272E+02  0.44288370635E+02  0.11648311120E+04  0.11658986305E+04  0.10000000000E+02 0.  1.
</event>
<event>
 5    1  0.1072898E-008  0.3800037E+03  0.7957747E-01  0.3451142E+00
         13   -1    0    0    0    0  0.00000000000E+00  0.00000000000E+00  0.14999999963E+04  0.15000000000E+04  0.10566000000E+00 0.  1.
        994   -1    0    0    0    0 -0.00000000000E+00 -0.00000000000E+00  0.11368683772E-12  0.17120000000E+03  0.17120000000E+03 0.  0.
         13    1    1    2    0    0 -0.19723043763E+02  0.86278918886E+01  0.53931673994E+02  0.58069575490E+02  0.10566000000E+00 0.  1.
        994    1    1    2    0    0  0.12517420688E+02 -0.13715251883E+02  0.52847186988E+01  0.17228511894E+03  0.17120000000E+03 0.  0.
        998    1    1    2    0    0  0.72056230751E+01  0.50873599942E+01  0.14407836036E+04  0.14408453056E+04  0.10000000000E+02 0.  1.
</event>
<event>
 5    1  0.1072898E-008  0.3804853E+03  0.7957747E-01  0.3449048E+00
         13   -1    0    0    0    0  0.00000000000E+00  0.00000000000E+00  0.14999999963E+04  0.15000000000E+04  0.10566000000E+00 0.  1.
        994   -1    0    0    0    0 -0.00000000000E+00 -0.00000000000E+00  0.11368683772E-12  0.17120000000E+03  0.17120000000E+03 0.  0.
         13    1    1    2    0    0 -0.29035308872E+02  0.16554006834E+02  0.12899560502E+03  0.13325524974E+03  0.10566000000E+00 0.  1.
        994    1    1    2    0    0  0.35179782168E+02 -0.11979641155E+02  0.85117679249E+01  0.17539389690E+03  0.17120000000E+03 0.  0.
        998    1    1    2    0    0 -0.61444732965E+01 -0.45743656783E+01  0.13624926233E+04  0.13625508534E+04  0.10000000000E+02 0.  1.
</event>
<event>
 5    1  0.1072898E-008  0.3804579E+03  0.7957747E-01  0.3449167E+00
         13   -1    0    0    0    0  0.00000000000E+00  0.00000000000E+00  0.14999999963E+04  0.15000000000E+04  0.10566000000E+00 0.  1.
        994   -1    0    0    0    0 -0.00000000000E+00 -0.00000000000E+00  0.11368683772E-12  0.17120000000E+03  0.17120000000E+03 0.  0.
         13    1    1    2    0    0  0.87919537807E+01 -0.14804928224E+02  0.37562162531E+02  0.41320836984E+02  0.10566000000E+00 0.  1.
        994    1    1    2    0    0 -0.69380391726E+01 -0.48131031305E+00  0.40636266113E+01  0.17138938447E+03  0.17120000000E+03 0.  0.
        998    1    1    2    0    0 -0.18539146081E+01  0.15286238537E+02  0.14583742071E+04  0.14584897785E+04  0.10000000000E+02 0.  1.
</event>
<event>
 5    1  0.1072898E-008  0.3848121E+03  0.7957747E-01  0.3430469E+00
         13   -1    0    0    0    0  0.00000000000E+00  0.00000000000E+00  0.14999999963E+04  0.15000000000E+04  0.10566000000E+00 0. -1.
        994   -1    0    0    0    0 -0.00000000000E+00 -0.00000000000E+00  0.11368683772E-12  0.17120000000E+03  0.17120000000E+03 0.  0.
         13    1    1    2    0    0 -0.16813337859E+02  0.12289350427E+01  0.77995500665E+02  0.79796665967E+02  0.10566000000E+00 0. -1.
        994    1    1    2    0    0  0.18904060464E+02 -0.38928444624E+01  0.29502199651E+01  0.17230978364E+03  0.17120000000E+03 0.  0.
        998    1    1    2    0    0 -0.20907226044E+01  0.26639094197E+01  0.14190542756E+04  0.14190935504E+04  0.10000000000E+02 0. -1.
</event>
<event>
 5    1  0.1072898E-008  0.3848644E+03  0.7957747E-01  0.3430247E+00
         13   -1    0    0    0    0  0.00000000000E+00  0.00000000000E+00  0.14999999963E+04  0.15000000000E+04  0.10566000000E+00 0.  1.
        994   -1    0    0    0    0 -0.00000000000E+00 -0.00000000000E+00  0.11368683772E-12  0.17120000000E+03  0.17120000000E+03 0.  0.
         13    1    1    2    0    0 -0.25750430753E+01 -0.10038598283E+02  0.31758917998E+02  0.33407249794E+02  0.10566000000E+00 0.  1.
        994    1    1    2    0    0  0.43849116533E+01  0.32733693010E+01  0.17959869773E+01  0.17129684167E+03  0.17120000000E+03 0.  0.
        998    1    1    2    0    0 -0.18098685780E+01  0.67652289822E+01  0.14664450913E+04  0.14664959085E+04  0.10000000000E+02 0.  1.
</event>
<event>
 5    1  0.1072898E-008  0.3778750E+03  0.7957747E-01  0.3460464E+00
         13   -1    0    0    0    0  0.00000000000E+00  0.00000000000E+00  0.14999999963E+04  0.15000000000E+04  0.10566000000E+00 0.  1.
        994   -1    0    0    0    0 -0.00000000000E+00 -0.00000000000E+00  0.11368683772E-12  0.17120000000E+03  0.17120000000E+03 0.  0.
         13    1    1    2    0    0  0.22625552888E+02  0.58011748997E+01  0.48319442483E+02  0.53668882601E+02  0.10566000000E+00 0.  1.
        994    1    1    2    0    0 -0.29991364545E+02  0.66523978374E+01  0.83934009933E+01  0.17413680118E+03  0.17120000000E+03 0.  0.
        998    1    1    2    0    0  0.73658116567E+01 -0.12453572737E+02  0.14432871528E+04  0.14433943162E+04  0.10000000000E+02 0.  1.
</event>
<event>
 5    1  0.1072898E-008  0.3838900E+03  0.7957747E-01  0.3434393E+00
         13   -1    0    0    0    0  0.00000000000E+00  0.00000000000E+00  0.14999999963E+04  0.15000000000E+04  0.10566000000E+00 0. -1.
        994   -1    0    0    0    0 -0.00000000000E+00 -0.00000000000E+00  0.11368683772E-12  0.17120000000E+03  0.17120000000E+03 0.  0.
         13    1    1    2    0    0  0.15663105045E+02 -0.15601817530E+02  0.11489604084E+03  0.11700367915E+03  0.10566000000E+00 0. -1.
        994    1    1    2    0    0 -0.99991952477E+01  0.36882755301E+01  0.25572062406E+01  0.17155047824E+03  0.17120000000E+03 0.  0.
        998    1    1    2    0    0 -0.56639097977E+01  0.11913542000E+02  0.13825467492E+04  0.13826458426E+04  0.10000000000E+02 0. -1.
</event>
<event>
 5    1  0.1072898E-008  0.3841751E+03  0.7957747E-01  0.3433178E+00
         13   -1    0    0    0    0  0.00000000000E+00  0.00000000000E+00  0.14999999963E+04  0.15000000000E+04  0.10566000000E+00 0.  1.
        994   -1    0    0    0    0 -0.00000000000E+00 -0.00000000000E+00  0.11368683772E-12  0.17120000000E+03  0.17120000000E+03 0.  0.
         13    1    1    2    0    0  0.50128887191E+01  0.96878833423E+01  0.27890268183E+02  0.29947660348E+02  0.10566000000E+00 0.  1.
        994    1    1    2    0    0 -0.50008813426E+01 -0.13232925551E+02  0.27003806657E+01  0.17180468908E+03  0.17120000000E+03 0.  0.
        998    1    1    2    0    0 -0.12007376512E-01  0.35450422083E+01  0.14694093474E+04  0.14694476506E+04  0.10000000000E+02 0.  1.
</event>
<event>
 5    1  0.2067091E-008  0.3839025E+03  0.7957747E-01  0.3434340E+00
         13   -1    0    0    0    0  0.00000000000E+00  0.00000000000E+00  0.14999999963E+04  0.15000000000E+04  0.10566000000E+00 0. -1.
        994   -1    0    0    0    0 -0.00000000000E+00 -0.00000000000E+00  0.11368683772E-12  0.17120000000E+03  0.17120000000E+03 0.  0.
         13    1    1    2    0    0 -0.30654457181E+01 -0.97083461520E+01  0.22823448713E+02  0.24991396873E+02  0.10566000000E+00 0. -1.
        994    1    1    2    0    0  0.25351557229E+01  0.10582761003E+02  0.25669194304E+01  0.17156471351E+03  0.17120000000E+03 0.  0.
        998    1    1    2    0    0  0.53028999522E+00 -0.87441485117E+00  0.14746096281E+04  0.14746438896E+04  0.10000000000E+02 0. -1.
</event>
<event>
 5    1  0.1072898E-008  0.3845496E+03  0.7957747E-01  0.3431585E+00
         13   -1    0    0    0    0  0.00000000000E+00  0.00000000000E+00  0.14999999963E+04  0.15000000000E+04  0.10566000000E+00 0. -1.
        994   -1    0    0    0    0 -0.00000000000E+00 -0.00000000000E+00  0.11368683772E-12  0.17120000000E+03  0.17120000000E+03 0.  0.
         13    1    1    2    0    0 -0.18539895082E+01  0.19255013382E+02  0.95534209263E+02  0.97473017400E+02  0.10566000000E+00 0. -1.
        994    1    1    2    0    0  0.97534067785E+00 -0.19668922934E+02  0.31322069268E+01  0.17235738609E+03  0.17120000000E+03 0.  0.
        998    1    1    2    0    0  0.87864883039E+00  0.41390955250E+00  0.14013335801E+04  0.14013695965E+04  0.10000000000E+02 0.  0.
</event>
<event>
 5    1  0.1072898E-008  0.3771624E+03  0.7957747E-01  0.3463608E+00
         13   -1    0    0    0    0  0.00000000000E+00  0.00000000000E+00  0.14999999963E+04  0.15000000000E+04  0.10566000000E+00 0. -1.
        994   -1    0    0    0    0 -0.00000000000E+00 -0.00000000000E+00  0.11368683772E-12  0.17120000000E+03  0.17120000000E+03 0.  0.
         13    1    1    2    0    0  0.19133302896E+02 -0.24933605768E+02  0.85116928531E+02  0.90734065615E+02  0.10566000000E+00 0. -1.
        994    1    1    2    0    0 -0.16091089651E+02  0.17394008651E+02  0.74695180465E+01  0.17299337676E+03  0.17120000000E+03 0.  0.
        998    1    1    2    0    0 -0.30422132447E+01  0.75395971175E+01  0.14074135497E+04  0.14074725576E+04  0.10000000000E+02 0. -1.
</event>
<event>
 5    1  0.1072898E-008  0.3820398E+03  0.7957747E-01  0.3442325E+00
         13   -1    0    0    0    0  0.00000000000E+00  0.00000000000E+00  0.14999999963E+04  0.15000000000E+04  0.10566000000E+00 0. -1.
        994   -1    0    0    0    0 -0.00000000000E+00 -0.00000000000E+00  0.11368683772E-12  0.17120000000E+03  0.17120000000E+03 0.  0.
         13    1    1    2    0    0  0.14628014039E+00 -0.10683578194E+02  0.17633533865E+02  0.20618266695E+02  0.10566000000E+00 0. -1.
        994    1    1    2    0    0 -0.18397283189E+02 -0.33516823830E+01  0.42690322338E+01  0.17227117704E+03  0.17120000000E+03 0.  0.
        998    1    1    2    0    0  0.18251003048E+02  0.14035260577E+02  0.14780974302E+04  0.14783105563E+04  0.10000000000E+02 0. -1.
</event>
<event>
 5    1  0.1072898E-008  0.3817713E+03  0.7957747E-01  0.3443482E+00
         13   -1    0    0    0    0  0.00000000000E+00  0.00000000000E+00  0.14999999963E+04  0.15000000000E+04  0.10566000000E+00 0.  1.
        994   -1    0    0    0    0 -0.00000000000E+00 -0.00000000000E+00  0.11368683772E-12  0.17120000000E+03  0.17120000000E+03 0.  0.
         13    1    1    2    0    0 -0.15150219829E+02  0.17401811226E+02  0.80594169206E+02  0.83831876210E+02  0.10566000000E+00 0.  1.
        994    1    1    2    0    0  0.15040125701E+02 -0.75406517617E+01  0.41829683775E+01  0.17207557652E+03  0.17120000000E+03 0.  0.
        998    1    1    2    0    0  0.11009412820E+00 -0.98611594643E+01  0.14152228587E+04  0.14152925473E+04  0.10000000000E+02 0.  1.
</event>
<event>
 5    1  0.1072898E-008  0.3716069E+03  0.7957747E-01  0.3488538E+00
         13   -1    0    0    0    0  0.00000000000E+00  0.00000000000E+00  0.14999999963E+04  0.15000000000E+04  0.10566000000E+00 0.  1.
        994   -1    0    0    0    0 -0.00000000000E+00 -0.00000000000E+00  0.11368683772E-12  0.17120000000E+03  0.17120000000E+03 0.  0.
         13    1    1    2    0    0  0.18235988792E+02  0.39072702956E+02  0.10549660112E+03  0.11396829128E+03  0.10566000000E+00 0.  1.
        994    1    1    2    0    0  0.17874479366E+02 -0.42807206160E+02  0.15867784163E+02  0.17808194879E+03  0.17120000000E+03 0.  0.
        998    1    1    2    0    0 -0.36110468158E+02  0.37345032041E+01  0.13786356110E+04  0.13791497599E+04  0.10000000000E+02 0.  1.
</event>
<event>
 5    1  0.1072898E-008  0.3841824E+03  0.7957747E-01  0.3433147E+00
         13   -1    0    0    0    0  0.00000000000E+00  0.00000000000E+00  0.14999999963E+04  0.15000000000E+04  0.10566000000E+00 0. -1.
        994   -1    0    0    0    0 -0.00000000000E+00 -0.00000000000E+00  0.11368683772E-12  0.17120000000E+03  0.17120000000E+03 0.  0.
         13    1    1    2    0    0 -0.55282628562E+00  0.16946842921E+02  0.72240374709E+02  0.74203665705E+02  0.10566000000E+00 0. -1.
        994    1    1    2    0    0 -0.12068762632E+01 -0.63676924838E+01  0.21751370536E+01  0.17133643885E+03  0.17120000000E+03 0.  0.
        998    1    1    2    0    0  0.17597025488E+01 -0.10579150438E+02  0.14255844845E+04  0.14256598954E+04  0.10000000000E+02 0. -1.
</event>
<event>
 5    1  0.1072898E-008  0.3854875E+03  0.7957747E-01  0.3427607E+00
         13   -1    0    0    0    0  0.00000000000E+00  0.00000000000E+00  0.14999999963E+04  0.15000000000E+04  0.10566000000E+00 0. -1.
        994   -1    0    0    0    0 -0.00000000000E+00 -0.00000000000E+00  0.11368683772E-12  0.17120000000E+03  0.17120000000E+03 0.  0.
         13    1    1    2    0    0 -0.31241000079E+01  0.14803087388E+02  0.81525415166E+02  0.82917403957E+02  0.10566000000E+00 0. -1.
        994    1    1    2    0    0  0.94735813854E+01 -0.10312750940E+02  0.20324279091E+01  0.17178379533E+03  0.17120000000E+03 0.  0.
        998    1    1    2    0    0 -0.63494813775E+01 -0.44903364483E+01  0.14164421532E+04  0.14164988007E+04  0.10000000000E+02 0. -1.
</event>
<event>
 5    1  0.1072898E-008  0.3726487E+03  0.7957747E-01  0.3483806E+00
         13   -1    0    0    0    0  0.00000000000E+00  0.00000000000E+00  0.14999999963E+04  0.15000000000E+04  0.10566000000E+00 0. -1.
        994   -1    0    0    0    0 -0.00000000000E+00 -0.00000000000E+00  0.11368683772E-12  0.17120000000E+03  0.17120000000E+03 0.  0.
         13    1    1    2    0    0  0.21176131037E+02 -0.29297661942E+02  0.46233576522E+02  0.58688468058E+02  0.10566000000E+00 0. -1.
        994    1    1    2    0    0 -0.25936623972E+02  0.31191208791E+02  0.18175633022E+02  0.17687677520E+03  0.17120000000E+03 0.  0.
        998    1    1    2    0    0  0.47604929352E+01 -0.18935468499E+01  0.14355907867E+04  0.14356347567E+04  0.10000000000E+02 0. -1.
</event>
<event>
 5    1  0.1072898E-008  0.3835773E+03  0.7957747E-01  0.3435729E+00
         13   -1    0    0    0    0  0.00000000000E+00  0.00000000000E+00  0.14999999963E+04  0.15000000000E+04  0.10566000000E+00 0.  1.
        994   -1    0    0    0    0 -0.00000000000E+00 -0.00000000000E+00  0.11368683772E-12  0.17120000000E+03  0.17120000000E+03 0.  0.
         13    1    1    2    0    0 -0.10611384886E+02  0.10326659184E+01  0.23032733255E+02  0.25380816641E+02  0.10566000000E+00 0.  1.
        994    1    1    2    0    0  0.13533378533E+02 -0.15047068820E+01  0.29509895405E+01  0.17176601764E+03  0.17120000000E+03 0.  0.
        998    1    1    2    0    0 -0.29219936468E+01  0.47204096361E+00  0.14740162735E+04  0.14740531657E+04  0.10000000000E+02 0.  1.
</event>
<event>
 5    1  0.1072898E-008  0.3846236E+03  0.7957747E-01  0.3431270E+00
         13   -1    0    0    0    0  0.00000000000E+00  0.00000000000E+00  0.14999999963E+04  0.15000000000E+04  0.10566000000E+00 0. -1.
        994   -1    0    0    0    0 -0.00000000000E+00 -0.00000000000E+00  0.11368683772E-12  0.17120000000E+03  0.17120000000E+03 0.  0.
         13    1    1    2    0    0  0.12192320664E+02 -0.19259563742E+01  0.42159515760E+02  0.43929465331E+02  0.10566000000E+00 0. -1.
        994    1    1    2    0    0 -0.59728787642E+01 -0.50004161451E+00  0.19354163251E+01  0.17131582285E+03  0.17120000000E+03 0.  0.
        998    1    1    2    0    0 -0.62194418994E+01  0.24259979887E+01  0.14559050642E+04  0.14559547118E+04  0.10000000000E+02 0. -1.
</event>
<event>
 5    1  0.1072898E-008  0.3690361E+03  0.7957747E-01  0.3500333E+00
         13   -1    0    0    0    0  0.00000000000E+00  0.00000000000E+00  0.14999999963E+04  0.15000000000E+04  0.10566000000E+00 0. -1.
        994   -1    0    0    0    0 -0.00000000000E+00 -0.00000000000E+00  0.11368683772E-12  0.17120000000E+03  0.17120000000E+03 0.  0.
         13    1    1    2    0    0  0.35921793004E+02  0.92877716057E+01  0.77285152188E+02  0.85730063728E+02  0.10566000000E+00 0. -1.
        994    1    1    2    0    0  0.31516771281E+02  0.51881971133E+02  0.23382034831E+02  0.18314258203E+03  0.17120000000E+03 0.  0.
        998    1    1    2    0    0 -0.67438564285E+02 -0.61169742738E+02  0.13993328093E+04  0.14023273542E+04  0.10000000000E+02 0. -1.
</event>
<event>
 5    1  0.1072898E-008  0.3841668E+03  0.7957747E-01  0.3433214E+00
         13   -1    0    0    0    0  0.00000000000E+00  0.00000000000E+00  0.14999999963E+04  0.15000000000E+04  0.10566000000E+00 0. -1.
        994   -1    0    0    0    0 -0.00000000000E+00 -0.00000000000E+00  0.11368683772E-12  0.17120000000E+03  0.17120000000E+03 0.  0.
         13    1    1    2    0    0  0.88755126132E+01 -0.16003518731E+02  0.98852894764E+02  0.10053254848E+03  0.10566000000E+00 0. -1.
        994    1    1    2    0    0  0.29045462976E+02  0.37337055666E+00  0.48317500743E+01  0.17371402976E+03  0.17120000000E+03 0.  0.
        998    1    1    2    0    0 -0.37920975589E+02  0.15630148175E+02  0.13963153514E+04  0.13969534218E+04  0.10000000000E+02 0. -1.
</event>
<event>
 5    1  0.1072898E-008  0.3824656E+03  0.7957747E-01  0.3440493E+00
         13   -1    0    0    0    0  0.00000000000E+00  0.00000000000E+00  0.14999999963E+04  0.15000000000E+04  0.10566000000E+00 0.  1.
        994   -1    0    0    0    0 -0.00000000000E+00 -0.00000000000E+00  0.11368683772E-12  0.17120000000E+03  0.17120000000E+03 0.  0.
         13    1    1    2    0    0  0.13371823495E+02 -0.10397058530E+02  0.52166361995E+02  0.54847470110E+02  0.10566000000E+00 0.  1.
        994    1    1    2    0    0  0.30214904855E+01 -0.36341002290E+01  0.29677563698E+01  0.17129093282E+03  0.17120000000E+03 0.  0.
        998    1    1    2    0    0 -0.16393313981E+02  0.14031158759E+02  0.14448658779E+04  0.14450615971E+04  0.10000000000E+02 0.  1.
</event>
<event>
 5    1  0.1072898E-008  0.3759700E+03  0.7957747E-01  0.3468896E+00
         13   -1    0    0    0    0  0.00000000000E+00  0.00000000000E+00  0.14999999963E+04  0.15000000000E+04  0.10566000000E+00 0. -1.
        994   -1    0    0    0    0 -0.00000000000E+00 -0.00000000000E+00  0.11368683772E-12  0.17120000000E+03  0.17120000000E+03 0.  0.
         13    1    1    2    0    0 -0.22886377273E+02 -0.12597103462E+02  0.55674689864E+02  0.61499231993E+02  0.10566000000E+00 0. -1.
        994    1    1    2    0    0 -0.82580861498E+01  0.18095436969E+02  0.75230863591E+01  0.17251573161E+03  0.17120000000E+03 0.  0.
        998    1    1    2    0    0  0.31144463423E+02 -0.54983335069E+01  0.14368022201E+04  0.14371850364E+04  0.10000000000E+02 0. -1.
</event>
<event>
 5    1  0.1072898E-008  0.3772948E+03  0.7957747E-01  0.3463023E+00
         13   -1    0    0    0    0  0.00000000000E+00  0.00000000000E+00  0.14999999963E+04  0.15000000000E+04  0.10566000000E+00 0.  1.
        994   -1    0    0    0    0 -0.00000000000E+00 -0.00000000000E+00  0.11368683772E-12  0.17120000000E+03  0.17120000000E+03 0.  0.
         13    1    1    2    0    0 -0.28380414094E+00  0.27532897912E+02  0.75869840097E+02  0.80711739002E+02  0.10566000000E+00 0.  1.
        994    1    1    2    0    0 -0.22507745617E+02  0.13508465420E+02  0.78328221702E+01  0.17337782544E+03  0.17120000000E+03 0.  0.
        998    1    1    2    0    0  0.22791549758E+02 -0.41041363332E+02  0.14162973340E+04  0.14171104356E+04  0.10000000000E+02 0.  1.
</event>
<event>
 5    1  0.1072898E-008  0.3176044E+03  0.7957747E-01  0.3777839E+00
         13   -1    0    0    0    0  0.00000000000E+00  0.00000000000E+00  0.14999999963E+04  0.15000000000E+04  0.10566000000E+00 0. -1.
        994   -1    0    0    0    0 -0.00000000000E+00 -0.00000000000E+00  0.11368683772E-12  0.17120000000E+03  0.17120000000E+03 0.  0.
         13    1    1    2    0    0 -0.19858025981E+03  0.78922813675E+02  0.75062279626E+03  0.78044700239E+03  0.10566000000E+00 0. -1.
        994    1    1    2    0    0  0.17726167953E+03 -0.80473379904E+02  0.16804876058E+03  0.30894577815E+03  0.17120000000E+03 0.  0.
        998    1    1    2    0    0  0.21318580286E+02  0.15505662289E+01  0.58132843944E+03  0.58180721946E+03  0.10000000000E+02 0. -1.
</event>
<event>
 5    1  0.1072898E-008  0.3805382E+03  0.7957747E-01  0.3448818E+00
         13   -1    0    0    0    0  0.00000000000E+00  0.00000000000E+00  0.14999999963E+04  0.15000000000E+04  0.10566000000E+00 0.  1.
        994   -1    0    0    0    0 -0.00000000000E+00 -0.00000000000E+00  0.11368683772E-12  0.17120000000E+03  0.17120000000E+03 0.  0.
         13    1    1    2    0    0  0.82298980303E+01 -0.12298617639E+02  0.26339558502E+02  0.30212095649E+02  0.10566000000E+00 0.  1.
        994    1    1    2    0    0 -0.12108178208E+02  0.11306481963E+02  0.47780443862E+01  0.17206601705E+03  0.17120000000E+03 0.  0.
        998    1    1    2    0    0  0.38782801773E+01  0.99213567523E+00  0.14688823934E+04  0.14689218873E+04  0.10000000000E+02 0.  1.
</event>
<event>
 5    1  0.1072898E-008  0.3840250E+03  0.7957747E-01  0.3433818E+00
         13   -1    0    0    0    0  0.00000000000E+00  0.00000000000E+00  0.14999999963E+04  0.15000000000E+04  0.10566000000E+00 0.  1.
        994   -1    0    0    0    0 -0.00000000000E+00 -0.00000000000E+00  0.11368683772E-12  0.17120000000E+03  0.17120000000E+03 0.  0.
         13    1    1    2    0    0  0.98264199254E+01 -0.16967300425E+02  0.10233942630E+03  0.10420085006E+03  0.10566000000E+00 0.  1.
        994    1    1    2    0    0 -0.42030370485E+01 -0.78063444634E+01  0.23743498789E+01  0.17144585755E+03  0.17120000000E+03 0.  0.
        998    1    1    2    0    0 -0.56233828768E+01  0.24773644888E+02  0.13952862201E+04  0.13955532924E+04  0.10000000000E+02 0.  1.
</event>
<event>
 5    1  0.1072898E-008  0.3692459E+03  0.7957747E-01  0.3499364E+00
         13   -1    0    0    0    0  0.00000000000E+00  0.00000000000E+00  0.14999999963E+04  0.15000000000E+04  0.10566000000E+00 0. -1.
        994   -1    0    0    0    0 -0.00000000000E+00 -0.00000000000E+00  0.11368683772E-12  0.17120000000E+03  0.17120000000E+03 0.  0.
         13    1    1    2    0    0 -0.83981968117E+02  0.10683493452E+03  0.58227751196E+03  0.59792456573E+03  0.10566000000E+00 0. -1.
        994    1    1    2    0    0  0.74106212472E+02 -0.97921517327E+02  0.65137744792E+02  0.22052827501E+03  0.17120000000E+03 0.  0.
        998    1    1    2    0    0  0.98757556450E+01 -0.89134171903E+01  0.85258473953E+03  0.85274715926E+03  0.10000000000E+02 0.  0.
</event>
<event>
 5    1  0.1072898E-008  0.3740181E+03  0.7957747E-01  0.3477626E+00
         13   -1    0    0    0    0  0.00000000000E+00  0.00000000000E+00  0.14999999963E+04  0.15000000000E+04  0.10566000000E+00 0. -1.
        994   -1    0    0    0    0 -0.00000000000E+00 -0.00000000000E+00  0.11368683772E-12  0.17120000000E+03  0.17120000000E+03 0.  0.
         13    1    1    2    0    0 -0.21701961403E+02  0.70930356568E+02  0.30940593160E+03  0.31817311685E+03  0.10566000000E+00 0. -1.
        994    1    1    2    0    0 -0.17868967869E+01 -0.75580333930E+02  0.26934455240E+02  0.18907798591E+03  0.17120000000E+03 0.  0.
        998    1    1    2    0    0  0.23488858190E+02  0.46499773620E+01  0.11636596094E+04  0.11639488972E+04  0.10000000000E+02 0. -1.
</event>
<event>
 5    1  0.1072898E-008  0.3768759E+03  0.7957747E-01  0.3464875E+00
         13   -1    0    0    0    0  0.00000000000E+00  0.00000000000E+00  0.14999999963E+04  0.15000000000E+04  0.10566000000E+00 0. -1.
        994   -1    0    0    0    0 -0.00000000000E+00 -0.00000000000E+00  0.11368683772E-12  0.17120000000E+03  0.17120000000E+03 0.  0.
         13    1    1    2    0    0  0.72972878492E+01  0.42460358731E+02  0.19288275000E+03  0.19763577330E+03  0.10566000000E+00 0. -1.
        994    1    1    2    0    0  0.20138522520E+02 -0.31977801942E+00  0.70900222162E+01  0.17252643497E+03  0.17120000000E+03 0.  0.
        998    1    1    2    0    0 -0.27435810369E+02 -0.42140580712E+02  0.13000272241E+04  0.13010377917E+04  0.10000000000E+02 0. -1.
</event>
<event>
 5    1  0.1072898E-008  0.3946146E+03  0.7957747E-01  0.3389891E+00
         13   -1    0    0    0    0  0.00000000000E+00  0.00000000000E+00  0.14999999963E+04  0.15000000000E+04  0.10566000000E+00 0.  1.
        994   -1    0    0    0    0 -0.00000000000E+00 -0.00000000000E+00  0.11368683772E-12  0.17120000000E+03  0.17120000000E+03 0.  0.
         13    1    1    2    0    0  0.28224448061E+02 -0.37258441816E+02  0.38439512923E+02  0.60517916956E+02  0.10566000000E+00 0.  1.
        994    1    1    2    0    0  0.95467350924E+01  0.81898490483E+01  0.25205873162E+02  0.17350213203E+03  0.17120000000E+03 0.  0.
        998    1    1    2    0    0 -0.37771183153E+02  0.29068592767E+02  0.14363546102E+04  0.14371799510E+04  0.10000000000E+02 0.  1.
</event>
<event>
 5    1  0.1072898E-008  0.3776919E+03  0.7957747E-01  0.3461270E+00
         13   -1    0    0    0    0  0.00000000000E+00  0.00000000000E+00  0.14999999963E+04  0.15000000000E+04  0.10566000000E+00 0. -1.
        994   -1    0    0    0    0 -0.00000000000E+00 -0.00000000000E+00  0.11368683772E-12  0.17120000000E+03  0.17120000000E+03 0.  0.
         13    1    1    2    0    0  0.23309564267E+02 -0.56023248594E+01  0.57068624590E+02  0.61899603446E+02  0.10566000000E+00 0. -1.
        994    1    1    2    0    0  0.11136176146E+02  0.66824969132E+01  0.58711910057E+01  0.17179226137E+03  0.17120000000E+03 0.  0.
        998    1    1    2    0    0 -0.34445740413E+02 -0.10801720538E+01  0.14370601807E+04  0.14375081352E+04  0.10000000000E+02 0. -1.
</event>
<event>
 5    1  0.1072898E-008  0.3824519E+03  0.7957747E-01  0.3440551E+00
         13   -1    0    0    0    0  0.00000000000E+00  0.00000000000E+00  0.14999999963E+04  0.15000000000E+04  0.10566000000E+00 0.  1.
        994   -1    0    0    0    0 -0.00000000000E+00 -0.00000000000E+00  0.11368683772E-12  0.17120000000E+03  0.17120000000E+03 0.  0.
         13    1    1    2    0    0 -0.76092298268E+01 -0.23999172020E+02  0.12576975436E+03  0.12826497149E+03  0.10566000000E+00 0.  1.
        994    1    1    2    0    0  0.16488685097E+01 -0.69176384718E+01  0.30682350211E+01  0.17137510483E+03  0.17120000000E+03 0.  0.
        998    1    1    2    0    0  0.59603613171E+01  0.30916810492E+02  0.13711620069E+04  0.13715599237E+04  0.10000000000E+02 0.  1.
</event>
<event>
 5    1  0.1072898E-008  0.3772578E+03  0.7957747E-01  0.3463186E+00
         13   -1    0    0    0    0  0.00000000000E+00  0.00000000000E+00  0.14999999963E+04  0.15000000000E+04  0.10566000000E+00 0.  1.
        994   -1    0    0    0    0 -0.00000000000E+00 -0.00000000000E+00  0.11368683772E-12  0.17120000000E+03  0.17120000000E+03 0.  0.
         13    1    1    2    0    0 -0.33622543076E+01  0.10969470140E+02  0.95743557476E+01  0.14943676963E+02  0.10566000000E+00 0.  1.
        994    1    1    2    0    0  0.29770879788E+01 -0.77777760731E+00  0.55557743821E+01  0.17131775921E+03  0.17120000000E+03 0.  0.
        998    1    1    2    0    0  0.38516632880E+00 -0.10191692532E+02  0.14848698661E+04  0.14849385638E+04  0.10000000000E+02 0.  0.
</event>
<event>
 5    1  0.1072898E-008  0.3908218E+03  0.7957747E-01  0.3405350E+00
         13   -1    0    0    0    0  0.00000000000E+00  0.00000000000E+00  0.14999999963E+04  0.15000000000E+04  0.10566000000E+00 0.  1.
        994   -1    0    0    0    0 -0.00000000000E+00 -0.00000000000E+00  0.11368683772E-12  0.17120000000E+03  0.17120000000E+03 0.  0.
         13    1    1    2    0    0 -0.17554193857E+02  0.80993137521E+02  0.15469332094E+03  0.17549379691E+03  0.10566000000E+00 0.  1.
        994    1    1    2    0    0 -0.14116705637E+02 -0.43447357015E+02  0.30321466045E+02  0.17976591866E+03  0.17120000000E+03 0.  0.
        998    1    1    2    0    0  0.31670899494E+02 -0.37545780506E+02  0.13149852093E+04  0.13159402844E+04  0.10000000000E+02 0.  1.
</event>
<event>
 5    1  0.1072898E-008  0.3857697E+03  0.7957747E-01  0.3426414E+00
         13   -1    0    0    0    0  0.00000000000E+00  0.00000000000E+00  0.14999999963E+04  0.15000000000E+04  0.10566000000E+00 0. -1.
        994   -1    0    0    0    0 -0.00000000000E+00 -0.00000000000E+00  0.11368683772E-12  0.17120000000E+03  0.17120000000E+03 0.  0.
         13    1    1    2    0    0  0.10892581306E+02  0.76516941822E+01  0.76873087900E+02  0.78017174767E+02  0.10566000000E+00 0. -1.
        994    1    1    2    0    0  0.31672820035E+01 -0.41529156842E+01  0.13379440630E+01  0.17128487522E+03  0.17120000000E+03 0.  0.
        998    1    1    2    0    0 -0.14059863310E+02 -0.34987784980E+01  0.14217889643E+04  0.14218979500E+04  0.10000000000E+02 0. -1.
</event>
<event>
 5    1  0.1072898E-008  0.3773833E+03  0.7957747E-01  0.3462632E+00
         13   -1    0    0    0    0  0.00000000000E+00  0.00000000000E+00  0.14999999963E+04  0.15000000000E+04  0.10566000000E+00 0. -1.
        994   -1    0    0    0    0 -0.00000000000E+00 -0.00000000000E+00  0.11368683772E-12  0.17120000000E+03  0.17120000000E+03 0.  0.
         13    1    1    2    0    0 -0.16036393273E+01 -0.13314210955E+02  0.13924156114E+02  0.19332179391E+02  0.10566000000E+00 0. -1.
        994    1    1    2    0    0  0.12407097004E+01  0.14094591678E+02  0.61352727056E+01  0.17189321815E+03  0.17120000000E+03 0.  0.
        998    1    1    2    0    0  0.36292962688E+00 -0.78038072246E+00  0.14799405675E+04  0.14799746025E+04  0.10000000000E+02 0. -1.
</event>
<event>
 5    1  0.1072898E-008  0.3765337E+03  0.7957747E-01  0.3466392E+00
         13   -1    0    0    0    0  0.00000000000E+00  0.00000000000E+00  0.14999999963E+04  0.15000000000E+04  0.10566000000E+00 0. -1.
        994   -1    0    0    0    0 -0.00000000000E+00 -0.00000000000E+00  0.11368683772E-12  0.17120000000E+03  0.17120000000E+03 0.  0.
         13    1    1    2    0    0 -0.11631644309E+02 -0.67742083574E+01  0.12694645074E+02  0.18502708607E+02  0.10566000000E+00 0. -1.
        994    1    1    2    0    0  0.12270687844E+02  0.29141644950E+01  0.64313460163E+01  0.17178435420E+03  0.17120000000E+03 0.  0.
        998    1    1    2    0    0 -0.63904353423E+00  0.38600438624E+01  0.14808740052E+04  0.14809129372E+04  0.10000000000E+02 0. -1.
</event>
<event>
 5    1  0.1072898E-008  0.3851092E+03  0.7957747E-01  0.3429209E+00
         13   -1    0    0    0    0  0.00000000000E+00  0.00000000000E+00  0.14999999963E+04  0.15000000000E+04  0.10566000000E+00 0.  1.
        994   -1    0    0    0    0 -0.00000000000E+00 -0.00000000000E+00  0.11368683772E-12  0.17120000000E+03  0.17120000000E+03 0.  0.
         13    1    1    2    0    0 -0.14915777163E+02 -0.36610390237E+01  0.78413571488E+02  0.79903585481E+02  0.10566000000E+00 0.  1.
        994    1    1    2    0    0  0.28457523362E+01  0.38953435506E+01  0.16524654505E+01  0.17127592548E+03  0.17120000000E+03 0.  0.
        998    1    1    2    0    0  0.12070024827E+02 -0.23430452696E+00  0.14199339593E+04  0.14200204890E+04  0.10000000000E+02 0.  1.
</event>
<event>
 5    1  0.1072898E-008  0.3733700E+03  0.7957747E-01  0.3480545E+00
         13   -1    0    0    0    0  0.00000000000E+00  0.00000000000E+00  0.14999999963E+04  0.15000000000E+04  0.10566000000E+00 0.  1.
        994   -1    0    0    0    0 -0.00000000000E+00 -0.00000000000E+00  0.11368683772E-12  0.17120000000E+03  0.17120000000E+03 0.  0.
         13    1    1    2    0    0 -0.18147754272E+02  0.28013772462E+02  0.71843791136E+02  0.79219024997E+02  0.10566000000E+00 0.  1.
        994    1    1    2    0    0  0.13841470071E+01 -0.21935977620E+02  0.91711372264E+01  0.17284864111E+03  0.17120000000E+03 0.  0.
        998    1    1    2    0    0  0.16763607265E+02 -0.60777948421E+01  0.14189850679E+04  0.14191323339E+04  0.10000000000E+02 0.  1.
</event>
<event>
 5    1  0.1072898E-008  0.3825080E+03  0.7957747E-01  0.3440310E+00
         13   -1    0    0    0    0  0.00000000000E+00  0.00000000000E+00  0.14999999963E+04  0.15000000000E+04  0.10566000000E+00 0. -1.
        994   -1    0    0    0    0 -0.00000000000E+00 -0.00000000000E+00  0.11368683772E-12  0.17120000000E+03  0.17120000000E+03 0.  0.
         13    1    1    2    0    0 -0.18279451588E+02  0.13050824035E+02  0.86710658245E+02  0.89572382885E+02  0.10566000000E+00 0. -1.
        994    1    1    2    0    0  0.14464427065E+02 -0.47167061178E+01  0.36402166397E+01  0.17191322853E+03  0.17120000000E+03 0.  0.
        998    1    1    2    0    0  0.38150245226E+01 -0.83341179168E+01  0.14096491214E+04  0.14097143886E+04  0.10000000000E+02 0. -1.
</event>
<event>
 5    1  0.1700929E-008  0.3863101E+03  0.7957747E-01  0.3424135E+00
         13   -1    0    0    0    0  0.00000000000E+00  0.00000000000E+00  0.14999999963E+04  0.15000000000E+04  0.10566000000E+00 0. -1.
        994   -1    0    0    0    0 -0.00000000000E+00 -0.00000000000E+00  0.11368683772E-12  0.17120000000E+03  0.17120000000E+03 0.  0.
         13    1    1    2    0    0  0.98444570114E+01 -0.26543393234E+01  0.53197174629E+02  0.54165573971E+02  0.10566000000E+00 0. -1.
        994    1    1    2    0    0 -0.80908614739E+01  0.34736882545E+01  0.12350054087E+01  0.17143072592E+03  0.17120000000E+03 0.  0.
        998    1    1    2    0    0 -0.17535955375E+01 -0.81934893109E+00  0.14455678162E+04  0.14456037001E+04  0.10000000000E+02 0. -1.
</event>
<event>
 5    1  0.1072898E-008  0.3718602E+03  0.7957747E-01  0.3487385E+00
         13   -1    0    0    0    0  0.00000000000E+00  0.00000000000E+00  0.14999999963E+04  0.15000000000E+04  0.10566000000E+00 0.  1.
        994   -1    0    0    0    0 -0.00000000000E+00 -0.00000000000E+00  0.11368683772E-12  0.17120000000E+03  0.17120000000E+03 0.  0.
         13    1    1    2    0    0 -0.96239915437E+02 -0.80773571328E+02  0.57779978918E+03  0.59130288236E+03  0.10566000000E+00 0.  1.
        994    1    1    2    0    0  0.10399955592E+03  0.67266935417E+02  0.63000075810E+02  0.22049761401E+03  0.17120000000E+03 0.  0.
        998    1    1    2    0    0 -0.77596404785E+01  0.13506635911E+02  0.85920013129E+03  0.85939950363E+03  0.10000000000E+02 0.  1.
</event>
<event>
 5    1  0.1072898E-008  0.3829361E+03  0.7957747E-01  0.3438473E+00
         13   -1    0    0    0    0  0.00000000000E+00  0.00000000000E+00  0.14999999963E+04  0.15000000000E+04  0.10566000000E+00 0.  1.
        994   -1    0    0    0    0 -0.00000000000E+00 -0.00000000000E+00  0.11368683772E-12  0.17120000000E+03  0.17120000000E+03 0.  0.
         13    1    1    2    0    0  0.13325375701E+02 -0.90800060884E+00  0.33303956411E+02  0.35882513560E+02  0.10566000000E+00 0.  1.
        994    1    1    2    0    0 -0.43004940263E+01 -0.49868305843E+01  0.28019013612E+01  0.17134950650E+03  0.17120000000E+03 0.  0.
        998    1    1    2    0    0 -0.90248816748E+01  0.58948311932E+01  0.14638941385E+04  0.14639679799E+04  0.10000000000E+02 0.  1.
</event>
<event>
 5    1  0.1466114E-008  0.3862599E+03  0.7957747E-01  0.3424346E+00
         13   -1    0    0    0    0  0.00000000000E+00  0.00000000000E+00  0.14999999963E+04  0.15000000000E+04  0.10566000000E+00 0.  1.
        994   -1    0    0    0    0 -0.00000000000E+00 -0.00000000000E+00  0.11368683772E-12  0.17120000000E+03  0.17120000000E+03 0.  0.
         13    1    1    2    0    0  0.83050606775E+01  0.79856876551E+01  0.68966256154E+02  0.69922105890E+02  0.10566000000E+00 0.  1.
        994    1    1    2    0    0 -0.60998417692E+01  0.11114014920E+00  0.11278191695E+01  0.17131238250E+03  0.17120000000E+03 0.  0.
        998    1    1    2    0    0 -0.22052189082E+01 -0.80968278043E+01  0.14299059210E+04  0.14299655116E+04  0.10000000000E+02 0.  1.
</event>
<event>
 5    1  0.1072898E-008  0.3768817E+03  0.7957747E-01  0.3464850E+00
         13   -1    0    0    0    0  0.00000000000E+00  0.00000000000E+00  0.14999999963E+04  0.15000000000E+04  0.10566000000E+00 0.  1.
        994   -1    0    0    0    0 -0.00000000000E+00 -0.00000000000E+00  0.11368683772E-12  0.17120000000E+03  0.17120000000E+03 0.  0.
         13    1    1    2    0    0  0.46648021663E+02 -0.48030645078E+02  0.13104622034E+03  0.14716012986E+03  0.10566000000E+00 0.  1.
        994    1    1    2    0    0 -0.53789402475E+02  0.54525764165E+02  0.35953522308E+02  0.19096715566E+03  0.17120000000E+03 0.  0.
        998    1    1    2    0    0  0.71413808116E+01 -0.64951190870E+01  0.13330002536E+04  0.13330727145E+04  0.10000000000E+02 0.  1.
</event>
<event>
 5    1  0.1072898E-008  0.3692012E+03  0.7957747E-01  0.3499570E+00
         13   -1    0    0    0    0  0.00000000000E+00  0.00000000000E+00  0.14999999963E+04  0.15000000000E+04  0.10566000000E+00 0.  1.
        994   -1    0    0    0    0 -0.00000000000E+00 -0.00000000000E+00  0.11368683772E-12  0.17120000000E+03  0.17120000000E+03 0.  0.
         13    1    1    2    0    0  0.31620556582E+02 -0.29284590822E+02  0.70121439705E+02  0.82307194877E+02  0.10566000000E+00 0.  1.
        994    1    1    2    0    0 -0.50857566724E+02  0.71456254958E+02  0.37838186781E+02  0.19604503780E+03  0.17120000000E+03 0.  0.
        998    1    1    2    0    0  0.19237010142E+02 -0.42171664136E+02  0.13920403698E+04  0.13928477673E+04  0.10000000000E+02 0.  1.
</event>
<event>
 5    1  0.1072898E-008  0.3833362E+03  0.7957747E-01  0.3436759E+00
         13   -1    0    0    0    0  0.00000000000E+00  0.00000000000E+00  0.14999999963E+04  0.15000000000E+04  0.10566000000E+00 0.  1.
        994   -1    0    0    0    0 -0.00000000000E+00 -0.00000000000E+00  0.11368683772E-12  0.17120000000E+03  0.17120000000E+03 0.  0.
         13    1    1    2    0    0 -0.20950535674E+02 -0.53852751165E+00  0.92275090744E+02  0.94625147253E+02  0.10566000000E+00 0.  1.
        994    1    1    2    0    0  0.67444338382E+01  0.43234639651E+01  0.26706944331E+01  0.17140814548E+03  0.17120000000E+03 0.  0.
        998    1    1    2    0    0  0.14206101836E+02 -0.37849364534E+01  0.14050542111E+04  0.14051667073E+04  0.10000000000E+02 0.  1.
</event>
<event>
 5    1  0.1072898E-008  0.3760302E+03  0.7957747E-01  0.3468628E+00
         13   -1    0    0    0    0  0.00000000000E+00  0.00000000000E+00  0.14999999963E+04  0.15000000000E+04  0.10566000000E+00 0.  1.
        994   -1    0    0    0    0 -0.00000000000E+00 -0.00000000000E+00  0.11368683772E-12  0.17120000000E+03  0.17120000000E+03 0.  0.
         13    1    1    2    0    0  0.24146823845E+02 -0.43776134533E+02  0.18346265086E+03  0.19015250322E+03  0.10566000000E+00 0.  1.
        994    1    1    2    0    0 -0.14084714522E+02  0.43435478465E+02  0.13246377607E+02  0.17767927986E+03  0.17120000000E+03 0.  0.
        998    1    1    2    0    0 -0.10062109323E+02  0.34065606802E+00  0.13032909678E+04  0.13033682169E+04  0.10000000000E+02 0.  1.
</event>
<event>
 5    1  0.1072898E-008  0.3814871E+03  0.7957747E-01  0.3444709E+00
         13   -1    0    0    0    0  0.00000000000E+00  0.00000000000E+00  0.14999999963E+04  0.15000000000E+04  0.10566000000E+00 0.  1.
        994   -1    0    0    0    0 -0.00000000000E+00 -0.00000000000E+00  0.11368683772E-12  0.17120000000E+03  0.17120000000E+03 0.  0.
         13    1    1    2    0    0 -0.10167560282E+02  0.36905270153E+02  0.22620888527E+03  0.22942504045E+03  0.10566000000E+00 0.  1.
        994    1    1    2    0    0  0.22408805814E+02 -0.11558806284E+02  0.55021385473E+01  0.17313426613E+03  0.17120000000E+03 0.  0.
        998    1    1    2    0    0 -0.12241245531E+02 -0.25346463869E+02  0.12682889725E+04  0.12686406934E+04  0.10000000000E+02 0.  1.
</event>
<event>
 5    1  0.1072898E-008  0.3853456E+03  0.7957747E-01  0.3428208E+00
         13   -1    0    0    0    0  0.00000000000E+00  0.00000000000E+00  0.14999999963E+04  0.15000000000E+04  0.10566000000E+00 0. -1.
        994   -1    0    0    0    0 -0.00000000000E+00 -0.00000000000E+00  0.11368683772E-12  0.17120000000E+03  0.17120000000E+03 0.  0.
         13    1    1    2    0    0 -0.95683561669E+01  0.11977045005E+02  0.84932395633E+02  0.86304843657E+02  0.10566000000E+00 0. -1.
        994    1    1    2    0    0  0.61917277087E+01  0.32440086848E+00  0.15849465480E+01  0.17131956918E+03  0.17120000000E+03 0.  0.
        998    1    1    2    0    0  0.33766284582E+01 -0.12301445874E+02  0.14134826541E+04  0.14135755872E+04  0.10000000000E+02 0. -1.
</event>
<event>
 5    1  0.1072898E-008  0.3848051E+03  0.7957747E-01  0.3430499E+00
         13   -1    0    0    0    0  0.00000000000E+00  0.00000000000E+00  0.14999999963E+04  0.15000000000E+04  0.10566000000E+00 0.  1.
        994   -1    0    0    0    0 -0.00000000000E+00 -0.00000000000E+00  0.11368683772E-12  0.17120000000E+03  0.17120000000E+03 0.  0.
         13    1    1    2    0    0 -0.18622780017E+01  0.10723344637E+02  0.33931241490E+02  0.35634232314E+02  0.10566000000E+00 0.  1.
        994    1    1    2    0    0 -0.78044031151E+00 -0.82811408695E+01  0.19546476835E+01  0.17141308885E+03  0.17120000000E+03 0.  0.
        998    1    1    2    0    0  0.26427183132E+01 -0.24422037679E+01  0.14641141071E+04  0.14641526788E+04  0.10000000000E+02 0.  1.
</event>
<event>
 5    1  0.1072898E-008  0.3836685E+03  0.7957747E-01  0.3435339E+00
         13   -1    0    0    0    0  0.00000000000E+00  0.00000000000E+00  0.14999999963E+04  0.15000000000E+04  0.10566000000E+00 0.  1.
        994   -1    0    0    0    0 -0.00000000000E+00 -0.00000000000E+00  0.11368683772E-12  0.17120000000E+03  0.17120000000E+03 0.  0.
         13    1    1    2    0    0  0.62626139623E+01 -0.14164250026E+02  0.50208662959E+02  0.52543004412E+02  0.10566000000E+00 0.  1.
        994    1    1    2    0    0 -0.88736679066E+01  0.14100034638E+02  0.32099075609E+01  0.17203864817E+03  0.17120000000E+03 0.  0.
        998    1    1    2    0    0  0.26110539443E+01  0.64215387675E-01  0.14465814258E+04  0.14466183474E+04  0.10000000000E+02 0.  1.
</event>
<event>
 5    1  0.1072898E-008  0.3850003E+03  0.7957747E-01  0.3429671E+00
         13   -1    0    0    0    0  0.00000000000E+00  0.00000000000E+00  0.14999999963E+04  0.15000000000E+04  0.10566000000E+00 0.  1.
        994   -1    0    0    0    0 -0.00000000000E+00 -0.00000000000E+00  0.11368683772E-12  0.17120000000E+03  0.17120000000E+03 0.  0.
         13    1    1    2    0    0 -0.98956746773E+01  0.16855799274E+02  0.11090635276E+03  0.11261559658E+03  0.10566000000E+00 0.  1.
        994    1    1    2    0    0  0.10305145092E+02 -0.16112362468E+02  0.28339170842E+01  0.17228834936E+03  0.17120000000E+03 0.  0.
        998    1    1    2    0    0 -0.40947041435E+00 -0.74343680626E+00  0.13862597264E+04  0.13862960541E+04  0.10000000000E+02 0.  0.
</event>
<event>
 5    1  0.1072898E-008  0.3711360E+03  0.7957747E-01  0.3490686E+00
         13   -1    0    0    0    0  0.00000000000E+00  0.00000000000E+00  0.14999999963E+04  0.15000000000E+04  0.10566000000E+00 0. -1.
        994   -1    0    0    0    0 -0.00000000000E+00 -0.00000000000E+00  0.11368683772E-12  0.17120000000E+03  0.17120000000E+03 0.  0.
         13    1    1    2    0    0 -0.11238657226E+02  0.30008263217E+02  0.53938788007E+02  0.62739200610E+02  0.10566000000E+00 0. -1.
        994    1    1    2    0    0  0.13496473251E+02 -0.29884590495E+02  0.12388793056E+02  0.17475172598E+03  0.17120000000E+03 0.  0.
        998    1    1    2    0    0 -0.22578160243E+01 -0.12367272200E+00  0.14336724152E+04  0.14337090734E+04  0.10000000000E+02 0. -1.
</event>
<event>
 5    1  0.1072898E-008  0.3852934E+03  0.7957747E-01  0.3428429E+00
         13   -1    0    0    0    0  0.00000000000E+00  0.00000000000E+00  0.14999999963E+04  0.15000000000E+04  0.10566000000E+00 0. -1.
        994   -1    0    0    0    0 -0.00000000000E+00 -0.00000000000E+00  0.11368683772E-12  0.17120000000E+03  0.17120000000E+03 0.  0.
         13    1    1    2    0    0  0.75386686910E+01 -0.12006119520E+02  0.72386504879E+02  0.73761749465E+02  0.10566000000E+00 0. -1.
        994    1    1    2    0    0 -0.45453048594E+01 -0.24908180816E+01  0.15727881005E+01  0.17128566091E+03  0.17120000000E+03 0.  0.
        998    1    1    2    0    0 -0.29933638316E+01  0.14496937602E+02  0.14260407033E+04  0.14261525896E+04  0.10000000000E+02 0. -1.
</event>
<event>
 5    1  0.1072898E-008  0.3857935E+03  0.7957747E-01  0.3426314E+00
         13   -1    0    0    0    0  0.00000000000E+00  0.00000000000E+00  0.14999999963E+04  0.15000000000E+04  0.10566000000E+00 0.  1.
        994   -1    0    0    0    0 -0.00000000000E+00 -0.00000000000E+00  0.11368683772E-12  0.17120000000E+03  0.17120000000E+03 0.  0.
         13    1    1    2    0    0  0.13063112819E+02 -0.75035456063E+01  0.90981453881E+02  0.92220302686E+02  0.10566000000E+00 0.  1.
        994    1    1    2    0    0 -0.13415513603E+02  0.31709023940E+00  0.18276146373E+01  0.17173484424E+03  0.17120000000E+03 0.  0.
        998    1    1    2    0    0  0.35240078337E+00  0.71864553669E+01  0.14071909278E+04  0.14072448531E+04  0.10000000000E+02 0.  1.
</event>
<event>
 5    1  0.1072898E-008  0.3843733E+03  0.7957747E-01  0.3432334E+00
         13   -1    0    0    0    0  0.00000000000E+00  0.00000000000E+00  0.14999999963E+04  0.15000000000E+04  0.10566000000E+00 0. -1.
        994   -1    0    0    0    0 -0.00000000000E+00 -0.00000000000E+00  0.11368683772E-12  0.17120000000E+03  0.17120000000E+03 0.  0.
         13    1    1    2    0    0 -0.14194468985E+02  0.10943171504E+02  0.81035588437E+02  0.82994058280E+02  0.10566000000E+00 0. -1.
        994    1    1    2    0    0  0.12595159509E+02 -0.69273103798E+01  0.26227858436E+01  0.17182242193E+03  0.17120000000E+03 0.  0.
        998    1    1    2    0    0  0.15993094762E+01 -0.40158611245E+01  0.14163416220E+04  0.14163835198E+04  0.10000000000E+02 0. -1.
</event>
<event>
 5    1  0.1072898E-008  0.3856063E+03  0.7957747E-01  0.3427105E+00
         13   -1    0    0    0    0  0.00000000000E+00  0.00000000000E+00  0.14999999963E+04  0.15000000000E+04  0.10566000000E+00 0.  1.
        994   -1    0    0    0    0 -0.00000000000E+00 -0.00000000000E+00  0.11368683772E-12  0.17120000000E+03  0.17120000000E+03 0.  0.
         13    1    1    2    0    0  0.12893286699E+02 -0.94864136605E+01  0.96443175019E+02  0.97762600506E+02  0.10566000000E+00 0.  1.
        994    1    1    2    0    0 -0.93854662111E+01  0.56634449347E+01  0.17239323362E+01  0.17155924203E+03  0.17120000000E+03 0.  0.
        998    1    1    2    0    0 -0.35078204880E+01  0.38229687258E+01  0.14018328889E+04  0.14018781575E+04  0.10000000000E+02 0.  1.
</event>
<event>
 5    1  0.1072898E-008  0.3849788E+03  0.7957747E-01  0.3429762E+00
         13   -1    0    0    0    0  0.00000000000E+00  0.00000000000E+00  0.14999999963E+04  0.15000000000E+04  0.10566000000E+00 0.  1.
        994   -1    0    0    0    0 -0.00000000000E+00 -0.00000000000E+00  0.11368683772E-12  0.17120000000E+03  0.17120000000E+03 0.  0.
         13    1    1    2    0    0 -0.46636436871E+02  0.50907266418E+02  0.14310951026E+03  0.15889257411E+03  0.10566000000E+00 0.  1.
        994    1    1    2    0    0 -0.28477379950E+02 -0.14856617160E+02  0.22906556834E+02  0.17568673993E+03  0.17120000000E+03 0.  0.
        998    1    1    2    0    0  0.75113816821E+02 -0.36050649258E+02  0.13339839292E+04  0.13366206860E+04  0.10000000000E+02 0.  1.
</event>
<event>
 5    1  0.1072898E-008  0.3833843E+03  0.7957747E-01  0.3436554E+00
         13   -1    0    0    0    0  0.00000000000E+00  0.00000000000E+00  0.14999999963E+04  0.15000000000E+04  0.10566000000E+00 0. -1.
        994   -1    0    0    0    0 -0.00000000000E+00 -0.00000000000E+00  0.11368683772E-12  0.17120000000E+03  0.17120000000E+03 0.  0.
         13    1    1    2    0    0  0.17191908643E+02  0.17394124729E+02  0.11020784380E+03  0.11288887144E+03  0.10566000000E+00 0. -1.
        994    1    1    2    0    0 -0.25854664883E+02 -0.17189949788E+02  0.56277826984E+01  0.17408351446E+03  0.17120000000E+03 0.  0.
        998    1    1    2    0    0  0.86627562403E+01 -0.20417494124E+00  0.13841643698E+04  0.13842276141E+04  0.10000000000E+02 0. -1.
</event>
<event>
 5    1  0.1072898E-008  0.3702689E+03  0.7957747E-01  0.3494656E+00
         13   -1    0    0    0    0  0.00000000000E+00  0.00000000000E+00  0.14999999963E+04  0.15000000000E+04  0.10566000000E+00 0.  1.
        994   -1    0    0    0    0 -0.00000000000E+00 -0.00000000000E+00  0.11368683772E-12  0.17120000000E+03  0.17120000000E+03 0.  0.
         13    1    1    2    0    0 -0.88719361066E+01  0.35637592830E+02  0.66925217997E+02  0.76339670165E+02  0.10566000000E+00 0.  1.
        994    1    1    2    0    0  0.36460162256E+01 -0.40299468164E+02  0.14805927994E+02  0.17653893642E+03  0.17120000000E+03 0.  0.
        998    1    1    2    0    0  0.52259198810E+01  0.46618753336E+01  0.14182688503E+04  0.14183213934E+04  0.10000000000E+02 0.  1.
</event>
<event>
 5    1  0.1072898E-008  0.3783508E+03  0.7957747E-01  0.3458371E+00
         13   -1    0    0    0    0  0.00000000000E+00  0.00000000000E+00  0.14999999963E+04  0.15000000000E+04  0.10566000000E+00 0. -1.
        994   -1    0    0    0    0 -0.00000000000E+00 -0.00000000000E+00  0.11368683772E-12  0.17120000000E+03  0.17120000000E+03 0.  0.
         13    1    1    2    0    0 -0.78137104825E+01 -0.16013442130E+02  0.30472815444E+02  0.35299972316E+02  0.10566000000E+00 0. -1.
        994    1    1    2    0    0 -0.12627745602E+02  0.12824408536E+02  0.60575333285E+01  0.17224999020E+03  0.17120000000E+03 0.  0.
        998    1    1    2    0    0  0.20441456084E+02  0.31890335943E+01  0.14634696475E+04  0.14636500375E+04  0.10000000000E+02 0. -1.
</event>
<event>
 5    1  0.1072898E-008  0.3783440E+03  0.7957747E-01  0.3458401E+00
         13   -1    0    0    0    0  0.00000000000E+00  0.00000000000E+00  0.14999999963E+04  0.15000000000E+04  0.10566000000E+00 0.  1.
        994   -1    0    0    0    0 -0.00000000000E+00 -0.00000000000E+00  0.11368683772E-12  0.17120000000E+03  0.17120000000E+03 0.  0.
         13    1    1    2    0    0  0.16285928596E+02  0.33868702037E+02  0.12627563839E+03  0.13174926361E+03  0.10566000000E+00 0.  1.
        994    1    1    2    0    0 -0.30511074915E+02 -0.32449193646E+02  0.11668965007E+02  0.17728361629E+03  0.17120000000E+03 0.  0.
        998    1    1    2    0    0  0.14225146319E+02 -0.14195083915E+01  0.13620553929E+04  0.13621671201E+04  0.10000000000E+02 0.  1.
</event>
<event>
 5    1  0.1072898E-008  0.3815988E+03  0.7957747E-01  0.3444227E+00
         13   -1    0    0    0    0  0.00000000000E+00  0.00000000000E+00  0.14999999963E+04  0.15000000000E+04  0.10566000000E+00 0. -1.
        994   -1    0    0    0    0 -0.00000000000E+00 -0.00000000000E+00  0.11368683772E-12  0.17120000000E+03  0.17120000000E+03 0.  0.
         13    1    1    2    0    0  0.11191751803E+02  0.30115360013E+01  0.18846378105E+02  0.22125139304E+02  0.10566000000E+00 0. -1.
        994    1    1    2    0    0 -0.76911932768E+01 -0.18234272384E+01  0.35360723591E+01  0.17141885296E+03  0.17120000000E+03 0.  0.
        998    1    1    2    0    0 -0.35005585262E+01 -0.11881087629E+01  0.14776175458E+04  0.14776560077E+04  0.10000000000E+02 0. -1.
</event>
<event>
 5    1  0.1072898E-008  0.3825049E+03  0.7957747E-01  0.3440324E+00
         13   -1    0    0    0    0  0.00000000000E+00  0.00000000000E+00  0.14999999963E+04  0.15000000000E+04  0.10566000000E+00 0.  1.
        994   -1    0    0    0    0 -0.00000000000E+00 -0.00000000000E+00  0.11368683772E-12  0.17120000000E+03  0.17120000000E+03 0.  0.
         13    1    1    2    0    0  0.14437848992E+02 -0.15550357881E+02  0.72629978245E+02  0.75666307018E+02  0.10566000000E+00 0.  1.
        994    1    1    2    0    0 -0.27285151427E+02  0.10293188787E+02  0.56987046075E+01  0.17375944423E+03  0.17120000000E+03 0.  0.
        998    1    1    2    0    0  0.12847302435E+02  0.52571690940E+01  0.14216713134E+04  0.14217742488E+04  0.10000000000E+02 0.  1.
</event>
<event>
 5    1  0.1072898E-008  0.3838024E+03  0.7957747E-01  0.3434767E+00
         13   -1    0    0    0    0  0.00000000000E+00  0.00000000000E+00  0.14999999963E+04  0.15000000000E+04  0.10566000000E+00 0.  1.
        994   -1    0    0    0    0 -0.00000000000E+00 -0.00000000000E+00  0.11368683772E-12  0.17120000000E+03  0.17120000000E+03 0.  0.
         13    1    1    2    0    0 -0.25918190118E+02  0.38404571947E+01  0.14101301105E+03  0.14342657404E+03  0.10566000000E+00 0.  1.
        994    1    1    2    0    0  0.28768703259E+02  0.10449914905E+02  0.53249994150E+01  0.17399607647E+03  0.17120000000E+03 0.  0.
        998    1    1    2    0    0 -0.28505131405E+01 -0.14290372100E+02  0.13536619858E+04  0.13537773495E+04  0.10000000000E+02 0.  1.
</event>
<event>
 5    1  0.1072898E-008  0.3824033E+03  0.7957747E-01  0.3440760E+00
         13   -1    0    0    0    0  0.00000000000E+00  0.00000000000E+00  0.14999999963E+04  0.15000000000E+04  0.10566000000E+00 0.  1.
        994   -1    0    0    0    0 -0.00000000000E+00 -0.00000000000E+00  0.11368683772E-12  0.17120000000E+03  0.17120000000E+03 0.  0.
         13    1    1    2    0    0  0.27441688222E+02  0.19422305296E+02  0.18657828684E+03  0.18958307013E+03  0.10566000000E+00 0.  1.
        994    1    1    2    0    0 -0.22743668500E+02 -0.82577874509E+01  0.48690243420E+01  0.17296997690E+03  0.17120000000E+03 0.  0.
        998    1    1    2    0    0 -0.46980197224E+01 -0.11164517845E+02  0.13085526851E+04  0.13086469530E+04  0.10000000000E+02 0.  1.
</event>
<event>
 5    1  0.1072898E-008  0.3852148E+03  0.7957747E-01  0.3428762E+00
         13   -1    0    0    0    0  0.00000000000E+00  0.00000000000E+00  0.14999999963E+04  0.15000000000E+04  0.10566000000E+00 0. -1.
        994   -1    0    0    0    0 -0.00000000000E+00 -0.00000000000E+00  0.11368683772E-12  0.17120000000E+03  0.17120000000E+03 0.  0.
         13    1    1    2    0    0 -0.35096170571E+01  0.11491314878E+02  0.46580133088E+02  0.48104965358E+02  0.10566000000E+00 0. -1.
        994    1    1    2    0    0 -0.22336001823E+01 -0.12490150079E+02  0.20528036137E+01  0.17168181855E+03  0.17120000000E+03 0.  0.
        998    1    1    2    0    0  0.57432172395E+01  0.99883520078E+00  0.14513670596E+04  0.14514132161E+04  0.10000000000E+02 0. -1.
</event>
<event>
 5    1  0.1072898E-008  0.3809223E+03  0.7957747E-01  0.3447152E+00
         13   -1    0    0    0    0  0.00000000000E+00  0.00000000000E+00  0.14999999963E+04  0.15000000000E+04  0.10566000000E+00 0.  1.
        994   -1    0    0    0    0 -0.00000000000E+00 -0.00000000000E+00  0.11368683772E-12  0.17120000000E+03  0.17120000000E+03 0.  0.
         13    1    1    2    0    0  0.93763462311E+01 -0.19687507104E+02  0.62116827915E+02  0.65833314355E+02  0.10566000000E+00 0.  1.
        994    1    1    2    0    0 -0.75702626584E+01  0.17571382368E+02  0.48892336256E+01  0.17233515881E+03  0.17120000000E+03 0.  0.
        998    1    1    2    0    0 -0.18060835727E+01  0.21161247360E+01  0.14329939347E+04  0.14330315268E+04  0.10000000000E+02 0.  1.
</event>
<event>
 5    1  0.1072898E-008  0.3713325E+03  0.7957747E-01  0.3489789E+00
         13   -1    0    0    0    0  0.00000000000E+00  0.00000000000E+00  0.14999999963E+04  0.15000000000E+04  0.10566000000E+00 0. -1.
        994   -1    0    0    0    0 -0.00000000000E+00 -0.00000000000E+00  0.11368683772E-12  0.17120000000E+03  0.17120000000E+03 0.  0.
         13    1    1    2    0    0  0.93775487338E+02  0.31532452694E+02  0.43516759801E+03  0.44627232395E+03  0.10566000000E+00 0. -1.
        994    1    1    2    0    0 -0.85136648376E+02 -0.25922521958E+02  0.36348736422E+02  0.19634382262E+03  0.17120000000E+03 0.  0.
        998    1    1    2    0    0 -0.86388389619E+01 -0.56099307357E+01  0.10284836618E+04  0.10285838534E+04  0.10000000000E+02 0. -1.
</event>
<event>
 5    1  0.1072898E-008  0.3849696E+03  0.7957747E-01  0.3429801E+00
         13   -1    0    0    0    0  0.00000000000E+00  0.00000000000E+00  0.14999999963E+04  0.15000000000E+04  0.10566000000E+00 0. -1.
        994   -1    0    0    0    0 -0.00000000000E+00 -0.00000000000E+00  0.11368683772E-12  0.17120000000E+03  0.17120000000E+03 0.  0.
         13    1    1    2    0    0 -0.10835334602E+02  0.87212846417E+01  0.58513529089E+02  0.60144073126E+02  0.10566000000E+00 0. -1.
        994    1    1    2    0    0  0.88321310286E+01 -0.49041240493E+01  0.19809740287E+01  0.17150924532E+03  0.17120000000E+03 0.  0.
        998    1    1    2    0    0  0.20032035736E+01 -0.38171605924E+01  0.14395054932E+04  0.14395466816E+04  0.10000000000E+02 0. -1.
</event>
<event>
 5    1  0.1072898E-008  0.3736279E+03  0.7957747E-01  0.3479382E+00
         13   -1    0    0    0    0  0.00000000000E+00  0.00000000000E+00  0.14999999963E+04  0.15000000000E+04  0.10566000000E+00 0.  1.
        994   -1    0    0    0    0 -0.00000000000E+00 -0.00000000000E+00  0.11368683772E-12  0.17120000000E+03  0.17120000000E+03 0.  0.
         13    1    1    2    0    0 -0.31396111927E+02  0.10555864191E+02  0.81472711707E+02  0.87948598794E+02  0.10566000000E+00 0.  1.
        994    1    1    2    0    0 -0.29013829897E+02 -0.45093525170E+02  0.17268290372E+02  0.18023002577E+03  0.17120000000E+03 0.  0.
        998    1    1    2    0    0  0.60409941824E+02  0.34537660980E+02  0.14012589942E+04  0.14030213754E+04  0.10000000000E+02 0.  1.
</event>
<event>
 5    1  0.1072898E-008  0.3827291E+03  0.7957747E-01  0.3439361E+00
         13   -1    0    0    0    0  0.00000000000E+00  0.00000000000E+00  0.14999999963E+04  0.15000000000E+04  0.10566000000E+00 0.  1.
        994   -1    0    0    0    0 -0.00000000000E+00 -0.00000000000E+00  0.11368683772E-12  0.17120000000E+03  0.17120000000E+03 0.  0.
         13    1    1    2    0    0  0.29866810867E+02  0.37444253223E+02  0.28152093313E+03  0.28556635909E+03  0.10566000000E+00 0.  1.
        994    1    1    2    0    0 -0.47215205137E+02 -0.46591221195E+02  0.17478617302E+02  0.18443144946E+03  0.17120000000E+03 0.  0.
        998    1    1    2    0    0  0.17348394271E+02  0.91469679717E+01  0.12010004458E+04  0.12012021914E+04  0.10000000000E+02 0.  1.
</event>
<event>
 5    1  0.1072898E-008  0.3807865E+03  0.7957747E-01  0.3447741E+00
         13   -1    0    0    0    0  0.00000000000E+00  0.00000000000E+00  0.14999999963E+04  0.15000000000E+04  0.10566000000E+00 0.  1.
        994   -1    0    0    0    0 -0.00000000000E+00 -0.00000000000E+00  0.11368683772E-12  0.17120000000E+03  0.17120000000E+03 0.  0.
         13    1    1    2    0    0  0.25686490621E+02  0.87330828384E+01  0.90556406755E+02  0.94533256078E+02  0.10566000000E+00 0.  1.
        994    1    1    2    0    0 -0.28810066772E+02 -0.10393910499E+02  0.68706814177E+01  0.17405372615E+03  0.17120000000E+03 0.  0.
        998    1    1    2    0    0  0.31235761505E+01  0.16608276606E+01  0.14025729081E+04  0.14026130178E+04  0.10000000000E+02 0.  1.
</event>
<event>
 5    1  0.1072898E-008  0.3724746E+03  0.7957747E-01  0.3484595E+00
         13   -1    0    0    0    0  0.00000000000E+00  0.00000000000E+00  0.14999999963E+04  0.15000000000E+04  0.10566000000E+00 0. -1.
        994   -1    0    0    0    0 -0.00000000000E+00 -0.00000000000E+00  0.11368683772E-12  0.17120000000E+03  0.17120000000E+03 0.  0.
         13    1    1    2    0    0  0.37440076200E+02 -0.15810370025E+02  0.90935546082E+02  0.99604276070E+02  0.10566000000E+00 0. -1.
        994    1    1    2    0    0 -0.45563957293E+02  0.25787682483E+02  0.17437980963E+02  0.17987385011E+03  0.17120000000E+03 0.  0.
        998    1    1    2    0    0  0.81238810924E+01 -0.99773124583E+01  0.13916264692E+04  0.13917218738E+04  0.10000000000E+02 0. -1.
</event>
<event>
 5    1  0.1072898E-008  0.3783934E+03  0.7957747E-01  0.3458184E+00
         13   -1    0    0    0    0  0.00000000000E+00  0.00000000000E+00  0.14999999963E+04  0.15000000000E+04  0.10566000000E+00 0. -1.
        994   -1    0    0    0    0 -0.00000000000E+00 -0.00000000000E+00  0.11368683772E-12  0.17120000000E+03  0.17120000000E+03 0.  0.
         13    1    1    2    0    0  0.22095936137E+02 -0.45801099230E+02  0.24209513662E+03  0.24737832853E+03  0.10566000000E+00 0. -1.
        994    1    1    2    0    0 -0.12002128070E+02  0.36925768766E+02  0.10029641483E+02  0.17583400463E+03  0.17120000000E+03 0.  0.
        998    1    1    2    0    0 -0.10093808067E+02  0.88753304646E+01  0.12478752182E+04  0.12479876668E+04  0.10000000000E+02 0. -1.
</event>
<event>
 5    1  0.1072898E-008  0.3831950E+03  0.7957747E-01  0.3437364E+00
         13   -1    0    0    0    0  0.00000000000E+00  0.00000000000E+00  0.14999999963E+04  0.15000000000E+04  0.10566000000E+00 0.  1.
        994   -1    0    0    0    0 -0.00000000000E+00 -0.00000000000E+00  0.11368683772E-12  0.17120000000E+03  0.17120000000E+03 0.  0.
         13    1    1    2    0    0 -0.16845205715E+02 -0.50979853198E+01  0.59463307257E+02  0.62013276674E+02  0.10566000000E+00 0.  1.
        994    1    1    2    0    0  0.87257645188E+01  0.24177845963E+02  0.47176558890E+01  0.17318315010E+03  0.17120000000E+03 0.  0.
        998    1    1    2    0    0  0.81194411967E+01 -0.19079860643E+02  0.14358190331E+04  0.14360035732E+04  0.10000000000E+02 0.  1.
</event>
<event>
 5    1  0.1072898E-008  0.3752440E+03  0.7957747E-01  0.3472132E+00
         13   -1    0    0    0    0  0.00000000000E+00  0.00000000000E+00  0.14999999963E+04  0.15000000000E+04  0.10566000000E+00 0.  1.
        994   -1    0    0    0    0 -0.00000000000E+00 -0.00000000000E+00  0.11368683772E-12  0.17120000000E+03  0.17120000000E+03 0.  0.
         13    1    1    2    0    0 -0.24836572113E+02 -0.26036729036E+02  0.10558379180E+03  0.11154691761E+03  0.10566000000E+00 0.  1.
        994    1    1    2    0    0 -0.44468012660E+02  0.47458119068E+02  0.21057399802E+02  0.18434351440E+03  0.17120000000E+03 0.  0.
        998    1    1    2    0    0  0.69304584772E+02 -0.21421390033E+02  0.13733588047E+04  0.13753095680E+04  0.10000000000E+02 0.  1.
</event>
<event>
 5    1  0.1072898E-008  0.3767117E+03  0.7957747E-01  0.3465603E+00
         13   -1    0    0    0    0  0.00000000000E+00  0.00000000000E+00  0.14999999963E+04  0.15000000000E+04  0.10566000000E+00 0. -1.
        994   -1    0    0    0    0 -0.00000000000E+00 -0.00000000000E+00  0.11368683772E-12  0.17120000000E+03  0.17120000000E+03 0.  0.
         13    1    1    2    0    0 -0.11508341425E+03  0.38285950930E+02  0.36400914838E+03  0.38368304308E+03  0.10566000000E+00 0. -1.
        994    1    1    2    0    0  0.20382052334E+03 -0.88343127468E+02  0.19645370762E+03  0.34241906072E+03  0.17120000000E+03 0.  0.
        998    1    1    2    0    0 -0.88737109093E+02  0.50057176539E+02  0.93953714027E+03  0.94509789620E+03  0.10000000000E+02 0.  1.
</event>
<event>
 5    1  0.1072898E-008  0.3806759E+03  0.7957747E-01  0.3448221E+00
         13   -1    0    0    0    0  0.00000000000E+00  0.00000000000E+00  0.14999999963E+04  0.15000000000E+04  0.10566000000E+00 0. -1.
        994   -1    0    0    0    0 -0.00000000000E+00 -0.00000000000E+00  0.11368683772E-12  0.17120000000E+03  0.17120000000E+03 0.  0.
         13    1    1    2    0    0  0.20633845778E+02 -0.91556855412E-01  0.56171601991E+02  0.59841657802E+02  0.10566000000E+00 0. -1.
        994    1    1    2    0    0 -0.72358097069E+01 -0.95946240008E+01  0.42741809673E+01  0.17167446629E+03  0.17120000000E+03 0.  0.
        998    1    1    2    0    0 -0.13398036071E+02  0.96861808562E+01  0.14395542133E+04  0.14396838759E+04  0.10000000000E+02 0. -1.
</event>
<event>
 5    1  0.1072898E-008  0.3836210E+03  0.7957747E-01  0.3435542E+00
         13   -1    0    0    0    0  0.00000000000E+00  0.00000000000E+00  0.14999999963E+04  0.15000000000E+04  0.10566000000E+00 0. -1.
        994   -1    0    0    0    0 -0.00000000000E+00 -0.00000000000E+00  0.11368683772E-12  0.17120000000E+03  0.17120000000E+03 0.  0.
         13    1    1    2    0    0 -0.16384368019E+02 -0.11633624062E+02  0.92907641990E+02  0.95055930001E+02  0.10566000000E+00 0. -1.
        994    1    1    2    0    0  0.39793036956E+01 -0.23063528920E+01  0.23862070048E+01  0.17127839357E+03  0.17120000000E+03 0.  0.
        998    1    1    2    0    0  0.12405064324E+02  0.13939976954E+02  0.14047061473E+04  0.14048656764E+04  0.10000000000E+02 0. -1.
</event>
<event>
 5    1  0.1072898E-008  0.3857481E+03  0.7957747E-01  0.3426505E+00
         13   -1    0    0    0    0  0.00000000000E+00  0.00000000000E+00  0.14999999963E+04  0.15000000000E+04  0.10566000000E+00 0.  1.
        994   -1    0    0    0    0 -0.00000000000E+00 -0.00000000000E+00  0.11368683772E-12  0.17120000000E+03  0.17120000000E+03 0.  0.
         13    1    1    2    0    0 -0.94467812216E+01 -0.79878938036E+01  0.53894662732E+02  0.55296419033E+02  0.10566000000E+00 0.  1.
        994    1    1    2    0    0  0.27388329825E+02  0.11632142881E+02  0.41693623969E+01  0.17381671652E+03  0.17120000000E+03 0.  0.
        998    1    1    2    0    0 -0.17941548603E+02 -0.36442490771E+01  0.14419359712E+04  0.14420868644E+04  0.10000000000E+02 0.  1.
</event>
<event>
 5    1  0.1072898E-008  0.3834959E+03  0.7957747E-01  0.3436077E+00
         13   -1    0    0    0    0  0.00000000000E+00  0.00000000000E+00  0.14999999963E+04  0.15000000000E+04  0.10566000000E+00 0.  1.
        994   -1    0    0    0    0 -0.00000000000E+00 -0.00000000000E+00  0.11368683772E-12  0.17120000000E+03  0.17120000000E+03 0.  0.
         13    1    1    2    0    0  0.70421402669E+01  0.20858524194E+02  0.98100251492E+02  0.10054024208E+03  0.10566000000E+00 0.  1.
        994    1    1    2    0    0  0.83895515145E+00 -0.20014695803E+02  0.37060622511E+01  0.17240785014E+03  0.17120000000E+03 0.  0.
        998    1    1    2    0    0 -0.78810954183E+01 -0.84382839106E+00  0.13981936825E+04  0.13982519078E+04  0.10000000000E+02 0.  1.
</event>
<event>
 5    1  0.1072898E-008  0.2891081E+03  0.7957747E-01  0.3976983E+00
         13   -1    0    0    0    0  0.00000000000E+00  0.00000000000E+00  0.14999999963E+04  0.15000000000E+04  0.10566000000E+00 0. -1.
        994   -1    0    0    0    0 -0.00000000000E+00 -0.00000000000E+00  0.11368683772E-12  0.17120000000E+03  0.17120000000E+03 0.  0.
         13    1    1    2    0    0 -0.46447331121E+02 -0.16122270943E+03  0.66481087686E+03  0.68565562038E+03  0.10566000000E+00 0. -1.
        994    1    1    2    0    0  0.43198051679E+02  0.10337946354E+03  0.67271264441E+02  0.21537931231E+03  0.17120000000E+03 0.  0.
        998    1    1    2    0    0  0.32492794413E+01  0.57843245882E+02  0.76791785497E+03  0.77016506731E+03  0.10000000000E+02 0. -1.
</event>
<event>
 5    1  0.1072898E-008  0.3724765E+03  0.7957747E-01  0.3484586E+00
         13   -1    0    0    0    0  0.00000000000E+00  0.00000000000E+00  0.14999999963E+04  0.15000000000E+04  0.10566000000E+00 0. -1.
        994   -1    0    0    0    0 -0.00000000000E+00 -0.00000000000E+00  0.11368683772E-12  0.17120000000E+03  0.17120000000E+03 0.  0.
         13    1    1    2    0    0  0.43706999450E+02  0.89730774534E+01  0.74197889046E+02  0.86580343166E+02  0.10566000000E+00 0. -1.
        994    1    1    2    0    0 -0.40193053396E+02 -0.75673746660E+01  0.18176661914E+02  0.17695360335E+03  0.17120000000E+03 0.  0.
        998    1    1    2    0    0 -0.35139460540E+01 -0.14057027874E+01  0.14076254453E+04  0.14076660535E+04  0.10000000000E+02 0. -1.
</event>
<event>
 5    1  0.1072898E-008  0.3693801E+03  0.7957747E-01  0.3498745E+00
         13   -1    0    0    0    0  0.00000000000E+00  0.00000000000E+00  0.14999999963E+04  0.15000000000E+04  0.10566000000E+00 0. -1.
        994   -1    0    0    0    0 -0.00000000000E+00 -0.00000000000E+00  0.11368683772E-12  0.17120000000E+03  0.17120000000E+03 0.  0.
         13    1    1    2    0    0 -0.15123157112E+01 -0.24900937415E+02  0.24344216786E+02  0.34856790413E+02  0.10566000000E+00 0. -1.
        994    1    1    2    0    0 -0.37057096192E+01  0.27493750352E+02  0.13300863770E+02  0.17394249501E+03  0.17120000000E+03 0.  0.
        998    1    1    2    0    0  0.52180253304E+01 -0.25928129376E+01  0.14623549157E+04  0.14624007146E+04  0.10000000000E+02 0. -1.
</event>
<event>
 5    1  0.1072898E-008  0.3855431E+03  0.7957747E-01  0.3427372E+00
         13   -1    0    0    0    0  0.00000000000E+00  0.00000000000E+00  0.14999999963E+04  0.15000000000E+04  0.10566000000E+00 0. -1.
        994   -1    0    0    0    0 -0.00000000000E+00 -0.00000000000E+00  0.11368683772E-12  0.17120000000E+03  0.17120000000E+03 0.  0.
         13    1    1    2    0    0  0.67201610075E+01 -0.13455055111E+02  0.86057983051E+02  0.87362387117E+02  0.10566000000E+00 0. -1.
        994    1    1    2    0    0 -0.10230281640E+02  0.18649720937E+01  0.17158363031E+01  0.17152411165E+03  0.17120000000E+03 0.  0.
        998    1    1    2    0    0  0.35101206325E+01  0.11590083017E+02  0.14122261769E+04  0.14123135012E+04  0.10000000000E+02 0. -1.
</event>
<event>
 5    1  0.1072898E-008  0.3835869E+03  0.7957747E-01  0.3435688E+00
         13   -1    0    0    0    0  0.00000000000E+00  0.00000000000E+00  0.14999999963E+04  0.15000000000E+04  0.10566000000E+00 0. -1.
        994   -1    0    0    0    0 -0.00000000000E+00 -0.00000000000E+00  0.11368683772E-12  0.17120000000E+03  0.17120000000E+03 0.  0.
         13    1    1    2    0    0 -0.17228089998E+02 -0.98377499889E+00  0.65194026868E+02  0.67439211157E+02  0.10566000000E+00 0. -1.
        994    1    1    2    0    0  0.57446187262E+01 -0.30259218947E+01  0.24726517167E+01  0.17134091996E+03  0.17120000000E+03 0.  0.
        998    1    1    2    0    0  0.11483471272E+02  0.40096968936E+01  0.14323333177E+04  0.14324198689E+04  0.10000000000E+02 0. -1.
</event>
<event>
 5    1  0.1072898E-008  0.3812500E+03  0.7957747E-01  0.3445734E+00
         13   -1    0    0    0    0  0.00000000000E+00  0.00000000000E+00  0.14999999963E+04  0.15000000000E+04  0.10566000000E+00 0.  1.
        994   -1    0    0    0    0 -0.00000000000E+00 -0.00000000000E+00  0.11368683772E-12  0.17120000000E+03  0.17120000000E+03 0.  0.
         13    1    1    2    0    0 -0.10960747073E+02 -0.25300016207E+00  0.15704356784E+02  0.19153066896E+02  0.10566000000E+00 0.  1.
        994    1    1    2    0    0  0.72408525953E+01  0.81975059932E+01  0.39018668185E+01  0.17159339619E+03  0.17120000000E+03 0.  0.
        998    1    1    2    0    0  0.37198944777E+01 -0.79445058311E+01  0.14803937727E+04  0.14804535369E+04  0.10000000000E+02 0.  1.
</event>
<event>
 5    1  0.1072898E-008  0.3745212E+03  0.7957747E-01  0.3475367E+00
         13   -1    0    0    0    0  0.00000000000E+00  0.00000000000E+00  0.14999999963E+04  0.15000000000E+04  0.10566000000E+00 0.  1.
        994   -1    0    0    0    0 -0.00000000000E+00 -0.00000000000E+00  0.11368683772E-12  0.17120000000E+03  0.17120000000E+03 0.  0.
         13    1    1    2    0    0 -0.20992525672E+02  0.17997114660E+02  0.50937493636E+02  0.57958793053E+02  0.10566000000E+00 0.  1.
        994    1    1    2    0    0  0.22518099161E+02 -0.16539843449E+02  0.95872104161E+01  0.17372963424E+03  0.17120000000E+03 0.  0.
        998    1    1    2    0    0 -0.15255734894E+01 -0.14572712113E+01  0.14394752922E+04  0.14395115727E+04  0.10000000000E+02 0.  1.
</event>
<event>
 5    1  0.1072898E-008  0.3759441E+03  0.7957747E-01  0.3469011E+00
         13   -1    0    0    0    0  0.00000000000E+00  0.00000000000E+00  0.14999999963E+04  0.15000000000E+04  0.10566000000E+00 0. -1.
        994   -1    0    0    0    0 -0.00000000000E+00 -0.00000000000E+00  0.11368683772E-12  0.17120000000E+03  0.17120000000E+03 0.  0.
         13    1    1    2    0    0  0.11003633907E+02  0.74940242668E+02  0.35668850572E+03  0.36464204530E+03  0.10566000000E+00 0. -1.
        994    1    1    2    0    0 -0.26893350367E+01 -0.74369793079E+02  0.25197124535E+02  0.18836781501E+03  0.17120000000E+03 0.  0.
        998    1    1    2    0    0 -0.83142988707E+01 -0.57044958807E+00  0.11181143660E+04  0.11181901397E+04  0.10000000000E+02 0. -1.
</event>
<event>
 5    1  0.1072898E-008  0.3847637E+03  0.7957747E-01  0.3430675E+00
         13   -1    0    0    0    0  0.00000000000E+00  0.00000000000E+00  0.14999999963E+04  0.15000000000E+04  0.10566000000E+00 0.  1.
        994   -1    0    0    0    0 -0.00000000000E+00 -0.00000000000E+00  0.11368683772E-12  0.17120000000E+03  0.17120000000E+03 0.  0.
         13    1    1    2    0    0  0.33390813235E+00  0.16364540712E+02  0.73154670916E+02  0.74963502641E+02  0.10566000000E+00 0.  1.
        994    1    1    2    0    0  0.35826655639E+01 -0.17822406355E+02  0.28358898733E+01  0.17218581803E+03  0.17120000000E+03 0.  0.
        998    1    1    2    0    0 -0.39165736963E+01  0.14578656437E+01  0.14240094355E+04  0.14240506793E+04  0.10000000000E+02 0.  1.
</event>
<event>
 5    1  0.1072898E-008  0.3791066E+03  0.7957747E-01  0.3455058E+00
         13   -1    0    0    0    0  0.00000000000E+00  0.00000000000E+00  0.14999999963E+04  0.15000000000E+04  0.10566000000E+00 0.  1.
        994   -1    0    0    0    0 -0.00000000000E+00 -0.00000000000E+00  0.11368683772E-12  0.17120000000E+03  0.17120000000E+03 0.  0.
         13    1    1    2    0    0 -0.22191468588E+02 -0.14064596179E+03  0.51258401947E+03  0.53199260899E+03  0.10566000000E+00 0.  1.
        994    1    1    2    0    0 -0.30932155233E+02  0.12180941370E+03  0.75350797975E+02  0.22534754103E+03  0.17120000000E+03 0.  0.
        998    1    1    2    0    0  0.53123623821E+02  0.18836548087E+02  0.91206517884E+03  0.91385984998E+03  0.10000000000E+02 0.  1.
</event>
<event>
 5    1  0.1072898E-008  0.3726317E+03  0.7957747E-01  0.3483883E+00
         13   -1    0    0    0    0  0.00000000000E+00  0.00000000000E+00  0.14999999963E+04  0.15000000000E+04  0.10566000000E+00 0. -1.
        994   -1    0    0    0    0 -0.00000000000E+00 -0.00000000000E+00  0.11368683772E-12  0.17120000000E+03  0.17120000000E+03 0.  0.
         13    1    1    2    0    0 -0.27155632756E+02 -0.36276824276E+02  0.73754019829E+02  0.86562711226E+02  0.10566000000E+00 0. -1.
        994    1    1    2    0    0  0.28744816633E+02  0.42803880664E+02  0.21777340940E+02  0.18011698771E+03  0.17120000000E+03 0.  0.
        998    1    1    2    0    0 -0.15891838764E+01 -0.65270563885E+01  0.14044686355E+04  0.14045203011E+04  0.10000000000E+02 0. -1.
</event>
<event>
 5    1  0.1337283E-008  0.3864041E+03  0.7957747E-01  0.3423739E+00
         13   -1    0    0    0    0  0.00000000000E+00  0.00000000000E+00  0.14999999963E+04  0.15000000000E+04  0.10566000000E+00 0. -1.
        994   -1    0    0    0    0 -0.00000000000E+00 -0.00000000000E+00  0.11368683772E-12  0.17120000000E+03  0.17120000000E+03 0.  0.
         13    1    1    2    0    0 -0.10188952435E+02  0.26947617447E+01  0.61963069630E+02  0.62853079913E+02  0.10566000000E+00 0. -1.
        994    1    1    2    0    0  0.58114678103E+01  0.48649459943E+01  0.11227110782E+01  0.17137135507E+03  0.17120000000E+03 0.  0.
        998    1    1    2    0    0  0.43774846243E+01 -0.75597077390E+01  0.14369142156E+04  0.14369755650E+04  0.10000000000E+02 0. -1.
</event>
<event>
 5    1  0.1072898E-008  0.3853302E+03  0.7957747E-01  0.3428273E+00
         13   -1    0    0    0    0  0.00000000000E+00  0.00000000000E+00  0.14999999963E+04  0.15000000000E+04  0.10566000000E+00 0. -1.
        994   -1    0    0    0    0 -0.00000000000E+00 -0.00000000000E+00  0.11368683772E-12  0.17120000000E+03  0.17120000000E+03 0.  0.
         13    1    1    2    0    0 -0.37755672649E+01 -0.12819382038E+02  0.61215940396E+02  0.62657752805E+02  0.10566000000E+00 0. -1.
        994    1    1    2    0    0  0.49356072120E+01  0.74714388383E+01  0.17297653547E+01  0.17144274468E+03  0.17120000000E+03 0.  0.
        998    1    1    2    0    0 -0.11600399471E+01  0.53479432000E+01  0.14370542905E+04  0.14370995025E+04  0.10000000000E+02 0. -1.
</event>
<event>
 5    1  0.1072898E-008  0.3852300E+03  0.7957747E-01  0.3428697E+00
         13   -1    0    0    0    0  0.00000000000E+00  0.00000000000E+00  0.14999999963E+04  0.15000000000E+04  0.10566000000E+00 0.  1.
        994   -1    0    0    0    0 -0.00000000000E+00 -0.00000000000E+00  0.11368683772E-12  0.17120000000E+03  0.17120000000E+03 0.  0.
         13    1    1    2    0    0 -0.56667978767E+01 -0.88092608142E+01  0.36581324971E+02  0.38051546288E+02  0.10566000000E+00 0.  1.
        994    1    1    2    0    0  0.11279776988E+02 -0.17195064983E+01  0.19439502140E+01  0.17159081856E+03  0.17120000000E+03 0.  0.
        998    1    1    2    0    0 -0.56129791111E+01  0.10528767313E+02  0.14614747211E+04  0.14615576352E+04  0.10000000000E+02 0.  1.
</event>
<event>
 5    1  0.1072898E-008  0.3858169E+03  0.7957747E-01  0.3426215E+00
         13   -1    0    0    0    0  0.00000000000E+00  0.00000000000E+00  0.14999999963E+04  0.15000000000E+04  0.10566000000E+00 0.  1.
        994   -1    0    0    0    0 -0.00000000000E+00 -0.00000000000E+00  0.11368683772E-12  0.17120000000E+03  0.17120000000E+03 0.  0.
         13    1    1    2    0    0  0.19779147602E+00  0.14228817007E+02  0.85485238823E+02  0.86661615352E+02  0.10566000000E+00 0.  1.
        994    1    1    2    0    0  0.18632197393E+01 -0.63292766470E+01  0.13678851774E+01  0.17133254927E+03  0.17120000000E+03 0.  0.
        998    1    1    2    0    0 -0.20610112153E+01 -0.78995403596E+01  0.14131468723E+04  0.14132058354E+04  0.10000000000E+02 0.  1.
</event>
<event>
 5    1  0.1072898E-008  0.3696509E+03  0.7957747E-01  0.3497497E+00
         13   -1    0    0    0    0  0.00000000000E+00  0.00000000000E+00  0.14999999963E+04  0.15000000000E+04  0.10566000000E+00 0.  1.
        994   -1    0    0    0    0 -0.00000000000E+00 -0.00000000000E+00  0.11368683772E-12  0.17120000000E+03  0.17120000000E+03 0.  0.
         13    1    1    2    0    0  0.23450419473E+02 -0.18825406131E+02  0.42871386313E+02  0.52366831276E+02  0.10566000000E+00 0.  1.
        994    1    1    2    0    0 -0.23408845808E+02  0.20199229220E+02  0.12768239263E+02  0.17443752709E+03  0.17120000000E+03 0.  0.
        998    1    1    2    0    0 -0.41573665330E-01 -0.13738230896E+01  0.14443603707E+04  0.14443956416E+04  0.10000000000E+02 0.  1.
</event>
<event>
 5    1  0.1072898E-008  0.3816283E+03  0.7957747E-01  0.3444099E+00
         13   -1    0    0    0    0  0.00000000000E+00  0.00000000000E+00  0.14999999963E+04  0.15000000000E+04  0.10566000000E+00 0.  1.
        994   -1    0    0    0    0 -0.00000000000E+00 -0.00000000000E+00  0.11368683772E-12  0.17120000000E+03  0.17120000000E+03 0.  0.
         13    1    1    2    0    0  0.13835596361E+01  0.14122610998E+02  0.31107131556E+02  0.34191039416E+02  0.10566000000E+00 0.  1.
        994    1    1    2    0    0  0.13778619020E+02  0.84521109964E+01  0.41827328882E+01  0.17201227798E+03  0.17120000000E+03 0.  0.
        998    1    1    2    0    0 -0.15162178656E+02 -0.22574721994E+02  0.14647101318E+04  0.14649966826E+04  0.10000000000E+02 0.  1.
</event>
<event>
 5    1  0.1072898E-008  0.3784245E+03  0.7957747E-01  0.3458047E+00
         13   -1    0    0    0    0  0.00000000000E+00  0.00000000000E+00  0.14999999963E+04  0.15000000000E+04  0.10566000000E+00 0. -1.
        994   -1    0    0    0    0 -0.00000000000E+00 -0.00000000000E+00  0.11368683772E-12  0.17120000000E+03  0.17120000000E+03 0.  0.
         13    1    1    2    0    0  0.88916313053E+02  0.74300761136E+02  0.30495818868E+03  0.32623032023E+03  0.10566000000E+00 0. -1.
        994    1    1    2    0    0 -0.95173374739E+02 -0.90784581156E+02  0.80758513002E+02  0.23050203656E+03  0.17120000000E+03 0.  0.
        998    1    1    2    0    0  0.62570616865E+01  0.16483820021E+02  0.11142832946E+04  0.11144676432E+04  0.10000000000E+02 0. -1.
</event>
<event>
 5    1  0.1072898E-008  0.3802868E+03  0.7957747E-01  0.3449911E+00
         13   -1    0    0    0    0  0.00000000000E+00  0.00000000000E+00  0.14999999963E+04  0.15000000000E+04  0.10566000000E+00 0. -1.
        994   -1    0    0    0    0 -0.00000000000E+00 -0.00000000000E+00  0.11368683772E-12  0.17120000000E+03  0.17120000000E+03 0.  0.
         13    1    1    2    0    0  0.65244263587E+01  0.25757450520E+02  0.94408293426E+02  0.98076253131E+02  0.10566000000E+00 0. -1.
        994    1    1    2    0    0 -0.90603083132E+01  0.14937046872E+01  0.42701261777E+01  0.17149925457E+03  0.17120000000E+03 0.  0.
        998    1    1    2    0    0  0.25358819545E+01 -0.27251155208E+02  0.14013215767E+04  0.14016244923E+04  0.10000000000E+02 0. -1.
</event>
<event>
 5    1  0.1072898E-008  0.3813418E+03  0.7957747E-01  0.3445337E+00
         13   -1    0    0    0    0  0.00000000000E+00  0.00000000000E+00  0.14999999963E+04  0.15000000000E+04  0.10566000000E+00 0.  1.
        994   -1    0    0    0    0 -0.00000000000E+00 -0.00000000000E+00  0.11368683772E-12  0.17120000000E+03  0.17120000000E+03 0.  0.
         13    1    1    2    0    0  0.29024815811E+01  0.19608632327E+02  0.54923273956E+02  0.58390924356E+02  0.10566000000E+00 0.  1.
        994    1    1    2    0    0 -0.66424173814E+01 -0.15023306849E+02  0.43558779580E+01  0.17204137622E+03  0.17120000000E+03 0.  0.
        998    1    1    2    0    0  0.37399358004E+01 -0.45853254787E+01  0.14407208444E+04  0.14407676994E+04  0.10000000000E+02 0.  1.
</event>
<event>
 5    1  0.1072898E-008  0.3857721E+03  0.7957747E-01  0.3426404E+00
         13   -1    0    0    0    0  0.00000000000E+00  0.00000000000E+00  0.14999999963E+04  0.15000000000E+04  0.10566000000E+00 0. -1.
        994   -1    0    0    0    0 -0.00000000000E+00 -0.00000000000E+00  0.11368683772E-12  0.17120000000E+03  0.17120000000E+03 0.  0.
         13    1    1    2    0    0 -0.54379088307E+01 -0.11538888747E+02  0.61072425754E+02  0.62390457263E+02  0.10566000000E+00 0. -1.
        994    1    1    2    0    0  0.19346843371E+02  0.12409799729E+02  0.29822650195E+01  0.17276179376E+03  0.17120000000E+03 0.  0.
        998    1    1    2    0    0 -0.13908934541E+02 -0.87091098207E+00  0.14359453055E+04  0.14360477490E+04  0.10000000000E+02 0. -1.
</event>
<event>
 5    1  0.1072898E-008  0.3834707E+03  0.7957747E-01  0.3436184E+00
         13   -1    0    0    0    0  0.00000000000E+00  0.00000000000E+00  0.14999999963E+04  0.15000000000E+04  0.10566000000E+00 0. -1.
        994   -1    0    0    0    0 -0.00000000000E+00 -0.00000000000E+00  0.11368683772E-12  0.17120000000E+03  0.17120000000E+03 0.  0.
         13    1    1    2    0    0 -0.20859380599E+01  0.21032255670E+02  0.90814847095E+02  0.93241914036E+02  0.10566000000E+00 0. -1.
        994    1    1    2    0    0  0.56058595780E+01 -0.16280710221E+02  0.33718303024E+01  0.17209676472E+03  0.17120000000E+03 0.  0.
        998    1    1    2    0    0 -0.35199215180E+01 -0.47515454489E+01  0.14058133189E+04  0.14058613212E+04  0.10000000000E+02 0. -1.
</event>
<event>
 5    1  0.1072898E-008  0.3706479E+03  0.7957747E-01  0.3492918E+00
         13   -1    0    0    0    0  0.00000000000E+00  0.00000000000E+00  0.14999999963E+04  0.15000000000E+04  0.10566000000E+00 0.  1.
        994   -1    0    0    0    0 -0.00000000000E+00 -0.00000000000E+00  0.11368683772E-12  0.17120000000E+03  0.17120000000E+03 0.  0.
         13    1    1    2    0    0 -0.89665469298E+01 -0.75047432664E+01  0.34046898333E+01  0.12178801757E+02  0.10566000000E+00 0.  1.
        994    1    1    2    0    0  0.14064625317E+02  0.12796905659E+02  0.10179176330E+02  0.17255326746E+03  0.17120000000E+03 0.  0.
        998    1    1    2    0    0 -0.50980783875E+01 -0.52921623923E+01  0.14864161301E+04  0.14864679308E+04  0.10000000000E+02 0.  1.
</event>
<event>
 5    1  0.1072898E-008  0.3810929E+03  0.7957747E-01  0.3446414E+00
         13   -1    0    0    0    0  0.00000000000E+00  0.00000000000E+00  0.14999999963E+04  0.15000000000E+04  0.10566000000E+00 0.  1.
        994   -1    0    0    0    0 -0.00000000000E+00 -0.00000000000E+00  0.11368683772E-12  0.17120000000E+03  0.17120000000E+03 0.  0.
         13    1    1    2    0    0 -0.15401009987E+02  0.32834158631E+02  0.16789340347E+03  0.17176576834E+03  0.10566000000E+00 0.  1.
        994    1    1    2    0    0  0.15100440207E+02 -0.29221879138E+02  0.71946984501E+01  0.17447964122E+03  0.17120000000E+03 0.  0.
        998    1    1    2    0    0  0.30056977979E+00 -0.36122794925E+01  0.13249118944E+04  0.13249545904E+04  0.10000000000E+02 0.  0.
</event>
<event>
 5    1  0.1072898E-008  0.3830768E+03  0.7957747E-01  0.3437870E+00
         13   -1    0    0    0    0  0.00000000000E+00  0.00000000000E+00  0.14999999963E+04  0.15000000000E+04  0.10566000000E+00 0.  1.
        994   -1    0    0    0    0 -0.00000000000E+00 -0.00000000000E+00  0.11368683772E-12  0.17120000000E+03  0.17120000000E+03 0.  0.
         13    1    1    2    0    0  0.14875545956E+01 -0.25692353102E+02  0.15430440741E+03  0.15643583713E+03  0.10566000000E+00 0.  1.
        994    1    1    2    0    0 -0.34531601599E+01 -0.80749417254E+01  0.28432637500E+01  0.17144868955E+03  0.17120000000E+03 0.  0.
        998    1    1    2    0    0  0.19656055643E+01  0.33767294828E+02  0.13428523251E+04  0.13433154733E+04  0.10000000000E+02 0.  1.
</event>
<event>
 5    1  0.1072898E-008  0.3834456E+03  0.7957747E-01  0.3436292E+00
         13   -1    0    0    0    0  0.00000000000E+00  0.00000000000E+00  0.14999999963E+04  0.15000000000E+04  0.10566000000E+00 0.  1.
        994   -1    0    0    0    0 -0.00000000000E+00 -0.00000000000E+00  0.11368683772E-12  0.17120000000E+03  0.17120000000E+03 0.  0.
         13    1    1    2    0    0 -0.21733097591E+02  0.14271667608E+02  0.12850627832E+03  0.13111019320E+03  0.10566000000E+00 0.  1.
        994    1    1    2    0    0  0.16548472599E+02 -0.25061081873E+02  0.53906507729E+01  0.17389769661E+03  0.17120000000E+03 0.  0.
        998    1    1    2    0    0  0.51846249926E+01  0.10789414265E+02  0.13661030672E+04  0.13661921102E+04  0.10000000000E+02 0.  1.
</event>
<event>
 5    1  0.1072898E-008  0.3756501E+03  0.7957747E-01  0.3470321E+00
         13   -1    0    0    0    0  0.00000000000E+00  0.00000000000E+00  0.14999999963E+04  0.15000000000E+04  0.10566000000E+00 0.  1.
        994   -1    0    0    0    0 -0.00000000000E+00 -0.00000000000E+00  0.11368683772E-12  0.17120000000E+03  0.17120000000E+03 0.  0.
         13    1    1    2    0    0  0.13244312988E+02  0.93516691502E+01  0.18517784519E+02  0.24612700988E+02  0.10566000000E+00 0.  1.
        994    1    1    2    0    0 -0.32113716784E+01  0.61635194460E+01  0.65091333587E+01  0.17146460479E+03  0.17120000000E+03 0.  0.
        998    1    1    2    0    0 -0.10032941309E+02 -0.15515188596E+02  0.14749730784E+04  0.14751226942E+04  0.10000000000E+02 0.  1.
</event>
<event>
 5    1  0.1072898E-008  0.3795044E+03  0.7957747E-01  0.3453319E+00
         13   -1    0    0    0    0  0.00000000000E+00  0.00000000000E+00  0.14999999963E+04  0.15000000000E+04  0.10566000000E+00 0. -1.
        994   -1    0    0    0    0 -0.00000000000E+00 -0.00000000000E+00  0.11368683772E-12  0.17120000000E+03  0.17120000000E+03 0.  0.
         13    1    1    2    0    0 -0.17866370636E+01  0.24952002710E+02  0.69516281705E+02  0.73880437853E+02  0.10566000000E+00 0. -1.
        994    1    1    2    0    0  0.82149909679E+01 -0.16196271060E+02  0.54886278791E+01  0.17224799073E+03  0.17120000000E+03 0.  0.
        998    1    1    2    0    0 -0.64283539042E+01 -0.87557316508E+01  0.14249950867E+04  0.14250715714E+04  0.10000000000E+02 0. -1.
</event>
<event>
 5    1  0.1072898E-008  0.3736624E+03  0.7957747E-01  0.3479227E+00
         13   -1    0    0    0    0  0.00000000000E+00  0.00000000000E+00  0.14999999963E+04  0.15000000000E+04  0.10566000000E+00 0. -1.
        994   -1    0    0    0    0 -0.00000000000E+00 -0.00000000000E+00  0.11368683772E-12  0.17120000000E+03  0.17120000000E+03 0.  0.
         13    1    1    2    0    0 -0.53945660267E+00 -0.30464286119E+02  0.31223846523E+02  0.43626866698E+02  0.10566000000E+00 0. -1.
        994    1    1    2    0    0 -0.57042578329E+01  0.16637244248E+02  0.13984817367E+02  0.17266832822E+03  0.17120000000E+03 0.  0.
        998    1    1    2    0    0  0.62437144355E+01  0.13827041871E+02  0.14547913324E+04  0.14549048051E+04  0.10000000000E+02 0. -1.
</event>
<event>
 5    1  0.1072898E-008  0.3831529E+03  0.7957747E-01  0.3437544E+00
         13   -1    0    0    0    0  0.00000000000E+00  0.00000000000E+00  0.14999999963E+04  0.15000000000E+04  0.10566000000E+00 0. -1.
        994   -1    0    0    0    0 -0.00000000000E+00 -0.00000000000E+00  0.11368683772E-12  0.17120000000E+03  0.17120000000E+03 0.  0.
         13    1    1    2    0    0 -0.62667084287E+01  0.14626250605E+02  0.50079939357E+02  0.52547220015E+02  0.10566000000E+00 0. -1.
        994    1    1    2    0    0  0.44216126490E+01 -0.38989626116E+01  0.26649505583E+01  0.17132219509E+03  0.17120000000E+03 0.  0.
        998    1    1    2    0    0  0.18450957797E+01 -0.10727287994E+02  0.14472551064E+04  0.14473305849E+04  0.10000000000E+02 0. -1.
</event>
<event>
 5    1  0.1072898E-008  0.3848397E+03  0.7957747E-01  0.3430352E+00
         13   -1    0    0    0    0  0.00000000000E+00  0.00000000000E+00  0.14999999963E+04  0.15000000000E+04  0.10566000000E+00 0.  1.
        994   -1    0    0    0    0 -0.00000000000E+00 -0.00000000000E+00  0.11368683772E-12  0.17120000000E+03  0.17120000000E+03 0.  0.
         13    1    1    2    0    0  0.27965441595E+01 -0.10329275411E+02  0.33482873679E+02  0.35151508981E+02  0.10566000000E+00 0.  1.
        994    1    1    2    0    0  0.80627356605E+00  0.60047101296E+01  0.18305335642E+01  0.17131695034E+03  0.17120000000E+03 0.  0.
        998    1    1    2    0    0 -0.36028177255E+01  0.43245652814E+01  0.14646865890E+04  0.14647315407E+04  0.10000000000E+02 0.  1.
</event>
<event>
 5    1  0.1072898E-008  0.3695032E+03  0.7957747E-01  0.3498177E+00
         13   -1    0    0    0    0  0.00000000000E+00  0.00000000000E+00  0.14999999963E+04  0.15000000000E+04  0.10566000000E+00 0.  1.
        994   -1    0    0    0    0 -0.00000000000E+00 -0.00000000000E+00  0.11368683772E-12  0.17120000000E+03  0.17120000000E+03 0.  0.
         13    1    1    2    0    0  0.69061744140E+02 -0.63591214340E+01  0.21247050133E+03  0.22350321704E+03  0.10566000000E+00 0.  1.
        994    1    1    2    0    0 -0.70411464662E+02  0.96031632311E+01  0.27229585065E+02  0.18735230290E+03  0.17120000000E+03 0.  0.
        998    1    1    2    0    0  0.13497205219E+01 -0.32440417971E+01  0.12602999099E+04  0.12603444801E+04  0.10000000000E+02 0.  1.
</event>
<event>
 5    1  0.1072898E-008  0.3814002E+03  0.7957747E-01  0.3445084E+00
         13   -1    0    0    0    0  0.00000000000E+00  0.00000000000E+00  0.14999999963E+04  0.15000000000E+04  0.10566000000E+00 0. -1.
        994   -1    0    0    0    0 -0.00000000000E+00 -0.00000000000E+00  0.11368683772E-12  0.17120000000E+03  0.17120000000E+03 0.  0.
         13    1    1    2    0    0  0.17838453324E+02  0.31436175431E+02  0.18975594830E+03  0.19316773701E+03  0.10566000000E+00 0. -1.
        994    1    1    2    0    0  0.12938042696E+01 -0.24938901891E+02  0.55058724368E+01  0.17309932810E+03  0.17120000000E+03 0.  0.
        998    1    1    2    0    0 -0.19132257593E+02 -0.64972735397E+01  0.13047381755E+04  0.13049329349E+04  0.10000000000E+02 0. -1.
</event>
<event>
 5    1  0.1072898E-008  0.4009630E+03  0.7957747E-01  0.3364669E+00
         13   -1    0    0    0    0  0.00000000000E+00  0.00000000000E+00  0.14999999963E+04  0.15000000000E+04  0.10566000000E+00 0.  1.
        994   -1    0    0    0    0 -0.00000000000E+00 -0.00000000000E+00  0.11368683772E-12  0.17120000000E+03  0.17120000000E+03 0.  0.
         13    1    1    2    0    0 -0.28570921337E+02  0.44025318278E+02  0.37442923243E+02  0.64471000152E+02  0.10566000000E+00 0.  1.
        994    1    1    2    0    0  0.15485914718E+02 -0.49985194773E+02  0.39195327252E+02  0.18325950706E+03  0.17120000000E+03 0.  0.
        998    1    1    2    0    0  0.13085006618E+02  0.59598764942E+01  0.14233617458E+04  0.14234694928E+04  0.10000000000E+02 0.  1.
</event>
<event>
 5    1  0.2003522E-008  0.3858097E+03  0.7957747E-01  0.3426245E+00
         13   -1    0    0    0    0  0.00000000000E+00  0.00000000000E+00  0.14999999963E+04  0.15000000000E+04  0.10566000000E+00 0. -1.
        994   -1    0    0    0    0 -0.00000000000E+00 -0.00000000000E+00  0.11368683772E-12  0.17120000000E+03  0.17120000000E+03 0.  0.
         13    1    1    2    0    0 -0.25424877763E+01  0.98008782203E+01  0.41338651093E+02  0.42560741255E+02  0.10566000000E+00 0. -1.
        994    1    1    2    0    0  0.46056156837E+01 -0.89209711822E+01  0.15593426210E+01  0.17150121566E+03  0.17120000000E+03 0.  0.
        998    1    1    2    0    0 -0.20631279074E+01 -0.87990703809E+00  0.14571020026E+04  0.14571380431E+04  0.10000000000E+02 0. -1.
</event>
<event>
 5    1  0.1072898E-008  0.3616566E+03  0.7957747E-01  0.3535137E+00
         13   -1    0    0    0    0  0.00000000000E+00  0.00000000000E+00  0.14999999963E+04  0.15000000000E+04  0.10566000000E+00 0. -1.
        994   -1    0    0    0    0 -0.00000000000E+00 -0.00000000000E+00  0.11368683772E-12  0.17120000000E+03  0.17120000000E+03 0.  0.
         13    1    1    2    0    0  0.15406894446E+03  0.22743099067E+03  0.93906170796E+03  0.97841657676E+03  0.10566000000E+00 0. -1.
        994    1    1    2    0    0 -0.15669455960E+03 -0.22365719557E+03  0.32895579280E+03  0.46053998714E+03  0.17120000000E+03 0.  0.
        998    1    1    2    0    0  0.26256151379E+01 -0.37737950983E+01  0.23198249551E+03  0.23224343609E+03  0.10000000000E+02 0.  0.
</event>
<event>
 5    1  0.1072898E-008  0.3809724E+03  0.7957747E-01  0.3446936E+00
         13   -1    0    0    0    0  0.00000000000E+00  0.00000000000E+00  0.14999999963E+04  0.15000000000E+04  0.10566000000E+00 0.  1.
        994   -1    0    0    0    0 -0.00000000000E+00 -0.00000000000E+00  0.11368683772E-12  0.17120000000E+03  0.17120000000E+03 0.  0.
         13    1    1    2    0    0 -0.17361046886E+02  0.79864669004E+01  0.47281565880E+02  0.50997521887E+02  0.10566000000E+00 0.  1.
        994    1    1    2    0    0  0.16694097361E+02 -0.13368562472E+02  0.51687852088E+01  0.17260813332E+03  0.17120000000E+03 0.  0.
        998    1    1    2    0    0  0.66694952499E+00  0.53820955712E+01  0.14475496452E+04  0.14475943448E+04  0.10000000000E+02 0.  1.
</event>
<event>
 5    1  0.1072898E-008  0.3979291E+03  0.7957747E-01  0.3376623E+00
         13   -1    0    0    0    0  0.00000000000E+00  0.00000000000E+00  0.14999999963E+04  0.15000000000E+04  0.10566000000E+00 0. -1.
        994   -1    0    0    0    0 -0.00000000000E+00 -0.00000000000E+00  0.11368683772E-12  0.17120000000E+03  0.17120000000E+03 0.  0.
         13    1    1    2    0    0 -0.12285150566E+03 -0.32996455980E+02  0.42171485960E+03  0.44048234076E+03  0.10566000000E+00 0. -1.
        994    1    1    2    0    0  0.19567620684E+02 -0.80549851735E+01  0.28287474206E+02  0.17480673832E+03  0.17120000000E+03 0.  0.
        998    1    1    2    0    0  0.10328388498E+03  0.41051441153E+02  0.10499976625E+04  0.10559109209E+04  0.10000000000E+02 0. -1.
</event>
<event>
 5    1  0.1072898E-008  0.3781448E+03  0.7957747E-01  0.3459276E+00
         13   -1    0    0    0    0  0.00000000000E+00  0.00000000000E+00  0.14999999963E+04  0.15000000000E+04  0.10566000000E+00 0.  1.
        994   -1    0    0    0    0 -0.00000000000E+00 -0.00000000000E+00  0.11368683772E-12  0.17120000000E+03  0.17120000000E+03 0.  0.
         13    1    1    2    0    0 -0.37275645496E+02  0.22707267271E+01  0.13738793466E+03  0.14237305117E+03  0.10566000000E+00 0.  1.
        994    1    1    2    0    0  0.20686602977E+02  0.10261116187E+02  0.68681679482E+01  0.17288677734E+03  0.17120000000E+03 0.  0.
        998    1    1    2    0    0  0.16589042519E+02 -0.12531842914E+02  0.13557438937E+04  0.13559401715E+04  0.10000000000E+02 0.  1.
</event>
<event>
 5    1  0.1072898E-008  0.2770324E+03  0.7957747E-01  0.4074984E+00
         13   -1    0    0    0    0  0.00000000000E+00  0.00000000000E+00  0.14999999963E+04  0.15000000000E+04  0.10566000000E+00 0. -1.
        994   -1    0    0    0    0 -0.00000000000E+00 -0.00000000000E+00  0.11368683772E-12  0.17120000000E+03  0.17120000000E+03 0.  0.
         13    1    1    2    0    0  0.34899652421E+02  0.11828039274E+03  0.67931348978E+03  0.69041658845E+03  0.10566000000E+00 0. -1.
        994    1    1    2    0    0  0.40678447659E+02 -0.33573530803E+02  0.29647254114E+02  0.18157730517E+03  0.17120000000E+03 0.  0.
        998    1    1    2    0    0 -0.75578100079E+02 -0.84706861935E+02  0.79103925238E+03  0.79920610638E+03  0.10000000000E+02 0. -1.
</event>
<event>
 5    1  0.1072898E-008  0.3827627E+03  0.7957747E-01  0.3439217E+00
         13   -1    0    0    0    0  0.00000000000E+00  0.00000000000E+00  0.14999999963E+04  0.15000000000E+04  0.10566000000E+00 0.  1.
        994   -1    0    0    0    0 -0.00000000000E+00 -0.00000000000E+00  0.11368683772E-12  0.17120000000E+03  0.17120000000E+03 0.  0.
         13    1    1    2    0    0  0.12928678647E+02 -0.22156114160E+00  0.27773344019E+02  0.30636083675E+02  0.10566000000E+00 0.  1.
        994    1    1    2    0    0 -0.26293686773E+02 -0.16604286085E+01  0.50477691238E+01  0.17328887720E+03  0.17120000000E+03 0.  0.
        998    1    1    2    0    0  0.13365008126E+02  0.18819897501E+01  0.14671788831E+04  0.14672750391E+04  0.10000000000E+02 0.  1.
</event>
<event>
 5    1  0.1072898E-008  0.3744443E+03  0.7957747E-01  0.3475712E+00
         13   -1    0    0    0    0  0.00000000000E+00  0.00000000000E+00  0.14999999963E+04  0.15000000000E+04  0.10566000000E+00 0.  1.
        994   -1    0    0    0    0 -0.00000000000E+00 -0.00000000000E+00  0.11368683772E-12  0.17120000000E+03  0.17120000000E+03 0.  0.
         13    1    1    2    0    0 -0.13579661118E+02  0.39907078624E+02  0.64138167653E+02  0.76750881651E+02  0.10566000000E+00 0.  1.
        994    1    1    2    0    0 -0.16317550735E+02 -0.22356127102E+02  0.16033596107E+02  0.17416249621E+03  0.17120000000E+03 0.  0.
        998    1    1    2    0    0  0.29897211852E+02 -0.17550951522E+02  0.14198282325E+04  0.14202866221E+04  0.10000000000E+02 0.  1.
</event>
<event>
 5    1  0.1072898E-008  0.3857804E+03  0.7957747E-01  0.3426369E+00
         13   -1    0    0    0    0  0.00000000000E+00  0.00000000000E+00  0.14999999963E+04  0.15000000000E+04  0.10566000000E+00 0.  1.
        994   -1    0    0    0    0 -0.00000000000E+00 -0.00000000000E+00  0.11368683772E-12  0.17120000000E+03  0.17120000000E+03 0.  0.
         13    1    1    2    0    0 -0.13066838145E+02 -0.42613756947E-01  0.66146562797E+02  0.67424943522E+02  0.10566000000E+00 0.  1.
        994    1    1    2    0    0  0.15036807977E+02  0.27043753933E+01  0.20092321556E+01  0.17189210643E+03  0.17120000000E+03 0.  0.
        998    1    1    2    0    0 -0.19699698319E+01 -0.26617616363E+01  0.14318442013E+04  0.14318829500E+04  0.10000000000E+02 0.  1.
</event>
<event>
 5    1  0.1072898E-008  0.3801866E+03  0.7957747E-01  0.3450346E+00
         13   -1    0    0    0    0  0.00000000000E+00  0.00000000000E+00  0.14999999963E+04  0.15000000000E+04  0.10566000000E+00 0.  1.
        994   -1    0    0    0    0 -0.00000000000E+00 -0.00000000000E+00  0.11368683772E-12  0.17120000000E+03  0.17120000000E+03 0.  0.
         13    1    1    2    0    0 -0.64385718887E+01  0.84428329975E+01  0.12544410345E+02  0.16435024549E+02  0.10566000000E+00 0.  1.
        994    1    1    2    0    0  0.22624172107E+02  0.23276265828E+02  0.75670308475E+01  0.17441427026E+03  0.17120000000E+03 0.  0.
        998    1    1    2    0    0 -0.16185600219E+02 -0.31719098825E+02  0.14798885551E+04  0.14803507052E+04  0.10000000000E+02 0.  1.
</event>
<event>
 5    1  0.1072898E-008  0.3884520E+03  0.7957747E-01  0.3415163E+00
         13   -1    0    0    0    0  0.00000000000E+00  0.00000000000E+00  0.14999999963E+04  0.15000000000E+04  0.10566000000E+00 0. -1.
        994   -1    0    0    0    0 -0.00000000000E+00 -0.00000000000E+00  0.11368683772E-12  0.17120000000E+03  0.17120000000E+03 0.  0.
         13    1    1    2    0    0  0.14878751963E+01  0.31952401863E+02  0.15440287576E+02  0.35518775344E+02  0.10566000000E+00 0. -1.
        994    1    1    2    0    0  0.22061871972E+00 -0.30352848929E+02  0.24502657577E+02  0.17558805295E+03  0.17120000000E+03 0.  0.
        998    1    1    2    0    0 -0.17084939160E+01 -0.15995529341E+01  0.14600570511E+04  0.14600931717E+04  0.10000000000E+02 0. -1.
</event>
<event>
 5    1  0.1072898E-008  0.3827064E+03  0.7957747E-01  0.3439458E+00
         13   -1    0    0    0    0  0.00000000000E+00  0.00000000000E+00  0.14999999963E+04  0.15000000000E+04  0.10566000000E+00 0.  1.
        994   -1    0    0    0    0 -0.00000000000E+00 -0.00000000000E+00  0.11368683772E-12  0.17120000000E+03  0.17120000000E+03 0.  0.
         13    1    1    2    0    0  0.65820192245E+01  0.17491427132E+02  0.17836645621E+01  0.18774067846E+02  0.10566000000E+00 0.  1.
        994    1    1    2    0    0 -0.14423260890E+01 -0.19047166249E+02  0.19158383991E+02  0.17332443141E+03  0.17120000000E+03 0.  0.
        998    1    1    2    0    0 -0.51396931355E+01  0.15557391172E+01  0.14790579477E+04  0.14791015007E+04  0.10000000000E+02 0.  1.
</event>
<event>
 5    1  0.1072898E-008  0.3838045E+03  0.7957747E-01  0.3434759E+00
         13   -1    0    0    0    0  0.00000000000E+00  0.00000000000E+00  0.14999999963E+04  0.15000000000E+04  0.10566000000E+00 0. -1.
        994   -1    0    0    0    0 -0.00000000000E+00 -0.00000000000E+00  0.11368683772E-12  0.17120000000E+03  0.17120000000E+03 0.  0.
         13    1    1    2    0    0 -0.15171977746E+02 -0.48902026060E+01  0.64311971361E+02  0.66258160363E+02  0.10566000000E+00 0. -1.
        994    1    1    2    0    0 -0.94333676266E+01 -0.11280834300E+02  0.29391152010E+01  0.17185553248E+03  0.17120000000E+03 0.  0.
        998    1    1    2    0    0  0.24605345373E+02  0.16171036906E+02  0.14327489097E+04  0.14330863072E+04  0.10000000000E+02 0. -1.
</event>
<event>
 5    1  0.1072898E-008  0.3831077E+03  0.7957747E-01  0.3437738E+00
         13   -1    0    0    0    0  0.00000000000E+00  0.00000000000E+00  0.14999999963E+04  0.15000000000E+04  0.10566000000E+00 0. -1.
        994   -1    0    0    0    0 -0.00000000000E+00 -0.00000000000E+00  0.11368683772E-12  0.17120000000E+03  0.17120000000E+03 0.  0.
         13    1    1    2    0    0 -0.64365054473E+02 -0.18928653922E+03  0.10459332212E+04  0.10648702121E+04  0.10566000000E+00 0. -1.
        994    1    1    2    0    0  0.86041548950E+02  0.19624027023E+03  0.17322895727E+03  0.32439343927E+03  0.17120000000E+03 0.  0.
        998    1    1    2    0    0 -0.21676494477E+02 -0.69537310083E+01  0.28083781781E+03  0.28193634867E+03  0.10000000000E+02 0. -1.
</event>
<event>
 5    1  0.1072898E-008  0.4032919E+03  0.7957747E-01  0.3355615E+00
         13   -1    0    0    0    0  0.00000000000E+00  0.00000000000E+00  0.14999999963E+04  0.15000000000E+04  0.10566000000E+00 0.  1.
        994   -1    0    0    0    0 -0.00000000000E+00 -0.00000000000E+00  0.11368683772E-12  0.17120000000E+03  0.17120000000E+03 0.  0.
         13    1    1    2    0    0 -0.22610787437E+02 -0.22280830610E+02  0.50364321446E+01  0.32141249726E+02  0.10566000000E+00 0.  1.
        994    1    1    2    0    0  0.96612574115E+01  0.83334576992E+01  0.30409934894E+02  0.17434732734E+03  0.17120000000E+03 0.  0.
        998    1    1    2    0    0  0.12949530025E+02  0.13947372910E+02  0.14645536292E+04  0.14647114229E+04  0.10000000000E+02 0.  1.
</event>
<event>
 5    1  0.1072898E-008  0.3817308E+03  0.7957747E-01  0.3443657E+00
         13   -1    0    0    0    0  0.00000000000E+00  0.00000000000E+00  0.14999999963E+04  0.15000000000E+04  0.10566000000E+00 0.  1.
        994   -1    0    0    0    0 -0.00000000000E+00 -0.00000000000E+00  0.11368683772E-12  0.17120000000E+03  0.17120000000E+03 0.  0.
         13    1    1    2    0    0  0.36263410603E+01 -0.30014745437E+02  0.16782085369E+03  0.17052238970E+03  0.10566000000E+00 0.  1.
        994    1    1    2    0    0  0.21537924740E+02 -0.31727148130E+01  0.48389214172E+01  0.17264646965E+03  0.17120000000E+03 0.  0.
        998    1    1    2    0    0 -0.25164265801E+02  0.33187460250E+02  0.13273402212E+04  0.13280311406E+04  0.10000000000E+02 0.  1.
</event>
<event>
 5    1  0.1072898E-008  0.3853221E+03  0.7957747E-01  0.3428307E+00
         13   -1    0    0    0    0  0.00000000000E+00  0.00000000000E+00  0.14999999963E+04  0.15000000000E+04  0.10566000000E+00 0.  1.
        994   -1    0    0    0    0 -0.00000000000E+00 -0.00000000000E+00  0.11368683772E-12  0.17120000000E+03  0.17120000000E+03 0.  0.
         13    1    1    2    0    0 -0.14230682687E+02  0.10967020356E+02  0.10754763014E+03  0.10903802904E+03  0.10566000000E+00 0.  1.
        994    1    1    2    0    0  0.18869176283E+02  0.82535219662E+00  0.26431079969E+01  0.17225897085E+03  0.17120000000E+03 0.  0.
        998    1    1    2    0    0 -0.46384935968E+01 -0.11792372552E+02  0.13898092581E+04  0.13899030001E+04  0.10000000000E+02 0.  1.
</event>
<event>
 5    1  0.1072898E-008  0.3858436E+03  0.7957747E-01  0.3426102E+00
         13   -1    0    0    0    0  0.00000000000E+00  0.00000000000E+00  0.14999999963E+04  0.15000000000E+04  0.10566000000E+00 0.  1.
        994   -1    0    0    0    0 -0.00000000000E+00 -0.00000000000E+00  0.11368683772E-12  0.17120000000E+03  0.17120000000E+03 0.  0.
         13    1    1    2    0    0 -0.76797761489E+01  0.14831771764E+02  0.10104229309E+03  0.10241345894E+03  0.10566000000E+00 0.  1.
        994    1    1    2    0    0  0.22906234105E+01 -0.28672249961E+02  0.39300412871E+01  0.17364397513E+03  0.17120000000E+03 0.  0.
        998    1    1    2    0    0  0.53891527384E+01  0.13840478197E+02  0.13950276619E+04  0.13951425659E+04  0.10000000000E+02 0.  1.
</event>
<event>
 5    1  0.1072898E-008  0.3779027E+03  0.7957747E-01  0.3460342E+00
         13   -1    0    0    0    0  0.00000000000E+00  0.00000000000E+00  0.14999999963E+04  0.15000000000E+04  0.10566000000E+00 0.  1.
        994   -1    0    0    0    0 -0.00000000000E+00 -0.00000000000E+00  0.11368683772E-12  0.17120000000E+03  0.17120000000E+03 0.  0.
         13    1    1    2    0    0 -0.14277222354E+02  0.75553345543E+01  0.22817537982E+02  0.27956633595E+02  0.10566000000E+00 0.  1.
        994    1    1    2    0    0  0.11520874324E+02 -0.62804605476E+01  0.57754213420E+01  0.17179921485E+03  0.17120000000E+03 0.  0.
        998    1    1    2    0    0  0.27563480306E+01 -0.12748740066E+01  0.14714070370E+04  0.14714441516E+04  0.10000000000E+02 0.  1.
</event>
<event>
 5    1  0.1072898E-008  0.3846409E+03  0.7957747E-01  0.3431197E+00
         13   -1    0    0    0    0  0.00000000000E+00  0.00000000000E+00  0.14999999963E+04  0.15000000000E+04  0.10566000000E+00 0.  1.
        994   -1    0    0    0    0 -0.00000000000E+00 -0.00000000000E+00  0.11368683772E-12  0.17120000000E+03  0.17120000000E+03 0.  0.
         13    1    1    2    0    0 -0.15994102117E+02 -0.11306250523E+02  0.10666191205E+03  0.10844545748E+03  0.10566000000E+00 0.  1.
        994    1    1    2    0    0  0.69681928866E+01  0.10036408607E+02  0.23002023156E+01  0.17165085534E+03  0.17120000000E+03 0.  0.
        998    1    1    2    0    0  0.90259092300E+01  0.12698419157E+01  0.13910378819E+04  0.13911036872E+04  0.10000000000E+02 0.  1.
</event>
<event>
 5    1  0.1072898E-008  0.3416846E+03  0.7957747E-01  0.3637085E+00
         13   -1    0    0    0    0  0.00000000000E+00  0.00000000000E+00  0.14999999963E+04  0.15000000000E+04  0.10566000000E+00 0. -1.
        994   -1    0    0    0    0 -0.00000000000E+00 -0.00000000000E+00  0.11368683772E-12  0.17120000000E+03  0.17120000000E+03 0.  0.
         13    1    1    2    0    0 -0.13855176975E+03  0.24435348934E+03  0.36220809970E+03  0.45836659925E+03  0.10566000000E+00 0. -1.
        994    1    1    2    0    0  0.13836222967E+03 -0.26061744342E+03  0.74291052036E+03  0.81749069700E+03  0.17120000000E+03 0.  0.
        998    1    1    2    0    0  0.18954008188E+00  0.16263954076E+02  0.39488137622E+03  0.39534270375E+03  0.10000000000E+02 0.  1.
</event>
<event>
 5    1  0.1072898E-008  0.2465453E+03  0.7957747E-01  0.4371306E+00
         13   -1    0    0    0    0  0.00000000000E+00  0.00000000000E+00  0.14999999963E+04  0.15000000000E+04  0.10566000000E+00 0.  1.
        994   -1    0    0    0    0 -0.00000000000E+00 -0.00000000000E+00  0.11368683772E-12  0.17120000000E+03  0.17120000000E+03 0.  0.
         13    1    1    2    0    0  0.11089962634E+03 -0.11156913322E+03  0.54427747211E+03  0.56655483090E+03  0.10566000000E+00 0.  1.
        994    1    1    2    0    0 -0.23480521500E+02 -0.34569345138E+02  0.50258862394E+02  0.18325328854E+03  0.17120000000E+03 0.  0.
        998    1    1    2    0    0 -0.87419104843E+02  0.14613847836E+03  0.90546366178E+03  0.92139188055E+03  0.10000000000E+02 0.  1.
</event>
<event>
 5    1  0.1292086E-008  0.3836106E+03  0.7957747E-01  0.3435586E+00
         13   -1    0    0    0    0  0.00000000000E+00  0.00000000000E+00  0.14999999963E+04  0.15000000000E+04  0.10566000000E+00 0.  1.
        994   -1    0    0    0    0 -0.00000000000E+00 -0.00000000000E+00  0.11368683772E-12  0.17120000000E+03  0.17120000000E+03 0.  0.
         13    1    1    2    0    0 -0.66144785369E+01 -0.83694252872E+01  0.23329502731E+02  0.25652981652E+02  0.10566000000E+00 0.  1.
        994    1    1    2    0    0  0.69242681191E+01  0.10435261866E+02  0.28398191658E+01  0.17168093881E+03  0.17120000000E+03 0.  0.
        998    1    1    2    0    0 -0.30978958221E+00 -0.20658365787E+01  0.14738306744E+04  0.14738660795E+04  0.10000000000E+02 0.  1.
</event>
<event>
 5    1  0.1072898E-008  0.3730754E+03  0.7957747E-01  0.3481875E+00
         13   -1    0    0    0    0  0.00000000000E+00  0.00000000000E+00  0.14999999963E+04  0.15000000000E+04  0.10566000000E+00 0. -1.
        994   -1    0    0    0    0 -0.00000000000E+00 -0.00000000000E+00  0.11368683772E-12  0.17120000000E+03  0.17120000000E+03 0.  0.
         13    1    1    2    0    0  0.28659450042E+00  0.32901873783E+02  0.71592558610E+02  0.78791630565E+02  0.10566000000E+00 0. -1.
        994    1    1    2    0    0 -0.26414245923E+01 -0.50149092705E+01  0.77802967452E+01  0.17147040402E+03  0.17120000000E+03 0.  0.
        998    1    1    2    0    0  0.23548300919E+01 -0.27886964512E+02  0.14206271409E+04  0.14209379654E+04  0.10000000000E+02 0. -1.
</event>
<event>
 5    1  0.1072898E-008  0.3843917E+03  0.7957747E-01  0.3432256E+00
         13   -1    0    0    0    0  0.00000000000E+00  0.00000000000E+00  0.14999999963E+04  0.15000000000E+04  0.10566000000E+00 0. -1.
        994   -1    0    0    0    0 -0.00000000000E+00 -0.00000000000E+00  0.11368683772E-12  0.17120000000E+03  0.17120000000E+03 0.  0.
         13    1    1    2    0    0 -0.16314814368E+02 -0.65121979137E+01  0.79171138685E+02  0.81096622952E+02  0.10566000000E+00 0. -1.
        994    1    1    2    0    0  0.79986968548E+01  0.12936123023E+02  0.26950612707E+01  0.17189539198E+03  0.17120000000E+03 0.  0.
        998    1    1    2    0    0  0.83161175129E+01 -0.64239251091E+01  0.14181337963E+04  0.14182079851E+04  0.10000000000E+02 0. -1.
</event>
<event>
 5    1  0.1072898E-008  0.3768514E+03  0.7957747E-01  0.3464984E+00
         13   -1    0    0    0    0  0.00000000000E+00  0.00000000000E+00  0.14999999963E+04  0.15000000000E+04  0.10566000000E+00 0. -1.
        994   -1    0    0    0    0 -0.00000000000E+00 -0.00000000000E+00  0.11368683772E-12  0.17120000000E+03  0.17120000000E+03 0.  0.
         13    1    1    2    0    0  0.64444518013E+02  0.14513816703E+03  0.82085712792E+03  0.83607692173E+03  0.10566000000E+00 0. -1.
        994    1    1    2    0    0 -0.61497103829E+02 -0.15001261359E+03  0.10041001400E+03  0.25627580636E+03  0.17120000000E+03 0.  0.
        998    1    1    2    0    0 -0.29474141842E+01  0.48744465641E+01  0.57873285436E+03  0.57884727191E+03  0.10000000000E+02 0. -1.
</event>
<event>
 5    1  0.1072898E-008  0.3820023E+03  0.7957747E-01  0.3442486E+00
         13   -1    0    0    0    0  0.00000000000E+00  0.00000000000E+00  0.14999999963E+04  0.15000000000E+04  0.10566000000E+00 0. -1.
        994   -1    0    0    0    0 -0.00000000000E+00 -0.00000000000E+00  0.11368683772E-12  0.17120000000E+03  0.17120000000E+03 0.  0.
         13    1    1    2    0    0 -0.30354587068E+01 -0.33159626817E+02  0.19507577579E+03  0.19789730752E+03  0.10566000000E+00 0. -1.
        994    1    1    2    0    0 -0.15464724116E+02  0.93875416693E+01  0.42134609962E+01  0.17220475279E+03  0.17120000000E+03 0.  0.
        998    1    1    2    0    0  0.18500182823E+02  0.23772085148E+02  0.13007107595E+04  0.13010979397E+04  0.10000000000E+02 0. -1.
</event>
<event>
 5    1  0.1072898E-008  0.3849336E+03  0.7957747E-01  0.3429954E+00
         13   -1    0    0    0    0  0.00000000000E+00  0.00000000000E+00  0.14999999963E+04  0.15000000000E+04  0.10566000000E+00 0. -1.
        994   -1    0    0    0    0 -0.00000000000E+00 -0.00000000000E+00  0.11368683772E-12  0.17120000000E+03  0.17120000000E+03 0.  0.
         13    1    1    2    0    0 -0.82955079625E+01  0.72271254352E+01  0.40688852980E+02  0.42150216076E+02  0.10566000000E+00 0. -1.
        994    1    1    2    0    0 -0.14484042288E+02  0.68128528152E+01  0.25062990485E+01  0.17196489171E+03  0.17120000000E+03 0.  0.
        998    1    1    2    0    0  0.22779550251E+02 -0.14039978250E+02  0.14568048443E+04  0.14570848922E+04  0.10000000000E+02 0. -1.
</event>
<event>
 5    1  0.1072898E-008  0.3827712E+03  0.7957747E-01  0.3439180E+00
         13   -1    0    0    0    0  0.00000000000E+00  0.00000000000E+00  0.14999999963E+04  0.15000000000E+04  0.10566000000E+00 0.  1.
        994   -1    0    0    0    0 -0.00000000000E+00 -0.00000000000E+00  0.11368683772E-12  0.17120000000E+03  0.17120000000E+03 0.  0.
         13    1    1    2    0    0  0.10229705636E+02  0.73641474164E+01  0.25719068702E+02  0.28641913405E+02  0.10566000000E+00 0.  1.
        994    1    1    2    0    0 -0.26332543007E+02 -0.21767986135E+02  0.66170104890E+01  0.17470109579E+03  0.17120000000E+03 0.  0.
        998    1    1    2    0    0  0.16102837371E+02  0.14403838718E+02  0.14676639171E+04  0.14678569908E+04  0.10000000000E+02 0.  1.
</event>
<event>
 5    1  0.1072898E-008  0.3748157E+03  0.7957747E-01  0.3474048E+00
         13   -1    0    0    0    0  0.00000000000E+00  0.00000000000E+00  0.14999999963E+04  0.15000000000E+04  0.10566000000E+00 0.  1.
        994   -1    0    0    0    0 -0.00000000000E+00 -0.00000000000E+00  0.11368683772E-12  0.17120000000E+03  0.17120000000E+03 0.  0.
         13    1    1    2    0    0 -0.15471261427E+02  0.63074915144E+01  0.18365282601E+02  0.24828192612E+02  0.10566000000E+00 0.  1.
        994    1    1    2    0    0 -0.97984924718E+01 -0.12273794732E+02  0.76128201227E+01  0.17208733690E+03  0.17120000000E+03 0.  0.
        998    1    1    2    0    0  0.25269753898E+02  0.59663032178E+01  0.14740218936E+04  0.14742844705E+04  0.10000000000E+02 0.  1.
</event>
<event>
 5    1  0.1072898E-008  0.3799628E+03  0.7957747E-01  0.3451321E+00
         13   -1    0    0    0    0  0.00000000000E+00  0.00000000000E+00  0.14999999963E+04  0.15000000000E+04  0.10566000000E+00 0.  1.
        994   -1    0    0    0    0 -0.00000000000E+00 -0.00000000000E+00  0.11368683772E-12  0.17120000000E+03  0.17120000000E+03 0.  0.
         13    1    1    2    0    0 -0.75596731154E+02 -0.38832603613E+02  0.46214078980E+03  0.46989036767E+03  0.10566000000E+00 0.  1.
        994    1    1    2    0    0  0.91421897234E+02  0.53111304848E+02  0.42480034481E+02  0.20565205403E+03  0.17120000000E+03 0.  0.
        998    1    1    2    0    0 -0.15825166080E+02 -0.14278701235E+02  0.99537917200E+03  0.99565757830E+03  0.10000000000E+02 0.  1.
</event>
<event>
 5    1  0.1072898E-008  0.3743856E+03  0.7957747E-01  0.3475975E+00
         13   -1    0    0    0    0  0.00000000000E+00  0.00000000000E+00  0.14999999963E+04  0.15000000000E+04  0.10566000000E+00 0. -1.
        994   -1    0    0    0    0 -0.00000000000E+00 -0.00000000000E+00  0.11368683772E-12  0.17120000000E+03  0.17120000000E+03 0.  0.
         13    1    1    2    0    0 -0.72797721925E+02  0.43852043744E+02  0.35328102679E+03  0.36335933332E+03  0.10566000000E+00 0. -1.
        994    1    1    2    0    0 -0.11683903747E+02 -0.36687743248E+02  0.18558974860E+02  0.17645503580E+03  0.17120000000E+03 0.  0.
        998    1    1    2    0    0  0.84481625672E+02 -0.71643004957E+01  0.11281599946E+04  0.11313856309E+04  0.10000000000E+02 0. -1.
</event>
<event>
 5    1  0.1072898E-008  0.3850078E+03  0.7957747E-01  0.3429639E+00
         13   -1    0    0    0    0  0.00000000000E+00  0.00000000000E+00  0.14999999963E+04  0.15000000000E+04  0.10566000000E+00 0. -1.
        994   -1    0    0    0    0 -0.00000000000E+00 -0.00000000000E+00  0.11368683772E-12  0.17120000000E+03  0.17120000000E+03 0.  0.
         13    1    1    2    0    0  0.59741420268E+00 -0.13777947689E+02  0.54627045588E+02  0.56341050931E+02  0.10566000000E+00 0. -1.
        994    1    1    2    0    0 -0.21064550099E+01  0.20869277788E+02  0.30744436820E+01  0.17250755378E+03  0.17120000000E+03 0.  0.
        998    1    1    2    0    0  0.15090408072E+01 -0.70913300993E+01  0.14422985070E+04  0.14423513953E+04  0.10000000000E+02 0. -1.
</event>
<event>
 5    1  0.1072898E-008  0.3737006E+03  0.7957747E-01  0.3479055E+00
         13   -1    0    0    0    0  0.00000000000E+00  0.00000000000E+00  0.14999999963E+04  0.15000000000E+04  0.10566000000E+00 0. -1.
        994   -1    0    0    0    0 -0.00000000000E+00 -0.00000000000E+00  0.11368683772E-12  0.17120000000E+03  0.17120000000E+03 0.  0.
         13    1    1    2    0    0 -0.10141539158E+02  0.12047815028E+02  0.34720336280E+01  0.16126588139E+02  0.10566000000E+00 0. -1.
        994    1    1    2    0    0  0.23889175536E+02 -0.19718048880E+02  0.16315034999E+02  0.17474299564E+03  0.17120000000E+03 0.  0.
        998    1    1    2    0    0 -0.13747636378E+02  0.76702338511E+01  0.14802129277E+04  0.14803304162E+04  0.10000000000E+02 0. -1.
</event>
<event>
 5    1  0.1072898E-008  0.3728281E+03  0.7957747E-01  0.3482993E+00
         13   -1    0    0    0    0  0.00000000000E+00  0.00000000000E+00  0.14999999963E+04  0.15000000000E+04  0.10566000000E+00 0. -1.
        994   -1    0    0    0    0 -0.00000000000E+00 -0.00000000000E+00  0.11368683772E-12  0.17120000000E+03  0.17120000000E+03 0.  0.
         13    1    1    2    0    0  0.16061103155E+01 -0.11145802994E+02  0.45379153993E+01  0.12141348975E+02  0.10566000000E+00 0. -1.
        994    1    1    2    0    0 -0.22121521540E+01  0.74241556115E+01  0.80038017535E+01  0.17156197873E+03  0.17120000000E+03 0.  0.
        998    1    1    2    0    0  0.60604183849E+00  0.37216473820E+01  0.14874582791E+04  0.14874966723E+04  0.10000000000E+02 0. -1.
</event>
<event>
 5    1  0.1072898E-008  0.3852903E+03  0.7957747E-01  0.3428442E+00
         13   -1    0    0    0    0  0.00000000000E+00  0.00000000000E+00  0.14999999963E+04  0.15000000000E+04  0.10566000000E+00 0.  1.
        994   -1    0    0    0    0 -0.00000000000E+00 -0.00000000000E+00  0.11368683772E-12  0.17120000000E+03  0.17120000000E+03 0.  0.
         13    1    1    2    0    0 -0.95009844453E+01 -0.36974941630E+01  0.34388603872E+02  0.35868194948E+02  0.10566000000E+00 0.  1.
        994    1    1    2    0    0  0.81699502151E+01  0.67906706147E+01  0.18569720221E+01  0.17153935303E+03  0.17120000000E+03 0.  0.
        998    1    1    2    0    0  0.13310342303E+01 -0.30931764516E+01  0.14637544204E+04  0.14637924520E+04  0.10000000000E+02 0.  1.
</event>
<event>
 5    1  0.1072898E-008  0.3761798E+03  0.7957747E-01  0.3467963E+00
         13   -1    0    0    0    0  0.00000000000E+00  0.00000000000E+00  0.14999999963E+04  0.15000000000E+04  0.10566000000E+00 0.  1.
        994   -1    0    0    0    0 -0.00000000000E+00 -0.00000000000E+00  0.11368683772E-12  0.17120000000E+03  0.17120000000E+03 0.  0.
         13    1    1    2    0    0 -0.13180479057E+02  0.53405007281E+02  0.25455197810E+03  0.26042761096E+03  0.10566000000E+00 0.  1.
        994    1    1    2    0    0  0.36047820136E+01 -0.27267618554E+02  0.86397451254E+01  0.17361049125E+03  0.17120000000E+03 0.  0.
        998    1    1    2    0    0  0.95756970436E+01 -0.26137388727E+02  0.12368082731E+04  0.12371618978E+04  0.10000000000E+02 0.  1.
</event>
<event>
 5    1  0.1072898E-008  0.3804600E+03  0.7957747E-01  0.3449158E+00
         13   -1    0    0    0    0  0.00000000000E+00  0.00000000000E+00  0.14999999963E+04  0.15000000000E+04  0.10566000000E+00 0. -1.
        994   -1    0    0    0    0 -0.00000000000E+00 -0.00000000000E+00  0.11368683772E-12  0.17120000000E+03  0.17120000000E+03 0.  0.
         13    1    1    2    0    0 -0.29896005034E+02 -0.48472560101E+01  0.12241760671E+03  0.12610847951E+03  0.10566000000E+00 0. -1.
        994    1    1    2    0    0  0.11428542449E+02 -0.10955024733E+02  0.47381052076E+01  0.17199567957E+03  0.17120000000E+03 0.  0.
        998    1    1    2    0    0  0.18467462585E+02  0.15802280743E+02  0.13728442844E+04  0.13730958409E+04  0.10000000000E+02 0. -1.
</event>
