<event>
 5    1  0.7026671E-009  0.3882416E+03  0.7957747E-01  0.3416039E+00
         13   -1    0    0    0    0  0.00000000000E+00  0.00000000000E+00  0.14999999963E+04  0.15000000000E+04  0.10566000000E+00 0. -1.
        994   -1    0    0    0    0 -0.00000000000E+00 -0.00000000000E+00  0.11368683772E-12  0.17120000000E+03  0.17120000000E+03 0.  0.
         13    1    1    2    0    0  0.51434522502E+02 -0.21348479440E+03  0.13048102403E+04  0.13231594922E+04  0.10566000000E+00 0. -1.
        994    1    1    2    0    0 -0.51712655728E+02  0.21505201628E+03  0.17965808620E+03  0.33242749045E+03  0.17120000000E+03 0.  0.
        998    1    1    2    0    0  0.27813322621E+00 -0.15672218830E+01  0.15531669812E+02  0.15613017347E+02  0.10000000000E-02 0.  1.
</event>
<event>
 5    1  0.7026671E-009  0.3883009E+03  0.7957747E-01  0.3415792E+00
         13   -1    0    0    0    0  0.00000000000E+00  0.00000000000E+00  0.14999999963E+04  0.15000000000E+04  0.10566000000E+00 0.  1.
        994   -1    0    0    0    0 -0.00000000000E+00 -0.00000000000E+00  0.11368683772E-12  0.17120000000E+03  0.17120000000E+03 0.  0.
         13    1    1    2    0    0  0.24770227878E+03 -0.23166660352E+03  0.87190603018E+03  0.93554581434E+03  0.10566000000E+00 0.  1.
        994    1    1    2    0    0 -0.24884969448E+03  0.23271991845E+03  0.62407329053E+03  0.73134235680E+03  0.17120000000E+03 0.  0.
        998    1    1    2    0    0  0.11474157066E+01 -0.10533149329E+01  0.40206755706E+01  0.43118288690E+01  0.10000000000E-02 0.  1.
</event>
<event>
 5    1  0.7026671E-009  0.3883010E+03  0.7957747E-01  0.3415792E+00
         13   -1    0    0    0    0  0.00000000000E+00  0.00000000000E+00  0.14999999963E+04  0.15000000000E+04  0.10566000000E+00 0.  1.
        994   -1    0    0    0    0 -0.00000000000E+00 -0.00000000000E+00  0.11368683772E-12  0.17120000000E+03  0.17120000000E+03 0.  0.
         13    1    1    2    0    0  0.14199116027E+03  0.22496411186E+03  0.12183235582E+04  0.12470295284E+04  0.10566000000E+00 0.  1.
        994    1    1    2    0    0 -0.14212437398E+03 -0.22518360640E+03  0.28048554413E+03  0.42295221330E+03  0.17120000000E+03 0.  0.
        998    1    1    2    0    0  0.13321371000E+00  0.21949453392E+00  0.11908939631E+01  0.12182582544E+01  0.10000000000E-02 0.  1.
</event>
<event>
 5    1  0.7026671E-009  0.3882954E+03  0.7957747E-01  0.3415815E+00
         13   -1    0    0    0    0  0.00000000000E+00  0.00000000000E+00  0.14999999963E+04  0.15000000000E+04  0.10566000000E+00 0.  1.
        994   -1    0    0    0    0 -0.00000000000E+00 -0.00000000000E+00  0.11368683772E-12  0.17120000000E+03  0.17120000000E+03 0.  0.
         13    1    1    2    0    0  0.90304226447E+02 -0.21543183951E+03  0.12499552663E+04  0.12715950259E+04  0.10566000000E+00 0.  1.
        994    1    1    2    0    0 -0.92259742675E+02  0.22130400469E+03  0.21679086922E+03  0.36578004810E+03  0.17120000000E+03 0.  0.
        998    1    1    2    0    0  0.19555162273E+01 -0.58721651784E+01  0.33253860718E+02  0.33824926035E+02  0.10000000000E-02 0. -1.
</event>
<event>
 5    1  0.7026671E-009  0.3883010E+03  0.7957747E-01  0.3415792E+00
         13   -1    0    0    0    0  0.00000000000E+00  0.00000000000E+00  0.14999999963E+04  0.15000000000E+04  0.10566000000E+00 0.  1.
        994   -1    0    0    0    0 -0.00000000000E+00 -0.00000000000E+00  0.11368683772E-12  0.17120000000E+03  0.17120000000E+03 0.  0.
         13    1    1    2    0    0  0.17754721244E+03 -0.16988437520E+03  0.12671137006E+04  0.12907210601E+04  0.10566000000E+00 0.  1.
        994    1    1    2    0    0 -0.17783794747E+03  0.17016156136E+03  0.23082622730E+03  0.37838007312E+03  0.17120000000E+03 0.  0.
        998    1    1    2    0    0  0.29073502498E+00 -0.27718616324E+00  0.20600684117E+01  0.20988668097E+01  0.10000000000E-02 0. -1.
</event>
<event>
 5    1  0.7026671E-009  0.3883010E+03  0.7957747E-01  0.3415792E+00
         13   -1    0    0    0    0  0.00000000000E+00  0.00000000000E+00  0.14999999963E+04  0.15000000000E+04  0.10566000000E+00 0. -1.
        994   -1    0    0    0    0 -0.00000000000E+00 -0.00000000000E+00  0.11368683772E-12  0.17120000000E+03  0.17120000000E+03 0.  0.
         13    1    1    2    0    0 -0.20434319115E+03  0.14921404237E+03  0.12505441748E+04  0.12758846792E+04  0.10566000000E+00 0. -1.
        994    1    1    2    0    0  0.20462955601E+03 -0.14942238072E+03  0.24771370432E+03  0.39353757427E+03  0.17120000000E+03 0.  0.
        998    1    1    2    0    0 -0.28636486398E+00  0.20833834986E+00  0.17421171339E+01  0.17777465544E+01  0.10000000000E-02 0.  0.
</event>
<event>
 5    1  0.7026671E-009  0.3883003E+03  0.7957747E-01  0.3415795E+00
         13   -1    0    0    0    0  0.00000000000E+00  0.00000000000E+00  0.14999999963E+04  0.15000000000E+04  0.10566000000E+00 0.  1.
        994   -1    0    0    0    0 -0.00000000000E+00 -0.00000000000E+00  0.11368683772E-12  0.17120000000E+03  0.17120000000E+03 0.  0.
         13    1    1    2    0    0  0.16238668075E+03  0.16675815330E+03  0.12973520134E+04  0.13180667561E+04  0.10566000000E+00 0.  1.
        994    1    1    2    0    0 -0.16242228350E+03 -0.16680095194E+03  0.20224533834E+03  0.35272676766E+03  0.17120000000E+03 0.  0.
        998    1    1    2    0    0  0.35602751437E-01  0.42798646948E-01  0.40264454917E+00  0.40647621464E+00  0.10000000000E-02 0. -1.
</event>
<event>
 5    1  0.7026671E-009  0.3860670E+03  0.7957747E-01  0.3425160E+00
         13   -1    0    0    0    0  0.00000000000E+00  0.00000000000E+00  0.14999999963E+04  0.15000000000E+04  0.10566000000E+00 0.  1.
        994   -1    0    0    0    0 -0.00000000000E+00 -0.00000000000E+00  0.11368683772E-12  0.17120000000E+03  0.17120000000E+03 0.  0.
         13    1    1    2    0    0  0.26139476670E+02 -0.19382769759E+01  0.15596763454E+03  0.15815480817E+03  0.10566000000E+00 0.  1.
        994    1    1    2    0    0 -0.84912601780E+02 -0.24832578419E+02  0.27185711161E+02  0.19461580045E+03  0.17120000000E+03 0.  0.
        998    1    1    2    0    0  0.58773125110E+02  0.26770855395E+02  0.13168466506E+04  0.13184293914E+04  0.10000000000E-02 0.  1.
</event>
<event>
 5    1  0.7026671E-009  0.3882628E+03  0.7957747E-01  0.3415951E+00
         13   -1    0    0    0    0  0.00000000000E+00  0.00000000000E+00  0.14999999963E+04  0.15000000000E+04  0.10566000000E+00 0. -1.
        994   -1    0    0    0    0 -0.00000000000E+00 -0.00000000000E+00  0.11368683772E-12  0.17120000000E+03  0.17120000000E+03 0.  0.
         13    1    1    2    0    0  0.27955304380E+03 -0.88915476220E+02  0.11012664026E+04  0.11396681828E+04  0.10566000000E+00 0. -1.
        994    1    1    2    0    0 -0.28348527384E+03  0.90647384140E+02  0.37927779069E+03  0.51160720406E+03  0.17120000000E+03 0.  0.
        998    1    1    2    0    0  0.39322300358E+01 -0.17319079196E+01  0.19455802963E+02  0.19924613121E+02  0.10000000000E-02 0. -1.
</event>
<event>
 5    1  0.7026671E-009  0.3883007E+03  0.7957747E-01  0.3415793E+00
         13   -1    0    0    0    0  0.00000000000E+00  0.00000000000E+00  0.14999999963E+04  0.15000000000E+04  0.10566000000E+00 0. -1.
        994   -1    0    0    0    0 -0.00000000000E+00 -0.00000000000E+00  0.11368683772E-12  0.17120000000E+03  0.17120000000E+03 0.  0.
         13    1    1    2    0    0 -0.95379056501E+02 -0.19884661719E+03  0.12842722397E+04  0.13030703505E+04  0.10566000000E+00 0. -1.
        994    1    1    2    0    0  0.97406208969E+02  0.20326664018E+03  0.18756856980E+03  0.33955368490E+03  0.17120000000E+03 0.  0.
        998    1    1    2    0    0 -0.20271524681E+01 -0.44200229805E+01  0.28159186794E+02  0.28575964589E+02  0.10000000000E-02 0. -1.
</event>
<event>
 5    1  0.7026671E-009  0.3883010E+03  0.7957747E-01  0.3415792E+00
         13   -1    0    0    0    0  0.00000000000E+00  0.00000000000E+00  0.14999999963E+04  0.15000000000E+04  0.10566000000E+00 0. -1.
        994   -1    0    0    0    0 -0.00000000000E+00 -0.00000000000E+00  0.11368683772E-12  0.17120000000E+03  0.17120000000E+03 0.  0.
         13    1    1    2    0    0  0.29962767314E+03  0.14453992076E+03  0.92175229139E+03  0.97994685012E+03  0.10566000000E+00 0. -1.
        994    1    1    2    0    0 -0.30166949828E+03 -0.14552749605E+03  0.57193146191E+03  0.68454201874E+03  0.17120000000E+03 0.  0.
        998    1    1    2    0    0  0.20418251355E+01  0.98757529368E+00  0.63162429778E+01  0.67111311416E+01  0.10000000000E-02 0. -1.
</event>
<event>
 5    1  0.7026671E-009  0.3882993E+03  0.7957747E-01  0.3415799E+00
         13   -1    0    0    0    0  0.00000000000E+00  0.00000000000E+00  0.14999999963E+04  0.15000000000E+04  0.10566000000E+00 0.  1.
        994   -1    0    0    0    0 -0.00000000000E+00 -0.00000000000E+00  0.11368683772E-12  0.17120000000E+03  0.17120000000E+03 0.  0.
         13    1    1    2    0    0 -0.89167787320E+02 -0.29809111261E+02  0.54653686304E+03  0.55456472232E+03  0.10566000000E+00 0.  1.
        994    1    1    2    0    0  0.21267775140E+03  0.72444287014E+02  0.18618416638E+03  0.33831048531E+03  0.17120000000E+03 0.  0.
        998    1    1    2    0    0 -0.12350996408E+03 -0.42635175752E+02  0.76727896686E+03  0.77832479237E+03  0.10000000000E-02 0.  1.
</event>
<event>
 5    1  0.7026671E-009  0.3883008E+03  0.7957747E-01  0.3415793E+00
         13   -1    0    0    0    0  0.00000000000E+00  0.00000000000E+00  0.14999999963E+04  0.15000000000E+04  0.10566000000E+00 0.  1.
        994   -1    0    0    0    0 -0.00000000000E+00 -0.00000000000E+00  0.11368683772E-12  0.17120000000E+03  0.17120000000E+03 0.  0.
         13    1    1    2    0    0 -0.21962606193E+03  0.22856324991E+03  0.68479234400E+03  0.75459746346E+03  0.10566000000E+00 0.  1.
        994    1    1    2    0    0  0.24121658995E+03 -0.25085682261E+03  0.74784787019E+03  0.84243721764E+03  0.17120000000E+03 0.  0.
        998    1    1    2    0    0 -0.21590528018E+02  0.22293572703E+02  0.67359782086E+02  0.74165318901E+02  0.10000000000E-02 0.  1.
</event>
<event>
 5    1  0.7026671E-009  0.3883009E+03  0.7957747E-01  0.3415792E+00
         13   -1    0    0    0    0  0.00000000000E+00  0.00000000000E+00  0.14999999963E+04  0.15000000000E+04  0.10566000000E+00 0.  1.
        994   -1    0    0    0    0 -0.00000000000E+00 -0.00000000000E+00  0.11368683772E-12  0.17120000000E+03  0.17120000000E+03 0.  0.
         13    1    1    2    0    0  0.12360894776E+03  0.23319581342E+03  0.12221134460E+04  0.12502882649E+04  0.10566000000E+00 0.  1.
        994    1    1    2    0    0 -0.12384168192E+03 -0.23363315212E+03  0.27553786658E+03  0.41851137125E+03  0.17120000000E+03 0.  0.
        998    1    1    2    0    0  0.23273415462E+00  0.43733870184E+00  0.23486836900E+01  0.24003638062E+01  0.10000000000E-02 0. -1.
</event>
<event>
 5    1  0.7026671E-009  0.3771098E+03  0.7957747E-01  0.3463840E+00
         13   -1    0    0    0    0  0.00000000000E+00  0.00000000000E+00  0.14999999963E+04  0.15000000000E+04  0.10566000000E+00 0. -1.
        994   -1    0    0    0    0 -0.00000000000E+00 -0.00000000000E+00  0.11368683772E-12  0.17120000000E+03  0.17120000000E+03 0.  0.
         13    1    1    2    0    0  0.39816950032E+02  0.43654055438E+02  0.22444093578E+03  0.23208793782E+03  0.10566000000E+00 0. -1.
        994    1    1    2    0    0  0.58287562915E+01 -0.12916545464E+03  0.64281970213E+02  0.22396272183E+03  0.17120000000E+03 0.  0.
        998    1    1    2    0    0 -0.45645706324E+02  0.85511399205E+02  0.12112770903E+04  0.12151493404E+04  0.10000000000E-02 0. -1.
</event>
<event>
 5    1  0.7026671E-009  0.3803416E+03  0.7957747E-01  0.3449673E+00
         13   -1    0    0    0    0  0.00000000000E+00  0.00000000000E+00  0.14999999963E+04  0.15000000000E+04  0.10566000000E+00 0. -1.
        994   -1    0    0    0    0 -0.00000000000E+00 -0.00000000000E+00  0.11368683772E-12  0.17120000000E+03  0.17120000000E+03 0.  0.
         13    1    1    2    0    0  0.51131783779E+02 -0.20274907356E+02  0.15192727806E+03  0.16157796930E+03  0.10566000000E+00 0. -1.
        994    1    1    2    0    0 -0.20119170083E+03 -0.23780785736E+01  0.15369052139E+03  0.30563699401E+03  0.17120000000E+03 0.  0.
        998    1    1    2    0    0  0.15005991705E+03  0.22652985930E+02  0.11943821968E+04  0.12039850367E+04  0.10000000000E-02 0. -1.
</event>
<event>
 5    1  0.7026671E-009  0.3883010E+03  0.7957747E-01  0.3415792E+00
         13   -1    0    0    0    0  0.00000000000E+00  0.00000000000E+00  0.14999999963E+04  0.15000000000E+04  0.10566000000E+00 0. -1.
        994   -1    0    0    0    0 -0.00000000000E+00 -0.00000000000E+00  0.11368683772E-12  0.17120000000E+03  0.17120000000E+03 0.  0.
         13    1    1    2    0    0 -0.23763133684E+03 -0.48716749576E+02  0.12760234653E+04  0.12988756172E+04  0.10566000000E+00 0. -1.
        994    1    1    2    0    0  0.23777324625E+03  0.48750034421E+02  0.22320928347E+03  0.37154341162E+03  0.17120000000E+03 0.  0.
        998    1    1    2    0    0 -0.14190940988E+00 -0.33284845297E-01  0.76724752670E+00  0.78097114465E+00  0.10000000000E-02 0. -1.
</event>
<event>
 5    1  0.7026671E-009  0.3882933E+03  0.7957747E-01  0.3415824E+00
         13   -1    0    0    0    0  0.00000000000E+00  0.00000000000E+00  0.14999999963E+04  0.15000000000E+04  0.10566000000E+00 0.  1.
        994   -1    0    0    0    0 -0.00000000000E+00 -0.00000000000E+00  0.11368683772E-12  0.17120000000E+03  0.17120000000E+03 0.  0.
         13    1    1    2    0    0  0.47068476182E+02  0.20393727751E+03  0.11366845775E+04  0.11557931019E+04  0.10566000000E+00 0.  1.
        994    1    1    2    0    0 -0.52314669898E+02 -0.23080996874E+03  0.21020825754E+03  0.35987083502E+03  0.17120000000E+03 0.  0.
        998    1    1    2    0    0  0.52461937158E+01  0.26872691227E+02  0.15310716125E+03  0.15553606306E+03  0.10000000000E-02 0.  1.
</event>
<event>
 5    1  0.7026671E-009  0.2924085E+03  0.7957747E-01  0.3951751E+00
         13   -1    0    0    0    0  0.00000000000E+00  0.00000000000E+00  0.14999999963E+04  0.15000000000E+04  0.10566000000E+00 0.  1.
        994   -1    0    0    0    0 -0.00000000000E+00 -0.00000000000E+00  0.11368683772E-12  0.17120000000E+03  0.17120000000E+03 0.  0.
         13    1    1    2    0    0  0.13640282251E+03 -0.17725818486E+02  0.81986441983E+03  0.83132280896E+03  0.10566000000E+00 0.  1.
        994    1    1    2    0    0 -0.68629722686E+02 -0.11564082068E+03  0.97842787835E+02  0.23867444223E+03  0.17120000000E+03 0.  0.
        998    1    1    2    0    0 -0.67773099828E+02  0.13336663916E+03  0.58229278862E+03  0.60120274881E+03  0.10000000000E-02 0.  1.
</event>
<event>
 5    1  0.7026671E-009  0.3882970E+03  0.7957747E-01  0.3415808E+00
         13   -1    0    0    0    0  0.00000000000E+00  0.00000000000E+00  0.14999999963E+04  0.15000000000E+04  0.10566000000E+00 0.  1.
        994   -1    0    0    0    0 -0.00000000000E+00 -0.00000000000E+00  0.11368683772E-12  0.17120000000E+03  0.17120000000E+03 0.  0.
         13    1    1    2    0    0 -0.19109811998E+03 -0.21139821243E+03  0.11642092650E+04  0.11985787081E+04  0.10566000000E+00 0.  1.
        994    1    1    2    0    0  0.19114127846E+03  0.21145346677E+03  0.33562661430E+03  0.47244282318E+03  0.17120000000E+03 0.  0.
        998    1    1    2    0    0 -0.43158479523E-01 -0.55254345340E-01  0.16411699566E+00  0.17846872358E+00  0.10000000000E-02 0.  1.
</event>
<event>
 5    1  0.7026671E-009  0.3883010E+03  0.7957747E-01  0.3415792E+00
         13   -1    0    0    0    0  0.00000000000E+00  0.00000000000E+00  0.14999999963E+04  0.15000000000E+04  0.10566000000E+00 0.  1.
        994   -1    0    0    0    0 -0.00000000000E+00 -0.00000000000E+00  0.11368683772E-12  0.17120000000E+03  0.17120000000E+03 0.  0.
         13    1    1    2    0    0  0.24213226468E+03 -0.24211286444E+01  0.12654183111E+04  0.12883778207E+04  0.10566000000E+00 0.  1.
        994    1    1    2    0    0 -0.24382637704E+03  0.24345997781E+01  0.22568375399E+03  0.37376439937E+03  0.17120000000E+03 0.  0.
        998    1    1    2    0    0  0.16941123623E+01 -0.13471133692E-01  0.88979311634E+01  0.90577799795E+01  0.10000000000E-02 0. -1.
</event>
<event>
 5    1  0.7026671E-009  0.3883009E+03  0.7957747E-01  0.3415792E+00
         13   -1    0    0    0    0  0.00000000000E+00  0.00000000000E+00  0.14999999963E+04  0.15000000000E+04  0.10566000000E+00 0.  1.
        994   -1    0    0    0    0 -0.00000000000E+00 -0.00000000000E+00  0.11368683772E-12  0.17120000000E+03  0.17120000000E+03 0.  0.
         13    1    1    2    0    0 -0.24289289629E+03  0.68436230648E+02  0.12542758036E+04  0.12794093478E+04  0.10566000000E+00 0.  1.
        994    1    1    2    0    0  0.24295725003E+03 -0.68450997931E+02  0.24541301043E+03  0.39147254073E+03  0.17120000000E+03 0.  0.
        998    1    1    2    0    0 -0.64353733403E-01  0.14767283804E-01  0.31118225788E+00  0.31811141648E+00  0.10000000000E-02 0. -1.
</event>
<event>
 5    1  0.7026671E-009  0.3882655E+03  0.7957747E-01  0.3415940E+00
         13   -1    0    0    0    0  0.00000000000E+00  0.00000000000E+00  0.14999999963E+04  0.15000000000E+04  0.10566000000E+00 0.  1.
        994   -1    0    0    0    0 -0.00000000000E+00 -0.00000000000E+00  0.11368683772E-12  0.17120000000E+03  0.17120000000E+03 0.  0.
         13    1    1    2    0    0 -0.14341854378E+01 -0.24278077400E+03  0.12704917717E+04  0.12934813158E+04  0.10566000000E+00 0.  1.
        994    1    1    2    0    0  0.11880347263E+01  0.24333844164E+03  0.22463469990E+03  0.37280718476E+03  0.17120000000E+03 0.  0.
        998    1    1    2    0    0  0.24615071155E+00 -0.55766763553E+00  0.48735246629E+01  0.49114994660E+01  0.10000000000E-02 0. -1.
</event>
<event>
 5    1  0.7026671E-009  0.3880657E+03  0.7957747E-01  0.3416773E+00
         13   -1    0    0    0    0  0.00000000000E+00  0.00000000000E+00  0.14999999963E+04  0.15000000000E+04  0.10566000000E+00 0.  1.
        994   -1    0    0    0    0 -0.00000000000E+00 -0.00000000000E+00  0.11368683772E-12  0.17120000000E+03  0.17120000000E+03 0.  0.
         13    1    1    2    0    0  0.14154471369E+03 -0.17175561212E+03  0.11824191703E+04  0.12031832785E+04  0.10566000000E+00 0.  1.
        994    1    1    2    0    0 -0.15360503118E+03  0.18141688173E+03  0.21273680101E+03  0.36204002138E+03  0.17120000000E+03 0.  0.
        998    1    1    2    0    0  0.12060317492E+02 -0.96612696171E+01  0.10484402500E+03  0.10597670012E+03  0.10000000000E-02 0.  1.
</event>
<event>
 5    1  0.7026671E-009  0.3882990E+03  0.7957747E-01  0.3415800E+00
         13   -1    0    0    0    0  0.00000000000E+00  0.00000000000E+00  0.14999999963E+04  0.15000000000E+04  0.10566000000E+00 0.  1.
        994   -1    0    0    0    0 -0.00000000000E+00 -0.00000000000E+00  0.11368683772E-12  0.17120000000E+03  0.17120000000E+03 0.  0.
         13    1    1    2    0    0  0.12946673350E+03  0.19511531072E+03  0.12944037944E+04  0.13154135524E+04  0.10566000000E+00 0.  1.
        994    1    1    2    0    0 -0.12948068053E+03 -0.19518668925E+03  0.20513815145E+03  0.35532265826E+03  0.17120000000E+03 0.  0.
        998    1    1    2    0    0  0.13947037651E-01  0.71378531981E-01  0.45805039398E+00  0.46378936826E+00  0.10000000000E-02 0.  1.
</event>
<event>
 5    1  0.7026671E-009  0.3883009E+03  0.7957747E-01  0.3415792E+00
         13   -1    0    0    0    0  0.00000000000E+00  0.00000000000E+00  0.14999999963E+04  0.15000000000E+04  0.10566000000E+00 0.  1.
        994   -1    0    0    0    0 -0.00000000000E+00 -0.00000000000E+00  0.11368683772E-12  0.17120000000E+03  0.17120000000E+03 0.  0.
         13    1    1    2    0    0 -0.20889365488E+03 -0.70726379624E+01  0.10454614335E+04  0.10661501777E+04  0.10566000000E+00 0.  1.
        994    1    1    2    0    0  0.25114134670E+03  0.85727105201E+01  0.24273778573E+03  0.38907138164E+03  0.17120000000E+03 0.  0.
        998    1    1    2    0    0 -0.42247691821E+02 -0.15000725577E+01  0.21180077704E+03  0.21597844068E+03  0.10000000000E-02 0.  1.
</event>
<event>
 5    1  0.7026671E-009  0.3883007E+03  0.7957747E-01  0.3415793E+00
         13   -1    0    0    0    0  0.00000000000E+00  0.00000000000E+00  0.14999999963E+04  0.15000000000E+04  0.10566000000E+00 0.  1.
        994   -1    0    0    0    0 -0.00000000000E+00 -0.00000000000E+00  0.11368683772E-12  0.17120000000E+03  0.17120000000E+03 0.  0.
         13    1    1    2    0    0  0.72069802212E+02 -0.13849058180E+02  0.39981076116E+03  0.40649047801E+03  0.10566000000E+00 0.  1.
        994    1    1    2    0    0 -0.23227607404E+03  0.43891524427E+02  0.20961548868E+03  0.35934208435E+03  0.17120000000E+03 0.  0.
        998    1    1    2    0    0  0.16020627183E+03 -0.30042466247E+02  0.89057374643E+03  0.90536743764E+03  0.10000000000E-02 0.  1.
</event>
<event>
 5    1  0.7026671E-009  0.3858009E+03  0.7957747E-01  0.3426283E+00
         13   -1    0    0    0    0  0.00000000000E+00  0.00000000000E+00  0.14999999963E+04  0.15000000000E+04  0.10566000000E+00 0. -1.
        994   -1    0    0    0    0 -0.00000000000E+00 -0.00000000000E+00  0.11368683772E-12  0.17120000000E+03  0.17120000000E+03 0.  0.
         13    1    1    2    0    0 -0.28780800161E+02  0.11714339846E+03  0.63874832068E+03  0.65003872084E+03  0.10566000000E+00 0. -1.
        994    1    1    2    0    0  0.74962517115E+02 -0.18519434922E+03  0.14541971911E+03  0.30062045948E+03  0.17120000000E+03 0.  0.
        998    1    1    2    0    0 -0.46181716954E+02  0.68050950759E+02  0.71583195649E+03  0.72054081967E+03  0.10000000000E-02 0. -1.
</event>
<event>
 5    1  0.7026671E-009  0.3818437E+03  0.7957747E-01  0.3443170E+00
         13   -1    0    0    0    0  0.00000000000E+00  0.00000000000E+00  0.14999999963E+04  0.15000000000E+04  0.10566000000E+00 0. -1.
        994   -1    0    0    0    0 -0.00000000000E+00 -0.00000000000E+00  0.11368683772E-12  0.17120000000E+03  0.17120000000E+03 0.  0.
         13    1    1    2    0    0  0.85254495271E+02  0.63842869749E+02  0.62092736701E+03  0.62999606924E+03  0.10566000000E+00 0. -1.
        994    1    1    2    0    0 -0.15864556464E+03 -0.39842927761E+02  0.97896181181E+02  0.25622056195E+03  0.17120000000E+03 0.  0.
        998    1    1    2    0    0  0.73391069374E+02 -0.23999941988E+02  0.78117644808E+03  0.78498336882E+03  0.10000000000E-02 0. -1.
</event>
<event>
 5    1  0.7026671E-009  0.3880028E+03  0.7957747E-01  0.3417036E+00
         13   -1    0    0    0    0  0.00000000000E+00  0.00000000000E+00  0.14999999963E+04  0.15000000000E+04  0.10566000000E+00 0. -1.
        994   -1    0    0    0    0 -0.00000000000E+00 -0.00000000000E+00  0.11368683772E-12  0.17120000000E+03  0.17120000000E+03 0.  0.
         13    1    1    2    0    0 -0.10381837316E+03  0.18258214702E+03  0.12624350031E+04  0.12797877336E+04  0.10566000000E+00 0. -1.
        994    1    1    2    0    0  0.11286633571E+03 -0.18939418226E+03  0.17863628347E+03  0.33140508111E+03  0.17120000000E+03 0.  0.
        998    1    1    2    0    0 -0.90479625547E+01  0.68120352441E+01  0.58928709741E+02  0.60007185263E+02  0.10000000000E-02 0. -1.
</event>
<event>
 5    1  0.7026671E-009  0.3882930E+03  0.7957747E-01  0.3415825E+00
         13   -1    0    0    0    0  0.00000000000E+00  0.00000000000E+00  0.14999999963E+04  0.15000000000E+04  0.10566000000E+00 0. -1.
        994   -1    0    0    0    0 -0.00000000000E+00 -0.00000000000E+00  0.11368683772E-12  0.17120000000E+03  0.17120000000E+03 0.  0.
         13    1    1    2    0    0 -0.12096952223E+03  0.20102814635E+03  0.12935053163E+04  0.13146109521E+04  0.10566000000E+00 0. -1.
        994    1    1    2    0    0  0.12101380935E+03 -0.20113057409E+03  0.20617899402E+03  0.35625421747E+03  0.17120000000E+03 0.  0.
        998    1    1    2    0    0 -0.44287123049E-01  0.10242773900E+00  0.31568595421E+00  0.33483042375E+00  0.10000000000E-02 0.  1.
</event>
<event>
 5    1  0.7026671E-009  0.3883010E+03  0.7957747E-01  0.3415792E+00
         13   -1    0    0    0    0  0.00000000000E+00  0.00000000000E+00  0.14999999963E+04  0.15000000000E+04  0.10566000000E+00 0.  1.
        994   -1    0    0    0    0 -0.00000000000E+00 -0.00000000000E+00  0.11368683772E-12  0.17120000000E+03  0.17120000000E+03 0.  0.
         13    1    1    2    0    0  0.47455113503E+02  0.30544517988E+03  0.10667608505E+04  0.11106428179E+04  0.10566000000E+00 0.  1.
        994    1    1    2    0    0 -0.47606379295E+02 -0.30644098712E+03  0.42975410743E+03  0.55692950972E+03  0.17120000000E+03 0.  0.
        998    1    1    2    0    0  0.15126579229E+00  0.99580723580E+00  0.34850383445E+01  0.36276723465E+01  0.10000000000E-02 0.  1.
</event>
<event>
 5    1  0.7026671E-009  0.3882981E+03  0.7957747E-01  0.3415804E+00
         13   -1    0    0    0    0  0.00000000000E+00  0.00000000000E+00  0.14999999963E+04  0.15000000000E+04  0.10566000000E+00 0.  1.
        994   -1    0    0    0    0 -0.00000000000E+00 -0.00000000000E+00  0.11368683772E-12  0.17120000000E+03  0.17120000000E+03 0.  0.
         13    1    1    2    0    0 -0.22645208806E+03 -0.13141319841E+03  0.12308768262E+04  0.12584147764E+04  0.10566000000E+00 0.  1.
        994    1    1    2    0    0  0.22651816956E+03  0.13143385513E+03  0.26891290001E+03  0.41256384621E+03  0.17120000000E+03 0.  0.
        998    1    1    2    0    0 -0.66081495732E-01 -0.20656719951E-01  0.21027003712E+00  0.22137739873E+00  0.10000000000E-02 0. -1.
</event>
<event>
 5    1  0.7026671E-009  0.3883009E+03  0.7957747E-01  0.3415792E+00
         13   -1    0    0    0    0  0.00000000000E+00  0.00000000000E+00  0.14999999963E+04  0.15000000000E+04  0.10566000000E+00 0.  1.
        994   -1    0    0    0    0 -0.00000000000E+00 -0.00000000000E+00  0.11368683772E-12  0.17120000000E+03  0.17120000000E+03 0.  0.
         13    1    1    2    0    0  0.24844163788E+03 -0.77524431668E+02  0.12344905525E+04  0.12616260224E+04  0.10566000000E+00 0.  1.
        994    1    1    2    0    0 -0.24854226601E+03  0.77561454634E+02  0.26499562800E+03  0.40904909253E+03  0.17120000000E+03 0.  0.
        998    1    1    2    0    0  0.10062813399E+00 -0.37022966309E-01  0.51381576383E+00  0.52488509271E+00  0.10000000000E-02 0.  1.
</event>
<event>
 5    1  0.7026671E-009  0.3882992E+03  0.7957747E-01  0.3415799E+00
         13   -1    0    0    0    0  0.00000000000E+00  0.00000000000E+00  0.14999999963E+04  0.15000000000E+04  0.10566000000E+00 0.  1.
        994   -1    0    0    0    0 -0.00000000000E+00 -0.00000000000E+00  0.11368683772E-12  0.17120000000E+03  0.17120000000E+03 0.  0.
         13    1    1    2    0    0  0.23658351541E+03  0.25284864507E+02  0.12864931460E+04  0.13083102500E+04  0.10566000000E+00 0.  1.
        994    1    1    2    0    0 -0.23664465841E+03 -0.25288306523E+02  0.21299979241E+03  0.36237900652E+03  0.17120000000E+03 0.  0.
        998    1    1    2    0    0  0.61142998161E-01  0.34420163188E-02  0.50705782304E+00  0.51074352625E+00  0.10000000000E-02 0.  1.
</event>
<event>
 5    1  0.7026671E-009  0.3883010E+03  0.7957747E-01  0.3415792E+00
         13   -1    0    0    0    0  0.00000000000E+00  0.00000000000E+00  0.14999999963E+04  0.15000000000E+04  0.10566000000E+00 0. -1.
        994   -1    0    0    0    0 -0.00000000000E+00 -0.00000000000E+00  0.11368683772E-12  0.17120000000E+03  0.17120000000E+03 0.  0.
         13    1    1    2    0    0  0.17080612296E+03 -0.15577604563E+03  0.12378096019E+04  0.12592114714E+04  0.10566000000E+00 0. -1.
        994    1    1    2    0    0 -0.17709084846E+03  0.16151693141E+03  0.21661047801E+03  0.36562060517E+03  0.17120000000E+03 0.  0.
        998    1    1    2    0    0  0.62847255068E+01 -0.57408857847E+01  0.45579916338E+02  0.46367923381E+02  0.10000000000E-02 0.  1.
</event>
<event>
 5    1  0.7026671E-009  0.3883010E+03  0.7957747E-01  0.3415792E+00
         13   -1    0    0    0    0  0.00000000000E+00  0.00000000000E+00  0.14999999963E+04  0.15000000000E+04  0.10566000000E+00 0.  1.
        994   -1    0    0    0    0 -0.00000000000E+00 -0.00000000000E+00  0.11368683772E-12  0.17120000000E+03  0.17120000000E+03 0.  0.
         13    1    1    2    0    0 -0.56002863589E+02  0.22432968101E+03  0.12963651899E+04  0.13168230114E+04  0.10566000000E+00 0.  1.
        994    1    1    2    0    0  0.56148888854E+02 -0.22491793768E+03  0.20022438070E+03  0.35091312178E+03  0.17120000000E+03 0.  0.
        998    1    1    2    0    0 -0.14602526569E+00  0.58825667232E+00  0.34104256588E+01  0.34638668370E+01  0.10000000000E-02 0. -1.
</event>
<event>
 5    1  0.7026671E-009  0.3883007E+03  0.7957747E-01  0.3415793E+00
         13   -1    0    0    0    0  0.00000000000E+00  0.00000000000E+00  0.14999999963E+04  0.15000000000E+04  0.10566000000E+00 0. -1.
        994   -1    0    0    0    0 -0.00000000000E+00 -0.00000000000E+00  0.11368683772E-12  0.17120000000E+03  0.17120000000E+03 0.  0.
         13    1    1    2    0    0  0.10367975747E+03 -0.22540370873E+03  0.12418280764E+04  0.12663701302E+04  0.10566000000E+00 0. -1.
        994    1    1    2    0    0 -0.10494739733E+03  0.22828145781E+03  0.24264848829E+03  0.38899114264E+03  0.17120000000E+03 0.  0.
        998    1    1    2    0    0  0.12676398602E+01 -0.28777490766E+01  0.15523431558E+02  0.15838727187E+02  0.10000000000E-02 0.  1.
</event>
<event>
 5    1  0.7026671E-009  0.3883010E+03  0.7957747E-01  0.3415792E+00
         13   -1    0    0    0    0  0.00000000000E+00  0.00000000000E+00  0.14999999963E+04  0.15000000000E+04  0.10566000000E+00 0.  1.
        994   -1    0    0    0    0 -0.00000000000E+00 -0.00000000000E+00  0.11368683772E-12  0.17120000000E+03  0.17120000000E+03 0.  0.
         13    1    1    2    0    0  0.16253237249E+03 -0.16448860317E+03  0.12850565624E+04  0.13056966157E+04  0.10566000000E+00 0.  1.
        994    1    1    2    0    0 -0.16400342772E+03  0.16597744712E+03  0.20330394980E+03  0.35367721620E+03  0.17120000000E+03 0.  0.
        998    1    1    2    0    0  0.14710552311E+01 -0.14888439546E+01  0.11639484105E+02  0.11826168062E+02  0.10000000000E-02 0. -1.
</event>
<event>
 5    1  0.7026671E-009  0.3883009E+03  0.7957747E-01  0.3415792E+00
         13   -1    0    0    0    0  0.00000000000E+00  0.00000000000E+00  0.14999999963E+04  0.15000000000E+04  0.10566000000E+00 0. -1.
        994   -1    0    0    0    0 -0.00000000000E+00 -0.00000000000E+00  0.11368683772E-12  0.17120000000E+03  0.17120000000E+03 0.  0.
         13    1    1    2    0    0 -0.10633286516E+03  0.21564748434E+03  0.12811974089E+04  0.13035633193E+04  0.10566000000E+00 0. -1.
        994    1    1    2    0    0  0.10636732789E+03 -0.21571813764E+03  0.21840362455E+03  0.36723004584E+03  0.17120000000E+03 0.  0.
        998    1    1    2    0    0 -0.34462727037E-01  0.70653296384E-01  0.39896284634E+00  0.40663487382E+00  0.10000000000E-02 0. -1.
</event>
<event>
 5    1  0.7026671E-009  0.3883010E+03  0.7957747E-01  0.3415792E+00
         13   -1    0    0    0    0  0.00000000000E+00  0.00000000000E+00  0.14999999963E+04  0.15000000000E+04  0.10566000000E+00 0.  1.
        994   -1    0    0    0    0 -0.00000000000E+00 -0.00000000000E+00  0.11368683772E-12  0.17120000000E+03  0.17120000000E+03 0.  0.
         13    1    1    2    0    0  0.27392927656E+03 -0.11331642940E+03  0.11219979543E+04  0.11604987213E+04  0.10566000000E+00 0.  1.
        994    1    1    2    0    0 -0.27432192215E+03  0.11348616931E+03  0.37637035436E+03  0.50901445092E+03  0.17120000000E+03 0.  0.
        998    1    1    2    0    0  0.39264558821E+00 -0.16973990510E+00  0.16316876572E+01  0.16868277339E+01  0.10000000000E-02 0.  1.
</event>
<event>
 5    1  0.7026671E-009  0.3882994E+03  0.7957747E-01  0.3415798E+00
         13   -1    0    0    0    0  0.00000000000E+00  0.00000000000E+00  0.14999999963E+04  0.15000000000E+04  0.10566000000E+00 0.  1.
        994   -1    0    0    0    0 -0.00000000000E+00 -0.00000000000E+00  0.11368683772E-12  0.17120000000E+03  0.17120000000E+03 0.  0.
         13    1    1    2    0    0 -0.50498085181E+02 -0.27850187274E+03  0.11631865466E+04  0.11971283570E+04  0.10566000000E+00 0.  1.
        994    1    1    2    0    0  0.50625534330E+02  0.27948772754E+03  0.33240221836E+03  0.46954979431E+03  0.17120000000E+03 0.  0.
        998    1    1    2    0    0 -0.12744914904E+00 -0.98585479796E+00  0.44112313502E+01  0.45218487362E+01  0.10000000000E-02 0.  1.
</event>
<event>
 5    1  0.7026671E-009  0.3883002E+03  0.7957747E-01  0.3415795E+00
         13   -1    0    0    0    0  0.00000000000E+00  0.00000000000E+00  0.14999999963E+04  0.15000000000E+04  0.10566000000E+00 0. -1.
        994   -1    0    0    0    0 -0.00000000000E+00 -0.00000000000E+00  0.11368683772E-12  0.17120000000E+03  0.17120000000E+03 0.  0.
         13    1    1    2    0    0  0.16036575344E+03  0.19217795754E+03  0.11937357331E+04  0.12196944510E+04  0.10566000000E+00 0. -1.
        994    1    1    2    0    0 -0.16610185788E+03 -0.19935091467E+03  0.26275774431E+03  0.40704015350E+03  0.17120000000E+03 0.  0.
        998    1    1    2    0    0  0.57361044402E+01  0.71729571329E+01  0.43506518907E+02  0.44465395495E+02  0.10000000000E-02 0.  1.
</event>
<event>
 5    1  0.7026671E-009  0.3882992E+03  0.7957747E-01  0.3415799E+00
         13   -1    0    0    0    0  0.00000000000E+00  0.00000000000E+00  0.14999999963E+04  0.15000000000E+04  0.10566000000E+00 0.  1.
        994   -1    0    0    0    0 -0.00000000000E+00 -0.00000000000E+00  0.11368683772E-12  0.17120000000E+03  0.17120000000E+03 0.  0.
         13    1    1    2    0    0  0.21577794009E+03 -0.74207686670E+02  0.13061893249E+04  0.13259703857E+04  0.10566000000E+00 0.  1.
        994    1    1    2    0    0 -0.21585647541E+03  0.74229014376E+02  0.19313660714E+03  0.34455065458E+03  0.17120000000E+03 0.  0.
        998    1    1    2    0    0  0.78535319903E-01 -0.21327706080E-01  0.67406424974E+00  0.67895970447E+00  0.10000000000E-02 0.  1.
</event>
<event>
 5    1  0.7026671E-009  0.3881456E+03  0.7957747E-01  0.3416440E+00
         13   -1    0    0    0    0  0.00000000000E+00  0.00000000000E+00  0.14999999963E+04  0.15000000000E+04  0.10566000000E+00 0. -1.
        994   -1    0    0    0    0 -0.00000000000E+00 -0.00000000000E+00  0.11368683772E-12  0.17120000000E+03  0.17120000000E+03 0.  0.
         13    1    1    2    0    0  0.13817327490E+03  0.17817311450E+03  0.99721163445E+03  0.10223837673E+04  0.10566000000E+00 0. -1.
        994    1    1    2    0    0 -0.17100955516E+03 -0.20982387347E+03  0.29285472193E+03  0.43398577625E+03  0.17120000000E+03 0.  0.
        998    1    1    2    0    0  0.32836280268E+02  0.31650758976E+02  0.20993363990E+03  0.21483045643E+03  0.10000000000E-02 0. -1.
</event>
<event>
 5    1  0.7026671E-009  0.3878681E+03  0.7957747E-01  0.3417599E+00
         13   -1    0    0    0    0  0.00000000000E+00  0.00000000000E+00  0.14999999963E+04  0.15000000000E+04  0.10566000000E+00 0. -1.
        994   -1    0    0    0    0 -0.00000000000E+00 -0.00000000000E+00  0.11368683772E-12  0.17120000000E+03  0.17120000000E+03 0.  0.
         13    1    1    2    0    0  0.14709564332E+03 -0.13551919980E+03  0.11663419593E+04  0.11833664517E+04  0.10566000000E+00 0. -1.
        994    1    1    2    0    0 -0.15777668692E+03  0.15202591578E+03  0.17626547482E+03  0.32921773892E+03  0.17120000000E+03 0.  0.
        998    1    1    2    0    0  0.10681043603E+02 -0.16506715979E+02  0.15739256213E+03  0.15861580936E+03  0.10000000000E-02 0. -1.
</event>
<event>
 5    1  0.7026671E-009  0.3882992E+03  0.7957747E-01  0.3415799E+00
         13   -1    0    0    0    0  0.00000000000E+00  0.00000000000E+00  0.14999999963E+04  0.15000000000E+04  0.10566000000E+00 0. -1.
        994   -1    0    0    0    0 -0.00000000000E+00 -0.00000000000E+00  0.11368683772E-12  0.17120000000E+03  0.17120000000E+03 0.  0.
         13    1    1    2    0    0  0.17924645881E+02  0.21338603121E+03  0.10782324094E+04  0.10992906946E+04  0.10566000000E+00 0. -1.
        994    1    1    2    0    0 -0.20485748204E+02 -0.24900118755E+03  0.23935028741E+03  0.38603012494E+03  0.17120000000E+03 0.  0.
        998    1    1    2    0    0  0.25611023228E+01  0.35615156337E+02  0.18241729943E+03  0.18587918049E+03  0.10000000000E-02 0.  1.
</event>
<event>
 5    1  0.7026671E-009  0.3883002E+03  0.7957747E-01  0.3415795E+00
         13   -1    0    0    0    0  0.00000000000E+00  0.00000000000E+00  0.14999999963E+04  0.15000000000E+04  0.10566000000E+00 0.  1.
        994   -1    0    0    0    0 -0.00000000000E+00 -0.00000000000E+00  0.11368683772E-12  0.17120000000E+03  0.17120000000E+03 0.  0.
         13    1    1    2    0    0 -0.16590766096E+03 -0.50864610469E+02  0.10018205359E+04  0.10167383920E+04  0.10566000000E+00 0.  1.
        994    1    1    2    0    0  0.21661771230E+03  0.66070150294E+02  0.18963423282E+03  0.34140749889E+03  0.17120000000E+03 0.  0.
        998    1    1    2    0    0 -0.50710051334E+02 -0.15205539825E+02  0.30854522760E+03  0.31305410910E+03  0.10000000000E-02 0.  1.
</event>
<event>
 5    1  0.7235866E-009  0.3883004E+03  0.7957747E-01  0.3415795E+00
         13   -1    0    0    0    0  0.00000000000E+00  0.00000000000E+00  0.14999999963E+04  0.15000000000E+04  0.10566000000E+00 0.  1.
        994   -1    0    0    0    0 -0.00000000000E+00 -0.00000000000E+00  0.11368683772E-12  0.17120000000E+03  0.17120000000E+03 0.  0.
         13    1    1    2    0    0 -0.11522669907E+03  0.21242828271E+03  0.12789729549E+04  0.13016047011E+04  0.10566000000E+00 0.  1.
        994    1    1    2    0    0  0.11523061656E+03 -0.21243811088E+03  0.22092664483E+03  0.36949434143E+03  0.17120000000E+03 0.  0.
        998    1    1    2    0    0 -0.39174919357E-02  0.98281662485E-02  0.10039654541E+00  0.10095744611E+00  0.10000000000E-02 0. -1.
</event>
<event>
 5    1  0.7026671E-009  0.3882980E+03  0.7957747E-01  0.3415804E+00
         13   -1    0    0    0    0  0.00000000000E+00  0.00000000000E+00  0.14999999963E+04  0.15000000000E+04  0.10566000000E+00 0. -1.
        994   -1    0    0    0    0 -0.00000000000E+00 -0.00000000000E+00  0.11368683772E-12  0.17120000000E+03  0.17120000000E+03 0.  0.
         13    1    1    2    0    0 -0.12419316054E+03 -0.24070742255E+03  0.11964120049E+04  0.12266889177E+04  0.10566000000E+00 0. -1.
        994    1    1    2    0    0  0.12497954846E+03  0.24202468896E+03  0.29735740568E+03  0.43809440114E+03  0.17120000000E+03 0.  0.
        998    1    1    2    0    0 -0.78638792216E+00 -0.13172664177E+01  0.62305857419E+01  0.64166811099E+01  0.10000000000E-02 0. -1.
</event>
<event>
 5    1  0.7026671E-009  0.3883010E+03  0.7957747E-01  0.3415792E+00
         13   -1    0    0    0    0  0.00000000000E+00  0.00000000000E+00  0.14999999963E+04  0.15000000000E+04  0.10566000000E+00 0. -1.
        994   -1    0    0    0    0 -0.00000000000E+00 -0.00000000000E+00  0.11368683772E-12  0.17120000000E+03  0.17120000000E+03 0.  0.
         13    1    1    2    0    0  0.50873081873E+02 -0.26340487098E+03  0.12090306536E+04  0.12384366472E+04  0.10566000000E+00 0. -1.
        994    1    1    2    0    0 -0.51006100795E+02  0.26409461688E+03  0.28780354456E+03  0.42952055742E+03  0.17120000000E+03 0.  0.
        998    1    1    2    0    0  0.13301892207E+00 -0.68974590122E+00  0.31657981235E+01  0.32427954300E+01  0.10000000000E-02 0.  0.
</event>
<event>
 5    1  0.7026671E-009  0.3882186E+03  0.7957747E-01  0.3416135E+00
         13   -1    0    0    0    0  0.00000000000E+00  0.00000000000E+00  0.14999999963E+04  0.15000000000E+04  0.10566000000E+00 0.  1.
        994   -1    0    0    0    0 -0.00000000000E+00 -0.00000000000E+00  0.11368683772E-12  0.17120000000E+03  0.17120000000E+03 0.  0.
         13    1    1    2    0    0 -0.14468444700E+03  0.24312802860E+03  0.11681397611E+04  0.12019131999E+04  0.10566000000E+00 0.  1.
        994    1    1    2    0    0  0.14496860075E+03 -0.24363285549E+03  0.33088808332E+03  0.46815513151E+03  0.17120000000E+03 0.  0.
        998    1    1    2    0    0 -0.28415375004E+00  0.50482688711E+00  0.97215186507E+00  0.11316685859E+01  0.10000000000E-02 0.  1.
</event>
<event>
 5    1  0.7026671E-009  0.3883010E+03  0.7957747E-01  0.3415792E+00
         13   -1    0    0    0    0  0.00000000000E+00  0.00000000000E+00  0.14999999963E+04  0.15000000000E+04  0.10566000000E+00 0. -1.
        994   -1    0    0    0    0 -0.00000000000E+00 -0.00000000000E+00  0.11368683772E-12  0.17120000000E+03  0.17120000000E+03 0.  0.
         13    1    1    2    0    0 -0.25126247129E+03  0.98603449343E+01  0.12565466479E+04  0.12814599274E+04  0.10566000000E+00 0. -1.
        994    1    1    2    0    0  0.25130497723E+03 -0.98609605942E+01  0.24323556530E+03  0.38951817718E+03  0.17120000000E+03 0.  0.
        998    1    1    2    0    0 -0.42505935568E-01  0.61565986890E-03  0.21778306380E+00  0.22189546294E+00  0.10000000000E-02 0. -1.
</event>
<event>
 5    1  0.7026671E-009  0.3882989E+03  0.7957747E-01  0.3415800E+00
         13   -1    0    0    0    0  0.00000000000E+00  0.00000000000E+00  0.14999999963E+04  0.15000000000E+04  0.10566000000E+00 0.  1.
        994   -1    0    0    0    0 -0.00000000000E+00 -0.00000000000E+00  0.11368683772E-12  0.17120000000E+03  0.17120000000E+03 0.  0.
         13    1    1    2    0    0  0.22269420485E+03 -0.19256141149E+03  0.11325369281E+04  0.11701762734E+04  0.10566000000E+00 0.  1.
        994    1    1    2    0    0 -0.22269544152E+03  0.19257260904E+03  0.36744019419E+03  0.50099820931E+03  0.17120000000E+03 0.  0.
        998    1    1    2    0    0  0.12366620945E-02 -0.11197551058E-01  0.22873938303E-01  0.25517279171E-01  0.10000000000E-02 0.  1.
</event>
<event>
 5    1  0.7026671E-009  0.3882715E+03  0.7957747E-01  0.3415915E+00
         13   -1    0    0    0    0  0.00000000000E+00  0.00000000000E+00  0.14999999963E+04  0.15000000000E+04  0.10566000000E+00 0.  1.
        994   -1    0    0    0    0 -0.00000000000E+00 -0.00000000000E+00  0.11368683772E-12  0.17120000000E+03  0.17120000000E+03 0.  0.
         13    1    1    2    0    0  0.23773795990E+03 -0.98382932504E+02  0.12400583646E+04  0.12664688301E+04  0.10566000000E+00 0.  1.
        994    1    1    2    0    0 -0.23815844080E+03  0.98288813046E+02  0.25819460470E+03  0.40293179024E+03  0.17120000000E+03 0.  0.
        998    1    1    2    0    0  0.42048090499E+00  0.94119458420E-01  0.17470270052E+01  0.17993796211E+01  0.10000000000E-02 0.  1.
</event>
<event>
 5    1  0.7026671E-009  0.3883006E+03  0.7957747E-01  0.3415793E+00
         13   -1    0    0    0    0  0.00000000000E+00  0.00000000000E+00  0.14999999963E+04  0.15000000000E+04  0.10566000000E+00 0.  1.
        994   -1    0    0    0    0 -0.00000000000E+00 -0.00000000000E+00  0.11368683772E-12  0.17120000000E+03  0.17120000000E+03 0.  0.
         13    1    1    2    0    0 -0.12472765928E+03 -0.24829393332E+03  0.11860751755E+04  0.12181876700E+04  0.10566000000E+00 0.  1.
        994    1    1    2    0    0  0.12477447107E+03  0.24837039685E+03  0.31358356122E+03  0.45265948850E+03  0.17120000000E+03 0.  0.
        998    1    1    2    0    0 -0.46811786934E-01 -0.76463530787E-01  0.34125955013E+00  0.35284145942E+00  0.10000000000E-02 0. -1.
</event>
<event>
 5    1  0.7026671E-009  0.3852572E+03  0.7957747E-01  0.3428582E+00
         13   -1    0    0    0    0  0.00000000000E+00  0.00000000000E+00  0.14999999963E+04  0.15000000000E+04  0.10566000000E+00 0. -1.
        994   -1    0    0    0    0 -0.00000000000E+00 -0.00000000000E+00  0.11368683772E-12  0.17120000000E+03  0.17120000000E+03 0.  0.
         13    1    1    2    0    0  0.17591905846E+03  0.15454374812E+03  0.12715590086E+04  0.12929399091E+04  0.10566000000E+00 0. -1.
        994    1    1    2    0    0 -0.17903152452E+03 -0.15978600404E+03  0.21988218156E+03  0.36775191044E+03  0.17120000000E+03 0.  0.
        998    1    1    2    0    0  0.31124660633E+01  0.52422559270E+01  0.85588061548E+01  0.10508180432E+02  0.10000000000E-02 0.  1.
</event>
<event>
 5    1  0.7026671E-009  0.3882993E+03  0.7957747E-01  0.3415799E+00
         13   -1    0    0    0    0  0.00000000000E+00  0.00000000000E+00  0.14999999963E+04  0.15000000000E+04  0.10566000000E+00 0.  1.
        994   -1    0    0    0    0 -0.00000000000E+00 -0.00000000000E+00  0.11368683772E-12  0.17120000000E+03  0.17120000000E+03 0.  0.
         13    1    1    2    0    0  0.28566732610E+02  0.17986592507E+03  0.54180857820E+03  0.57159807189E+03  0.10566000000E+00 0.  1.
        994    1    1    2    0    0 -0.50143007914E+02 -0.32406979207E+03  0.52277798278E+03  0.64042314968E+03  0.17120000000E+03 0.  0.
        998    1    1    2    0    0  0.21576275304E+02  0.14420386700E+03  0.43541343530E+03  0.45917877842E+03  0.10000000000E-02 0.  1.
</event>
<event>
 5    1  0.7026671E-009  0.3859424E+03  0.7957747E-01  0.3425685E+00
         13   -1    0    0    0    0  0.00000000000E+00  0.00000000000E+00  0.14999999963E+04  0.15000000000E+04  0.10566000000E+00 0. -1.
        994   -1    0    0    0    0 -0.00000000000E+00 -0.00000000000E+00  0.11368683772E-12  0.17120000000E+03  0.17120000000E+03 0.  0.
         13    1    1    2    0    0  0.15965737343E+03 -0.67086013994E+02  0.92026275399E+03  0.93641580386E+03  0.10566000000E+00 0. -1.
        994    1    1    2    0    0 -0.19104211297E+03  0.10236201603E+03  0.17427659977E+03  0.32658359494E+03  0.17120000000E+03 0.  0.
        998    1    1    2    0    0  0.31384739544E+02 -0.35276002034E+02  0.40546064251E+03  0.40820060121E+03  0.10000000000E-02 0. -1.
</event>
<event>
 5    1  0.7026671E-009  0.3882957E+03  0.7957747E-01  0.3415814E+00
         13   -1    0    0    0    0  0.00000000000E+00  0.00000000000E+00  0.14999999963E+04  0.15000000000E+04  0.10566000000E+00 0.  1.
        994   -1    0    0    0    0 -0.00000000000E+00 -0.00000000000E+00  0.11368683772E-12  0.17120000000E+03  0.17120000000E+03 0.  0.
         13    1    1    2    0    0 -0.31178667756E+02  0.28493175043E+03  0.10500147207E+04  0.10884342592E+04  0.10566000000E+00 0.  1.
        994    1    1    2    0    0  0.32184898905E+02 -0.29999851871E+03  0.39483015453E+03  0.52558088804E+03  0.17120000000E+03 0.  0.
        998    1    1    2    0    0 -0.10062311494E+01  0.15066768285E+02  0.55155121051E+02  0.57184852775E+02  0.10000000000E-02 0.  1.
</event>
<event>
 5    1  0.7026671E-009  0.3830920E+03  0.7957747E-01  0.3437805E+00
         13   -1    0    0    0    0  0.00000000000E+00  0.00000000000E+00  0.14999999963E+04  0.15000000000E+04  0.10566000000E+00 0.  1.
        994   -1    0    0    0    0 -0.00000000000E+00 -0.00000000000E+00  0.11368683772E-12  0.17120000000E+03  0.17120000000E+03 0.  0.
         13    1    1    2    0    0  0.45928946760E+02 -0.28419435136E+02  0.22395175228E+03  0.23037259159E+03  0.10566000000E+00 0.  1.
        994    1    1    2    0    0 -0.10264523988E+03  0.10213794374E+03  0.75374552271E+02  0.23655647941E+03  0.17120000000E+03 0.  0.
        998    1    1    2    0    0  0.56716293121E+02 -0.73718508603E+02  0.12006736917E+04  0.12042709290E+04  0.10000000000E-02 0.  1.
</event>
<event>
 5    1  0.7026671E-009  0.3883010E+03  0.7957747E-01  0.3415792E+00
         13   -1    0    0    0    0  0.00000000000E+00  0.00000000000E+00  0.14999999963E+04  0.15000000000E+04  0.10566000000E+00 0.  1.
        994   -1    0    0    0    0 -0.00000000000E+00 -0.00000000000E+00  0.11368683772E-12  0.17120000000E+03  0.17120000000E+03 0.  0.
         13    1    1    2    0    0  0.15130645050E-01  0.21133968277E+03  0.11248292531E+04  0.11445109530E+04  0.10566000000E+00 0.  1.
        994    1    1    2    0    0 -0.24342559464E-01 -0.24069638426E+03  0.21879230132E+03  0.36757891820E+03  0.17120000000E+03 0.  0.
        998    1    1    2    0    0  0.92119144144E-02  0.29356701494E+02  0.15637844184E+03  0.15911012879E+03  0.10000000000E-02 0. -1.
</event>
<event>
 5    1  0.7026671E-009  0.3880372E+03  0.7957747E-01  0.3416892E+00
         13   -1    0    0    0    0  0.00000000000E+00  0.00000000000E+00  0.14999999963E+04  0.15000000000E+04  0.10566000000E+00 0.  1.
        994   -1    0    0    0    0 -0.00000000000E+00 -0.00000000000E+00  0.11368683772E-12  0.17120000000E+03  0.17120000000E+03 0.  0.
         13    1    1    2    0    0 -0.18078212154E+03 -0.15960679635E+03  0.12062103118E+04  0.12300812300E+04  0.10566000000E+00 0.  1.
        994    1    1    2    0    0  0.19110789374E+03  0.16334738498E+03  0.24344148141E+03  0.38958669138E+03  0.17120000000E+03 0.  0.
        998    1    1    2    0    0 -0.10325772203E+02 -0.37405886331E+01  0.50348203070E+02  0.51532078633E+02  0.10000000000E-02 0. -1.
</event>
<event>
 5    1  0.7026671E-009  0.3883003E+03  0.7957747E-01  0.3415795E+00
         13   -1    0    0    0    0  0.00000000000E+00  0.00000000000E+00  0.14999999963E+04  0.15000000000E+04  0.10566000000E+00 0. -1.
        994   -1    0    0    0    0 -0.00000000000E+00 -0.00000000000E+00  0.11368683772E-12  0.17120000000E+03  0.17120000000E+03 0.  0.
         13    1    1    2    0    0  0.39622016320E+02 -0.28635813654E+03  0.11469863232E+04  0.11828560873E+04  0.10566000000E+00 0. -1.
        994    1    1    2    0    0 -0.39685906022E+02  0.28692998657E+03  0.35089573091E+03  0.48614919757E+03  0.17120000000E+03 0.  0.
        998    1    1    2    0    0  0.63889702207E-01 -0.57185003339E+00  0.21179421477E+01  0.21947150830E+01  0.10000000000E-02 0.  1.
</event>
<event>
 5    1  0.7026671E-009  0.3883004E+03  0.7957747E-01  0.3415794E+00
         13   -1    0    0    0    0  0.00000000000E+00  0.00000000000E+00  0.14999999963E+04  0.15000000000E+04  0.10566000000E+00 0. -1.
        994   -1    0    0    0    0 -0.00000000000E+00 -0.00000000000E+00  0.11368683772E-12  0.17120000000E+03  0.17120000000E+03 0.  0.
         13    1    1    2    0    0  0.45060389475E+02 -0.32261413026E+03  0.95765257412E+03  0.10115378291E+04  0.10566000000E+00 0. -1.
        994    1    1    2    0    0 -0.45653857997E+02  0.32614815513E+03  0.53177563604E+03  0.64849954582E+03  0.17120000000E+03 0.  0.
        998    1    1    2    0    0  0.59346852211E+00 -0.35340248694E+01  0.10571786118E+02  0.11162625112E+02  0.10000000000E-02 0. -1.
</event>
<event>
 5    1  0.7026671E-009  0.3883010E+03  0.7957747E-01  0.3415792E+00
         13   -1    0    0    0    0  0.00000000000E+00  0.00000000000E+00  0.14999999963E+04  0.15000000000E+04  0.10566000000E+00 0.  1.
        994   -1    0    0    0    0 -0.00000000000E+00 -0.00000000000E+00  0.11368683772E-12  0.17120000000E+03  0.17120000000E+03 0.  0.
         13    1    1    2    0    0 -0.24127046788E+03 -0.96002238252E+02  0.11939915346E+04  0.12219016591E+04  0.10566000000E+00 0.  1.
        994    1    1    2    0    0  0.24678418852E+03  0.98209493833E+02  0.27867584309E+03  0.42132790782E+03  0.17120000000E+03 0.  0.
        998    1    1    2    0    0 -0.55137206316E+01 -0.22072555816E+01  0.27332618540E+02  0.27970433133E+02  0.10000000000E-02 0.  1.
</event>
<event>
 5    1  0.7026671E-009  0.3881069E+03  0.7957747E-01  0.3416602E+00
         13   -1    0    0    0    0  0.00000000000E+00  0.00000000000E+00  0.14999999963E+04  0.15000000000E+04  0.10566000000E+00 0. -1.
        994   -1    0    0    0    0 -0.00000000000E+00 -0.00000000000E+00  0.11368683772E-12  0.17120000000E+03  0.17120000000E+03 0.  0.
         13    1    1    2    0    0  0.23697406797E+03  0.14682605769E+02  0.11689417546E+04  0.11928105988E+04  0.10566000000E+00 0. -1.
        994    1    1    2    0    0 -0.25583880625E+03 -0.18175856501E+02  0.25560027270E+03  0.40053064296E+03  0.17120000000E+03 0.  0.
        998    1    1    2    0    0  0.18864738281E+02  0.34932507313E+01  0.75457968985E+02  0.77858758244E+02  0.10000000000E-02 0.  1.
</event>
<event>
 5    1  0.7026671E-009  0.3883010E+03  0.7957747E-01  0.3415792E+00
         13   -1    0    0    0    0  0.00000000000E+00  0.00000000000E+00  0.14999999963E+04  0.15000000000E+04  0.10566000000E+00 0. -1.
        994   -1    0    0    0    0 -0.00000000000E+00 -0.00000000000E+00  0.11368683772E-12  0.17120000000E+03  0.17120000000E+03 0.  0.
         13    1    1    2    0    0 -0.11643756338E+03  0.18830428441E+03  0.13199429976E+04  0.13383817609E+04  0.10566000000E+00 0. -1.
        994    1    1    2    0    0  0.11644189924E+03 -0.18831217656E+03  0.18000021804E+03  0.33276074022E+03  0.17120000000E+03 0.  0.
        998    1    1    2    0    0 -0.43358543341E-02  0.78921517779E-02  0.56780610715E-01  0.57498899517E-01  0.10000000000E-02 0. -1.
</event>
<event>
 5    1  0.7026671E-009  0.3882997E+03  0.7957747E-01  0.3415797E+00
         13   -1    0    0    0    0  0.00000000000E+00  0.00000000000E+00  0.14999999963E+04  0.15000000000E+04  0.10566000000E+00 0.  1.
        994   -1    0    0    0    0 -0.00000000000E+00 -0.00000000000E+00  0.11368683772E-12  0.17120000000E+03  0.17120000000E+03 0.  0.
         13    1    1    2    0    0 -0.14125769914E+03 -0.59700101378E+02  0.42202529337E+03  0.44902471989E+03  0.10566000000E+00 0.  1.
        994    1    1    2    0    0  0.30965597668E+03  0.13010472700E+03  0.57950154682E+03  0.69133605912E+03  0.17120000000E+03 0.  0.
        998    1    1    2    0    0 -0.16839827754E+03 -0.70404625625E+02  0.49847315609E+03  0.53083922098E+03  0.10000000000E-02 0. -1.
</event>
<event>
 5    1  0.7026671E-009  0.3883010E+03  0.7957747E-01  0.3415792E+00
         13   -1    0    0    0    0  0.00000000000E+00  0.00000000000E+00  0.14999999963E+04  0.15000000000E+04  0.10566000000E+00 0.  1.
        994   -1    0    0    0    0 -0.00000000000E+00 -0.00000000000E+00  0.11368683772E-12  0.17120000000E+03  0.17120000000E+03 0.  0.
         13    1    1    2    0    0 -0.25698424707E+03 -0.10992889663E+03  0.11627378973E+04  0.11958614864E+04  0.10566000000E+00 0.  1.
        994    1    1    2    0    0  0.25939336891E+03  0.11095732817E+03  0.32637466484E+03  0.46414039941E+03  0.17120000000E+03 0.  0.
        998    1    1    2    0    0 -0.24091218454E+01 -0.10284315379E+01  0.10887434105E+02  0.11198114211E+02  0.10000000000E-02 0. -1.
</event>
<event>
 5    1  0.7026671E-009  0.3883010E+03  0.7957747E-01  0.3415792E+00
         13   -1    0    0    0    0  0.00000000000E+00  0.00000000000E+00  0.14999999963E+04  0.15000000000E+04  0.10566000000E+00 0.  1.
        994   -1    0    0    0    0 -0.00000000000E+00 -0.00000000000E+00  0.11368683772E-12  0.17120000000E+03  0.17120000000E+03 0.  0.
         13    1    1    2    0    0 -0.16948104918E+03  0.14712148117E+03  0.12947611539E+04  0.13140681159E+04  0.10566000000E+00 0.  1.
        994    1    1    2    0    0  0.17139465583E+03 -0.14878633408E+03  0.19059720157E+03  0.34227216437E+03  0.17120000000E+03 0.  0.
        998    1    1    2    0    0 -0.19136066480E+01  0.16648529176E+01  0.14641640792E+02  0.14859719773E+02  0.10000000000E-02 0.  0.
</event>
<event>
 5    1  0.7026671E-009  0.3883006E+03  0.7957747E-01  0.3415793E+00
         13   -1    0    0    0    0  0.00000000000E+00  0.00000000000E+00  0.14999999963E+04  0.15000000000E+04  0.10566000000E+00 0. -1.
        994   -1    0    0    0    0 -0.00000000000E+00 -0.00000000000E+00  0.11368683772E-12  0.17120000000E+03  0.17120000000E+03 0.  0.
         13    1    1    2    0    0 -0.80603714611E+02  0.21453146256E+03  0.12243676945E+04  0.12456311531E+04  0.10566000000E+00 0. -1.
        994    1    1    2    0    0  0.84491337313E+02 -0.22482867525E+03  0.21767796150E+03  0.36657857851E+03  0.17120000000E+03 0.  0.
        998    1    1    2    0    0 -0.38876227021E+01  0.10297212692E+02  0.57954340324E+02  0.58990268375E+02  0.10000000000E-02 0.  1.
</event>
<event>
 5    1  0.7026671E-009  0.3882789E+03  0.7957747E-01  0.3415884E+00
         13   -1    0    0    0    0  0.00000000000E+00  0.00000000000E+00  0.14999999963E+04  0.15000000000E+04  0.10566000000E+00 0.  1.
        994   -1    0    0    0    0 -0.00000000000E+00 -0.00000000000E+00  0.11368683772E-12  0.17120000000E+03  0.17120000000E+03 0.  0.
         13    1    1    2    0    0  0.17892516865E+03  0.14373229648E+03  0.13032668240E+04  0.13233206772E+04  0.10566000000E+00 0.  1.
        994    1    1    2    0    0 -0.17890583575E+03 -0.14386932253E+03  0.19576004339E+03  0.34689640329E+03  0.17120000000E+03 0.  0.
        998    1    1    2    0    0 -0.19332906753E-01  0.13702605458E+00  0.97312888545E+00  0.98291949243E+00  0.10000000000E-02 0. -1.
</event>
<event>
 5    1  0.7026671E-009  0.3882986E+03  0.7957747E-01  0.3415802E+00
         13   -1    0    0    0    0  0.00000000000E+00  0.00000000000E+00  0.14999999963E+04  0.15000000000E+04  0.10566000000E+00 0.  1.
        994   -1    0    0    0    0 -0.00000000000E+00 -0.00000000000E+00  0.11368683772E-12  0.17120000000E+03  0.17120000000E+03 0.  0.
         13    1    1    2    0    0 -0.62952125218E+02  0.25757503583E+03  0.12219686880E+04  0.12504060760E+04  0.10566000000E+00 0.  1.
        994    1    1    2    0    0  0.62941457870E+02 -0.25764298153E+03  0.27764597082E+03  0.42040249543E+03  0.17120000000E+03 0.  0.
        998    1    1    2    0    0  0.10667348742E-01  0.67945699114E-01  0.38533742735E+00  0.39142859282E+00  0.10000000000E-02 0. -1.
</event>
<event>
 5    1  0.7026671E-009  0.3883010E+03  0.7957747E-01  0.3415792E+00
         13   -1    0    0    0    0  0.00000000000E+00  0.00000000000E+00  0.14999999963E+04  0.15000000000E+04  0.10566000000E+00 0.  1.
        994   -1    0    0    0    0 -0.00000000000E+00 -0.00000000000E+00  0.11368683772E-12  0.17120000000E+03  0.17120000000E+03 0.  0.
         13    1    1    2    0    0 -0.39845877807E+02  0.29878998920E+03  0.11032529510E+04  0.11436914954E+04  0.10566000000E+00 0.  1.
        994    1    1    2    0    0  0.39898376395E+02 -0.29918942172E+03  0.39527744931E+03  0.52598468841E+03  0.17120000000E+03 0.  0.
        998    1    1    2    0    0 -0.52498588420E-01  0.39943251782E+00  0.14695960055E+01  0.15238162152E+01  0.10000000000E-02 0.  0.
</event>
<event>
 5    1  0.7026671E-009  0.3882992E+03  0.7957747E-01  0.3415799E+00
         13   -1    0    0    0    0  0.00000000000E+00  0.00000000000E+00  0.14999999963E+04  0.15000000000E+04  0.10566000000E+00 0.  1.
        994   -1    0    0    0    0 -0.00000000000E+00 -0.00000000000E+00  0.11368683772E-12  0.17120000000E+03  0.17120000000E+03 0.  0.
         13    1    1    2    0    0 -0.13791907698E+03  0.17225647981E+03  0.13017869135E+04  0.13203572040E+04  0.10566000000E+00 0.  1.
        994    1    1    2    0    0  0.13936946167E+03 -0.17434321035E+03  0.18337907430E+03  0.33579268416E+03  0.17120000000E+03 0.  0.
        998    1    1    2    0    0 -0.14503846942E+01  0.20867305466E+01  0.14834008441E+02  0.15050111879E+02  0.10000000000E-02 0.  1.
</event>
<event>
 5    1  0.7026671E-009  0.3882871E+03  0.7957747E-01  0.3415850E+00
         13   -1    0    0    0    0  0.00000000000E+00  0.00000000000E+00  0.14999999963E+04  0.15000000000E+04  0.10566000000E+00 0. -1.
        994   -1    0    0    0    0 -0.00000000000E+00 -0.00000000000E+00  0.11368683772E-12  0.17120000000E+03  0.17120000000E+03 0.  0.
         13    1    1    2    0    0  0.15827450227E+03  0.15653037406E+03  0.11992317330E+04  0.12197169085E+04  0.10566000000E+00 0. -1.
        994    1    1    2    0    0 -0.16896134281E+03 -0.16725953685E+03  0.21249827616E+03  0.36192353530E+03  0.17120000000E+03 0.  0.
        998    1    1    2    0    0  0.10686840544E+02  0.10729162797E+02  0.88269987070E+02  0.89559556238E+02  0.10000000000E-02 0. -1.
</event>
<event>
 5    1  0.7026671E-009  0.3882773E+03  0.7957747E-01  0.3415891E+00
         13   -1    0    0    0    0  0.00000000000E+00  0.00000000000E+00  0.14999999963E+04  0.15000000000E+04  0.10566000000E+00 0.  1.
        994   -1    0    0    0    0 -0.00000000000E+00 -0.00000000000E+00  0.11368683772E-12  0.17120000000E+03  0.17120000000E+03 0.  0.
         13    1    1    2    0    0 -0.47342255646E+02  0.21543305386E+03  0.13146074195E+04  0.13329836339E+04  0.10566000000E+00 0.  1.
        994    1    1    2    0    0  0.47176592820E+02 -0.21640508395E+03  0.18018374272E+03  0.33291502281E+03  0.17120000000E+03 0.  0.
        998    1    1    2    0    0  0.16566282622E+00  0.97203009046E+00  0.52088340846E+01  0.53013432439E+01  0.10000000000E-02 0. -1.
</event>
<event>
 5    1  0.7026671E-009  0.3882954E+03  0.7957747E-01  0.3415815E+00
         13   -1    0    0    0    0  0.00000000000E+00  0.00000000000E+00  0.14999999963E+04  0.15000000000E+04  0.10566000000E+00 0.  1.
        994   -1    0    0    0    0 -0.00000000000E+00 -0.00000000000E+00  0.11368683772E-12  0.17120000000E+03  0.17120000000E+03 0.  0.
         13    1    1    2    0    0 -0.13656769910E+03 -0.58653938770E+02  0.84555529080E+03  0.85851894676E+03  0.10566000000E+00 0.  1.
        994    1    1    2    0    0  0.20986811649E+03  0.88989694393E+02  0.19253834565E+03  0.34401198609E+03  0.17120000000E+03 0.  0.
        998    1    1    2    0    0 -0.73300417397E+02 -0.30335755623E+02  0.46190635982E+03  0.46866906715E+03  0.10000000000E-02 0.  1.
</event>
<event>
 5    1  0.7026671E-009  0.3881907E+03  0.7957747E-01  0.3416252E+00
         13   -1    0    0    0    0  0.00000000000E+00  0.00000000000E+00  0.14999999963E+04  0.15000000000E+04  0.10566000000E+00 0. -1.
        994   -1    0    0    0    0 -0.00000000000E+00 -0.00000000000E+00  0.11368683772E-12  0.17120000000E+03  0.17120000000E+03 0.  0.
         13    1    1    2    0    0 -0.55696853741E+01 -0.20704850560E+03  0.11644129138E+04  0.11826908092E+04  0.10566000000E+00 0. -1.
        994    1    1    2    0    0  0.85799994358E+01  0.22841233691E+03  0.19389010082E+03  0.34517911762E+03  0.17120000000E+03 0.  0.
        998    1    1    2    0    0 -0.30103140617E+01 -0.21363831318E+02  0.14169698163E+03  0.14333007320E+03  0.10000000000E-02 0. -1.
</event>
<event>
 5    1  0.7026671E-009  0.3882999E+03  0.7957747E-01  0.3415796E+00
         13   -1    0    0    0    0  0.00000000000E+00  0.00000000000E+00  0.14999999963E+04  0.15000000000E+04  0.10566000000E+00 0. -1.
        994   -1    0    0    0    0 -0.00000000000E+00 -0.00000000000E+00  0.11368683772E-12  0.17120000000E+03  0.17120000000E+03 0.  0.
         13    1    1    2    0    0  0.10984599801E+03 -0.22285474161E+03  0.11341119869E+04  0.11610083502E+04  0.10566000000E+00 0. -1.
        994    1    1    2    0    0 -0.11797561856E+03  0.23957191323E+03  0.28253901005E+03  0.42479486859E+03  0.17120000000E+03 0.  0.
        998    1    1    2    0    0  0.81296205474E+01 -0.16717171626E+02  0.83348999306E+02  0.85396781225E+02  0.10000000000E-02 0.  1.
</event>
<event>
 5    1  0.7026671E-009  0.3882934E+03  0.7957747E-01  0.3415823E+00
         13   -1    0    0    0    0  0.00000000000E+00  0.00000000000E+00  0.14999999963E+04  0.15000000000E+04  0.10566000000E+00 0.  1.
        994   -1    0    0    0    0 -0.00000000000E+00 -0.00000000000E+00  0.11368683772E-12  0.17120000000E+03  0.17120000000E+03 0.  0.
         13    1    1    2    0    0 -0.34981995271E+02  0.26017142481E+03  0.12260352448E+04  0.12538242871E+04  0.10566000000E+00 0.  1.
        994    1    1    2    0    0  0.35020063817E+02 -0.26072746048E+03  0.27198741322E+03  0.41532132918E+03  0.17120000000E+03 0.  0.
        998    1    1    2    0    0 -0.38068545594E-01  0.55603567304E+00  0.19773382588E+01  0.20543837212E+01  0.10000000000E-02 0. -1.
</event>
<event>
 5    1  0.7026671E-009  0.3882994E+03  0.7957747E-01  0.3415798E+00
         13   -1    0    0    0    0  0.00000000000E+00  0.00000000000E+00  0.14999999963E+04  0.15000000000E+04  0.10566000000E+00 0. -1.
        994   -1    0    0    0    0 -0.00000000000E+00 -0.00000000000E+00  0.11368683772E-12  0.17120000000E+03  0.17120000000E+03 0.  0.
         13    1    1    2    0    0 -0.15969317764E+03  0.19865979717E+03  0.12446511408E+04  0.12704818376E+04  0.10566000000E+00 0. -1.
        994    1    1    2    0    0  0.16008846274E+03 -0.19903883952E+03  0.25268880463E+03  0.39800232101E+03  0.17120000000E+03 0.  0.
        998    1    1    2    0    0 -0.39528510253E+00  0.37904235438E+00  0.26600508053E+01  0.27158414360E+01  0.10000000000E-02 0. -1.
</event>
<event>
 5    1  0.7026671E-009  0.3874358E+03  0.7957747E-01  0.3419407E+00
         13   -1    0    0    0    0  0.00000000000E+00  0.00000000000E+00  0.14999999963E+04  0.15000000000E+04  0.10566000000E+00 0.  1.
        994   -1    0    0    0    0 -0.00000000000E+00 -0.00000000000E+00  0.11368683772E-12  0.17120000000E+03  0.17120000000E+03 0.  0.
         13    1    1    2    0    0 -0.22779568105E+03  0.73641484604E+01  0.12920798395E+04  0.13120272199E+04  0.10566000000E+00 0.  1.
        994    1    1    2    0    0  0.23086213121E+03 -0.49075823615E+01  0.19956123865E+03  0.34993647418E+03  0.17120000000E+03 0.  0.
        998    1    1    2    0    0 -0.30664501506E+01 -0.24565660988E+01  0.83589181148E+01  0.92363058944E+01  0.10000000000E-02 0. -1.
</event>
<event>
 5    1  0.7026671E-009  0.3883007E+03  0.7957747E-01  0.3415793E+00
         13   -1    0    0    0    0  0.00000000000E+00  0.00000000000E+00  0.14999999963E+04  0.15000000000E+04  0.10566000000E+00 0. -1.
        994   -1    0    0    0    0 -0.00000000000E+00 -0.00000000000E+00  0.11368683772E-12  0.17120000000E+03  0.17120000000E+03 0.  0.
         13    1    1    2    0    0 -0.25198945978E+03  0.19231678773E+03  0.10315200202E+04  0.10791283510E+04  0.10566000000E+00 0. -1.
        994    1    1    2    0    0  0.25261789543E+03 -0.19281680102E+03  0.46595127016E+03  0.58941848122E+03  0.17120000000E+03 0.  0.
        998    1    1    2    0    0 -0.62843564459E+00  0.50001328894E+00  0.25287058963E+01  0.26531677592E+01  0.10000000000E-02 0.  1.
</event>
<event>
 5    1  0.7026671E-009  0.3882996E+03  0.7957747E-01  0.3415798E+00
         13   -1    0    0    0    0  0.00000000000E+00  0.00000000000E+00  0.14999999963E+04  0.15000000000E+04  0.10566000000E+00 0.  1.
        994   -1    0    0    0    0 -0.00000000000E+00 -0.00000000000E+00  0.11368683772E-12  0.17120000000E+03  0.17120000000E+03 0.  0.
         13    1    1    2    0    0 -0.28766967319E+03  0.12668424352E+03  0.93674489350E+03  0.98807577902E+03  0.10566000000E+00 0.  1.
        994    1    1    2    0    0  0.30010194393E+03 -0.13197566957E+03  0.52223097942E+03  0.63993233234E+03  0.17120000000E+03 0.  0.
        998    1    1    2    0    0 -0.12432270745E+02  0.52914260472E+01  0.41024123358E+02  0.43191888635E+02  0.10000000000E-02 0.  1.
</event>
<event>
 5    1  0.7026671E-009  0.3883009E+03  0.7957747E-01  0.3415792E+00
         13   -1    0    0    0    0  0.00000000000E+00  0.00000000000E+00  0.14999999963E+04  0.15000000000E+04  0.10566000000E+00 0.  1.
        994   -1    0    0    0    0 -0.00000000000E+00 -0.00000000000E+00  0.11368683772E-12  0.17120000000E+03  0.17120000000E+03 0.  0.
         13    1    1    2    0    0  0.19214757692E+03 -0.11564455300E+03  0.13135946287E+04  0.13326009207E+04  0.10566000000E+00 0.  1.
        994    1    1    2    0    0 -0.19226514066E+03  0.11571104945E+03  0.18565005311E+03  0.33783178284E+03  0.17120000000E+03 0.  0.
        998    1    1    2    0    0  0.11756374150E+00 -0.66496442760E-01  0.75531442762E+00  0.76729648428E+00  0.10000000000E-02 0. -1.
</event>
<event>
 5    1  0.7026671E-009  0.3770104E+03  0.7957747E-01  0.3464280E+00
         13   -1    0    0    0    0  0.00000000000E+00  0.00000000000E+00  0.14999999963E+04  0.15000000000E+04  0.10566000000E+00 0.  1.
        994   -1    0    0    0    0 -0.00000000000E+00 -0.00000000000E+00  0.11368683772E-12  0.17120000000E+03  0.17120000000E+03 0.  0.
         13    1    1    2    0    0 -0.60801215640E+02  0.60109082934E+02  0.40839115853E+03  0.41724481927E+03  0.10566000000E+00 0.  1.
        994    1    1    2    0    0  0.47777753780E+01 -0.21469417781E+03  0.18168549654E+03  0.32929542477E+03  0.17120000000E+03 0.  0.
        998    1    1    2    0    0  0.56023440262E+02  0.15458509488E+03  0.90992334120E+03  0.92465975596E+03  0.10000000000E-02 0.  1.
</event>
<event>
 5    1  0.7026671E-009  0.3864130E+03  0.7957747E-01  0.3423701E+00
         13   -1    0    0    0    0  0.00000000000E+00  0.00000000000E+00  0.14999999963E+04  0.15000000000E+04  0.10566000000E+00 0. -1.
        994   -1    0    0    0    0 -0.00000000000E+00 -0.00000000000E+00  0.11368683772E-12  0.17120000000E+03  0.17120000000E+03 0.  0.
         13    1    1    2    0    0  0.13440895375E+03 -0.53552636360E+02  0.51300625911E+03  0.53301884090E+03  0.10566000000E+00 0. -1.
        994    1    1    2    0    0 -0.26038034513E+03  0.89389417794E+02  0.30970976274E+03  0.44835027521E+03  0.17120000000E+03 0.  0.
        998    1    1    2    0    0  0.12597139138E+03 -0.35836781435E+02  0.67728397443E+03  0.68983088389E+03  0.10000000000E-02 0. -1.
</event>
<event>
 5    1  0.7026671E-009  0.3854283E+03  0.7957747E-01  0.3427858E+00
         13   -1    0    0    0    0  0.00000000000E+00  0.00000000000E+00  0.14999999963E+04  0.15000000000E+04  0.10566000000E+00 0. -1.
        994   -1    0    0    0    0 -0.00000000000E+00 -0.00000000000E+00  0.11368683772E-12  0.17120000000E+03  0.17120000000E+03 0.  0.
         13    1    1    2    0    0  0.14461781714E+03 -0.60755820255E+02  0.85141613355E+03  0.86574535885E+03  0.10566000000E+00 0. -1.
        994    1    1    2    0    0 -0.20101869399E+03  0.53870404624E+02  0.15963306724E+03  0.31321349266E+03  0.17120000000E+03 0.  0.
        998    1    1    2    0    0  0.56400876853E+02  0.68854156316E+01  0.48895079549E+03  0.49224114849E+03  0.10000000000E-02 0.  1.
</event>
<event>
 5    1  0.7026671E-009  0.3883010E+03  0.7957747E-01  0.3415792E+00
         13   -1    0    0    0    0  0.00000000000E+00  0.00000000000E+00  0.14999999963E+04  0.15000000000E+04  0.10566000000E+00 0.  1.
        994   -1    0    0    0    0 -0.00000000000E+00 -0.00000000000E+00  0.11368683772E-12  0.17120000000E+03  0.17120000000E+03 0.  0.
         13    1    1    2    0    0  0.93253854366E+02  0.27152867858E+03  0.11483341046E+04  0.11836787282E+04  0.10566000000E+00 0.  1.
        994    1    1    2    0    0 -0.93671018660E+02 -0.27273224588E+03  0.34654673981E+03  0.48224601663E+03  0.17120000000E+03 0.  0.
        998    1    1    2    0    0  0.41716429446E+00  0.12035672994E+01  0.51191518568E+01  0.52752551622E+01  0.10000000000E-02 0. -1.
</event>
<event>
 5    1  0.7026671E-009  0.3882996E+03  0.7957747E-01  0.3415798E+00
         13   -1    0    0    0    0  0.00000000000E+00  0.00000000000E+00  0.14999999963E+04  0.15000000000E+04  0.10566000000E+00 0.  1.
        994   -1    0    0    0    0 -0.00000000000E+00 -0.00000000000E+00  0.11368683772E-12  0.17120000000E+03  0.17120000000E+03 0.  0.
         13    1    1    2    0    0 -0.29247274457E+03 -0.36666652878E+02  0.10666077400E+04  0.11065879233E+04  0.10566000000E+00 0.  1.
        994    1    1    2    0    0  0.30125041503E+03  0.37752559150E+02  0.40231404627E+03  0.53229982163E+03  0.17120000000E+03 0.  0.
        998    1    1    2    0    0 -0.87776704611E+01 -0.10859062719E+01  0.31078210011E+02  0.32312255100E+02  0.10000000000E-02 0.  1.
</event>
<event>
 5    1  0.7026671E-009  0.3883000E+03  0.7957747E-01  0.3415796E+00
         13   -1    0    0    0    0  0.00000000000E+00  0.00000000000E+00  0.14999999963E+04  0.15000000000E+04  0.10566000000E+00 0. -1.
        994   -1    0    0    0    0 -0.00000000000E+00 -0.00000000000E+00  0.11368683772E-12  0.17120000000E+03  0.17120000000E+03 0.  0.
         13    1    1    2    0    0  0.20056387499E+03  0.74827872631E+02  0.12911832621E+04  0.13088083534E+04  0.10566000000E+00 0. -1.
        994    1    1    2    0    0 -0.20573200810E+03 -0.76575271488E+02  0.17651117962E+03  0.32962868184E+03  0.17120000000E+03 0.  0.
        998    1    1    2    0    0  0.51681331098E+01  0.17473988569E+01  0.32305554555E+02  0.32762964742E+02  0.10000000000E-02 0.  1.
</event>
<event>
 5    1  0.7026671E-009  0.3883010E+03  0.7957747E-01  0.3415792E+00
         13   -1    0    0    0    0  0.00000000000E+00  0.00000000000E+00  0.14999999963E+04  0.15000000000E+04  0.10566000000E+00 0. -1.
        994   -1    0    0    0    0 -0.00000000000E+00 -0.00000000000E+00  0.11368683772E-12  0.17120000000E+03  0.17120000000E+03 0.  0.
         13    1    1    2    0    0 -0.19964310865E+03  0.19323531528E+03  0.11108493372E+04  0.11450692202E+04  0.10566000000E+00 0. -1.
        994    1    1    2    0    0  0.20724991370E+03 -0.20061281217E+03  0.34678370091E+03  0.48245870533E+03  0.17120000000E+03 0.  0.
        998    1    1    2    0    0 -0.76068050473E+01  0.73774968914E+01  0.42366958177E+02  0.43672074483E+02  0.10000000000E-02 0. -1.
</event>
<event>
 5    1  0.7026671E-009  0.3883010E+03  0.7957747E-01  0.3415792E+00
         13   -1    0    0    0    0  0.00000000000E+00  0.00000000000E+00  0.14999999963E+04  0.15000000000E+04  0.10566000000E+00 0.  1.
        994   -1    0    0    0    0 -0.00000000000E+00 -0.00000000000E+00  0.11368683772E-12  0.17120000000E+03  0.17120000000E+03 0.  0.
         13    1    1    2    0    0  0.25393840564E+03 -0.32779533114E+02  0.12457080221E+04  0.12717498571E+04  0.10566000000E+00 0.  1.
        994    1    1    2    0    0 -0.25395186224E+03  0.32780351733E+02  0.25422519635E+03  0.39938201043E+03  0.17120000000E+03 0.  0.
        998    1    1    2    0    0  0.13456597555E-01 -0.81861944430E-03  0.66777825040E-01  0.68132430403E-01  0.10000000000E-02 0. -1.
</event>
<event>
 5    1  0.7026671E-009  0.3883008E+03  0.7957747E-01  0.3415793E+00
         13   -1    0    0    0    0  0.00000000000E+00  0.00000000000E+00  0.14999999963E+04  0.15000000000E+04  0.10566000000E+00 0.  1.
        994   -1    0    0    0    0 -0.00000000000E+00 -0.00000000000E+00  0.11368683772E-12  0.17120000000E+03  0.17120000000E+03 0.  0.
         13    1    1    2    0    0  0.32378201833E+02  0.24782437422E+03  0.12604051812E+04  0.12849461080E+04  0.10566000000E+00 0.  1.
        994    1    1    2    0    0 -0.32376357500E+02 -0.24783005011E+03  0.23956580520E+03  0.38622425776E+03  0.17120000000E+03 0.  0.
        998    1    1    2    0    0 -0.18443323429E-02  0.56758888830E-02  0.29009842538E-01  0.29634241014E-01  0.10000000000E-02 0.  1.
</event>
<event>
 5    1  0.7026671E-009  0.3883010E+03  0.7957747E-01  0.3415792E+00
         13   -1    0    0    0    0  0.00000000000E+00  0.00000000000E+00  0.14999999963E+04  0.15000000000E+04  0.10566000000E+00 0.  1.
        994   -1    0    0    0    0 -0.00000000000E+00 -0.00000000000E+00  0.11368683772E-12  0.17120000000E+03  0.17120000000E+03 0.  0.
         13    1    1    2    0    0 -0.10334474969E+03 -0.31366476015E+03  0.93861840800E+03  0.99502273645E+03  0.10566000000E+00 0.  1.
        994    1    1    2    0    0  0.10409342060E+03  0.31593506046E+03  0.55458589871E+03  0.66897336396E+03  0.17120000000E+03 0.  0.
        998    1    1    2    0    0 -0.74867091130E+00 -0.22703003066E+01  0.67956895698E+01  0.72038995929E+01  0.10000000000E-02 0.  0.
</event>
<event>
 5    1  0.7026671E-009  0.3883010E+03  0.7957747E-01  0.3415792E+00
         13   -1    0    0    0    0  0.00000000000E+00  0.00000000000E+00  0.14999999963E+04  0.15000000000E+04  0.10566000000E+00 0. -1.
        994   -1    0    0    0    0 -0.00000000000E+00 -0.00000000000E+00  0.11368683772E-12  0.17120000000E+03  0.17120000000E+03 0.  0.
         13    1    1    2    0    0  0.24014042786E+03  0.19692114733E+03  0.10326226306E+04  0.10783111201E+04  0.10566000000E+00 0. -1.
        994    1    1    2    0    0 -0.24361319871E+03 -0.19977469496E+03  0.45246526380E+03  0.57731410366E+03  0.17120000000E+03 0.  0.
        998    1    1    2    0    0  0.34727708437E+01  0.28535476345E+01  0.14912101862E+02  0.15574776223E+02  0.10000000000E-02 0. -1.
</event>
<event>
 5    1  0.7026671E-009  0.3883008E+03  0.7957747E-01  0.3415793E+00
         13   -1    0    0    0    0  0.00000000000E+00  0.00000000000E+00  0.14999999963E+04  0.15000000000E+04  0.10566000000E+00 0.  1.
        994   -1    0    0    0    0 -0.00000000000E+00 -0.00000000000E+00  0.11368683772E-12  0.17120000000E+03  0.17120000000E+03 0.  0.
         13    1    1    2    0    0 -0.13082794635E+03  0.15592776086E+03  0.10144872488E+04  0.10347046957E+04  0.10566000000E+00 0.  1.
        994    1    1    2    0    0  0.16217749009E+03 -0.19293128726E+03  0.24451860386E+03  0.39066969108E+03  0.17120000000E+03 0.  0.
        998    1    1    2    0    0 -0.31349543741E+02  0.37003526398E+02  0.24099414359E+03  0.24582561319E+03  0.10000000000E-02 0.  1.
</event>
<event>
 5    1  0.7026671E-009  0.3883008E+03  0.7957747E-01  0.3415793E+00
         13   -1    0    0    0    0  0.00000000000E+00  0.00000000000E+00  0.14999999963E+04  0.15000000000E+04  0.10566000000E+00 0.  1.
        994   -1    0    0    0    0 -0.00000000000E+00 -0.00000000000E+00  0.11368683772E-12  0.17120000000E+03  0.17120000000E+03 0.  0.
         13    1    1    2    0    0  0.28489903700E+03 -0.79112693981E+02  0.11267283063E+04  0.11648789495E+04  0.10566000000E+00 0.  1.
        994    1    1    2    0    0 -0.28505752735E+03  0.79168285089E+02  0.37262235407E+03  0.50565034363E+03  0.17120000000E+03 0.  0.
        998    1    1    2    0    0  0.15849035163E+00 -0.55591108016E-01  0.64933593150E+00  0.67070687695E+00  0.10000000000E-02 0.  1.
</event>
<event>
 5    1  0.7026671E-009  0.3882003E+03  0.7957747E-01  0.3416212E+00
         13   -1    0    0    0    0  0.00000000000E+00  0.00000000000E+00  0.14999999963E+04  0.15000000000E+04  0.10566000000E+00 0. -1.
        994   -1    0    0    0    0 -0.00000000000E+00 -0.00000000000E+00  0.11368683772E-12  0.17120000000E+03  0.17120000000E+03 0.  0.
         13    1    1    2    0    0  0.18278185712E+03  0.78673754507E+02  0.11590568001E+04  0.11760150696E+04  0.10566000000E+00 0. -1.
        994    1    1    2    0    0 -0.20748981606E+03 -0.84773324351E+02  0.18528255607E+03  0.33745756159E+03  0.17120000000E+03 0.  0.
        998    1    1    2    0    0  0.24707958935E+02  0.60995698437E+01  0.15566064015E+03  0.15772736883E+03  0.10000000000E-02 0. -1.
</event>
<event>
 5    1  0.7026671E-009  0.3882985E+03  0.7957747E-01  0.3415802E+00
         13   -1    0    0    0    0  0.00000000000E+00  0.00000000000E+00  0.14999999963E+04  0.15000000000E+04  0.10566000000E+00 0. -1.
        994   -1    0    0    0    0 -0.00000000000E+00 -0.00000000000E+00  0.11368683772E-12  0.17120000000E+03  0.17120000000E+03 0.  0.
         13    1    1    2    0    0  0.24848649064E+03 -0.17619055072E+02  0.12619884770E+04  0.12863401161E+04  0.10566000000E+00 0. -1.
        994    1    1    2    0    0 -0.24851725266E+03  0.17610887389E+02  0.23771900845E+03  0.38456564486E+03  0.17120000000E+03 0.  0.
        998    1    1    2    0    0  0.30762020585E-01  0.81676824360E-02  0.29251086659E+00  0.29423905250E+00  0.10000000000E-02 0.  1.
</event>
<event>
 5    1  0.7026671E-009  0.3883010E+03  0.7957747E-01  0.3415792E+00
         13   -1    0    0    0    0  0.00000000000E+00  0.00000000000E+00  0.14999999963E+04  0.15000000000E+04  0.10566000000E+00 0.  1.
        994   -1    0    0    0    0 -0.00000000000E+00 -0.00000000000E+00  0.11368683772E-12  0.17120000000E+03  0.17120000000E+03 0.  0.
         13    1    1    2    0    0  0.23744957149E+03  0.34472531301E+02  0.12825689093E+04  0.13048194023E+04  0.10566000000E+00 0.  1.
        994    1    1    2    0    0 -0.23748432524E+03 -0.34477393090E+02  0.21723209737E+03  0.36617853500E+03  0.17120000000E+03 0.  0.
        998    1    1    2    0    0  0.34753748991E-01  0.48617887657E-02  0.19898964418E+00  0.20206270944E+00  0.10000000000E-02 0.  1.
</event>
<event>
 5    1  0.7026671E-009  0.3881961E+03  0.7957747E-01  0.3416229E+00
         13   -1    0    0    0    0  0.00000000000E+00  0.00000000000E+00  0.14999999963E+04  0.15000000000E+04  0.10566000000E+00 0. -1.
        994   -1    0    0    0    0 -0.00000000000E+00 -0.00000000000E+00  0.11368683772E-12  0.17120000000E+03  0.17120000000E+03 0.  0.
         13    1    1    2    0    0 -0.26118045026E+03 -0.60065883689E+02  0.11900961608E+04  0.12198983651E+04  0.10566000000E+00 0. -1.
        994    1    1    2    0    0  0.26447583385E+03  0.59449443176E+02  0.29384875237E+03  0.43490025552E+03  0.17120000000E+03 0.  0.
        998    1    1    2    0    0 -0.32953835848E+01  0.61644051290E+00  0.16055083080E+02  0.16401379381E+02  0.10000000000E-02 0.  1.
</event>
<event>
 5    1  0.7026671E-009  0.3883009E+03  0.7957747E-01  0.3415792E+00
         13   -1    0    0    0    0  0.00000000000E+00  0.00000000000E+00  0.14999999963E+04  0.15000000000E+04  0.10566000000E+00 0.  1.
        994   -1    0    0    0    0 -0.00000000000E+00 -0.00000000000E+00  0.11368683772E-12  0.17120000000E+03  0.17120000000E+03 0.  0.
         13    1    1    2    0    0 -0.71888590178E+02  0.84816736484E+02  0.53813486183E+03  0.54950067231E+03  0.10566000000E+00 0.  1.
        994    1    1    2    0    0  0.16608198546E+03 -0.19621556744E+03  0.25671401172E+03  0.40161585951E+03  0.17120000000E+03 0.  0.
        998    1    1    2    0    0 -0.94193395282E+02  0.11139883096E+03  0.70515112273E+03  0.72008346818E+03  0.10000000000E-02 0.  1.
</event>
<event>
 5    1  0.7026671E-009  0.3882556E+03  0.7957747E-01  0.3415981E+00
         13   -1    0    0    0    0  0.00000000000E+00  0.00000000000E+00  0.14999999963E+04  0.15000000000E+04  0.10566000000E+00 0. -1.
        994   -1    0    0    0    0 -0.00000000000E+00 -0.00000000000E+00  0.11368683772E-12  0.17120000000E+03  0.17120000000E+03 0.  0.
         13    1    1    2    0    0  0.82116211804E+02  0.19607718675E+03  0.12822979298E+04  0.12997989565E+04  0.10566000000E+00 0. -1.
        994    1    1    2    0    0 -0.83850969796E+02 -0.20341550247E+03  0.17748531903E+03  0.33048347954E+03  0.17120000000E+03 0.  0.
        998    1    1    2    0    0  0.17347579914E+01  0.73383157177E+01  0.40216747421E+02  0.40917563918E+02  0.10000000000E-02 0.  1.
</event>
<event>
 5    1  0.7026671E-009  0.3883010E+03  0.7957747E-01  0.3415792E+00
         13   -1    0    0    0    0  0.00000000000E+00  0.00000000000E+00  0.14999999963E+04  0.15000000000E+04  0.10566000000E+00 0.  1.
        994   -1    0    0    0    0 -0.00000000000E+00 -0.00000000000E+00  0.11368683772E-12  0.17120000000E+03  0.17120000000E+03 0.  0.
         13    1    1    2    0    0 -0.22594332615E+03  0.92792766737E+01  0.12202246915E+04  0.12410015312E+04  0.10566000000E+00 0.  1.
        994    1    1    2    0    0  0.23818108778E+03 -0.97764782666E+01  0.21382457000E+03  0.36312008598E+03  0.17120000000E+03 0.  0.
        998    1    1    2    0    0 -0.12237761630E+02  0.49720159289E+00  0.65950734817E+02  0.67078382830E+02  0.10000000000E-02 0.  1.
</event>
<event>
 5    1  0.7026671E-009  0.3882758E+03  0.7957747E-01  0.3415897E+00
         13   -1    0    0    0    0  0.00000000000E+00  0.00000000000E+00  0.14999999963E+04  0.15000000000E+04  0.10566000000E+00 0.  1.
        994   -1    0    0    0    0 -0.00000000000E+00 -0.00000000000E+00  0.11368683772E-12  0.17120000000E+03  0.17120000000E+03 0.  0.
         13    1    1    2    0    0 -0.48902012227E+02 -0.20629251762E+03  0.10700585298E+04  0.10908589633E+04  0.10566000000E+00 0.  1.
        994    1    1    2    0    0  0.55600071649E+02  0.24437789970E+03  0.24121400393E+03  0.38769261216E+03  0.17120000000E+03 0.  0.
        998    1    1    2    0    0 -0.66980594214E+01 -0.38085382078E+02  0.18872746259E+03  0.19264842451E+03  0.10000000000E-02 0.  1.
</event>
<event>
 5    1  0.7026671E-009  0.3882986E+03  0.7957747E-01  0.3415802E+00
         13   -1    0    0    0    0  0.00000000000E+00  0.00000000000E+00  0.14999999963E+04  0.15000000000E+04  0.10566000000E+00 0. -1.
        994   -1    0    0    0    0 -0.00000000000E+00 -0.00000000000E+00  0.11368683772E-12  0.17120000000E+03  0.17120000000E+03 0.  0.
         13    1    1    2    0    0  0.10942608432E+03  0.20872437829E+03  0.12887988017E+04  0.13101688045E+04  0.10566000000E+00 0. -1.
        994    1    1    2    0    0 -0.10966941927E+03 -0.20911413370E+03  0.20907615446E+03  0.35885704786E+03  0.17120000000E+03 0.  0.
        998    1    1    2    0    0  0.24333494702E+00  0.38975541303E+00  0.21250401386E+01  0.21741475960E+01  0.10000000000E-02 0. -1.
</event>
<event>
 5    1  0.7026671E-009  0.3882959E+03  0.7957747E-01  0.3415813E+00
         13   -1    0    0    0    0  0.00000000000E+00  0.00000000000E+00  0.14999999963E+04  0.15000000000E+04  0.10566000000E+00 0. -1.
        994   -1    0    0    0    0 -0.00000000000E+00 -0.00000000000E+00  0.11368683772E-12  0.17120000000E+03  0.17120000000E+03 0.  0.
         13    1    1    2    0    0  0.21451274824E+03 -0.10682147196E+03  0.12813342163E+04  0.13035505096E+04  0.10566000000E+00 0. -1.
        994    1    1    2    0    0 -0.21472190378E+03  0.10703180123E+03  0.21712196440E+03  0.36607743698E+03  0.17120000000E+03 0.  0.
        998    1    1    2    0    0  0.20915554279E+00 -0.21032927376E+00  0.15438155795E+01  0.15720534304E+01  0.10000000000E-02 0. -1.
</event>
<event>
 5    1  0.7026671E-009  0.3883010E+03  0.7957747E-01  0.3415792E+00
         13   -1    0    0    0    0  0.00000000000E+00  0.00000000000E+00  0.14999999963E+04  0.15000000000E+04  0.10566000000E+00 0. -1.
        994   -1    0    0    0    0 -0.00000000000E+00 -0.00000000000E+00  0.11368683772E-12  0.17120000000E+03  0.17120000000E+03 0.  0.
         13    1    1    2    0    0 -0.10071581459E+03  0.22129713965E+03  0.12748469812E+04  0.12978254643E+04  0.10566000000E+00 0. -1.
        994    1    1    2    0    0  0.10077232223E+03 -0.22142146040E+03  0.22443409714E+03  0.37264276192E+03  0.17120000000E+03 0.  0.
        998    1    1    2    0    0 -0.56507633380E-01  0.12432074643E+00  0.71891797091E+00  0.73177374203E+00  0.10000000000E-02 0.  0.
</event>
<event>
 5    1  0.7026671E-009  0.3883007E+03  0.7957747E-01  0.3415793E+00
         13   -1    0    0    0    0  0.00000000000E+00  0.00000000000E+00  0.14999999963E+04  0.15000000000E+04  0.10566000000E+00 0.  1.
        994   -1    0    0    0    0 -0.00000000000E+00 -0.00000000000E+00  0.11368683772E-12  0.17120000000E+03  0.17120000000E+03 0.  0.
         13    1    1    2    0    0  0.18938059815E+03  0.27386175344E+03  0.82765149999E+03  0.89211674547E+03  0.10566000000E+00 0.  1.
        994    1    1    2    0    0 -0.19505263481E+03 -0.28189133728E+03  0.64776465607E+03  0.75260663432E+03  0.17120000000E+03 0.  0.
        998    1    1    2    0    0  0.56720366591E+01  0.80295838380E+01  0.24583840219E+02  0.26476620203E+02  0.10000000000E-02 0. -1.
</event>
<event>
 5    1  0.7026671E-009  0.3881331E+03  0.7957747E-01  0.3416492E+00
         13   -1    0    0    0    0  0.00000000000E+00  0.00000000000E+00  0.14999999963E+04  0.15000000000E+04  0.10566000000E+00 0.  1.
        994   -1    0    0    0    0 -0.00000000000E+00 -0.00000000000E+00  0.11368683772E-12  0.17120000000E+03  0.17120000000E+03 0.  0.
         13    1    1    2    0    0 -0.20510130599E+03 -0.81193153328E+02  0.12212036273E+04  0.12409662301E+04  0.10566000000E+00 0.  1.
        994    1    1    2    0    0  0.21557244467E+03  0.83636274808E+02  0.19925581889E+03  0.34996975116E+03  0.17120000000E+03 0.  0.
        998    1    1    2    0    0 -0.10471138683E+02 -0.24431214796E+01  0.79540550096E+02  0.80264018703E+02  0.10000000000E-02 0.  1.
</event>
<event>
 5    1  0.7026671E-009  0.3868108E+03  0.7957747E-01  0.3422028E+00
         13   -1    0    0    0    0  0.00000000000E+00  0.00000000000E+00  0.14999999963E+04  0.15000000000E+04  0.10566000000E+00 0.  1.
        994   -1    0    0    0    0 -0.00000000000E+00 -0.00000000000E+00  0.11368683772E-12  0.17120000000E+03  0.17120000000E+03 0.  0.
         13    1    1    2    0    0  0.60115821211E+00  0.18252222442E+03  0.10972964740E+04  0.11123732678E+04  0.10566000000E+00 0.  1.
        994    1    1    2    0    0 -0.53157825005E+00 -0.20213192776E+03  0.14812307400E+03  0.30349214792E+03  0.17120000000E+03 0.  0.
        998    1    1    2    0    0 -0.69579962061E-01  0.19609703341E+02  0.25458044827E+03  0.25533458432E+03  0.10000000000E-02 0.  1.
</event>
<event>
 5    1  0.7026671E-009  0.3883010E+03  0.7957747E-01  0.3415792E+00
         13   -1    0    0    0    0  0.00000000000E+00  0.00000000000E+00  0.14999999963E+04  0.15000000000E+04  0.10566000000E+00 0. -1.
        994   -1    0    0    0    0 -0.00000000000E+00 -0.00000000000E+00  0.11368683772E-12  0.17120000000E+03  0.17120000000E+03 0.  0.
         13    1    1    2    0    0  0.15160792937E+03  0.19697054326E+03  0.12600322745E+04  0.12843144876E+04  0.10566000000E+00 0. -1.
        994    1    1    2    0    0 -0.15190551473E+03 -0.19735583515E+03  0.23749938890E+03  0.38436962783E+03  0.17120000000E+03 0.  0.
        998    1    1    2    0    0  0.29758535750E+00  0.38529188094E+00  0.24683328929E+01  0.25158845659E+01  0.10000000000E-02 0.  0.
</event>
<event>
 5    1  0.7026671E-009  0.3882958E+03  0.7957747E-01  0.3415814E+00
         13   -1    0    0    0    0  0.00000000000E+00  0.00000000000E+00  0.14999999963E+04  0.15000000000E+04  0.10566000000E+00 0. -1.
        994   -1    0    0    0    0 -0.00000000000E+00 -0.00000000000E+00  0.11368683772E-12  0.17120000000E+03  0.17120000000E+03 0.  0.
         13    1    1    2    0    0 -0.22089252710E+03 -0.22789798089E+02  0.13082842834E+04  0.13269968578E+04  0.10566000000E+00 0. -1.
        994    1    1    2    0    0  0.22215131326E+03  0.22743918317E+02  0.18359136717E+03  0.33598172852E+03  0.17120000000E+03 0.  0.
        998    1    1    2    0    0 -0.12587861593E+01  0.45879772084E-01  0.81243457518E+01  0.82214136523E+01  0.10000000000E-02 0. -1.
</event>
<event>
 5    1  0.7026671E-009  0.3883010E+03  0.7957747E-01  0.3415792E+00
         13   -1    0    0    0    0  0.00000000000E+00  0.00000000000E+00  0.14999999963E+04  0.15000000000E+04  0.10566000000E+00 0.  1.
        994   -1    0    0    0    0 -0.00000000000E+00 -0.00000000000E+00  0.11368683772E-12  0.17120000000E+03  0.17120000000E+03 0.  0.
         13    1    1    2    0    0 -0.22523559440E+03 -0.92613287557E+02  0.12733451346E+04  0.12964243661E+04  0.10566000000E+00 0.  1.
        994    1    1    2    0    0  0.22543674397E+03  0.92695336118E+02  0.22548763305E+03  0.37358836107E+03  0.17120000000E+03 0.  0.
        998    1    1    2    0    0 -0.20114956947E+00 -0.82048560870E-01  0.11672286519E+01  0.11872728589E+01  0.10000000000E-02 0. -1.
</event>
<event>
 5    1  0.7026671E-009  0.3882969E+03  0.7957747E-01  0.3415809E+00
         13   -1    0    0    0    0  0.00000000000E+00  0.00000000000E+00  0.14999999963E+04  0.15000000000E+04  0.10566000000E+00 0.  1.
        994   -1    0    0    0    0 -0.00000000000E+00 -0.00000000000E+00  0.11368683772E-12  0.17120000000E+03  0.17120000000E+03 0.  0.
         13    1    1    2    0    0 -0.15069889113E+03  0.21755574715E+03  0.12223362679E+04  0.12506584754E+04  0.10566000000E+00 0.  1.
        994    1    1    2    0    0  0.15087881545E+03 -0.21770931737E+03  0.27674829949E+03  0.41959602607E+03  0.17120000000E+03 0.  0.
        998    1    1    2    0    0 -0.17992432318E+00  0.15357021792E+00  0.91542885486E+00  0.94549857864E+00  0.10000000000E-02 0. -1.
</event>
<event>
 5    1  0.7026671E-009  0.3883010E+03  0.7957747E-01  0.3415792E+00
         13   -1    0    0    0    0  0.00000000000E+00  0.00000000000E+00  0.14999999963E+04  0.15000000000E+04  0.10566000000E+00 0. -1.
        994   -1    0    0    0    0 -0.00000000000E+00 -0.00000000000E+00  0.11368683772E-12  0.17120000000E+03  0.17120000000E+03 0.  0.
         13    1    1    2    0    0  0.11646923744E+03 -0.18690296097E+03  0.13189625829E+04  0.13372210387E+04  0.10566000000E+00 0. -1.
        994    1    1    2    0    0 -0.11668124268E+03  0.18725389232E+03  0.17856239203E+03  0.33147021047E+03  0.17120000000E+03 0.  0.
        998    1    1    2    0    0  0.21200523819E+00 -0.35093134960E+00  0.24750213162E+01  0.25087507945E+01  0.10000000000E-02 0.  1.
</event>
<event>
 5    1  0.7026671E-009  0.3844042E+03  0.7957747E-01  0.3432203E+00
         13   -1    0    0    0    0  0.00000000000E+00  0.00000000000E+00  0.14999999963E+04  0.15000000000E+04  0.10566000000E+00 0. -1.
        994   -1    0    0    0    0 -0.00000000000E+00 -0.00000000000E+00  0.11368683772E-12  0.17120000000E+03  0.17120000000E+03 0.  0.
         13    1    1    2    0    0  0.15023245522E+03  0.28453072929E+02  0.47561839599E+03  0.49959207132E+03  0.10566000000E+00 0. -1.
        994    1    1    2    0    0 -0.27968134796E+03 -0.12579408782E+03  0.42818336253E+03  0.55380162593E+03  0.17120000000E+03 0.  0.
        998    1    1    2    0    0  0.12944889275E+03  0.97341014892E+02  0.59619823776E+03  0.61780630276E+03  0.10000000000E-02 0. -1.
</event>
<event>
 5    1  0.7026671E-009  0.3883009E+03  0.7957747E-01  0.3415792E+00
         13   -1    0    0    0    0  0.00000000000E+00  0.00000000000E+00  0.14999999963E+04  0.15000000000E+04  0.10566000000E+00 0. -1.
        994   -1    0    0    0    0 -0.00000000000E+00 -0.00000000000E+00  0.11368683772E-12  0.17120000000E+03  0.17120000000E+03 0.  0.
         13    1    1    2    0    0 -0.19760951130E+03  0.99019412455E+02  0.13120768869E+04  0.13305638397E+04  0.10566000000E+00 0. -1.
        994    1    1    2    0    0  0.19858419658E+03 -0.99507623315E+02  0.18133841802E+03  0.33396184225E+03  0.17120000000E+03 0.  0.
        998    1    1    2    0    0 -0.97468528016E+00  0.48821085978E+00  0.65846913142E+01  0.66743180882E+01  0.10000000000E-02 0.  1.
</event>
<event>
 5    1  0.7026671E-009  0.3882982E+03  0.7957747E-01  0.3415804E+00
         13   -1    0    0    0    0  0.00000000000E+00  0.00000000000E+00  0.14999999963E+04  0.15000000000E+04  0.10566000000E+00 0. -1.
        994   -1    0    0    0    0 -0.00000000000E+00 -0.00000000000E+00  0.11368683772E-12  0.17120000000E+03  0.17120000000E+03 0.  0.
         13    1    1    2    0    0  0.22341244885E+03  0.16339353509E+02  0.13129816897E+04  0.13319538375E+04  0.10566000000E+00 0. -1.
        994    1    1    2    0    0 -0.22373536679E+03 -0.16365052037E+02  0.18552764263E+03  0.33772070629E+03  0.17120000000E+03 0.  0.
        998    1    1    2    0    0  0.32291793148E+00  0.25698527594E-01  0.14906639816E+01  0.15254561648E+01  0.10000000000E-02 0. -1.
</event>
<event>
 5    1  0.7026671E-009  0.3883008E+03  0.7957747E-01  0.3415792E+00
         13   -1    0    0    0    0  0.00000000000E+00  0.00000000000E+00  0.14999999963E+04  0.15000000000E+04  0.10566000000E+00 0. -1.
        994   -1    0    0    0    0 -0.00000000000E+00 -0.00000000000E+00  0.11368683772E-12  0.17120000000E+03  0.17120000000E+03 0.  0.
         13    1    1    2    0    0  0.43373693051E+02 -0.25779804000E+03  0.12312756004E+04  0.12587218605E+04  0.10566000000E+00 0. -1.
        994    1    1    2    0    0 -0.43405997891E+02  0.25793174128E+03  0.26805819654E+03  0.41179788798E+03  0.17120000000E+03 0.  0.
        998    1    1    2    0    0  0.32304839841E-01 -0.13370128009E+00  0.66619930310E+00  0.68025153173E+00  0.10000000000E-02 0. -1.
</event>
<event>
 5    1  0.7026671E-009  0.3883010E+03  0.7957747E-01  0.3415792E+00
         13   -1    0    0    0    0  0.00000000000E+00  0.00000000000E+00  0.14999999963E+04  0.15000000000E+04  0.10566000000E+00 0.  1.
        994   -1    0    0    0    0 -0.00000000000E+00 -0.00000000000E+00  0.11368683772E-12  0.17120000000E+03  0.17120000000E+03 0.  0.
         13    1    1    2    0    0 -0.19843504794E+03  0.22726890997E+03  0.11038460879E+04  0.11443355376E+04  0.10566000000E+00 0.  1.
        994    1    1    2    0    0  0.19855482712E+03 -0.22740850963E+03  0.39548878183E+03  0.52617436861E+03  0.17120000000E+03 0.  0.
        998    1    1    2    0    0 -0.11977917756E+00  0.13959966030E+00  0.66512650617E+00  0.69009375141E+00  0.10000000000E-02 0.  1.
</event>
<event>
 5    1  0.7026671E-009  0.3842651E+03  0.7957747E-01  0.3432795E+00
         13   -1    0    0    0    0  0.00000000000E+00  0.00000000000E+00  0.14999999963E+04  0.15000000000E+04  0.10566000000E+00 0. -1.
        994   -1    0    0    0    0 -0.00000000000E+00 -0.00000000000E+00  0.11368683772E-12  0.17120000000E+03  0.17120000000E+03 0.  0.
         13    1    1    2    0    0 -0.16646011455E+03  0.19421364123E+03  0.12242811906E+04  0.12507167357E+04  0.10566000000E+00 0. -1.
        994    1    1    2    0    0  0.16225417112E+03 -0.18950236839E+03  0.24557393344E+03  0.38968392378E+03  0.17120000000E+03 0.  0.
        998    1    1    2    0    0  0.42059434340E+01 -0.47112728341E+01  0.30144872248E+02  0.30799340508E+02  0.10000000000E-02 0.  1.
</event>
<event>
 5    1  0.7026671E-009  0.3836877E+03  0.7957747E-01  0.3435257E+00
         13   -1    0    0    0    0  0.00000000000E+00  0.00000000000E+00  0.14999999963E+04  0.15000000000E+04  0.10566000000E+00 0.  1.
        994   -1    0    0    0    0 -0.00000000000E+00 -0.00000000000E+00  0.11368683772E-12  0.17120000000E+03  0.17120000000E+03 0.  0.
         13    1    1    2    0    0 -0.16126000985E+02 -0.16558554645E+03  0.88891451832E+03  0.90434929819E+03  0.10566000000E+00 0.  1.
        994    1    1    2    0    0 -0.28855014413E+02  0.22265665090E+03  0.19183256719E+03  0.34134699337E+03  0.17120000000E+03 0.  0.
        998    1    1    2    0    0  0.44981015398E+02 -0.57071104445E+02  0.41925291077E+03  0.42550370844E+03  0.10000000000E-02 0.  1.
</event>
<event>
 5    1  0.7026671E-009  0.3878156E+03  0.7957747E-01  0.3417818E+00
         13   -1    0    0    0    0  0.00000000000E+00  0.00000000000E+00  0.14999999963E+04  0.15000000000E+04  0.10566000000E+00 0.  1.
        994   -1    0    0    0    0 -0.00000000000E+00 -0.00000000000E+00  0.11368683772E-12  0.17120000000E+03  0.17120000000E+03 0.  0.
         13    1    1    2    0    0  0.25229898299E+03  0.61854317512E+02  0.11277746661E+04  0.11573056822E+04  0.10566000000E+00 0.  1.
        994    1    1    2    0    0 -0.26288657414E+03 -0.68954326328E+02  0.29659770419E+03  0.43719982630E+03  0.17120000000E+03 0.  0.
        998    1    1    2    0    0  0.10587591157E+02  0.71000088162E+01  0.75627626017E+02  0.76694491521E+02  0.10000000000E-02 0.  1.
</event>
<event>
 5    1  0.7026671E-009  0.3883005E+03  0.7957747E-01  0.3415794E+00
         13   -1    0    0    0    0  0.00000000000E+00  0.00000000000E+00  0.14999999963E+04  0.15000000000E+04  0.10566000000E+00 0. -1.
        994   -1    0    0    0    0 -0.00000000000E+00 -0.00000000000E+00  0.11368683772E-12  0.17120000000E+03  0.17120000000E+03 0.  0.
         13    1    1    2    0    0  0.13724302429E+03 -0.17739866041E+03  0.65514652954E+03  0.69247593371E+03  0.10566000000E+00 0. -1.
        994    1    1    2    0    0 -0.20197657357E+03  0.26117262346E+03  0.53728948238E+03  0.65344862338E+03  0.17120000000E+03 0.  0.
        998    1    1    2    0    0  0.64733549279E+02 -0.83773963051E+02  0.30756398436E+03  0.32527544291E+03  0.10000000000E-02 0. -1.
</event>
<event>
 5    1  0.1203103E-008  0.3883009E+03  0.7957747E-01  0.3415792E+00
         13   -1    0    0    0    0  0.00000000000E+00  0.00000000000E+00  0.14999999963E+04  0.15000000000E+04  0.10566000000E+00 0. -1.
        994   -1    0    0    0    0 -0.00000000000E+00 -0.00000000000E+00  0.11368683772E-12  0.17120000000E+03  0.17120000000E+03 0.  0.
         13    1    1    2    0    0  0.33042214939E+02  0.22152304657E+03  0.13151423983E+04  0.13340778789E+04  0.10566000000E+00 0. -1.
        994    1    1    2    0    0 -0.33042676169E+02 -0.22152562069E+03  0.18484468765E+03  0.33710891062E+03  0.17120000000E+03 0.  0.
        998    1    1    2    0    0  0.46123012755E-03  0.25741170555E-02  0.12910340682E-01  0.13210439371E-01  0.10000000000E-02 0.  0.
</event>
<event>
 5    1  0.7026671E-009  0.3883009E+03  0.7957747E-01  0.3415792E+00
         13   -1    0    0    0    0  0.00000000000E+00  0.00000000000E+00  0.14999999963E+04  0.15000000000E+04  0.10566000000E+00 0.  1.
        994   -1    0    0    0    0 -0.00000000000E+00 -0.00000000000E+00  0.11368683772E-12  0.17120000000E+03  0.17120000000E+03 0.  0.
         13    1    1    2    0    0  0.11375810716E+03  0.19091584932E+03  0.13183263400E+04  0.13369271178E+04  0.10566000000E+00 0.  1.
        994    1    1    2    0    0 -0.11376684881E+03 -0.19092681333E+03  0.18158547030E+03  0.33418358272E+03  0.17120000000E+03 0.  0.
        998    1    1    2    0    0  0.87416540452E-02  0.10964009639E-01  0.88185956632E-01  0.89299434320E-01  0.10000000000E-02 0.  1.
</event>
<event>
 5    1  0.7026671E-009  0.3883002E+03  0.7957747E-01  0.3415795E+00
         13   -1    0    0    0    0  0.00000000000E+00  0.00000000000E+00  0.14999999963E+04  0.15000000000E+04  0.10566000000E+00 0. -1.
        994   -1    0    0    0    0 -0.00000000000E+00 -0.00000000000E+00  0.11368683772E-12  0.17120000000E+03  0.17120000000E+03 0.  0.
         13    1    1    2    0    0  0.23022289911E+03  0.48979688620E+02  0.12921315370E+04  0.13133946525E+04  0.10566000000E+00 0. -1.
        994    1    1    2    0    0 -0.23025917242E+03 -0.48998323081E+02  0.20758938285E+03  0.35752330556E+03  0.17120000000E+03 0.  0.
        998    1    1    2    0    0  0.36273303663E-01  0.18634461620E-01  0.27907646179E+00  0.28204196008E+00  0.10000000000E-02 0. -1.
</event>
<event>
 5    1  0.7026671E-009  0.3883006E+03  0.7957747E-01  0.3415793E+00
         13   -1    0    0    0    0  0.00000000000E+00  0.00000000000E+00  0.14999999963E+04  0.15000000000E+04  0.10566000000E+00 0.  1.
        994   -1    0    0    0    0 -0.00000000000E+00 -0.00000000000E+00  0.11368683772E-12  0.17120000000E+03  0.17120000000E+03 0.  0.
         13    1    1    2    0    0  0.12935955364E+03  0.17874418275E+03  0.13205914207E+04  0.13388969671E+04  0.10566000000E+00 0.  1.
        994    1    1    2    0    0 -0.12943543414E+03 -0.17882605898E+03  0.17878879671E+03  0.33167328022E+03  0.17120000000E+03 0.  0.
        998    1    1    2    0    0  0.75880496702E-01  0.81876224715E-01  0.61977890985E+00  0.62975269991E+00  0.10000000000E-02 0.  1.
</event>
<event>
 5    1  0.7026671E-009  0.3882983E+03  0.7957747E-01  0.3415803E+00
         13   -1    0    0    0    0  0.00000000000E+00  0.00000000000E+00  0.14999999963E+04  0.15000000000E+04  0.10566000000E+00 0. -1.
        994   -1    0    0    0    0 -0.00000000000E+00 -0.00000000000E+00  0.11368683772E-12  0.17120000000E+03  0.17120000000E+03 0.  0.
         13    1    1    2    0    0 -0.28139347576E+03 -0.95281736084E+02  0.80303718476E+03  0.85622989243E+03  0.10566000000E+00 0. -1.
        994    1    1    2    0    0  0.31896334254E+03  0.10826914916E+03  0.58753768037E+03  0.69854834364E+03  0.17120000000E+03 0.  0.
        998    1    1    2    0    0 -0.37569866772E+02 -0.12987413077E+02  0.10942513115E+03  0.11642176393E+03  0.10000000000E-02 0. -1.
</event>
<event>
 5    1  0.7026671E-009  0.3861993E+03  0.7957747E-01  0.3424602E+00
         13   -1    0    0    0    0  0.00000000000E+00  0.00000000000E+00  0.14999999963E+04  0.15000000000E+04  0.10566000000E+00 0. -1.
        994   -1    0    0    0    0 -0.00000000000E+00 -0.00000000000E+00  0.11368683772E-12  0.17120000000E+03  0.17120000000E+03 0.  0.
         13    1    1    2    0    0  0.15241036710E+03  0.11949513318E+03  0.11130418088E+04  0.11297655005E+04  0.10566000000E+00 0. -1.
        994    1    1    2    0    0 -0.17511661338E+03 -0.11954195011E+03  0.16554152855E+03  0.31885661949E+03  0.17120000000E+03 0.  0.
        998    1    1    2    0    0  0.22706246280E+02  0.46816923023E-01  0.22141665897E+03  0.22257788004E+03  0.10000000000E-02 0.  1.
</event>
<event>
 5    1  0.7026671E-009  0.3883003E+03  0.7957747E-01  0.3415795E+00
         13   -1    0    0    0    0  0.00000000000E+00  0.00000000000E+00  0.14999999963E+04  0.15000000000E+04  0.10566000000E+00 0. -1.
        994   -1    0    0    0    0 -0.00000000000E+00 -0.00000000000E+00  0.11368683772E-12  0.17120000000E+03  0.17120000000E+03 0.  0.
         13    1    1    2    0    0 -0.47233662728E+02  0.29922676251E+03  0.10899182856E+04  0.11312336429E+04  0.10566000000E+00 0. -1.
        994    1    1    2    0    0  0.47449134772E+02 -0.30061549734E+03  0.40526510034E+03  0.53494891269E+03  0.17120000000E+03 0.  0.
        998    1    1    2    0    0 -0.21547204414E+00  0.13887348335E+01  0.48166103094E+01  0.50174444205E+01  0.10000000000E-02 0. -1.
</event>
<event>
 5    1  0.7026671E-009  0.3883009E+03  0.7957747E-01  0.3415792E+00
         13   -1    0    0    0    0  0.00000000000E+00  0.00000000000E+00  0.14999999963E+04  0.15000000000E+04  0.10566000000E+00 0. -1.
        994   -1    0    0    0    0 -0.00000000000E+00 -0.00000000000E+00  0.11368683772E-12  0.17120000000E+03  0.17120000000E+03 0.  0.
         13    1    1    2    0    0  0.22409010249E+03  0.11401856696E+02  0.13113054844E+04  0.13303640332E+04  0.10566000000E+00 0. -1.
        994    1    1    2    0    0 -0.22448882523E+03 -0.11433335827E+02  0.18637778163E+03  0.33848496467E+03  0.17120000000E+03 0.  0.
        998    1    1    2    0    0  0.39872273796E+00  0.31479130811E-01  0.23167302567E+01  0.23510020927E+01  0.10000000000E-02 0. -1.
</event>
<event>
 5    1  0.7026671E-009  0.3883005E+03  0.7957747E-01  0.3415794E+00
         13   -1    0    0    0    0  0.00000000000E+00  0.00000000000E+00  0.14999999963E+04  0.15000000000E+04  0.10566000000E+00 0.  1.
        994   -1    0    0    0    0 -0.00000000000E+00 -0.00000000000E+00  0.11368683772E-12  0.17120000000E+03  0.17120000000E+03 0.  0.
         13    1    1    2    0    0 -0.22855168687E+03 -0.25187578068E+01  0.13054504713E+04  0.13253087043E+04  0.10566000000E+00 0.  1.
        994    1    1    2    0    0  0.22866558262E+03  0.25341663611E+01  0.19395532767E+03  0.34528608400E+03  0.17120000000E+03 0.  0.
        998    1    1    2    0    0 -0.11389575059E+00 -0.15408554287E-01  0.59419735534E+00  0.60521166763E+00  0.10000000000E-02 0.  1.
</event>
<event>
 5    1  0.7026671E-009  0.3882984E+03  0.7957747E-01  0.3415803E+00
         13   -1    0    0    0    0  0.00000000000E+00  0.00000000000E+00  0.14999999963E+04  0.15000000000E+04  0.10566000000E+00 0.  1.
        994   -1    0    0    0    0 -0.00000000000E+00 -0.00000000000E+00  0.11368683772E-12  0.17120000000E+03  0.17120000000E+03 0.  0.
         13    1    1    2    0    0 -0.20995454868E+02 -0.15830164219E+03  0.73345150733E+03  0.75063396127E+03  0.10566000000E+00 0.  1.
        994    1    1    2    0    0  0.33416934424E+02  0.26331819345E+03  0.27820661456E+03  0.42090559855E+03  0.17120000000E+03 0.  0.
        998    1    1    2    0    0 -0.12421479556E+02 -0.10501655126E+03  0.48834187439E+03  0.49966044017E+03  0.10000000000E-02 0.  1.
</event>
<event>
 5    1  0.7026671E-009  0.3834632E+03  0.7957747E-01  0.3436216E+00
         13   -1    0    0    0    0  0.00000000000E+00  0.00000000000E+00  0.14999999963E+04  0.15000000000E+04  0.10566000000E+00 0.  1.
        994   -1    0    0    0    0 -0.00000000000E+00 -0.00000000000E+00  0.11368683772E-12  0.17120000000E+03  0.17120000000E+03 0.  0.
         13    1    1    2    0    0  0.29590933281E+03  0.65780238994E+02  0.10505436639E+04  0.10934035733E+04  0.10566000000E+00 0.  1.
        994    1    1    2    0    0 -0.29766064094E+03 -0.75761775860E+02  0.42696677257E+03  0.55312907059E+03  0.17120000000E+03 0.  0.
        998    1    1    2    0    0  0.17513081268E+01  0.99815368657E+01  0.22489559770E+02  0.24667356121E+02  0.10000000000E-02 0. -1.
</event>
<event>
 5    1  0.7026671E-009  0.3882423E+03  0.7957747E-01  0.3416036E+00
         13   -1    0    0    0    0  0.00000000000E+00  0.00000000000E+00  0.14999999963E+04  0.15000000000E+04  0.10566000000E+00 0.  1.
        994   -1    0    0    0    0 -0.00000000000E+00 -0.00000000000E+00  0.11368683772E-12  0.17120000000E+03  0.17120000000E+03 0.  0.
         13    1    1    2    0    0  0.27656321256E+02  0.17665515370E+03  0.90453122679E+03  0.92203506811E+03  0.10566000000E+00 0.  1.
        994    1    1    2    0    0 -0.37899955720E+02 -0.24229844055E+03  0.22891355935E+03  0.37663748963E+03  0.17120000000E+03 0.  0.
        998    1    1    2    0    0  0.10243634465E+02  0.65643286853E+02  0.36655521014E+03  0.37252744226E+03  0.10000000000E-02 0. -1.
</event>
<event>
 5    1  0.7026671E-009  0.3873607E+03  0.7957747E-01  0.3419722E+00
         13   -1    0    0    0    0  0.00000000000E+00  0.00000000000E+00  0.14999999963E+04  0.15000000000E+04  0.10566000000E+00 0.  1.
        994   -1    0    0    0    0 -0.00000000000E+00 -0.00000000000E+00  0.11368683772E-12  0.17120000000E+03  0.17120000000E+03 0.  0.
         13    1    1    2    0    0 -0.14311837198E+03  0.16874727278E+03  0.11692819199E+04  0.11900330793E+04  0.10566000000E+00 0.  1.
        994    1    1    2    0    0  0.16076147344E+03 -0.17438022457E+03  0.21260775310E+03  0.36161334425E+03  0.17120000000E+03 0.  0.
        998    1    1    2    0    0 -0.17643101458E+02  0.56329517845E+01  0.11811032326E+03  0.11955357643E+03  0.10000000000E-02 0.  1.
</event>
<event>
 5    1  0.7026671E-009  0.3882963E+03  0.7957747E-01  0.3415811E+00
         13   -1    0    0    0    0  0.00000000000E+00  0.00000000000E+00  0.14999999963E+04  0.15000000000E+04  0.10566000000E+00 0. -1.
        994   -1    0    0    0    0 -0.00000000000E+00 -0.00000000000E+00  0.11368683772E-12  0.17120000000E+03  0.17120000000E+03 0.  0.
         13    1    1    2    0    0  0.23423551029E+03  0.34235170439E+02  0.12429444106E+04  0.12652861891E+04  0.10566000000E+00 0. -1.
        994    1    1    2    0    0 -0.24051037224E+03 -0.35565262068E+02  0.22411218108E+03  0.37235176477E+03  0.17120000000E+03 0.  0.
        998    1    1    2    0    0  0.62748619590E+01  0.13300916287E+01  0.32943404591E+02  0.33562046174E+02  0.10000000000E-02 0.  1.
</event>
<event>
 5    1  0.7026671E-009  0.3883003E+03  0.7957747E-01  0.3415795E+00
         13   -1    0    0    0    0  0.00000000000E+00  0.00000000000E+00  0.14999999963E+04  0.15000000000E+04  0.10566000000E+00 0.  1.
        994   -1    0    0    0    0 -0.00000000000E+00 -0.00000000000E+00  0.11368683772E-12  0.17120000000E+03  0.17120000000E+03 0.  0.
         13    1    1    2    0    0 -0.15037582500E+03  0.26581915936E+03  0.10889954423E+04  0.11310100790E+04  0.10566000000E+00 0.  1.
        994    1    1    2    0    0  0.15047307629E+03 -0.26595733093E+03  0.41033555127E+03  0.53949991029E+03  0.17120000000E+03 0.  0.
        998    1    1    2    0    0 -0.97251283622E-01  0.13817157040E+00  0.66900266526E+00  0.69001069641E+00  0.10000000000E-02 0. -1.
</event>
<event>
 5    1  0.7026671E-009  0.3882996E+03  0.7957747E-01  0.3415798E+00
         13   -1    0    0    0    0  0.00000000000E+00  0.00000000000E+00  0.14999999963E+04  0.15000000000E+04  0.10566000000E+00 0.  1.
        994   -1    0    0    0    0 -0.00000000000E+00 -0.00000000000E+00  0.11368683772E-12  0.17120000000E+03  0.17120000000E+03 0.  0.
         13    1    1    2    0    0 -0.10214696715E+02 -0.11713198636E+03  0.62625042465E+03  0.63719215924E+03  0.10566000000E+00 0.  1.
        994    1    1    2    0    0  0.20710192441E+02  0.24073213637E+03  0.22080507000E+03  0.36938488395E+03  0.17120000000E+03 0.  0.
        998    1    1    2    0    0 -0.10495495726E+02 -0.12360015001E+03  0.65294450163E+03  0.66462295681E+03  0.10000000000E-02 0.  1.
</event>
<event>
 5    1  0.7026671E-009  0.3883010E+03  0.7957747E-01  0.3415792E+00
         13   -1    0    0    0    0  0.00000000000E+00  0.00000000000E+00  0.14999999963E+04  0.15000000000E+04  0.10566000000E+00 0.  1.
        994   -1    0    0    0    0 -0.00000000000E+00 -0.00000000000E+00  0.11368683772E-12  0.17120000000E+03  0.17120000000E+03 0.  0.
         13    1    1    2    0    0 -0.23819332249E+03 -0.38123610915E+02  0.12668849515E+04  0.12896460600E+04  0.10566000000E+00 0.  1.
        994    1    1    2    0    0  0.23994845036E+03  0.38410254500E+02  0.22383499713E+03  0.37210502875E+03  0.17120000000E+03 0.  0.
        998    1    1    2    0    0 -0.17551278635E+01 -0.28664358491E+00  0.92800476111E+01  0.94489112085E+01  0.10000000000E-02 0.  1.
</event>
<event>
 5    1  0.7026671E-009  0.3843701E+03  0.7957747E-01  0.3432348E+00
         13   -1    0    0    0    0  0.00000000000E+00  0.00000000000E+00  0.14999999963E+04  0.15000000000E+04  0.10566000000E+00 0. -1.
        994   -1    0    0    0    0 -0.00000000000E+00 -0.00000000000E+00  0.11368683772E-12  0.17120000000E+03  0.17120000000E+03 0.  0.
         13    1    1    2    0    0 -0.24441232457E+03 -0.97613934508E+02  0.34612837338E+03  0.43482263814E+03  0.10566000000E+00 0. -1.
        994    1    1    2    0    0  0.30212357727E+03  0.13761963488E+03  0.98803805210E+03  0.10562890003E+04  0.17120000000E+03 0.  0.
        998    1    1    2    0    0 -0.57711252702E+02 -0.40005700368E+02  0.16583357080E+03  0.18008836152E+03  0.10000000000E-02 0. -1.
</event>
<event>
 5    1  0.7026671E-009  0.3861157E+03  0.7957747E-01  0.3424954E+00
         13   -1    0    0    0    0  0.00000000000E+00  0.00000000000E+00  0.14999999963E+04  0.15000000000E+04  0.10566000000E+00 0.  1.
        994   -1    0    0    0    0 -0.00000000000E+00 -0.00000000000E+00  0.11368683772E-12  0.17120000000E+03  0.17120000000E+03 0.  0.
         13    1    1    2    0    0 -0.18237401111E+03  0.12708762844E+03  0.93908346320E+03  0.96503331924E+03  0.10566000000E+00 0.  1.
        994    1    1    2    0    0  0.21435787937E+03 -0.18336854296E+03  0.33127088868E+03  0.46757156102E+03  0.17120000000E+03 0.  0.
        998    1    1    2    0    0 -0.31983868258E+02  0.56280914519E+02  0.22964564440E+03  0.23859511974E+03  0.10000000000E-02 0. -1.
</event>
<event>
 5    1  0.7026671E-009  0.3882990E+03  0.7957747E-01  0.3415800E+00
         13   -1    0    0    0    0  0.00000000000E+00  0.00000000000E+00  0.14999999963E+04  0.15000000000E+04  0.10566000000E+00 0.  1.
        994   -1    0    0    0    0 -0.00000000000E+00 -0.00000000000E+00  0.11368683772E-12  0.17120000000E+03  0.17120000000E+03 0.  0.
         13    1    1    2    0    0 -0.97622445102E+02 -0.21651811652E+03  0.12124193678E+04  0.12354638689E+04  0.10566000000E+00 0.  1.
        994    1    1    2    0    0  0.10193817284E+03  0.22567942767E+03  0.23424671544E+03  0.38144928739E+03  0.17120000000E+03 0.  0.
        998    1    1    2    0    0 -0.43157277387E+01 -0.91613111505E+01  0.53333912994E+02  0.54286843749E+02  0.10000000000E-02 0.  1.
</event>
<event>
 5    1  0.7026671E-009  0.3883010E+03  0.7957747E-01  0.3415792E+00
         13   -1    0    0    0    0  0.00000000000E+00  0.00000000000E+00  0.14999999963E+04  0.15000000000E+04  0.10566000000E+00 0. -1.
        994   -1    0    0    0    0 -0.00000000000E+00 -0.00000000000E+00  0.11368683772E-12  0.17120000000E+03  0.17120000000E+03 0.  0.
         13    1    1    2    0    0  0.84815906095E+01  0.27815527031E+03  0.11829415611E+04  0.12152337388E+04  0.10566000000E+00 0. -1.
        994    1    1    2    0    0 -0.84892171827E+01 -0.27849381796E+03  0.31560620226E+03  0.45447506902E+03  0.17120000000E+03 0.  0.
        998    1    1    2    0    0  0.76265731901E-02  0.33854764824E+00  0.14522329018E+01  0.14911921660E+01  0.10000000000E-02 0.  1.
</event>
<event>
 5    1  0.7026671E-009  0.3882991E+03  0.7957747E-01  0.3415800E+00
         13   -1    0    0    0    0  0.00000000000E+00  0.00000000000E+00  0.14999999963E+04  0.15000000000E+04  0.10566000000E+00 0. -1.
        994   -1    0    0    0    0 -0.00000000000E+00 -0.00000000000E+00  0.11368683772E-12  0.17120000000E+03  0.17120000000E+03 0.  0.
         13    1    1    2    0    0  0.23203310886E+03  0.13273315097E+03  0.12083761846E+04  0.12375905897E+04  0.10566000000E+00 0. -1.
        994    1    1    2    0    0 -0.23300531108E+03 -0.13322829326E+03  0.28624218295E+03  0.42811830190E+03  0.17120000000E+03 0.  0.
        998    1    1    2    0    0  0.97220221521E+00  0.49514229416E+00  0.53816287485E+01  0.54911084515E+01  0.10000000000E-02 0. -1.
</event>
<event>
 5    1  0.7026671E-009  0.3883008E+03  0.7957747E-01  0.3415793E+00
         13   -1    0    0    0    0  0.00000000000E+00  0.00000000000E+00  0.14999999963E+04  0.15000000000E+04  0.10566000000E+00 0.  1.
        994   -1    0    0    0    0 -0.00000000000E+00 -0.00000000000E+00  0.11368683772E-12  0.17120000000E+03  0.17120000000E+03 0.  0.
         13    1    1    2    0    0 -0.14461440384E+03 -0.14438034240E+03  0.11925016012E+04  0.12098839155E+04  0.10566000000E+00 0.  1.
        994    1    1    2    0    0  0.15917519768E+03  0.15912227567E+03  0.18693462242E+03  0.33898471239E+03  0.17120000000E+03 0.  0.
        998    1    1    2    0    0 -0.14560793844E+02 -0.14741933269E+02  0.12056377270E+03  0.12233137211E+03  0.10000000000E-02 0.  1.
</event>
<event>
 5    1  0.7026671E-009  0.3883009E+03  0.7957747E-01  0.3415792E+00
         13   -1    0    0    0    0  0.00000000000E+00  0.00000000000E+00  0.14999999963E+04  0.15000000000E+04  0.10566000000E+00 0. -1.
        994   -1    0    0    0    0 -0.00000000000E+00 -0.00000000000E+00  0.11368683772E-12  0.17120000000E+03  0.17120000000E+03 0.  0.
         13    1    1    2    0    0  0.13730259679E+03  0.18552045029E+03  0.12141586564E+04  0.12359009243E+04  0.10566000000E+00 0. -1.
        994    1    1    2    0    0 -0.14432162191E+03 -0.19513800031E+03  0.22318619583E+03  0.37152266112E+03  0.17120000000E+03 0.  0.
        998    1    1    2    0    0  0.70190251161E+01  0.96175500257E+01  0.62655144031E+02  0.63776414580E+02  0.10000000000E-02 0.  1.
</event>
<event>
 5    1  0.7026671E-009  0.3883009E+03  0.7957747E-01  0.3415792E+00
         13   -1    0    0    0    0  0.00000000000E+00  0.00000000000E+00  0.14999999963E+04  0.15000000000E+04  0.10566000000E+00 0.  1.
        994   -1    0    0    0    0 -0.00000000000E+00 -0.00000000000E+00  0.11368683772E-12  0.17120000000E+03  0.17120000000E+03 0.  0.
         13    1    1    2    0    0 -0.18723906866E+03 -0.27055182973E+03  0.96144274614E+03  0.10161835103E+04  0.10566000000E+00 0.  1.
        994    1    1    2    0    0  0.18775891411E+03  0.27130546729E+03  0.53581274119E+03  0.65212330125E+03  0.17120000000E+03 0.  0.
        998    1    1    2    0    0 -0.51984544625E+00 -0.75363755720E+00  0.27445089468E+01  0.28931884167E+01  0.10000000000E-02 0.  1.
</event>
<event>
 5    1  0.7026671E-009  0.3879480E+03  0.7957747E-01  0.3417265E+00
         13   -1    0    0    0    0  0.00000000000E+00  0.00000000000E+00  0.14999999963E+04  0.15000000000E+04  0.10566000000E+00 0. -1.
        994   -1    0    0    0    0 -0.00000000000E+00 -0.00000000000E+00  0.11368683772E-12  0.17120000000E+03  0.17120000000E+03 0.  0.
         13    1    1    2    0    0  0.24900900408E+03 -0.35384589744E+01  0.12522055291E+04  0.12767289074E+04  0.10566000000E+00 0. -1.
        994    1    1    2    0    0 -0.25126908450E+03  0.39836832808E+01  0.24333821464E+03  0.38945468191E+03  0.17120000000E+03 0.  0.
        998    1    1    2    0    0  0.22600804161E+01 -0.44522430644E+00  0.44562525434E+01  0.50164106592E+01  0.10000000000E-02 0.  1.
</event>
<event>
 5    1  0.7026671E-009  0.3883010E+03  0.7957747E-01  0.3415792E+00
         13   -1    0    0    0    0  0.00000000000E+00  0.00000000000E+00  0.14999999963E+04  0.15000000000E+04  0.10566000000E+00 0.  1.
        994   -1    0    0    0    0 -0.00000000000E+00 -0.00000000000E+00  0.11368683772E-12  0.17120000000E+03  0.17120000000E+03 0.  0.
         13    1    1    2    0    0  0.22769896845E+03 -0.20613853834E+03  0.98436635371E+03  0.10311726561E+04  0.10566000000E+00 0.  1.
        994    1    1    2    0    0 -0.23696525660E+03  0.21453560049E+03  0.47547346231E+03  0.59796530842E+03  0.17120000000E+03 0.  0.
        998    1    1    2    0    0  0.92662881422E+01 -0.83970621476E+01  0.40160180250E+02  0.42062035464E+02  0.10000000000E-02 0. -1.
</event>
<event>
 5    1  0.7026671E-009  0.3883009E+03  0.7957747E-01  0.3415792E+00
         13   -1    0    0    0    0  0.00000000000E+00  0.00000000000E+00  0.14999999963E+04  0.15000000000E+04  0.10566000000E+00 0. -1.
        994   -1    0    0    0    0 -0.00000000000E+00 -0.00000000000E+00  0.11368683772E-12  0.17120000000E+03  0.17120000000E+03 0.  0.
         13    1    1    2    0    0  0.56751716159E+02  0.24969606990E+03  0.12454135174E+04  0.12714651883E+04  0.10566000000E+00 0. -1.
        994    1    1    2    0    0 -0.56763843889E+02 -0.24974021053E+03  0.25435094469E+03  0.39949486829E+03  0.17120000000E+03 0.  0.
        998    1    1    2    0    0  0.12127729351E-01  0.44140630989E-01  0.23553422444E+00  0.23994342668E+00  0.10000000000E-02 0. -1.
</event>
<event>
 5    1  0.7026671E-009  0.3883010E+03  0.7957747E-01  0.3415792E+00
         13   -1    0    0    0    0  0.00000000000E+00  0.00000000000E+00  0.14999999963E+04  0.15000000000E+04  0.10566000000E+00 0.  1.
        994   -1    0    0    0    0 -0.00000000000E+00 -0.00000000000E+00  0.11368683772E-12  0.17120000000E+03  0.17120000000E+03 0.  0.
         13    1    1    2    0    0 -0.52156792835E+02  0.33457712597E+03  0.84599569932E+03  0.91124690325E+03  0.10566000000E+00 0.  1.
        994    1    1    2    0    0  0.52744710553E+02 -0.33842069064E+03  0.64424223983E+03  0.74944517606E+03  0.17120000000E+03 0.  0.
        998    1    1    2    0    0 -0.58791771829E+00  0.38435646702E+01  0.97620571317E+01  0.10507920682E+02  0.10000000000E-02 0.  1.
</event>
<event>
 5    1  0.7026671E-009  0.3883010E+03  0.7957747E-01  0.3415792E+00
         13   -1    0    0    0    0  0.00000000000E+00  0.00000000000E+00  0.14999999963E+04  0.15000000000E+04  0.10566000000E+00 0. -1.
        994   -1    0    0    0    0 -0.00000000000E+00 -0.00000000000E+00  0.11368683772E-12  0.17120000000E+03  0.17120000000E+03 0.  0.
         13    1    1    2    0    0  0.92206325286E+02 -0.22197949131E+03  0.12808365043E+04  0.13031957117E+04  0.10566000000E+00 0. -1.
        994    1    1    2    0    0 -0.92263596250E+02  0.22211348543E+03  0.21839751219E+03  0.36722457016E+03  0.17120000000E+03 0.  0.
        998    1    1    2    0    0  0.57270964363E-01 -0.13399411702E+00  0.76597976657E+00  0.77971814751E+00  0.10000000000E-02 0. -1.
</event>
<event>
 5    1  0.7026671E-009  0.3883009E+03  0.7957747E-01  0.3415792E+00
         13   -1    0    0    0    0  0.00000000000E+00  0.00000000000E+00  0.14999999963E+04  0.15000000000E+04  0.10566000000E+00 0.  1.
        994   -1    0    0    0    0 -0.00000000000E+00 -0.00000000000E+00  0.11368683772E-12  0.17120000000E+03  0.17120000000E+03 0.  0.
         13    1    1    2    0    0 -0.19741904877E+03 -0.15941964238E+03  0.12181836631E+04  0.12443312869E+04  0.10566000000E+00 0.  1.
        994    1    1    2    0    0  0.20097251316E+03  0.16225539998E+03  0.25977314705E+03  0.40436158793E+03  0.17120000000E+03 0.  0.
        998    1    1    2    0    0 -0.35534643966E+01 -0.28357576007E+01  0.22043186085E+02  0.22507125186E+02  0.10000000000E-02 0. -1.
</event>
<event>
 5    1  0.7026671E-009  0.3883010E+03  0.7957747E-01  0.3415792E+00
         13   -1    0    0    0    0  0.00000000000E+00  0.00000000000E+00  0.14999999963E+04  0.15000000000E+04  0.10566000000E+00 0. -1.
        994   -1    0    0    0    0 -0.00000000000E+00 -0.00000000000E+00  0.11368683772E-12  0.17120000000E+03  0.17120000000E+03 0.  0.
         13    1    1    2    0    0 -0.20441389794E+03  0.11262674518E+03  0.12938305545E+04  0.13147118849E+04  0.10566000000E+00 0. -1.
        994    1    1    2    0    0  0.20473218444E+03 -0.11280097965E+03  0.20415302974E+03  0.35443931485E+03  0.17120000000E+03 0.  0.
        998    1    1    2    0    0 -0.31828650496E+00  0.17423446350E+00  0.20164120119E+01  0.20488002219E+01  0.10000000000E-02 0.  1.
</event>
<event>
 5    1  0.7026671E-009  0.3883010E+03  0.7957747E-01  0.3415792E+00
         13   -1    0    0    0    0  0.00000000000E+00  0.00000000000E+00  0.14999999963E+04  0.15000000000E+04  0.10566000000E+00 0.  1.
        994   -1    0    0    0    0 -0.00000000000E+00 -0.00000000000E+00  0.11368683772E-12  0.17120000000E+03  0.17120000000E+03 0.  0.
         13    1    1    2    0    0  0.23961440899E+03  0.15306827338E+03  0.11480995708E+04  0.11827838336E+04  0.10566000000E+00 0.  1.
        994    1    1    2    0    0 -0.24176489215E+03 -0.15443821373E+03  0.34161617323E+03  0.47782054659E+03  0.17120000000E+03 0.  0.
        998    1    1    2    0    0  0.21504831635E+01  0.13699403470E+01  0.10284252261E+02  0.10595619847E+02  0.10000000000E-02 0.  1.
</event>
<event>
 5    1  0.7026671E-009  0.3883009E+03  0.7957747E-01  0.3415792E+00
         13   -1    0    0    0    0  0.00000000000E+00  0.00000000000E+00  0.14999999963E+04  0.15000000000E+04  0.10566000000E+00 0.  1.
        994   -1    0    0    0    0 -0.00000000000E+00 -0.00000000000E+00  0.11368683772E-12  0.17120000000E+03  0.17120000000E+03 0.  0.
         13    1    1    2    0    0 -0.61004294870E+02  0.25679988154E+03  0.11756463961E+04  0.12049116826E+04  0.10566000000E+00 0.  1.
        994    1    1    2    0    0  0.62566419954E+02 -0.26359426531E+03  0.29319975022E+03  0.43436393398E+03  0.17120000000E+03 0.  0.
        998    1    1    2    0    0 -0.15621250833E+01  0.67943837735E+01  0.31153849976E+02  0.31924383393E+02  0.10000000000E-02 0.  1.
</event>
<event>
 5    1  0.7026671E-009  0.3883010E+03  0.7957747E-01  0.3415792E+00
         13   -1    0    0    0    0  0.00000000000E+00  0.00000000000E+00  0.14999999963E+04  0.15000000000E+04  0.10566000000E+00 0.  1.
        994   -1    0    0    0    0 -0.00000000000E+00 -0.00000000000E+00  0.11368683772E-12  0.17120000000E+03  0.17120000000E+03 0.  0.
         13    1    1    2    0    0  0.16854061331E+03  0.20580301512E+03  0.12105842673E+04  0.12394656505E+04  0.10566000000E+00 0.  1.
        994    1    1    2    0    0 -0.16937980327E+03 -0.20683064028E+03  0.28332501048E+03  0.42550080267E+03  0.17120000000E+03 0.  0.
        998    1    1    2    0    0  0.83918995224E+00  0.10276251596E+01  0.60907184550E+01  0.62335467867E+01  0.10000000000E-02 0. -1.
</event>
<event>
 5    1  0.7026671E-009  0.3882997E+03  0.7957747E-01  0.3415797E+00
         13   -1    0    0    0    0  0.00000000000E+00  0.00000000000E+00  0.14999999963E+04  0.15000000000E+04  0.10566000000E+00 0. -1.
        994   -1    0    0    0    0 -0.00000000000E+00 -0.00000000000E+00  0.11368683772E-12  0.17120000000E+03  0.17120000000E+03 0.  0.
         13    1    1    2    0    0  0.81033082229E+02  0.25760780410E+03  0.12009484959E+04  0.12309368149E+04  0.10566000000E+00 0. -1.
        994    1    1    2    0    0 -0.81425796237E+02 -0.25873313336E+03  0.29411587686E+03  0.43518568866E+03  0.17120000000E+03 0.  0.
        998    1    1    2    0    0  0.39271400817E+00  0.11253292627E+01  0.49356234707E+01  0.50774964585E+01  0.10000000000E-02 0. -1.
</event>
<event>
 5    1  0.7026671E-009  0.3883002E+03  0.7957747E-01  0.3415795E+00
         13   -1    0    0    0    0  0.00000000000E+00  0.00000000000E+00  0.14999999963E+04  0.15000000000E+04  0.10566000000E+00 0.  1.
        994   -1    0    0    0    0 -0.00000000000E+00 -0.00000000000E+00  0.11368683772E-12  0.17120000000E+03  0.17120000000E+03 0.  0.
         13    1    1    2    0    0 -0.12334468299E+03 -0.17971660843E+03  0.12915505015E+04  0.13098147500E+04  0.10566000000E+00 0.  1.
        994    1    1    2    0    0  0.12590884850E+03  0.18351966147E+03  0.18216351397E+03  0.33470209157E+03  0.17120000000E+03 0.  0.
        998    1    1    2    0    0 -0.25641655104E+01 -0.38030530442E+01  0.26285980817E+02  0.26683158467E+02  0.10000000000E-02 0.  1.
</event>
<event>
 5    1  0.7026671E-009  0.3882551E+03  0.7957747E-01  0.3415983E+00
         13   -1    0    0    0    0  0.00000000000E+00  0.00000000000E+00  0.14999999963E+04  0.15000000000E+04  0.10566000000E+00 0.  1.
        994   -1    0    0    0    0 -0.00000000000E+00 -0.00000000000E+00  0.11368683772E-12  0.17120000000E+03  0.17120000000E+03 0.  0.
         13    1    1    2    0    0 -0.71154136903E+02  0.20963731481E+03  0.12763533907E+04  0.12954106315E+04  0.10566000000E+00 0.  1.
        994    1    1    2    0    0  0.73744268214E+02 -0.21407203162E+03  0.18959203166E+03  0.34134971845E+03  0.17120000000E+03 0.  0.
        998    1    1    2    0    0 -0.25901313110E+01  0.44347168071E+01  0.34054573896E+02  0.34439650080E+02  0.10000000000E-02 0.  1.
</event>
<event>
 5    1  0.7026671E-009  0.3883006E+03  0.7957747E-01  0.3415793E+00
         13   -1    0    0    0    0  0.00000000000E+00  0.00000000000E+00  0.14999999963E+04  0.15000000000E+04  0.10566000000E+00 0.  1.
        994   -1    0    0    0    0 -0.00000000000E+00 -0.00000000000E+00  0.11368683772E-12  0.17120000000E+03  0.17120000000E+03 0.  0.
         13    1    1    2    0    0  0.21323630412E+03 -0.39420093834E+02  0.12081504974E+04  0.12274572500E+04  0.10566000000E+00 0.  1.
        994    1    1    2    0    0 -0.22887926602E+03  0.42386352038E+02  0.20215207244E+03  0.35264319311E+03  0.17120000000E+03 0.  0.
        998    1    1    2    0    0  0.15642961896E+02 -0.29662582032E+01  0.89697426455E+02  0.91099556850E+02  0.10000000000E-02 0. -1.
</event>
<event>
 5    1  0.7026671E-009  0.3881041E+03  0.7957747E-01  0.3416613E+00
         13   -1    0    0    0    0  0.00000000000E+00  0.00000000000E+00  0.14999999963E+04  0.15000000000E+04  0.10566000000E+00 0.  1.
        994   -1    0    0    0    0 -0.00000000000E+00 -0.00000000000E+00  0.11368683772E-12  0.17120000000E+03  0.17120000000E+03 0.  0.
         13    1    1    2    0    0 -0.21516037295E+03  0.24989704391E+03  0.83288181426E+03  0.89578716576E+03  0.10566000000E+00 0.  1.
        994    1    1    2    0    0  0.22060434405E+03 -0.26040477851E+03  0.63232156622E+03  0.73865887146E+03  0.17120000000E+03 0.  0.
        998    1    1    2    0    0 -0.54439711015E+01  0.10507734604E+02  0.34796615799E+02  0.36753962779E+02  0.10000000000E-02 0. -1.
</event>
<event>
 5    1  0.7026671E-009  0.3883010E+03  0.7957747E-01  0.3415792E+00
         13   -1    0    0    0    0  0.00000000000E+00  0.00000000000E+00  0.14999999963E+04  0.15000000000E+04  0.10566000000E+00 0. -1.
        994   -1    0    0    0    0 -0.00000000000E+00 -0.00000000000E+00  0.11368683772E-12  0.17120000000E+03  0.17120000000E+03 0.  0.
         13    1    1    2    0    0 -0.20042686187E+03 -0.92761474510E+02  0.13173037494E+04  0.13356888850E+04  0.10566000000E+00 0. -1.
        994    1    1    2    0    0  0.20085316735E+03  0.92960429429E+02  0.17984621138E+03  0.33262251280E+03  0.17120000000E+03 0.  0.
        998    1    1    2    0    0 -0.42630548004E+00 -0.19895491911E+00  0.28500354846E+01  0.28886022027E+01  0.10000000000E-02 0.  0.
</event>
<event>
 5    1  0.7026671E-009  0.3883008E+03  0.7957747E-01  0.3415793E+00
         13   -1    0    0    0    0  0.00000000000E+00  0.00000000000E+00  0.14999999963E+04  0.15000000000E+04  0.10566000000E+00 0.  1.
        994   -1    0    0    0    0 -0.00000000000E+00 -0.00000000000E+00  0.11368683772E-12  0.17120000000E+03  0.17120000000E+03 0.  0.
         13    1    1    2    0    0  0.19665714560E+03 -0.16009634322E+03  0.12509974263E+04  0.12764401450E+04  0.10566000000E+00 0.  1.
        994    1    1    2    0    0 -0.19673571059E+03  0.16015793150E+03  0.24845005320E+03  0.39419839139E+03  0.17120000000E+03 0.  0.
        998    1    1    2    0    0  0.78564985447E-01 -0.61588281094E-01  0.55251676886E+00  0.56146358134E+00  0.10000000000E-02 0.  1.
</event>
<event>
 5    1  0.7026671E-009  0.3883010E+03  0.7957747E-01  0.3415792E+00
         13   -1    0    0    0    0  0.00000000000E+00  0.00000000000E+00  0.14999999963E+04  0.15000000000E+04  0.10566000000E+00 0. -1.
        994   -1    0    0    0    0 -0.00000000000E+00 -0.00000000000E+00  0.11368683772E-12  0.17120000000E+03  0.17120000000E+03 0.  0.
         13    1    1    2    0    0 -0.14173670664E+03 -0.19871186797E+03  0.12693462286E+04  0.12926003093E+04  0.10566000000E+00 0. -1.
        994    1    1    2    0    0  0.14208307388E+03  0.19919708229E+03  0.22755331651E+03  0.37544244476E+03  0.17120000000E+03 0.  0.
        998    1    1    2    0    0 -0.34636723373E+00 -0.48521432319E+00  0.31004511786E+01  0.31572459060E+01  0.10000000000E-02 0.  0.
</event>
<event>
 5    1  0.7026671E-009  0.3883000E+03  0.7957747E-01  0.3415796E+00
         13   -1    0    0    0    0  0.00000000000E+00  0.00000000000E+00  0.14999999963E+04  0.15000000000E+04  0.10566000000E+00 0. -1.
        994   -1    0    0    0    0 -0.00000000000E+00 -0.00000000000E+00  0.11368683772E-12  0.17120000000E+03  0.17120000000E+03 0.  0.
         13    1    1    2    0    0 -0.99076520289E+02  0.26850169595E+03  0.11589760146E+04  0.11937900700E+04  0.10566000000E+00 0. -1.
        994    1    1    2    0    0  0.99153999490E+02 -0.26869269072E+03  0.34005023948E+03  0.47641461253E+03  0.17120000000E+03 0.  0.
        998    1    1    2    0    0 -0.77479200854E-01  0.19099477650E+00  0.97374218057E+00  0.99531746967E+00  0.10000000000E-02 0. -1.
</event>
<event>
 5    1  0.7026671E-009  0.3883009E+03  0.7957747E-01  0.3415792E+00
         13   -1    0    0    0    0  0.00000000000E+00  0.00000000000E+00  0.14999999963E+04  0.15000000000E+04  0.10566000000E+00 0. -1.
        994   -1    0    0    0    0 -0.00000000000E+00 -0.00000000000E+00  0.11368683772E-12  0.17120000000E+03  0.17120000000E+03 0.  0.
         13    1    1    2    0    0  0.17120277521E+03 -0.17176934359E+03  0.12749805271E+04  0.12978406887E+04  0.10566000000E+00 0. -1.
        994    1    1    2    0    0 -0.17142761054E+03  0.17197516151E+03  0.22343708226E+03  0.37174783329E+03  0.17120000000E+03 0.  0.
        998    1    1    2    0    0  0.22483532699E+00 -0.20581791961E+00  0.15823869266E+01  0.16114779942E+01  0.10000000000E-02 0. -1.
</event>
<event>
 5    1  0.7026671E-009  0.3882978E+03  0.7957747E-01  0.3415805E+00
         13   -1    0    0    0    0  0.00000000000E+00  0.00000000000E+00  0.14999999963E+04  0.15000000000E+04  0.10566000000E+00 0.  1.
        994   -1    0    0    0    0 -0.00000000000E+00 -0.00000000000E+00  0.11368683772E-12  0.17120000000E+03  0.17120000000E+03 0.  0.
         13    1    1    2    0    0 -0.78638442012E+02 -0.29151441980E+03  0.11040560630E+04  0.11445979481E+04  0.10566000000E+00 0.  1.
        994    1    1    2    0    0  0.78670235242E+02  0.29154617709E+03  0.39582101028E+03  0.52647116869E+03  0.17120000000E+03 0.  0.
        998    1    1    2    0    0 -0.31793230511E-01 -0.31757284126E-01  0.12292304693E+00  0.13088319245E+00  0.10000000000E-02 0. -1.
</event>
<event>
 5    1  0.7026671E-009  0.3883009E+03  0.7957747E-01  0.3415792E+00
         13   -1    0    0    0    0  0.00000000000E+00  0.00000000000E+00  0.14999999963E+04  0.15000000000E+04  0.10566000000E+00 0. -1.
        994   -1    0    0    0    0 -0.00000000000E+00 -0.00000000000E+00  0.11368683772E-12  0.17120000000E+03  0.17120000000E+03 0.  0.
         13    1    1    2    0    0 -0.29804196652E+03  0.29914888131E+02  0.30580571601E+03  0.42806665538E+03  0.10566000000E+00 0. -1.
        994    1    1    2    0    0  0.29818681965E+03 -0.29921952397E+02  0.11940441462E+04  0.12429246018E+04  0.17120000000E+03 0.  0.
        998    1    1    2    0    0 -0.14485313293E+00  0.70642654344E-02  0.15013408976E+00  0.20874285347E+00  0.10000000000E-02 0. -1.
</event>
<event>
 5    1  0.7026671E-009  0.3883010E+03  0.7957747E-01  0.3415792E+00
         13   -1    0    0    0    0  0.00000000000E+00  0.00000000000E+00  0.14999999963E+04  0.15000000000E+04  0.10566000000E+00 0.  1.
        994   -1    0    0    0    0 -0.00000000000E+00 -0.00000000000E+00  0.11368683772E-12  0.17120000000E+03  0.17120000000E+03 0.  0.
         13    1    1    2    0    0 -0.19345870065E+03 -0.11448281426E+03  0.13130530347E+04  0.13321564723E+04  0.10566000000E+00 0.  1.
        994    1    1    2    0    0  0.19351756988E+03  0.11451887619E+03  0.18653813047E+03  0.33862890747E+03  0.17120000000E+03 0.  0.
        998    1    1    2    0    0 -0.58869236680E-01 -0.36061925394E-01  0.40883114470E+00  0.41462025321E+00  0.10000000000E-02 0.  0.
</event>
<event>
 5    1  0.7026671E-009  0.3800368E+03  0.7957747E-01  0.3450998E+00
         13   -1    0    0    0    0  0.00000000000E+00  0.00000000000E+00  0.14999999963E+04  0.15000000000E+04  0.10566000000E+00 0.  1.
        994   -1    0    0    0    0 -0.00000000000E+00 -0.00000000000E+00  0.11368683772E-12  0.17120000000E+03  0.17120000000E+03 0.  0.
         13    1    1    2    0    0  0.28089343589E+03  0.14095947510E+03  0.99275857043E+03  0.10413166119E+04  0.10566000000E+00 0.  1.
        994    1    1    2    0    0 -0.28276158343E+03 -0.14471290095E+03  0.51008773926E+03  0.62481587568E+03  0.17120000000E+03 0.  0.
        998    1    1    2    0    0  0.18681475433E+01  0.37534258491E+01 -0.28463134060E+01  0.50675123930E+01  0.10000000000E-02 0. -1.
</event>
<event>
 5    1  0.7026671E-009  0.3882988E+03  0.7957747E-01  0.3415801E+00
         13   -1    0    0    0    0  0.00000000000E+00  0.00000000000E+00  0.14999999963E+04  0.15000000000E+04  0.10566000000E+00 0. -1.
        994   -1    0    0    0    0 -0.00000000000E+00 -0.00000000000E+00  0.11368683772E-12  0.17120000000E+03  0.17120000000E+03 0.  0.
         13    1    1    2    0    0  0.23344420251E+03 -0.13816491213E+03  0.12039519676E+04  0.12341337407E+04  0.10566000000E+00 0. -1.
        994    1    1    2    0    0 -0.23363122056E+03  0.13828442454E+03  0.29480799693E+03  0.43580652169E+03  0.17120000000E+03 0.  0.
        998    1    1    2    0    0  0.18701805481E+00 -0.11951241343E+00  0.12400317834E+01  0.12597375892E+01  0.10000000000E-02 0. -1.
</event>
<event>
 5    1  0.7026671E-009  0.3883010E+03  0.7957747E-01  0.3415792E+00
         13   -1    0    0    0    0  0.00000000000E+00  0.00000000000E+00  0.14999999963E+04  0.15000000000E+04  0.10566000000E+00 0. -1.
        994   -1    0    0    0    0 -0.00000000000E+00 -0.00000000000E+00  0.11368683772E-12  0.17120000000E+03  0.17120000000E+03 0.  0.
         13    1    1    2    0    0 -0.23004043790E+03  0.10854939592E-02  0.13018057895E+04  0.13219746320E+04  0.10566000000E+00 0. -1.
        994    1    1    2    0    0  0.23023956111E+03  0.37666709471E-02  0.19704959674E+03  0.34806355611E+03  0.17120000000E+03 0.  0.
        998    1    1    2    0    0 -0.19912320620E+00 -0.48521649062E-02  0.11446100594E+01  0.11618118535E+01  0.10000000000E-02 0.  0.
</event>
<event>
 5    1  0.7026671E-009  0.3882347E+03  0.7957747E-01  0.3416068E+00
         13   -1    0    0    0    0  0.00000000000E+00  0.00000000000E+00  0.14999999963E+04  0.15000000000E+04  0.10566000000E+00 0.  1.
        994   -1    0    0    0    0 -0.00000000000E+00 -0.00000000000E+00  0.11368683772E-12  0.17120000000E+03  0.17120000000E+03 0.  0.
         13    1    1    2    0    0  0.14123127714E+03  0.24211097277E+03  0.77868312711E+03  0.82759375324E+03  0.10566000000E+00 0.  1.
        994    1    1    2    0    0 -0.16582296650E+03 -0.28953743253E+03  0.56255250940E+03  0.67609462865E+03  0.17120000000E+03 0.  0.
        998    1    1    2    0    0  0.24591689356E+02  0.47426459758E+02  0.15876435977E+03  0.16751161812E+03  0.10000000000E-02 0.  1.
</event>
<event>
 5    1  0.7026671E-009  0.3881977E+03  0.7957747E-01  0.3416222E+00
         13   -1    0    0    0    0  0.00000000000E+00  0.00000000000E+00  0.14999999963E+04  0.15000000000E+04  0.10566000000E+00 0. -1.
        994   -1    0    0    0    0 -0.00000000000E+00 -0.00000000000E+00  0.11368683772E-12  0.17120000000E+03  0.17120000000E+03 0.  0.
         13    1    1    2    0    0  0.23685548102E+03 -0.14750027168E+03  0.24246883313E+03  0.36965929616E+03  0.10566000000E+00 0. -1.
        994    1    1    2    0    0 -0.23901183331E+03  0.14823042101E+03  0.12567012457E+04  0.12991175371E+04  0.17120000000E+03 0.  0.
        998    1    1    2    0    0  0.21563522905E+01 -0.73014932349E+00  0.82991745030E+00  0.24231667730E+01  0.10000000000E-02 0.  1.
</event>
<event>
 5    1  0.7026671E-009  0.3883010E+03  0.7957747E-01  0.3415792E+00
         13   -1    0    0    0    0  0.00000000000E+00  0.00000000000E+00  0.14999999963E+04  0.15000000000E+04  0.10566000000E+00 0. -1.
        994   -1    0    0    0    0 -0.00000000000E+00 -0.00000000000E+00  0.11368683772E-12  0.17120000000E+03  0.17120000000E+03 0.  0.
         13    1    1    2    0    0 -0.19417800279E+03  0.19917677800E+03  0.10942853697E+04  0.11290867846E+04  0.10566000000E+00 0. -1.
        994    1    1    2    0    0  0.20311224537E+03 -0.20834951433E+03  0.35536556327E+03  0.49016143045E+03  0.17120000000E+03 0.  0.
        998    1    1    2    0    0 -0.89342425817E+01  0.91727363244E+01  0.50349063332E+02  0.51951784970E+02  0.10000000000E-02 0.  1.
</event>
<event>
 5    1  0.7026671E-009  0.3883010E+03  0.7957747E-01  0.3415792E+00
         13   -1    0    0    0    0  0.00000000000E+00  0.00000000000E+00  0.14999999963E+04  0.15000000000E+04  0.10566000000E+00 0.  1.
        994   -1    0    0    0    0 -0.00000000000E+00 -0.00000000000E+00  0.11368683772E-12  0.17120000000E+03  0.17120000000E+03 0.  0.
         13    1    1    2    0    0  0.30140072156E+03 -0.67998484158E+02  0.10694075142E+04  0.11131480725E+04  0.10566000000E+00 0.  1.
        994    1    1    2    0    0 -0.30212957539E+03  0.68155934992E+02  0.42801188131E+03  0.55536575546E+03  0.17120000000E+03 0.  0.
        998    1    1    2    0    0  0.72885382762E+00 -0.15745083311E+00  0.25806008069E+01  0.26861720331E+01  0.10000000000E-02 0. -1.
</event>
<event>
 5    1  0.7026671E-009  0.3883003E+03  0.7957747E-01  0.3415795E+00
         13   -1    0    0    0    0  0.00000000000E+00  0.00000000000E+00  0.14999999963E+04  0.15000000000E+04  0.10566000000E+00 0. -1.
        994   -1    0    0    0    0 -0.00000000000E+00 -0.00000000000E+00  0.11368683772E-12  0.17120000000E+03  0.17120000000E+03 0.  0.
         13    1    1    2    0    0 -0.10390103310E+03  0.20576281964E+03  0.11419311000E+04  0.11649636951E+04  0.10566000000E+00 0. -1.
        994    1    1    2    0    0  0.11404418701E+03 -0.22559042933E+03  0.24627993105E+03  0.39225038283E+03  0.17120000000E+03 0.  0.
        998    1    1    2    0    0 -0.10143153911E+02  0.19827609690E+02  0.11178896525E+03  0.11398592207E+03  0.10000000000E-02 0. -1.
</event>
<event>
 5    1  0.7026671E-009  0.3883009E+03  0.7957747E-01  0.3415792E+00
         13   -1    0    0    0    0  0.00000000000E+00  0.00000000000E+00  0.14999999963E+04  0.15000000000E+04  0.10566000000E+00 0. -1.
        994   -1    0    0    0    0 -0.00000000000E+00 -0.00000000000E+00  0.11368683772E-12  0.17120000000E+03  0.17120000000E+03 0.  0.
         13    1    1    2    0    0  0.46695327873E+02  0.29104343899E+03  0.11307941661E+04  0.11685812741E+04  0.10566000000E+00 0. -1.
        994    1    1    2    0    0 -0.46704125251E+02 -0.29110786135E+03  0.36894281386E+03  0.50234779004E+03  0.17120000000E+03 0.  0.
        998    1    1    2    0    0  0.87973773886E-02  0.64422362597E-01  0.26301633229E+00  0.27093583318E+00  0.10000000000E-02 0. -1.
</event>
<event>
 5    1  0.7026671E-009  0.3882998E+03  0.7957747E-01  0.3415797E+00
         13   -1    0    0    0    0  0.00000000000E+00  0.00000000000E+00  0.14999999963E+04  0.15000000000E+04  0.10566000000E+00 0.  1.
        994   -1    0    0    0    0 -0.00000000000E+00 -0.00000000000E+00  0.11368683772E-12  0.17120000000E+03  0.17120000000E+03 0.  0.
         13    1    1    2    0    0 -0.11686761823E+02 -0.21862275548E+03  0.13238724050E+04  0.13418534367E+04  0.10566000000E+00 0.  1.
        994    1    1    2    0    0  0.11690633619E+02  0.21868961706E+03  0.17555851100E+03  0.32877355476E+03  0.17120000000E+03 0.  0.
        998    1    1    2    0    0 -0.38717963335E-02 -0.66861582978E-01  0.56908028234E+00  0.57300857745E+00  0.10000000000E-02 0.  1.
</event>
<event>
 5    1  0.7026671E-009  0.3876493E+03  0.7957747E-01  0.3418513E+00
         13   -1    0    0    0    0  0.00000000000E+00  0.00000000000E+00  0.14999999963E+04  0.15000000000E+04  0.10566000000E+00 0.  1.
        994   -1    0    0    0    0 -0.00000000000E+00 -0.00000000000E+00  0.11368683772E-12  0.17120000000E+03  0.17120000000E+03 0.  0.
         13    1    1    2    0    0  0.31429585890E+02  0.28730669857E+03  0.10986113305E+04  0.11359928805E+04  0.10566000000E+00 0.  1.
        994    1    1    2    0    0 -0.35453964849E+02 -0.29167757583E+03  0.36708795459E+03  0.50039564174E+03  0.17120000000E+03 0.  0.
        998    1    1    2    0    0  0.40243789583E+01  0.43708772628E+01  0.34300711207E+02  0.34811477768E+02  0.10000000000E-02 0.  1.
</event>
<event>
 5    1  0.7026671E-009  0.3844038E+03  0.7957747E-01  0.3432205E+00
         13   -1    0    0    0    0  0.00000000000E+00  0.00000000000E+00  0.14999999963E+04  0.15000000000E+04  0.10566000000E+00 0.  1.
        994   -1    0    0    0    0 -0.00000000000E+00 -0.00000000000E+00  0.11368683772E-12  0.17120000000E+03  0.17120000000E+03 0.  0.
         13    1    1    2    0    0 -0.22460846228E+03 -0.64530090261E+02  0.11040847731E+04  0.11285460962E+04  0.10566000000E+00 0.  1.
        994    1    1    2    0    0  0.26421148089E+03  0.58990076743E+02  0.30051184419E+03  0.43920877073E+03  0.17120000000E+03 0.  0.
        998    1    1    2    0    0 -0.39603018615E+02  0.55400135188E+01  0.95403378969E+02  0.10344513306E+03  0.10000000000E-02 0.  1.
</event>
<event>
 5    1  0.7026671E-009  0.3883010E+03  0.7957747E-01  0.3415792E+00
         13   -1    0    0    0    0  0.00000000000E+00  0.00000000000E+00  0.14999999963E+04  0.15000000000E+04  0.10566000000E+00 0.  1.
        994   -1    0    0    0    0 -0.00000000000E+00 -0.00000000000E+00  0.11368683772E-12  0.17120000000E+03  0.17120000000E+03 0.  0.
         13    1    1    2    0    0  0.48442419570E+01 -0.24422740030E+03  0.12732106522E+04  0.12964319750E+04  0.10566000000E+00 0.  1.
        994    1    1    2    0    0 -0.48440733254E+01  0.24424619414E+03  0.22669769448E+03  0.37467446281E+03  0.17120000000E+03 0.  0.
        998    1    1    2    0    0 -0.16863159183E-03 -0.18793844813E-01  0.91649620128E-01  0.93562224798E-01  0.10000000000E-02 0.  1.
</event>
<event>
 5    1  0.7026671E-009  0.3883010E+03  0.7957747E-01  0.3415792E+00
         13   -1    0    0    0    0  0.00000000000E+00  0.00000000000E+00  0.14999999963E+04  0.15000000000E+04  0.10566000000E+00 0.  1.
        994   -1    0    0    0    0 -0.00000000000E+00 -0.00000000000E+00  0.11368683772E-12  0.17120000000E+03  0.17120000000E+03 0.  0.
         13    1    1    2    0    0  0.38410693588E+02 -0.22311692609E+03  0.13103378033E+04  0.13297525010E+04  0.10566000000E+00 0.  1.
        994    1    1    2    0    0 -0.38413544028E+02  0.22313851978E+03  0.18953864890E+03  0.34132204558E+03  0.17120000000E+03 0.  0.
        998    1    1    2    0    0  0.28504399085E-02 -0.21593687035E-01  0.12354409036E+00  0.12545339609E+00  0.10000000000E-02 0.  0.
</event>
<event>
 5    1  0.7026671E-009  0.3883008E+03  0.7957747E-01  0.3415793E+00
         13   -1    0    0    0    0  0.00000000000E+00  0.00000000000E+00  0.14999999963E+04  0.15000000000E+04  0.10566000000E+00 0. -1.
        994   -1    0    0    0    0 -0.00000000000E+00 -0.00000000000E+00  0.11368683772E-12  0.17120000000E+03  0.17120000000E+03 0.  0.
         13    1    1    2    0    0  0.11279062969E+03 -0.12697815798E+03  0.10062111722E+04  0.10204440764E+04  0.10566000000E+00 0. -1.
        994    1    1    2    0    0 -0.14753704997E+03  0.16622104710E+03  0.18158847814E+03  0.33418622504E+03  0.17120000000E+03 0.  0.
        998    1    1    2    0    0  0.34746420280E+02 -0.39242889118E+02  0.31220034592E+03  0.31656969859E+03  0.10000000000E-02 0.  1.
</event>
<event>
 5    1  0.7026671E-009  0.3874706E+03  0.7957747E-01  0.3419261E+00
         13   -1    0    0    0    0  0.00000000000E+00  0.00000000000E+00  0.14999999963E+04  0.15000000000E+04  0.10566000000E+00 0.  1.
        994   -1    0    0    0    0 -0.00000000000E+00 -0.00000000000E+00  0.11368683772E-12  0.17120000000E+03  0.17120000000E+03 0.  0.
         13    1    1    2    0    0 -0.10547353681E+03  0.19249598015E+03  0.12088822660E+04  0.12286479209E+04  0.10566000000E+00 0.  1.
        994    1    1    2    0    0  0.10638652884E+03 -0.20153302295E+03  0.19348780631E+03  0.34450054288E+03  0.17120000000E+03 0.  0.
        998    1    1    2    0    0 -0.91299203237E+00  0.90370427968E+01  0.97629923976E+02  0.98051536212E+02  0.10000000000E-02 0. -1.
</event>
<event>
 5    1  0.7026671E-009  0.3883010E+03  0.7957747E-01  0.3415792E+00
         13   -1    0    0    0    0  0.00000000000E+00  0.00000000000E+00  0.14999999963E+04  0.15000000000E+04  0.10566000000E+00 0.  1.
        994   -1    0    0    0    0 -0.00000000000E+00 -0.00000000000E+00  0.11368683772E-12  0.17120000000E+03  0.17120000000E+03 0.  0.
         13    1    1    2    0    0 -0.12281748773E+02  0.31961008198E+03  0.10063278214E+04  0.10559342504E+04  0.10566000000E+00 0.  1.
        994    1    1    2    0    0  0.12352437310E+02 -0.32163268349E+03  0.48730752926E+03  0.60858707994E+03  0.17120000000E+03 0.  0.
        998    1    1    2    0    0 -0.70688536538E-01  0.20226015120E+01  0.63646456587E+01  0.66786697108E+01  0.10000000000E-02 0.  1.
</event>
<event>
 5    1  0.7026671E-009  0.3880343E+03  0.7957747E-01  0.3416905E+00
         13   -1    0    0    0    0  0.00000000000E+00  0.00000000000E+00  0.14999999963E+04  0.15000000000E+04  0.10566000000E+00 0. -1.
        994   -1    0    0    0    0 -0.00000000000E+00 -0.00000000000E+00  0.11368683772E-12  0.17120000000E+03  0.17120000000E+03 0.  0.
         13    1    1    2    0    0  0.23649047488E+03  0.11684059663E+03  0.11028432130E+04  0.11339500136E+04  0.10566000000E+00 0. -1.
        994    1    1    2    0    0 -0.24907916361E+03 -0.12855859310E+03  0.32130012873E+03  0.45946812112E+03  0.17120000000E+03 0.  0.
        998    1    1    2    0    0  0.12588688726E+02  0.11717996472E+02  0.75856654586E+02  0.77781865310E+02  0.10000000000E-02 0.  1.
</event>
<event>
 5    1  0.7026671E-009  0.3882221E+03  0.7957747E-01  0.3416121E+00
         13   -1    0    0    0    0  0.00000000000E+00  0.00000000000E+00  0.14999999963E+04  0.15000000000E+04  0.10566000000E+00 0.  1.
        994   -1    0    0    0    0 -0.00000000000E+00 -0.00000000000E+00  0.11368683772E-12  0.17120000000E+03  0.17120000000E+03 0.  0.
         13    1    1    2    0    0 -0.30476308497E+03  0.67987516295E+02  0.10359816419E+04  0.10820170118E+04  0.10566000000E+00 0.  1.
        994    1    1    2    0    0  0.30785978900E+03 -0.69414506008E+02  0.45536197153E+03  0.57987928782E+03  0.17120000000E+03 0.  0.
        998    1    1    2    0    0 -0.30967040299E+01  0.14269897129E+01  0.86563828302E+01  0.93037003495E+01  0.10000000000E-02 0.  1.
</event>
<event>
 5    1  0.7026671E-009  0.3883004E+03  0.7957747E-01  0.3415794E+00
         13   -1    0    0    0    0  0.00000000000E+00  0.00000000000E+00  0.14999999963E+04  0.15000000000E+04  0.10566000000E+00 0.  1.
        994   -1    0    0    0    0 -0.00000000000E+00 -0.00000000000E+00  0.11368683772E-12  0.17120000000E+03  0.17120000000E+03 0.  0.
         13    1    1    2    0    0  0.91602377782E+02  0.20763184687E+03  0.12665492692E+04  0.12867202656E+04  0.10566000000E+00 0.  1.
        994    1    1    2    0    0 -0.94021298979E+02 -0.21274535513E+03  0.20179524218E+03  0.35232279312E+03  0.17120000000E+03 0.  0.
        998    1    1    2    0    0  0.24189211967E+01  0.51135082516E+01  0.31655484916E+02  0.32156941283E+02  0.10000000000E-02 0.  1.
</event>
<event>
 5    1  0.7026671E-009  0.3883010E+03  0.7957747E-01  0.3415792E+00
         13   -1    0    0    0    0  0.00000000000E+00  0.00000000000E+00  0.14999999963E+04  0.15000000000E+04  0.10566000000E+00 0. -1.
        994   -1    0    0    0    0 -0.00000000000E+00 -0.00000000000E+00  0.11368683772E-12  0.17120000000E+03  0.17120000000E+03 0.  0.
         13    1    1    2    0    0  0.36809028779E+02  0.30845202721E+03  0.10387255983E+04  0.10841809985E+04  0.10566000000E+00 0. -1.
        994    1    1    2    0    0 -0.37242056236E+02 -0.31210423485E+03  0.44897309398E+03  0.57417967857E+03  0.17120000000E+03 0.  0.
        998    1    1    2    0    0  0.43302745669E+00  0.36522076335E+01  0.12301304000E+02  0.12839322976E+02  0.10000000000E-02 0. -1.
</event>
<event>
 5    1  0.7026671E-009  0.3883010E+03  0.7957747E-01  0.3415792E+00
         13   -1    0    0    0    0  0.00000000000E+00  0.00000000000E+00  0.14999999963E+04  0.15000000000E+04  0.10566000000E+00 0. -1.
        994   -1    0    0    0    0 -0.00000000000E+00 -0.00000000000E+00  0.11368683772E-12  0.17120000000E+03  0.17120000000E+03 0.  0.
         13    1    1    2    0    0  0.15856094965E+03  0.17232841745E+02  0.92351667115E+03  0.93718813408E+03  0.10566000000E+00 0. -1.
        994    1    1    2    0    0 -0.22498780631E+03 -0.24533042375E+02  0.18934600506E+03  0.34114913570E+03  0.17120000000E+03 0.  0.
        998    1    1    2    0    0  0.66426856659E+02  0.73002006300E+01  0.38713732006E+03  0.39286273023E+03  0.10000000000E-02 0. -1.
</event>
<event>
 5    1  0.7026671E-009  0.3883002E+03  0.7957747E-01  0.3415795E+00
         13   -1    0    0    0    0  0.00000000000E+00  0.00000000000E+00  0.14999999963E+04  0.15000000000E+04  0.10566000000E+00 0.  1.
        994   -1    0    0    0    0 -0.00000000000E+00 -0.00000000000E+00  0.11368683772E-12  0.17120000000E+03  0.17120000000E+03 0.  0.
         13    1    1    2    0    0  0.19862706128E+03 -0.15618957859E+03  0.12508893644E+04  0.12761552049E+04  0.10566000000E+00 0.  1.
        994    1    1    2    0    0 -0.19898971168E+03  0.15644035214E+03  0.24710014204E+03  0.39298652564E+03  0.17120000000E+03 0.  0.
        998    1    1    2    0    0  0.36265040034E+00 -0.25077354900E+00  0.20104898751E+01  0.20582694731E+01  0.10000000000E-02 0.  1.
</event>
<event>
 5    1  0.7026671E-009  0.3883010E+03  0.7957747E-01  0.3415792E+00
         13   -1    0    0    0    0  0.00000000000E+00  0.00000000000E+00  0.14999999963E+04  0.15000000000E+04  0.10566000000E+00 0. -1.
        994   -1    0    0    0    0 -0.00000000000E+00 -0.00000000000E+00  0.11368683772E-12  0.17120000000E+03  0.17120000000E+03 0.  0.
         13    1    1    2    0    0  0.20889484463E+03  0.11730869558E+03  0.12821109354E+04  0.13043032041E+04  0.10566000000E+00 0. -1.
        994    1    1    2    0    0 -0.20907202006E+03 -0.11740840626E+03  0.21682099090E+03  0.36580954816E+03  0.17120000000E+03 0.  0.
        998    1    1    2    0    0  0.17717542634E+00  0.99710681882E-01  0.10680699241E+01  0.10872477705E+01  0.10000000000E-02 0.  1.
</event>
<event>
 5    1  0.7026671E-009  0.3883009E+03  0.7957747E-01  0.3415792E+00
         13   -1    0    0    0    0  0.00000000000E+00  0.00000000000E+00  0.14999999963E+04  0.15000000000E+04  0.10566000000E+00 0. -1.
        994   -1    0    0    0    0 -0.00000000000E+00 -0.00000000000E+00  0.11368683772E-12  0.17120000000E+03  0.17120000000E+03 0.  0.
         13    1    1    2    0    0 -0.22914732936E+03  0.18107271653E+03  0.11407105728E+04  0.11775043309E+04  0.10566000000E+00 0. -1.
        994    1    1    2    0    0  0.22916728045E+03 -0.18108638610E+03  0.35920022555E+03  0.49360324523E+03  0.17120000000E+03 0.  0.
        998    1    1    2    0    0 -0.19951085864E-01  0.13669574850E-01  0.89197884533E-01  0.92423837341E-01  0.10000000000E-02 0.  0.
</event>
<event>
 5    1  0.7026671E-009  0.3883010E+03  0.7957747E-01  0.3415792E+00
         13   -1    0    0    0    0  0.00000000000E+00  0.00000000000E+00  0.14999999963E+04  0.15000000000E+04  0.10566000000E+00 0. -1.
        994   -1    0    0    0    0 -0.00000000000E+00 -0.00000000000E+00  0.11368683772E-12  0.17120000000E+03  0.17120000000E+03 0.  0.
         13    1    1    2    0    0 -0.39942295718E+02 -0.19975440258E+03  0.11509534020E+04  0.11688417143E+04  0.10566000000E+00 0. -1.
        994    1    1    2    0    0  0.45201340185E+02  0.22607189413E+03  0.19766279851E+03  0.34861394749E+03  0.17120000000E+03 0.  0.
        998    1    1    2    0    0 -0.52590444665E+01 -0.26317491551E+02  0.15138379580E+03  0.15374433825E+03  0.10000000000E-02 0.  1.
</event>
<event>
 5    1  0.7026671E-009  0.3883009E+03  0.7957747E-01  0.3415792E+00
         13   -1    0    0    0    0  0.00000000000E+00  0.00000000000E+00  0.14999999963E+04  0.15000000000E+04  0.10566000000E+00 0. -1.
        994   -1    0    0    0    0 -0.00000000000E+00 -0.00000000000E+00  0.11368683772E-12  0.17120000000E+03  0.17120000000E+03 0.  0.
         13    1    1    2    0    0  0.47410574734E+01  0.11070622572E+03  0.56247391845E+03  0.57328462925E+03  0.10566000000E+00 0. -1.
        994    1    1    2    0    0 -0.10187464445E+02 -0.24862620427E+03  0.23700751396E+03  0.38392808643E+03  0.17120000000E+03 0.  0.
        998    1    1    2    0    0  0.54464069717E+01  0.13791997855E+03  0.70051856387E+03  0.71398728432E+03  0.10000000000E-02 0.  1.
</event>
<event>
 5    1  0.8301046E-009  0.3883007E+03  0.7957747E-01  0.3415793E+00
         13   -1    0    0    0    0  0.00000000000E+00  0.00000000000E+00  0.14999999963E+04  0.15000000000E+04  0.10566000000E+00 0.  1.
        994   -1    0    0    0    0 -0.00000000000E+00 -0.00000000000E+00  0.11368683772E-12  0.17120000000E+03  0.17120000000E+03 0.  0.
         13    1    1    2    0    0  0.11533485220E+03  0.20970060581E+03  0.12840962669E+04  0.13062081404E+04  0.10566000000E+00 0.  1.
        994    1    1    2    0    0 -0.11533867474E+03 -0.20970522148E+03  0.21585123825E+03  0.36493901800E+03  0.17120000000E+03 0.  0.
        998    1    1    2    0    0  0.38225381736E-02  0.46156650277E-02  0.52491105811E-01  0.52841577863E-01  0.10000000000E-02 0. -1.
</event>
<event>
 5    1  0.7026671E-009  0.3883010E+03  0.7957747E-01  0.3415792E+00
         13   -1    0    0    0    0  0.00000000000E+00  0.00000000000E+00  0.14999999963E+04  0.15000000000E+04  0.10566000000E+00 0.  1.
        994   -1    0    0    0    0 -0.00000000000E+00 -0.00000000000E+00  0.11368683772E-12  0.17120000000E+03  0.17120000000E+03 0.  0.
         13    1    1    2    0    0 -0.17387872601E+03 -0.17946308252E+03  0.12485367456E+04  0.12732968332E+04  0.10566000000E+00 0.  1.
        994    1    1    2    0    0  0.17501133622E+03  0.18064275793E+03  0.24327947368E+03  0.38955759023E+03  0.17120000000E+03 0.  0.
        998    1    1    2    0    0 -0.11326102039E+01 -0.11796754058E+01  0.81837770470E+01  0.83455765345E+01  0.10000000000E-02 0. -1.
</event>
<event>
 5    1  0.7026671E-009  0.3882994E+03  0.7957747E-01  0.3415798E+00
         13   -1    0    0    0    0  0.00000000000E+00  0.00000000000E+00  0.14999999963E+04  0.15000000000E+04  0.10566000000E+00 0.  1.
        994   -1    0    0    0    0 -0.00000000000E+00 -0.00000000000E+00  0.11368683772E-12  0.17120000000E+03  0.17120000000E+03 0.  0.
         13    1    1    2    0    0 -0.19952911165E+03  0.12025186517E+03  0.12946874191E+04  0.13154801032E+04  0.10566000000E+00 0.  1.
        994    1    1    2    0    0  0.19981923641E+03 -0.12039573468E+03  0.20320633944E+03  0.35358890898E+03  0.17120000000E+03 0.  0.
        998    1    1    2    0    0 -0.29012476585E+00  0.14386950920E+00  0.21062377173E+01  0.21309878313E+01  0.10000000000E-02 0. -1.
</event>
<event>
 5    1  0.7026671E-009  0.3883002E+03  0.7957747E-01  0.3415795E+00
         13   -1    0    0    0    0  0.00000000000E+00  0.00000000000E+00  0.14999999963E+04  0.15000000000E+04  0.10566000000E+00 0.  1.
        994   -1    0    0    0    0 -0.00000000000E+00 -0.00000000000E+00  0.11368683772E-12  0.17120000000E+03  0.17120000000E+03 0.  0.
         13    1    1    2    0    0 -0.41628902045E+02  0.18976637465E+03  0.41367315983E+03  0.45702268736E+03  0.10566000000E+00 0.  1.
        994    1    1    2    0    0  0.74970874031E+02 -0.34003309049E+03  0.75650663909E+03  0.85020872118E+03  0.17120000000E+03 0.  0.
        998    1    1    2    0    0 -0.33341971986E+02  0.15026671583E+03  0.32982019736E+03  0.36396859146E+03  0.10000000000E-02 0.  1.
</event>
<event>
 5    1  0.7026671E-009  0.3883003E+03  0.7957747E-01  0.3415795E+00
         13   -1    0    0    0    0  0.00000000000E+00  0.00000000000E+00  0.14999999963E+04  0.15000000000E+04  0.10566000000E+00 0.  1.
        994   -1    0    0    0    0 -0.00000000000E+00 -0.00000000000E+00  0.11368683772E-12  0.17120000000E+03  0.17120000000E+03 0.  0.
         13    1    1    2    0    0 -0.83975084557E+02 -0.19112931407E+02  0.34317400299E+03  0.35381566735E+03  0.10566000000E+00 0.  1.
        994    1    1    2    0    0  0.28243575631E+03  0.62859577713E+02  0.34982921888E+03  0.48519192628E+03  0.17120000000E+03 0.  0.
        998    1    1    2    0    0 -0.19846067175E+03 -0.43746646306E+02  0.80699677442E+03  0.83219240637E+03  0.10000000000E-02 0.  1.
</event>
<event>
 5    1  0.7026671E-009  0.3883010E+03  0.7957747E-01  0.3415792E+00
         13   -1    0    0    0    0  0.00000000000E+00  0.00000000000E+00  0.14999999963E+04  0.15000000000E+04  0.10566000000E+00 0. -1.
        994   -1    0    0    0    0 -0.00000000000E+00 -0.00000000000E+00  0.11368683772E-12  0.17120000000E+03  0.17120000000E+03 0.  0.
         13    1    1    2    0    0 -0.62159087791E+02  0.24071878624E+03  0.12598818672E+04  0.12841774085E+04  0.10566000000E+00 0. -1.
        994    1    1    2    0    0  0.62280634629E+02 -0.24119248766E+03  0.23763002864E+03  0.38448688413E+03  0.17120000000E+03 0.  0.
        998    1    1    2    0    0 -0.12154683775E+00  0.47370142513E+00  0.24881004861E+01  0.25357073378E+01  0.10000000000E-02 0. -1.
</event>
<event>
 5    1  0.7026671E-009  0.3883005E+03  0.7957747E-01  0.3415794E+00
         13   -1    0    0    0    0  0.00000000000E+00  0.00000000000E+00  0.14999999963E+04  0.15000000000E+04  0.10566000000E+00 0. -1.
        994   -1    0    0    0    0 -0.00000000000E+00 -0.00000000000E+00  0.11368683772E-12  0.17120000000E+03  0.17120000000E+03 0.  0.
         13    1    1    2    0    0 -0.87241609163E+02 -0.75864127568E+02  0.57701930463E+03  0.58848768322E+03  0.10566000000E+00 0. -1.
        994    1    1    2    0    0  0.19039673168E+03  0.16557791185E+03  0.24519284804E+03  0.39127475392E+03  0.17120000000E+03 0.  0.
        998    1    1    2    0    0 -0.10315512251E+03 -0.89713784282E+02  0.67778784361E+03  0.69143756286E+03  0.10000000000E-02 0. -1.
</event>
<event>
 5    1  0.7026671E-009  0.3870667E+03  0.7957747E-01  0.3420954E+00
         13   -1    0    0    0    0  0.00000000000E+00  0.00000000000E+00  0.14999999963E+04  0.15000000000E+04  0.10566000000E+00 0. -1.
        994   -1    0    0    0    0 -0.00000000000E+00 -0.00000000000E+00  0.11368683772E-12  0.17120000000E+03  0.17120000000E+03 0.  0.
         13    1    1    2    0    0  0.20968308357E+03  0.12787020187E+03  0.11695439566E+04  0.11950526606E+04  0.10566000000E+00 0. -1.
        994    1    1    2    0    0 -0.21608045349E+03 -0.14363092879E+03  0.26487979704E+03  0.40840097082E+03  0.17120000000E+03 0.  0.
        998    1    1    2    0    0  0.63973699125E+01  0.15760726914E+02  0.65576242670E+02  0.67746368599E+02  0.10000000000E-02 0. -1.
</event>
<event>
 5    1  0.7026671E-009  0.3883010E+03  0.7957747E-01  0.3415792E+00
         13   -1    0    0    0    0  0.00000000000E+00  0.00000000000E+00  0.14999999963E+04  0.15000000000E+04  0.10566000000E+00 0.  1.
        994   -1    0    0    0    0 -0.00000000000E+00 -0.00000000000E+00  0.11368683772E-12  0.17120000000E+03  0.17120000000E+03 0.  0.
         13    1    1    2    0    0  0.70174141616E+02  0.22202450246E+03  0.12965843542E+04  0.13173269482E+04  0.10566000000E+00 0.  1.
        994    1    1    2    0    0 -0.70218828586E+02 -0.22216330800E+03  0.20261041285E+03  0.35305472480E+03  0.17120000000E+03 0.  0.
        998    1    1    2    0    0  0.44686969325E-01  0.13880553283E+00  0.80522922703E+00  0.81832695741E+00  0.10000000000E-02 0. -1.
</event>
<event>
 5    1  0.7026671E-009  0.3883010E+03  0.7957747E-01  0.3415792E+00
         13   -1    0    0    0    0  0.00000000000E+00  0.00000000000E+00  0.14999999963E+04  0.15000000000E+04  0.10566000000E+00 0. -1.
        994   -1    0    0    0    0 -0.00000000000E+00 -0.00000000000E+00  0.11368683772E-12  0.17120000000E+03  0.17120000000E+03 0.  0.
         13    1    1    2    0    0 -0.33336155929E+03  0.75816445418E+02  0.84199165267E+03  0.90875080024E+03  0.10566000000E+00 0. -1.
        994    1    1    2    0    0  0.33477237228E+03 -0.76143176833E+02  0.65444262207E+03  0.75860062628E+03  0.17120000000E+03 0.  0.
        998    1    1    2    0    0 -0.14108129847E+01  0.32673141495E+00  0.35657215399E+01  0.38485734754E+01  0.10000000000E-02 0. -1.
</event>
<event>
 5    1  0.7026671E-009  0.3849799E+03  0.7957747E-01  0.3429757E+00
         13   -1    0    0    0    0  0.00000000000E+00  0.00000000000E+00  0.14999999963E+04  0.15000000000E+04  0.10566000000E+00 0. -1.
        994   -1    0    0    0    0 -0.00000000000E+00 -0.00000000000E+00  0.11368683772E-12  0.17120000000E+03  0.17120000000E+03 0.  0.
         13    1    1    2    0    0  0.10908489414E+03 -0.27843447095E+02  0.47297160659E+03  0.48618609963E+03  0.10566000000E+00 0. -1.
        994    1    1    2    0    0 -0.20992121681E+03  0.65267909333E+02  0.18118988372E+03  0.33236430497E+03  0.17120000000E+03 0.  0.
        998    1    1    2    0    0  0.10083632267E+03 -0.37424462237E+02  0.84583850597E+03  0.85264959540E+03  0.10000000000E-02 0. -1.
</event>
<event>
 5    1  0.7026671E-009  0.3883003E+03  0.7957747E-01  0.3415795E+00
         13   -1    0    0    0    0  0.00000000000E+00  0.00000000000E+00  0.14999999963E+04  0.15000000000E+04  0.10566000000E+00 0.  1.
        994   -1    0    0    0    0 -0.00000000000E+00 -0.00000000000E+00  0.11368683772E-12  0.17120000000E+03  0.17120000000E+03 0.  0.
         13    1    1    2    0    0  0.26670588170E+01 -0.26811128257E+03  0.90363397612E+03  0.94257368253E+03  0.10566000000E+00 0.  1.
        994    1    1    2    0    0 -0.28690066713E+01  0.31342634523E+03  0.44484543814E+03  0.57047454712E+03  0.17120000000E+03 0.  0.
        998    1    1    2    0    0  0.20194785429E+00 -0.45315062657E+02  0.15152058202E+03  0.15815177035E+03  0.10000000000E-02 0. -1.
</event>
<event>
 5    1  0.7026671E-009  0.3883003E+03  0.7957747E-01  0.3415795E+00
         13   -1    0    0    0    0  0.00000000000E+00  0.00000000000E+00  0.14999999963E+04  0.15000000000E+04  0.10566000000E+00 0.  1.
        994   -1    0    0    0    0 -0.00000000000E+00 -0.00000000000E+00  0.11368683772E-12  0.17120000000E+03  0.17120000000E+03 0.  0.
         13    1    1    2    0    0  0.22866559281E+03 -0.15389340382E+03  0.11917822643E+04  0.12232400050E+04  0.10566000000E+00 0.  1.
        994    1    1    2    0    0 -0.22885439045E+03  0.15401673490E+03  0.30736291324E+03  0.44707592989E+03  0.17120000000E+03 0.  0.
        998    1    1    2    0    0  0.18879763645E+00 -0.12333107663E+00  0.85481873583E+00  0.88406514077E+00  0.10000000000E-02 0.  1.
</event>
<event>
 5    1  0.7026671E-009  0.3882334E+03  0.7957747E-01  0.3416074E+00
         13   -1    0    0    0    0  0.00000000000E+00  0.00000000000E+00  0.14999999963E+04  0.15000000000E+04  0.10566000000E+00 0. -1.
        994   -1    0    0    0    0 -0.00000000000E+00 -0.00000000000E+00  0.11368683772E-12  0.17120000000E+03  0.17120000000E+03 0.  0.
         13    1    1    2    0    0 -0.52498533673E+02  0.23181640173E+03  0.12375759760E+04  0.12601941310E+04  0.10566000000E+00 0. -1.
        994    1    1    2    0    0  0.52360192397E+02 -0.23828948822E+03  0.22608708766E+03  0.37409662007E+03  0.17120000000E+03 0.  0.
        998    1    1    2    0    0  0.13834127604E+00  0.64730864905E+01  0.36336932582E+02  0.36909248942E+02  0.10000000000E-02 0. -1.
</event>
<event>
 5    1  0.7026671E-009  0.3883006E+03  0.7957747E-01  0.3415793E+00
         13   -1    0    0    0    0  0.00000000000E+00  0.00000000000E+00  0.14999999963E+04  0.15000000000E+04  0.10566000000E+00 0. -1.
        994   -1    0    0    0    0 -0.00000000000E+00 -0.00000000000E+00  0.11368683772E-12  0.17120000000E+03  0.17120000000E+03 0.  0.
         13    1    1    2    0    0  0.30104880016E+03 -0.63599676196E+01  0.10608616928E+04  0.11027685032E+04  0.10566000000E+00 0. -1.
        994    1    1    2    0    0 -0.30716879248E+03  0.64208766307E+01  0.41728899614E+03  0.54574118502E+03  0.17120000000E+03 0.  0.
        998    1    1    2    0    0  0.61199923192E+01 -0.60909011127E-01  0.21849307328E+02  0.22690311756E+02  0.10000000000E-02 0. -1.
</event>
<event>
 5    1  0.7026671E-009  0.3880801E+03  0.7957747E-01  0.3416713E+00
         13   -1    0    0    0    0  0.00000000000E+00  0.00000000000E+00  0.14999999963E+04  0.15000000000E+04  0.10566000000E+00 0.  1.
        994   -1    0    0    0    0 -0.00000000000E+00 -0.00000000000E+00  0.11368683772E-12  0.17120000000E+03  0.17120000000E+03 0.  0.
         13    1    1    2    0    0  0.47991123368E+02  0.20979860453E+03  0.12926019104E+04  0.13103962425E+04  0.10566000000E+00 0.  1.
        994    1    1    2    0    0 -0.47561677332E+02 -0.21637595306E+03  0.18052862906E+03  0.33313764741E+03  0.17120000000E+03 0.  0.
        998    1    1    2    0    0 -0.42944603603E+00  0.65773485316E+01  0.26869456847E+02  0.27666110133E+02  0.10000000000E-02 0.  1.
</event>
<event>
 5    1  0.7026671E-009  0.3883010E+03  0.7957747E-01  0.3415792E+00
         13   -1    0    0    0    0  0.00000000000E+00  0.00000000000E+00  0.14999999963E+04  0.15000000000E+04  0.10566000000E+00 0. -1.
        994   -1    0    0    0    0 -0.00000000000E+00 -0.00000000000E+00  0.11368683772E-12  0.17120000000E+03  0.17120000000E+03 0.  0.
         13    1    1    2    0    0  0.21843563377E+03 -0.67288028555E+02  0.12357741550E+04  0.12567336942E+04  0.10566000000E+00 0. -1.
        994    1    1    2    0    0 -0.22746312775E+03  0.70085428646E+02  0.21304733607E+03  0.36242247336E+03  0.17120000000E+03 0.  0.
        998    1    1    2    0    0  0.90274939748E+01 -0.27974000910E+01  0.51178505223E+02  0.52043832416E+02  0.10000000000E-02 0. -1.
</event>
<event>
 5    1  0.7026671E-009  0.3883010E+03  0.7957747E-01  0.3415792E+00
         13   -1    0    0    0    0  0.00000000000E+00  0.00000000000E+00  0.14999999963E+04  0.15000000000E+04  0.10566000000E+00 0.  1.
        994   -1    0    0    0    0 -0.00000000000E+00 -0.00000000000E+00  0.11368683772E-12  0.17120000000E+03  0.17120000000E+03 0.  0.
         13    1    1    2    0    0 -0.20624856680E+03 -0.14973906408E+03  0.12479913513E+04  0.12737514210E+04  0.10566000000E+00 0.  1.
        994    1    1    2    0    0  0.20632302790E+03  0.14979612323E+03  0.25155526322E+03  0.39698559272E+03  0.17120000000E+03 0.  0.
        998    1    1    2    0    0 -0.74461091371E-01 -0.57059147991E-01  0.45338179549E+00  0.46298623411E+00  0.10000000000E-02 0.  1.
</event>
<event>
 5    1  0.7026671E-009  0.3883003E+03  0.7957747E-01  0.3415795E+00
         13   -1    0    0    0    0  0.00000000000E+00  0.00000000000E+00  0.14999999963E+04  0.15000000000E+04  0.10566000000E+00 0.  1.
        994   -1    0    0    0    0 -0.00000000000E+00 -0.00000000000E+00  0.11368683772E-12  0.17120000000E+03  0.17120000000E+03 0.  0.
         13    1    1    2    0    0 -0.25631377797E+03 -0.87289891344E+02  0.12062380147E+04  0.12362550049E+04  0.10566000000E+00 0.  1.
        994    1    1    2    0    0  0.25642974301E+03  0.87322989795E+02  0.29312351030E+03  0.43429523361E+03  0.17120000000E+03 0.  0.
        998    1    1    2    0    0 -0.11596503380E+00 -0.33098451104E-01  0.63847129132E+00  0.64976148422E+00  0.10000000000E-02 0. -1.
</event>
<event>
 5    1  0.7026671E-009  0.3882961E+03  0.7957747E-01  0.3415812E+00
         13   -1    0    0    0    0  0.00000000000E+00  0.00000000000E+00  0.14999999963E+04  0.15000000000E+04  0.10566000000E+00 0.  1.
        994   -1    0    0    0    0 -0.00000000000E+00 -0.00000000000E+00  0.11368683772E-12  0.17120000000E+03  0.17120000000E+03 0.  0.
         13    1    1    2    0    0 -0.68451968509E+02  0.28364216699E+03  0.11396123619E+04  0.11763736215E+04  0.10566000000E+00 0.  1.
        994    1    1    2    0    0  0.68437642234E+02 -0.28393703878E+03  0.35917712133E+03  0.49358038591E+03  0.17120000000E+03 0.  0.
        998    1    1    2    0    0  0.14326274705E-01  0.29487178790E+00  0.12105130853E+01  0.12459925935E+01  0.10000000000E-02 0. -1.
</event>
<event>
 5    1  0.7026671E-009  0.3883007E+03  0.7957747E-01  0.3415793E+00
         13   -1    0    0    0    0  0.00000000000E+00  0.00000000000E+00  0.14999999963E+04  0.15000000000E+04  0.10566000000E+00 0.  1.
        994   -1    0    0    0    0 -0.00000000000E+00 -0.00000000000E+00  0.11368683772E-12  0.17120000000E+03  0.17120000000E+03 0.  0.
         13    1    1    2    0    0  0.18529950832E+03 -0.11273452671E+03  0.13091631296E+04  0.13270090778E+04  0.10566000000E+00 0.  1.
        994    1    1    2    0    0 -0.18741233773E+03  0.11393756333E+03  0.17615732507E+03  0.32931139647E+03  0.17120000000E+03 0.  0.
        998    1    1    2    0    0  0.21128294042E+01 -0.12030366173E+01  0.14679541586E+02  0.14879525778E+02  0.10000000000E-02 0.  1.
</event>
<event>
 5    1  0.7026671E-009  0.3856265E+03  0.7957747E-01  0.3427020E+00
         13   -1    0    0    0    0  0.00000000000E+00  0.00000000000E+00  0.14999999963E+04  0.15000000000E+04  0.10566000000E+00 0.  1.
        994   -1    0    0    0    0 -0.00000000000E+00 -0.00000000000E+00  0.11368683772E-12  0.17120000000E+03  0.17120000000E+03 0.  0.
         13    1    1    2    0    0 -0.23536124873E+03 -0.21314251094E+02  0.12879992057E+04  0.13095003550E+04  0.10566000000E+00 0.  1.
        994    1    1    2    0    0  0.23031118121E+03  0.21004401548E+02  0.20615609801E+03  0.35396921028E+03  0.17120000000E+03 0.  0.
        998    1    1    2    0    0  0.50500675144E+01  0.30984954603E+00  0.58446925305E+01  0.77304346849E+01  0.10000000000E-02 0.  1.
</event>
<event>
 5    1  0.3653741E-008  0.3883006E+03  0.7957747E-01  0.3415793E+00
         13   -1    0    0    0    0  0.00000000000E+00  0.00000000000E+00  0.14999999963E+04  0.15000000000E+04  0.10566000000E+00 0. -1.
        994   -1    0    0    0    0 -0.00000000000E+00 -0.00000000000E+00  0.11368683772E-12  0.17120000000E+03  0.17120000000E+03 0.  0.
         13    1    1    2    0    0 -0.27682097117E+03  0.32401061114E+02  0.11840868446E+04  0.12164461951E+04  0.10566000000E+00 0. -1.
        994    1    1    2    0    0  0.27682462539E+03 -0.32401267596E+02  0.31588241081E+03  0.45472283077E+03  0.17120000000E+03 0.  0.
        998    1    1    2    0    0 -0.36542199595E-02  0.20648279237E-03  0.30740828717E-01  0.30974094157E-01  0.10000000000E-02 0.  1.
</event>
<event>
 5    1  0.7026671E-009  0.3882837E+03  0.7957747E-01  0.3415864E+00
         13   -1    0    0    0    0  0.00000000000E+00  0.00000000000E+00  0.14999999963E+04  0.15000000000E+04  0.10566000000E+00 0.  1.
        994   -1    0    0    0    0 -0.00000000000E+00 -0.00000000000E+00  0.11368683772E-12  0.17120000000E+03  0.17120000000E+03 0.  0.
         13    1    1    2    0    0  0.21222847327E+03  0.15074853232E+03  0.12349927933E+04  0.12621304432E+04  0.10566000000E+00 0.  1.
        994    1    1    2    0    0 -0.21222014845E+03 -0.15078386021E+03  0.26494209710E+03  0.40899501063E+03  0.17120000000E+03 0.  0.
        998    1    1    2    0    0 -0.83248218284E-02  0.35327896174E-01  0.65105860854E-01  0.74546200601E-01  0.10000000000E-02 0. -1.
</event>
<event>
 5    1  0.7026671E-009  0.3836403E+03  0.7957747E-01  0.3435460E+00
         13   -1    0    0    0    0  0.00000000000E+00  0.00000000000E+00  0.14999999963E+04  0.15000000000E+04  0.10566000000E+00 0.  1.
        994   -1    0    0    0    0 -0.00000000000E+00 -0.00000000000E+00  0.11368683772E-12  0.17120000000E+03  0.17120000000E+03 0.  0.
         13    1    1    2    0    0 -0.34033576367E+02 -0.24506996805E+02  0.21089523478E+03  0.21502485537E+03  0.10566000000E+00 0.  1.
        994    1    1    2    0    0  0.29556060030E+02  0.15452999698E+03  0.88883519792E+02  0.24892328284E+03  0.17120000000E+03 0.  0.
        998    1    1    2    0    0  0.44775163372E+01 -0.13002300017E+03  0.12002212417E+04  0.12072518618E+04  0.10000000000E-02 0.  1.
</event>
<event>
 5    1  0.7026671E-009  0.3882981E+03  0.7957747E-01  0.3415804E+00
         13   -1    0    0    0    0  0.00000000000E+00  0.00000000000E+00  0.14999999963E+04  0.15000000000E+04  0.10566000000E+00 0.  1.
        994   -1    0    0    0    0 -0.00000000000E+00 -0.00000000000E+00  0.11368683772E-12  0.17120000000E+03  0.17120000000E+03 0.  0.
         13    1    1    2    0    0 -0.11072787919E+02  0.28827691261E+03  0.11478404248E+04  0.11835386926E+04  0.10566000000E+00 0.  1.
        994    1    1    2    0    0  0.11035667860E+02 -0.28903009766E+03  0.34947813267E+03  0.48487584857E+03  0.17120000000E+03 0.  0.
        998    1    1    2    0    0  0.37120059324E-01  0.75318504595E+00  0.26814387949E+01  0.27854587814E+01  0.10000000000E-02 0.  1.
</event>
<event>
 5    1  0.7026671E-009  0.3882881E+03  0.7957747E-01  0.3415845E+00
         13   -1    0    0    0    0  0.00000000000E+00  0.00000000000E+00  0.14999999963E+04  0.15000000000E+04  0.10566000000E+00 0. -1.
        994   -1    0    0    0    0 -0.00000000000E+00 -0.00000000000E+00  0.11368683772E-12  0.17120000000E+03  0.17120000000E+03 0.  0.
         13    1    1    2    0    0 -0.16099031964E+03  0.48551554782E+02  0.93105645035E+03  0.94611905244E+03  0.10566000000E+00 0. -1.
        994    1    1    2    0    0  0.22312335364E+03 -0.70130418785E+02  0.20444700395E+03  0.35469751057E+03  0.17120000000E+03 0.  0.
        998    1    1    2    0    0 -0.62133033998E+02  0.21578864003E+02  0.36449654198E+03  0.37038343700E+03  0.10000000000E-02 0. -1.
</event>
<event>
 5    1  0.7026671E-009  0.3883008E+03  0.7957747E-01  0.3415793E+00
         13   -1    0    0    0    0  0.00000000000E+00  0.00000000000E+00  0.14999999963E+04  0.15000000000E+04  0.10566000000E+00 0.  1.
        994   -1    0    0    0    0 -0.00000000000E+00 -0.00000000000E+00  0.11368683772E-12  0.17120000000E+03  0.17120000000E+03 0.  0.
         13    1    1    2    0    0  0.25985889838E+03  0.55400900463E+02  0.12010329844E+04  0.12300716026E+04  0.10566000000E+00 0.  1.
        994    1    1    2    0    0 -0.26257234389E+03 -0.55924556995E+02  0.28639470609E+03  0.42825595096E+03  0.17120000000E+03 0.  0.
        998    1    1    2    0    0  0.27134455064E+01  0.52365653242E+00  0.12572305803E+02  0.12872446422E+02  0.10000000000E-02 0.  1.
</event>
<event>
 5    1  0.7026671E-009  0.3883002E+03  0.7957747E-01  0.3415795E+00
         13   -1    0    0    0    0  0.00000000000E+00  0.00000000000E+00  0.14999999963E+04  0.15000000000E+04  0.10566000000E+00 0. -1.
        994   -1    0    0    0    0 -0.00000000000E+00 -0.00000000000E+00  0.11368683772E-12  0.17120000000E+03  0.17120000000E+03 0.  0.
         13    1    1    2    0    0  0.21728379884E+03  0.45116337986E+02  0.13188549041E+04  0.13373952304E+04  0.10566000000E+00 0. -1.
        994    1    1    2    0    0 -0.21730591241E+03 -0.45132154810E+02  0.18100722161E+03  0.33366424028E+03  0.17120000000E+03 0.  0.
        998    1    1    2    0    0  0.22113576789E-01  0.15816823951E-01  0.13787060286E+00  0.14052930417E+00  0.10000000000E-02 0. -1.
</event>
<event>
 5    1  0.7026671E-009  0.3715853E+03  0.7957747E-01  0.3488637E+00
         13   -1    0    0    0    0  0.00000000000E+00  0.00000000000E+00  0.14999999963E+04  0.15000000000E+04  0.10566000000E+00 0. -1.
        994   -1    0    0    0    0 -0.00000000000E+00 -0.00000000000E+00  0.11368683772E-12  0.17120000000E+03  0.17120000000E+03 0.  0.
         13    1    1    2    0    0  0.39536553081E+02 -0.30502585842E+03  0.86848401234E+03  0.92134054735E+03  0.10566000000E+00 0. -1.
        994    1    1    2    0    0 -0.20305506005E+02  0.32979939155E+03  0.59419036329E+03  0.70110739553E+03  0.17120000000E+03 0.  0.
        998    1    1    2    0    0 -0.19231047076E+02 -0.24773533129E+02  0.37325620643E+02  0.48752057112E+02  0.10000000000E-02 0.  1.
</event>
<event>
 5    1  0.7026671E-009  0.3883010E+03  0.7957747E-01  0.3415792E+00
         13   -1    0    0    0    0  0.00000000000E+00  0.00000000000E+00  0.14999999963E+04  0.15000000000E+04  0.10566000000E+00 0.  1.
        994   -1    0    0    0    0 -0.00000000000E+00 -0.00000000000E+00  0.11368683772E-12  0.17120000000E+03  0.17120000000E+03 0.  0.
         13    1    1    2    0    0 -0.20668131410E+03 -0.95273956603E+02  0.11546190529E+04  0.11768345087E+04  0.10566000000E+00 0.  1.
        994    1    1    2    0    0  0.22603694762E+03  0.10419015199E+03  0.23714450836E+03  0.38405109986E+03  0.17120000000E+03 0.  0.
        998    1    1    2    0    0 -0.19355633523E+02 -0.89161953882E+01  0.10823643500E+03  0.11031439141E+03  0.10000000000E-02 0. -1.
</event>
<event>
 5    1  0.7026671E-009  0.3883003E+03  0.7957747E-01  0.3415795E+00
         13   -1    0    0    0    0  0.00000000000E+00  0.00000000000E+00  0.14999999963E+04  0.15000000000E+04  0.10566000000E+00 0. -1.
        994   -1    0    0    0    0 -0.00000000000E+00 -0.00000000000E+00  0.11368683772E-12  0.17120000000E+03  0.17120000000E+03 0.  0.
         13    1    1    2    0    0 -0.23420911839E+03 -0.20256926405E+01  0.12941963131E+04  0.13152194199E+04  0.10566000000E+00 0. -1.
        994    1    1    2    0    0  0.23429241113E+03  0.20431538185E+01  0.20528586131E+03  0.35545581053E+03  0.17120000000E+03 0.  0.
        998    1    1    2    0    0 -0.83292737514E-01 -0.17461177961E-01  0.51782188335E+00  0.52476954536E+00  0.10000000000E-02 0. -1.
</event>
<event>
 5    1  0.7026671E-009  0.3730762E+03  0.7957747E-01  0.3481872E+00
         13   -1    0    0    0    0  0.00000000000E+00  0.00000000000E+00  0.14999999963E+04  0.15000000000E+04  0.10566000000E+00 0. -1.
        994   -1    0    0    0    0 -0.00000000000E+00 -0.00000000000E+00  0.11368683772E-12  0.17120000000E+03  0.17120000000E+03 0.  0.
         13    1    1    2    0    0 -0.40031642502E+01 -0.55771867929E+02  0.29558038006E+03  0.30082270329E+03  0.10566000000E+00 0. -1.
        994    1    1    2    0    0  0.75948951756E+02 -0.16276828586E+02  0.28602293558E+02  0.19015969504E+03  0.17120000000E+03 0.  0.
        998    1    1    2    0    0 -0.71945787506E+02  0.72048696515E+02  0.11758173227E+04  0.11802176017E+04  0.10000000000E-02 0. -1.
</event>
<event>
 5    1  0.7026671E-009  0.3882991E+03  0.7957747E-01  0.3415800E+00
         13   -1    0    0    0    0  0.00000000000E+00  0.00000000000E+00  0.14999999963E+04  0.15000000000E+04  0.10566000000E+00 0. -1.
        994   -1    0    0    0    0 -0.00000000000E+00 -0.00000000000E+00  0.11368683772E-12  0.17120000000E+03  0.17120000000E+03 0.  0.
         13    1    1    2    0    0  0.64996695464E+02 -0.25743276180E+03  0.12213421706E+04  0.12498691556E+04  0.10566000000E+00 0. -1.
        994    1    1    2    0    0 -0.65012015027E+02  0.25745114056E+03  0.27847888129E+03  0.42115030476E+03  0.17120000000E+03 0.  0.
        998    1    1    2    0    0  0.15319563786E-01 -0.18378766559E-01  0.17894434993E+00  0.18053960359E+00  0.10000000000E-02 0. -1.
</event>
<event>
 5    1  0.7026671E-009  0.3883010E+03  0.7957747E-01  0.3415792E+00
         13   -1    0    0    0    0  0.00000000000E+00  0.00000000000E+00  0.14999999963E+04  0.15000000000E+04  0.10566000000E+00 0.  1.
        994   -1    0    0    0    0 -0.00000000000E+00 -0.00000000000E+00  0.11368683772E-12  0.17120000000E+03  0.17120000000E+03 0.  0.
         13    1    1    2    0    0 -0.18779218502E+03  0.17461834702E+03  0.11750616720E+04  0.12027166816E+04  0.10566000000E+00 0.  1.
        994    1    1    2    0    0  0.19494155417E+03 -0.18125988701E+03  0.28023521929E+03  0.42272754146E+03  0.17120000000E+03 0.  0.
        998    1    1    2    0    0 -0.71493691521E+01  0.66415399828E+01  0.44703104968E+02  0.45755776983E+02  0.10000000000E-02 0. -1.
</event>
<event>
 5    1  0.7026671E-009  0.3883010E+03  0.7957747E-01  0.3415792E+00
         13   -1    0    0    0    0  0.00000000000E+00  0.00000000000E+00  0.14999999963E+04  0.15000000000E+04  0.10566000000E+00 0. -1.
        994   -1    0    0    0    0 -0.00000000000E+00 -0.00000000000E+00  0.11368683772E-12  0.17120000000E+03  0.17120000000E+03 0.  0.
         13    1    1    2    0    0 -0.13477856875E+03  0.15079586487E+03  0.11293232481E+04  0.11472905758E+04  0.10566000000E+00 0. -1.
        994    1    1    2    0    0  0.15497165615E+03 -0.17338509496E+03  0.20169836922E+03  0.35223611046E+03  0.17120000000E+03 0.  0.
        998    1    1    2    0    0 -0.20193087403E+02  0.22589230097E+02  0.16897837890E+03  0.17167331369E+03  0.10000000000E-02 0.  1.
</event>
<event>
 5    1  0.7026671E-009  0.3883010E+03  0.7957747E-01  0.3415792E+00
         13   -1    0    0    0    0  0.00000000000E+00  0.00000000000E+00  0.14999999963E+04  0.15000000000E+04  0.10566000000E+00 0.  1.
        994   -1    0    0    0    0 -0.00000000000E+00 -0.00000000000E+00  0.11368683772E-12  0.17120000000E+03  0.17120000000E+03 0.  0.
         13    1    1    2    0    0 -0.42495346498E+02 -0.21965261081E+03  0.13100513555E+04  0.13290175654E+04  0.10566000000E+00 0.  1.
        994    1    1    2    0    0  0.42633978484E+02  0.22035858592E+03  0.18573772347E+03  0.33791049766E+03  0.17120000000E+03 0.  0.
        998    1    1    2    0    0 -0.13863198625E+00 -0.70597511196E+00  0.42109172795E+01  0.42719369168E+01  0.10000000000E-02 0. -1.
</event>
<event>
 5    1  0.7026671E-009  0.3882967E+03  0.7957747E-01  0.3415810E+00
         13   -1    0    0    0    0  0.00000000000E+00  0.00000000000E+00  0.14999999963E+04  0.15000000000E+04  0.10566000000E+00 0.  1.
        994   -1    0    0    0    0 -0.00000000000E+00 -0.00000000000E+00  0.11368683772E-12  0.17120000000E+03  0.17120000000E+03 0.  0.
         13    1    1    2    0    0 -0.80992026328E+02  0.20458918984E+03  0.13019151831E+04  0.13203785821E+04  0.10566000000E+00 0.  1.
        994    1    1    2    0    0  0.81949232072E+02 -0.20727177943E+03  0.18278036103E+03  0.33525418351E+03  0.17120000000E+03 0.  0.
        998    1    1    2    0    0 -0.95720574453E+00  0.26825895902E+01  0.15304452163E+02  0.15567234396E+02  0.10000000000E-02 0. -1.
</event>
<event>
 5    1  0.7026671E-009  0.3883010E+03  0.7957747E-01  0.3415792E+00
         13   -1    0    0    0    0  0.00000000000E+00  0.00000000000E+00  0.14999999963E+04  0.15000000000E+04  0.10566000000E+00 0. -1.
        994   -1    0    0    0    0 -0.00000000000E+00 -0.00000000000E+00  0.11368683772E-12  0.17120000000E+03  0.17120000000E+03 0.  0.
         13    1    1    2    0    0 -0.21863993363E+03 -0.42066169184E+02  0.13169951447E+04  0.13356830483E+04  0.10566000000E+00 0. -1.
        994    1    1    2    0    0  0.21872455386E+03  0.42079404542E+02  0.18249500605E+03  0.33499996116E+03  0.17120000000E+03 0.  0.
        998    1    1    2    0    0 -0.84620224623E-01 -0.13235357491E-01  0.50984550157E+00  0.51699051497E+00  0.10000000000E-02 0. -1.
</event>
<event>
 5    1  0.7026671E-009  0.3883010E+03  0.7957747E-01  0.3415792E+00
         13   -1    0    0    0    0  0.00000000000E+00  0.00000000000E+00  0.14999999963E+04  0.15000000000E+04  0.10566000000E+00 0.  1.
        994   -1    0    0    0    0 -0.00000000000E+00 -0.00000000000E+00  0.11368683772E-12  0.17120000000E+03  0.17120000000E+03 0.  0.
         13    1    1    2    0    0  0.12681717495E+03 -0.18692514186E+03  0.13085833124E+04  0.13279359553E+04  0.10566000000E+00 0.  1.
        994    1    1    2    0    0 -0.12703241857E+03  0.18723933923E+03  0.18923656635E+03  0.34105091052E+03  0.17120000000E+03 0.  0.
        998    1    1    2    0    0  0.21524361634E+00 -0.31419736353E+00  0.21801175006E+01  0.22131342287E+01  0.10000000000E-02 0.  1.
</event>
<event>
 5    1  0.7026671E-009  0.3883010E+03  0.7957747E-01  0.3415792E+00
         13   -1    0    0    0    0  0.00000000000E+00  0.00000000000E+00  0.14999999963E+04  0.15000000000E+04  0.10566000000E+00 0. -1.
        994   -1    0    0    0    0 -0.00000000000E+00 -0.00000000000E+00  0.11368683772E-12  0.17120000000E+03  0.17120000000E+03 0.  0.
         13    1    1    2    0    0 -0.22035670543E+03  0.32741369956E+02  0.13111462317E+04  0.13299374147E+04  0.10566000000E+00 0. -1.
        994    1    1    2    0    0  0.22115565289E+03 -0.32861521499E+02  0.18409877859E+03  0.33643944876E+03  0.17120000000E+03 0.  0.
        998    1    1    2    0    0 -0.79894745963E+00  0.12015154300E+00  0.47549859530E+01  0.48231365158E+01  0.10000000000E-02 0.  0.
</event>
<event>
 5    1  0.7026671E-009  0.3882966E+03  0.7957747E-01  0.3415810E+00
         13   -1    0    0    0    0  0.00000000000E+00  0.00000000000E+00  0.14999999963E+04  0.15000000000E+04  0.10566000000E+00 0.  1.
        994   -1    0    0    0    0 -0.00000000000E+00 -0.00000000000E+00  0.11368683772E-12  0.17120000000E+03  0.17120000000E+03 0.  0.
         13    1    1    2    0    0 -0.21043556490E+03 -0.60557165812E+02  0.13234019014E+04  0.13413958779E+04  0.10566000000E+00 0.  1.
        994    1    1    2    0    0  0.21056243025E+03  0.60657505924E+02  0.17578862174E+03  0.32897864610E+03  0.17120000000E+03 0.  0.
        998    1    1    2    0    0 -0.12686535154E+00 -0.10034011231E+00  0.80947310725E+00  0.82547602443E+00  0.10000000000E-02 0. -1.
</event>
<event>
 5    1  0.7026671E-009  0.3882897E+03  0.7957747E-01  0.3415839E+00
         13   -1    0    0    0    0  0.00000000000E+00  0.00000000000E+00  0.14999999963E+04  0.15000000000E+04  0.10566000000E+00 0.  1.
        994   -1    0    0    0    0 -0.00000000000E+00 -0.00000000000E+00  0.11368683772E-12  0.17120000000E+03  0.17120000000E+03 0.  0.
         13    1    1    2    0    0  0.27357053363E+03  0.78192065082E+02  0.11647319639E+04  0.11989809818E+04  0.10566000000E+00 0.  1.
        994    1    1    2    0    0 -0.27367922964E+03 -0.78211542175E+02  0.33434381563E+03  0.47128822722E+03  0.17120000000E+03 0.  0.
        998    1    1    2    0    0  0.10869601445E+00  0.19477092424E-01  0.92421673662E+00  0.93079093084E+00  0.10000000000E-02 0.  1.
</event>
<event>
 5    1  0.7026671E-009  0.3882609E+03  0.7957747E-01  0.3415959E+00
         13   -1    0    0    0    0  0.00000000000E+00  0.00000000000E+00  0.14999999963E+04  0.15000000000E+04  0.10566000000E+00 0. -1.
        994   -1    0    0    0    0 -0.00000000000E+00 -0.00000000000E+00  0.11368683772E-12  0.17120000000E+03  0.17120000000E+03 0.  0.
         13    1    1    2    0    0  0.12851599729E+03 -0.28941119296E+03  0.10303074937E+04  0.10778723221E+04  0.10566000000E+00 0. -1.
        994    1    1    2    0    0 -0.12914666306E+03  0.29016589393E+03  0.46517278921E+03  0.58870219161E+03  0.17120000000E+03 0.  0.
        998    1    1    2    0    0  0.63066576869E+00 -0.75470096483E+00  0.45197134113E+01  0.46254862640E+01  0.10000000000E-02 0.  1.
</event>
<event>
 5    1  0.7026671E-009  0.3883000E+03  0.7957747E-01  0.3415796E+00
         13   -1    0    0    0    0  0.00000000000E+00  0.00000000000E+00  0.14999999963E+04  0.15000000000E+04  0.10566000000E+00 0.  1.
        994   -1    0    0    0    0 -0.00000000000E+00 -0.00000000000E+00  0.11368683772E-12  0.17120000000E+03  0.17120000000E+03 0.  0.
         13    1    1    2    0    0 -0.24502627051E+02  0.22624529251E+03  0.12733113580E+04  0.12934872000E+04  0.10566000000E+00 0.  1.
        994    1    1    2    0    0  0.25157527597E+02 -0.23086201137E+03  0.20105161871E+03  0.35165517609E+03  0.17120000000E+03 0.  0.
        998    1    1    2    0    0 -0.65490054573E+00  0.46167188568E+01  0.25637019590E+02  0.26057623878E+02  0.10000000000E-02 0.  1.
</event>
<event>
 5    1  0.7026671E-009  0.3883004E+03  0.7957747E-01  0.3415794E+00
         13   -1    0    0    0    0  0.00000000000E+00  0.00000000000E+00  0.14999999963E+04  0.15000000000E+04  0.10566000000E+00 0. -1.
        994   -1    0    0    0    0 -0.00000000000E+00 -0.00000000000E+00  0.11368683772E-12  0.17120000000E+03  0.17120000000E+03 0.  0.
         13    1    1    2    0    0 -0.10238988945E+03 -0.21824318125E+03  0.12611838975E+04  0.12840165926E+04  0.10566000000E+00 0. -1.
        994    1    1    2    0    0  0.10350845040E+03  0.22051404863E+03  0.22515295414E+03  0.37328774117E+03  0.17120000000E+03 0.  0.
        998    1    1    2    0    0 -0.11185609513E+01 -0.22708673824E+01  0.13663144614E+02  0.13895666195E+02  0.10000000000E-02 0. -1.
</event>
<event>
 5    1  0.7026671E-009  0.3883010E+03  0.7957747E-01  0.3415792E+00
         13   -1    0    0    0    0  0.00000000000E+00  0.00000000000E+00  0.14999999963E+04  0.15000000000E+04  0.10566000000E+00 0. -1.
        994   -1    0    0    0    0 -0.00000000000E+00 -0.00000000000E+00  0.11368683772E-12  0.17120000000E+03  0.17120000000E+03 0.  0.
         13    1    1    2    0    0 -0.28763587364E+03  0.99060208955E+02  0.10945572398E+04  0.11360470427E+04  0.10566000000E+00 0. -1.
        994    1    1    2    0    0  0.28772008706E+03 -0.99089892164E+02  0.40513339936E+03  0.53483097003E+03  0.17120000000E+03 0.  0.
        998    1    1    2    0    0 -0.84213415602E-01  0.29683208423E-01  0.30935713764E+00  0.32198731472E+00  0.10000000000E-02 0.  1.
</event>
<event>
 5    1  0.7026671E-009  0.3882928E+03  0.7957747E-01  0.3415826E+00
         13   -1    0    0    0    0  0.00000000000E+00  0.00000000000E+00  0.14999999963E+04  0.15000000000E+04  0.10566000000E+00 0.  1.
        994   -1    0    0    0    0 -0.00000000000E+00 -0.00000000000E+00  0.11368683772E-12  0.17120000000E+03  0.17120000000E+03 0.  0.
         13    1    1    2    0    0 -0.27364363924E+03 -0.12115411901E+03  0.11052166025E+04  0.11450165551E+04  0.10566000000E+00 0.  1.
        994    1    1    2    0    0  0.27489040311E+03  0.12146342651E+03  0.39020522010E+03  0.52142847208E+03  0.17120000000E+03 0.  0.
        998    1    1    2    0    0 -0.12467638751E+01 -0.30930749588E+00  0.45781736495E+01  0.47549727919E+01  0.10000000000E-02 0.  1.
</event>
<event>
 5    1  0.7026671E-009  0.3882939E+03  0.7957747E-01  0.3415821E+00
         13   -1    0    0    0    0  0.00000000000E+00  0.00000000000E+00  0.14999999963E+04  0.15000000000E+04  0.10566000000E+00 0. -1.
        994   -1    0    0    0    0 -0.00000000000E+00 -0.00000000000E+00  0.11368683772E-12  0.17120000000E+03  0.17120000000E+03 0.  0.
         13    1    1    2    0    0  0.71857064849E+02 -0.28912184337E+03  0.11192416847E+04  0.11582127776E+04  0.10566000000E+00 0. -1.
        994    1    1    2    0    0 -0.71825301341E+02  0.28918310536E+03  0.38047331345E+03  0.51269398727E+03  0.17120000000E+03 0.  0.
        998    1    1    2    0    0 -0.31763508754E-01 -0.61261984823E-01  0.28499809440E+00  0.29323517027E+00  0.10000000000E-02 0. -1.
</event>
<event>
 5    1  0.7026671E-009  0.3883009E+03  0.7957747E-01  0.3415792E+00
         13   -1    0    0    0    0  0.00000000000E+00  0.00000000000E+00  0.14999999963E+04  0.15000000000E+04  0.10566000000E+00 0.  1.
        994   -1    0    0    0    0 -0.00000000000E+00 -0.00000000000E+00  0.11368683772E-12  0.17120000000E+03  0.17120000000E+03 0.  0.
         13    1    1    2    0    0 -0.97755656731E+02  0.80757411161E+02  0.64985804137E+03  0.66211284007E+03  0.10566000000E+00 0.  1.
        994    1    1    2    0    0  0.19066760433E+03 -0.15753814712E+03  0.23354961307E+03  0.38082445419E+03  0.17120000000E+03 0.  0.
        998    1    1    2    0    0 -0.92911947603E+02  0.76780735960E+02  0.61659234184E+03  0.62826270575E+03  0.10000000000E-02 0.  1.
</event>
<event>
 5    1  0.7026671E-009  0.3882999E+03  0.7957747E-01  0.3415796E+00
         13   -1    0    0    0    0  0.00000000000E+00  0.00000000000E+00  0.14999999963E+04  0.15000000000E+04  0.10566000000E+00 0.  1.
        994   -1    0    0    0    0 -0.00000000000E+00 -0.00000000000E+00  0.11368683772E-12  0.17120000000E+03  0.17120000000E+03 0.  0.
         13    1    1    2    0    0 -0.10755338039E+03  0.10520187709E+03  0.81430653647E+03  0.82808834739E+03  0.10566000000E+00 0.  1.
        994    1    1    2    0    0  0.17046537915E+03 -0.16685818694E+03  0.21415755177E+03  0.36341848745E+03  0.17120000000E+03 0.  0.
        998    1    1    2    0    0 -0.62911998760E+02  0.61656309851E+02  0.47153590804E+03  0.47969316516E+03  0.10000000000E-02 0.  1.
</event>
<event>
 5    1  0.7026671E-009  0.3844560E+03  0.7957747E-01  0.3431983E+00
         13   -1    0    0    0    0  0.00000000000E+00  0.00000000000E+00  0.14999999963E+04  0.15000000000E+04  0.10566000000E+00 0.  1.
        994   -1    0    0    0    0 -0.00000000000E+00 -0.00000000000E+00  0.11368683772E-12  0.17120000000E+03  0.17120000000E+03 0.  0.
         13    1    1    2    0    0 -0.43351527787E+02 -0.18925843128E+03  0.43278307600E+03  0.47434092256E+03  0.10566000000E+00 0.  1.
        994    1    1    2    0    0  0.89002428256E+02  0.31962175976E+03  0.57456961306E+03  0.68521469760E+03  0.17120000000E+03 0.  0.
        998    1    1    2    0    0 -0.45650900470E+02 -0.13036332848E+03  0.49264730721E+03  0.51164437985E+03  0.10000000000E-02 0.  1.
</event>
<event>
 5    1  0.7026671E-009  0.3882862E+03  0.7957747E-01  0.3415854E+00
         13   -1    0    0    0    0  0.00000000000E+00  0.00000000000E+00  0.14999999963E+04  0.15000000000E+04  0.10566000000E+00 0.  1.
        994   -1    0    0    0    0 -0.00000000000E+00 -0.00000000000E+00  0.11368683772E-12  0.17120000000E+03  0.17120000000E+03 0.  0.
         13    1    1    2    0    0 -0.13221139752E+03  0.17113381962E+03  0.12742751990E+04  0.12924952347E+04  0.10566000000E+00 0.  1.
        994    1    1    2    0    0  0.13616174309E+03 -0.17746671819E+03  0.18430727407E+03  0.33662006420E+03  0.17120000000E+03 0.  0.
        998    1    1    2    0    0 -0.39503455694E+01  0.63328985677E+01  0.41417523197E+02  0.42084701058E+02  0.10000000000E-02 0. -1.
</event>
<event>
 5    1  0.7026671E-009  0.3883010E+03  0.7957747E-01  0.3415792E+00
         13   -1    0    0    0    0  0.00000000000E+00  0.00000000000E+00  0.14999999963E+04  0.15000000000E+04  0.10566000000E+00 0.  1.
        994   -1    0    0    0    0 -0.00000000000E+00 -0.00000000000E+00  0.11368683772E-12  0.17120000000E+03  0.17120000000E+03 0.  0.
         13    1    1    2    0    0 -0.81337281824E+02 -0.23718640157E+03  0.11676727406E+04  0.11942917494E+04  0.10566000000E+00 0.  1.
        994    1    1    2    0    0  0.85473043013E+02  0.24922984275E+03  0.27304604144E+03  0.41627483271E+03  0.17120000000E+03 0.  0.
        998    1    1    2    0    0 -0.41357611892E+01 -0.12043441183E+02  0.59281214283E+02  0.60633417881E+02  0.10000000000E-02 0.  1.
</event>
<event>
 5    1  0.7026671E-009  0.3883010E+03  0.7957747E-01  0.3415792E+00
         13   -1    0    0    0    0  0.00000000000E+00  0.00000000000E+00  0.14999999963E+04  0.15000000000E+04  0.10566000000E+00 0. -1.
        994   -1    0    0    0    0 -0.00000000000E+00 -0.00000000000E+00  0.11368683772E-12  0.17120000000E+03  0.17120000000E+03 0.  0.
         13    1    1    2    0    0  0.24423212669E+03  0.14309335173E+03  0.11608032443E+04  0.11948176523E+04  0.10566000000E+00 0. -1.
        994    1    1    2    0    0 -0.24540110588E+03 -0.14377990355E+03  0.33362446086E+03  0.47064751600E+03  0.17120000000E+03 0.  0.
        998    1    1    2    0    0  0.11689791968E+01  0.68655181599E+00  0.55722911198E+01  0.57348317397E+01  0.10000000000E-02 0.  1.
</event>
<event>
 5    1  0.7026671E-009  0.3876632E+03  0.7957747E-01  0.3418455E+00
         13   -1    0    0    0    0  0.00000000000E+00  0.00000000000E+00  0.14999999963E+04  0.15000000000E+04  0.10566000000E+00 0. -1.
        994   -1    0    0    0    0 -0.00000000000E+00 -0.00000000000E+00  0.11368683772E-12  0.17120000000E+03  0.17120000000E+03 0.  0.
         13    1    1    2    0    0  0.97927694890E+02 -0.23322384709E+03  0.12498944150E+04  0.12752330203E+04  0.10566000000E+00 0. -1.
        994    1    1    2    0    0 -0.96624807245E+02  0.23356627646E+03  0.24740154222E+03  0.39294595298E+03  0.17120000000E+03 0.  0.
        998    1    1    2    0    0 -0.13028876453E+01 -0.34242937179E+00  0.27040390345E+01  0.30210266783E+01  0.10000000000E-02 0. -1.
</event>
<event>
 5    1  0.7026671E-009  0.3883010E+03  0.7957747E-01  0.3415792E+00
         13   -1    0    0    0    0  0.00000000000E+00  0.00000000000E+00  0.14999999963E+04  0.15000000000E+04  0.10566000000E+00 0. -1.
        994   -1    0    0    0    0 -0.00000000000E+00 -0.00000000000E+00  0.11368683772E-12  0.17120000000E+03  0.17120000000E+03 0.  0.
         13    1    1    2    0    0 -0.15692716274E+03  0.61661772099E+02  0.99398047090E+03  0.10081792977E+04  0.10566000000E+00 0. -1.
        994    1    1    2    0    0  0.20790932849E+03 -0.81682989064E+02  0.18371164493E+03  0.33609196369E+03  0.17120000000E+03 0.  0.
        998    1    1    2    0    0 -0.50982165751E+02  0.20021216965E+02  0.32230788044E+03  0.32692873864E+03  0.10000000000E-02 0. -1.
</event>
<event>
 5    1  0.7026671E-009  0.3882874E+03  0.7957747E-01  0.3415848E+00
         13   -1    0    0    0    0  0.00000000000E+00  0.00000000000E+00  0.14999999963E+04  0.15000000000E+04  0.10566000000E+00 0. -1.
        994   -1    0    0    0    0 -0.00000000000E+00 -0.00000000000E+00  0.11368683772E-12  0.17120000000E+03  0.17120000000E+03 0.  0.
         13    1    1    2    0    0  0.23732148022E+03  0.24323018260E+02  0.12145063417E+04  0.12377151366E+04  0.10566000000E+00 0. -1.
        994    1    1    2    0    0 -0.24643163966E+03 -0.25016808748E+02  0.23441179573E+03  0.38159235281E+03  0.17120000000E+03 0.  0.
        998    1    1    2    0    0  0.91101594394E+01  0.69379048843E+00  0.51081858850E+02  0.51892510585E+02  0.10000000000E-02 0.  1.
</event>
<event>
 5    1  0.7026671E-009  0.3882967E+03  0.7957747E-01  0.3415810E+00
         13   -1    0    0    0    0  0.00000000000E+00  0.00000000000E+00  0.14999999963E+04  0.15000000000E+04  0.10566000000E+00 0.  1.
        994   -1    0    0    0    0 -0.00000000000E+00 -0.00000000000E+00  0.11368683772E-12  0.17120000000E+03  0.17120000000E+03 0.  0.
         13    1    1    2    0    0  0.12224679650E+03  0.21687569436E+03  0.12412399802E+04  0.12659605229E+04  0.10566000000E+00 0.  1.
        994    1    1    2    0    0 -0.12350921133E+03 -0.21932148576E+03  0.24373630001E+03  0.38996572072E+03  0.17120000000E+03 0.  0.
        998    1    1    2    0    0  0.12624148296E+01  0.24457913970E+01  0.15023716089E+02  0.15273756345E+02  0.10000000000E-02 0.  1.
</event>
<event>
 5    1  0.7026671E-009  0.3882347E+03  0.7957747E-01  0.3416068E+00
         13   -1    0    0    0    0  0.00000000000E+00  0.00000000000E+00  0.14999999963E+04  0.15000000000E+04  0.10566000000E+00 0.  1.
        994   -1    0    0    0    0 -0.00000000000E+00 -0.00000000000E+00  0.11368683772E-12  0.17120000000E+03  0.17120000000E+03 0.  0.
         13    1    1    2    0    0  0.22860137117E+03 -0.40616482879E+02  0.65257636011E+03  0.69265012995E+03  0.10566000000E+00 0.  1.
        994    1    1    2    0    0 -0.32965908799E+03  0.51948588054E+02  0.56305662834E+03  0.67654709874E+03  0.17120000000E+03 0.  0.
        998    1    1    2    0    0  0.10105771682E+03 -0.11332105174E+02  0.28436700783E+03  0.30200277131E+03  0.10000000000E-02 0. -1.
</event>
<event>
 5    1  0.7026671E-009  0.3883009E+03  0.7957747E-01  0.3415792E+00
         13   -1    0    0    0    0  0.00000000000E+00  0.00000000000E+00  0.14999999963E+04  0.15000000000E+04  0.10566000000E+00 0.  1.
        994   -1    0    0    0    0 -0.00000000000E+00 -0.00000000000E+00  0.11368683772E-12  0.17120000000E+03  0.17120000000E+03 0.  0.
         13    1    1    2    0    0  0.21078836996E+03 -0.80554104714E+02  0.13116548499E+04  0.13309241741E+04  0.10566000000E+00 0.  1.
        994    1    1    2    0    0 -0.21082018360E+03  0.80564311920E+02  0.18812521821E+03  0.34005337212E+03  0.17120000000E+03 0.  0.
        998    1    1    2    0    0  0.31813641818E-01 -0.10207205570E-01  0.21992813563E+00  0.22245376979E+00  0.10000000000E-02 0.  1.
</event>
<event>
 5    1  0.7026671E-009  0.3882997E+03  0.7957747E-01  0.3415797E+00
         13   -1    0    0    0    0  0.00000000000E+00  0.00000000000E+00  0.14999999963E+04  0.15000000000E+04  0.10566000000E+00 0.  1.
        994   -1    0    0    0    0 -0.00000000000E+00 -0.00000000000E+00  0.11368683772E-12  0.17120000000E+03  0.17120000000E+03 0.  0.
         13    1    1    2    0    0  0.10140221862E+03  0.83629227985E+02  0.76920742416E+03  0.78035654047E+03  0.10566000000E+00 0.  1.
        994    1    1    2    0    0 -0.17251170590E+03 -0.14375691639E+03  0.18595532451E+03  0.33810525343E+03  0.17120000000E+03 0.  0.
        998    1    1    2    0    0  0.71109487286E+02  0.60127688406E+02  0.54483724761E+03  0.55273820610E+03  0.10000000000E-02 0.  1.
</event>
<event>
 5    1  0.7026671E-009  0.3882717E+03  0.7957747E-01  0.3415914E+00
         13   -1    0    0    0    0  0.00000000000E+00  0.00000000000E+00  0.14999999963E+04  0.15000000000E+04  0.10566000000E+00 0. -1.
        994   -1    0    0    0    0 -0.00000000000E+00 -0.00000000000E+00  0.11368683772E-12  0.17120000000E+03  0.17120000000E+03 0.  0.
         13    1    1    2    0    0  0.67945693003E+02 -0.10001466201E+03  0.52602691781E+03  0.53974427208E+03  0.10566000000E+00 0. -1.
        994    1    1    2    0    0 -0.15166477598E+03  0.22360330663E+03  0.29121379706E+03  0.43256855943E+03  0.17120000000E+03 0.  0.
        998    1    1    2    0    0  0.83719082975E+02 -0.12358864462E+03  0.68275928141E+03  0.69888716849E+03  0.10000000000E-02 0. -1.
</event>
<event>
 5    1  0.7026671E-009  0.3883010E+03  0.7957747E-01  0.3415792E+00
         13   -1    0    0    0    0  0.00000000000E+00  0.00000000000E+00  0.14999999963E+04  0.15000000000E+04  0.10566000000E+00 0.  1.
        994   -1    0    0    0    0 -0.00000000000E+00 -0.00000000000E+00  0.11368683772E-12  0.17120000000E+03  0.17120000000E+03 0.  0.
         13    1    1    2    0    0 -0.30193782269E+03 -0.27037470516E+02  0.10889758730E+04  0.11303830929E+04  0.10566000000E+00 0.  1.
        994    1    1    2    0    0  0.30331684843E+03  0.27157168520E+02  0.40604863273E+03  0.53565245681E+03  0.17120000000E+03 0.  0.
        998    1    1    2    0    0 -0.13790257396E+01 -0.11969800383E+00  0.49754905918E+01  0.51644503320E+01  0.10000000000E-02 0.  1.
</event>
<event>
 5    1  0.7026671E-009  0.3883010E+03  0.7957747E-01  0.3415792E+00
         13   -1    0    0    0    0  0.00000000000E+00  0.00000000000E+00  0.14999999963E+04  0.15000000000E+04  0.10566000000E+00 0. -1.
        994   -1    0    0    0    0 -0.00000000000E+00 -0.00000000000E+00  0.11368683772E-12  0.17120000000E+03  0.17120000000E+03 0.  0.
         13    1    1    2    0    0 -0.28327084566E+03  0.14041697612E+03  0.10333588241E+04  0.10806432204E+04  0.10566000000E+00 0. -1.
        994    1    1    2    0    0  0.28422878649E+03 -0.14089818205E+03  0.46314237172E+03  0.58689743334E+03  0.17120000000E+03 0.  0.
        998    1    1    2    0    0 -0.95794082810E+00  0.48120593298E+00  0.34988004123E+01  0.36593462674E+01  0.10000000000E-02 0.  1.
</event>
<event>
 5    1  0.7026671E-009  0.3883008E+03  0.7957747E-01  0.3415793E+00
         13   -1    0    0    0    0  0.00000000000E+00  0.00000000000E+00  0.14999999963E+04  0.15000000000E+04  0.10566000000E+00 0.  1.
        994   -1    0    0    0    0 -0.00000000000E+00 -0.00000000000E+00  0.11368683772E-12  0.17120000000E+03  0.17120000000E+03 0.  0.
         13    1    1    2    0    0 -0.15089609330E+03 -0.16437092610E+03  0.13105347492E+04  0.13293941373E+04  0.10566000000E+00 0.  1.
        994    1    1    2    0    0  0.15146779248E+03  0.16494807540E+03  0.18478090762E+03  0.33705160370E+03  0.17120000000E+03 0.  0.
        998    1    1    2    0    0 -0.57169917583E+00 -0.57714929613E+00  0.46843394576E+01  0.47542589761E+01  0.10000000000E-02 0. -1.
</event>
<event>
 5    1  0.7026671E-009  0.3876773E+03  0.7957747E-01  0.3418396E+00
         13   -1    0    0    0    0  0.00000000000E+00  0.00000000000E+00  0.14999999963E+04  0.15000000000E+04  0.10566000000E+00 0. -1.
        994   -1    0    0    0    0 -0.00000000000E+00 -0.00000000000E+00  0.11368683772E-12  0.17120000000E+03  0.17120000000E+03 0.  0.
         13    1    1    2    0    0  0.12202001419E+03 -0.16302405274E+03  0.11219509927E+04  0.11402805649E+04  0.10566000000E+00 0. -1.
        994    1    1    2    0    0 -0.13064549107E+03  0.18573374120E+03  0.19162896783E+03  0.34292326877E+03  0.17120000000E+03 0.  0.
        998    1    1    2    0    0  0.86254768771E+01 -0.22709688454E+02  0.18642003579E+03  0.18799616630E+03  0.10000000000E-02 0.  1.
</event>
<event>
 5    1  0.7026671E-009  0.3883005E+03  0.7957747E-01  0.3415794E+00
         13   -1    0    0    0    0  0.00000000000E+00  0.00000000000E+00  0.14999999963E+04  0.15000000000E+04  0.10566000000E+00 0. -1.
        994   -1    0    0    0    0 -0.00000000000E+00 -0.00000000000E+00  0.11368683772E-12  0.17120000000E+03  0.17120000000E+03 0.  0.
         13    1    1    2    0    0 -0.18907210503E+03  0.15409111526E+03  0.12553684992E+04  0.12788441706E+04  0.10566000000E+00 0. -1.
        994    1    1    2    0    0  0.19102015129E+03 -0.15563140077E+03  0.23141809959E+03  0.37891108181E+03  0.17120000000E+03 0.  0.
        998    1    1    2    0    0 -0.19480462658E+01  0.15402855057E+01  0.13213397518E+02  0.13444747623E+02  0.10000000000E-02 0. -1.
</event>
<event>
 5    1  0.7026671E-009  0.3882781E+03  0.7957747E-01  0.3415887E+00
         13   -1    0    0    0    0  0.00000000000E+00  0.00000000000E+00  0.14999999963E+04  0.15000000000E+04  0.10566000000E+00 0. -1.
        994   -1    0    0    0    0 -0.00000000000E+00 -0.00000000000E+00  0.11368683772E-12  0.17120000000E+03  0.17120000000E+03 0.  0.
         13    1    1    2    0    0 -0.76223153422E+02 -0.22031859769E+02  0.44870547337E+03  0.45566652824E+03  0.10566000000E+00 0. -1.
        994    1    1    2    0    0  0.22501910556E+03  0.57065786632E+02  0.20090635313E+03  0.35151515557E+03  0.17120000000E+03 0.  0.
        998    1    1    2    0    0 -0.14879595214E+03 -0.35033926863E+02  0.85038816978E+03  0.86401831619E+03  0.10000000000E-02 0. -1.
</event>
<event>
 5    1  0.7026671E-009  0.3882973E+03  0.7957747E-01  0.3415807E+00
         13   -1    0    0    0    0  0.00000000000E+00  0.00000000000E+00  0.14999999963E+04  0.15000000000E+04  0.10566000000E+00 0.  1.
        994   -1    0    0    0    0 -0.00000000000E+00 -0.00000000000E+00  0.11368683772E-12  0.17120000000E+03  0.17120000000E+03 0.  0.
         13    1    1    2    0    0  0.37922239545E+02  0.22659406200E+03  0.12896455674E+04  0.13099498715E+04  0.10566000000E+00 0.  1.
        994    1    1    2    0    0 -0.38289571973E+02 -0.22828652668E+03  0.19953269005E+03  0.35029068498E+03  0.17120000000E+03 0.  0.
        998    1    1    2    0    0  0.36733242872E+00  0.16924646736E+01  0.10821738814E+02  0.10959443496E+02  0.10000000000E-02 0.  1.
</event>
<event>
 5    1  0.7026671E-009  0.3882993E+03  0.7957747E-01  0.3415799E+00
         13   -1    0    0    0    0  0.00000000000E+00  0.00000000000E+00  0.14999999963E+04  0.15000000000E+04  0.10566000000E+00 0.  1.
        994   -1    0    0    0    0 -0.00000000000E+00 -0.00000000000E+00  0.11368683772E-12  0.17120000000E+03  0.17120000000E+03 0.  0.
         13    1    1    2    0    0  0.18479215283E+03 -0.12057416158E+03  0.13183515743E+04  0.13366888766E+04  0.10566000000E+00 0.  1.
        994    1    1    2    0    0 -0.18508958583E+03  0.12074128517E+03  0.17922928958E+03  0.33206805172E+03  0.17120000000E+03 0.  0.
        998    1    1    2    0    0  0.29743300279E+00 -0.16712359506E+00  0.24191323988E+01  0.24430716833E+01  0.10000000000E-02 0.  1.
</event>
<event>
 5    1  0.7026671E-009  0.3883010E+03  0.7957747E-01  0.3415792E+00
         13   -1    0    0    0    0  0.00000000000E+00  0.00000000000E+00  0.14999999963E+04  0.15000000000E+04  0.10566000000E+00 0. -1.
        994   -1    0    0    0    0 -0.00000000000E+00 -0.00000000000E+00  0.11368683772E-12  0.17120000000E+03  0.17120000000E+03 0.  0.
         13    1    1    2    0    0 -0.13377405528E+03 -0.22346604465E+03  0.12342890941E+04  0.12614682517E+04  0.10566000000E+00 0. -1.
        994    1    1    2    0    0  0.13381010598E+03  0.22352465343E+03  0.26538422564E+03  0.40939790226E+03  0.17120000000E+03 0.  0.
        998    1    1    2    0    0 -0.36050705632E-01 -0.58608785678E-01  0.32667653584E+00  0.33384607561E+00  0.10000000000E-02 0.  0.
</event>
<event>
 5    1  0.7026671E-009  0.3883010E+03  0.7957747E-01  0.3415792E+00
         13   -1    0    0    0    0  0.00000000000E+00  0.00000000000E+00  0.14999999963E+04  0.15000000000E+04  0.10566000000E+00 0. -1.
        994   -1    0    0    0    0 -0.00000000000E+00 -0.00000000000E+00  0.11368683772E-12  0.17120000000E+03  0.17120000000E+03 0.  0.
         13    1    1    2    0    0  0.26338046832E+03 -0.94724482625E+02  0.11758578341E+04  0.12087115686E+04  0.10566000000E+00 0. -1.
        994    1    1    2    0    0 -0.26398717360E+03  0.94945061081E+02  0.32145358987E+03  0.45972344174E+03  0.17120000000E+03 0.  0.
        998    1    1    2    0    0  0.60670528299E+00 -0.22057845645E+00  0.26885722655E+01  0.27649896894E+01  0.10000000000E-02 0. -1.
</event>
<event>
 5    1  0.7026671E-009  0.3883010E+03  0.7957747E-01  0.3415792E+00
         13   -1    0    0    0    0  0.00000000000E+00  0.00000000000E+00  0.14999999963E+04  0.15000000000E+04  0.10566000000E+00 0.  1.
        994   -1    0    0    0    0 -0.00000000000E+00 -0.00000000000E+00  0.11368683772E-12  0.17120000000E+03  0.17120000000E+03 0.  0.
         13    1    1    2    0    0 -0.15540061530E+03 -0.16164541011E+03  0.13144978093E+04  0.13334853174E+04  0.10566000000E+00 0.  1.
        994    1    1    2    0    0  0.15541667824E+03  0.16166082505E+03  0.18536783587E+03  0.33757849577E+03  0.17120000000E+03 0.  0.
        998    1    1    2    0    0 -0.16062942318E-01 -0.15414948297E-01  0.13435105849E+00  0.13618680430E+00  0.10000000000E-02 0.  0.
</event>
<event>
 5    1  0.7026671E-009  0.3883010E+03  0.7957747E-01  0.3415792E+00
         13   -1    0    0    0    0  0.00000000000E+00  0.00000000000E+00  0.14999999963E+04  0.15000000000E+04  0.10566000000E+00 0. -1.
        994   -1    0    0    0    0 -0.00000000000E+00 -0.00000000000E+00  0.11368683772E-12  0.17120000000E+03  0.17120000000E+03 0.  0.
         13    1    1    2    0    0  0.19354581006E+03 -0.34336128891E+02  0.10759160425E+04  0.10937249617E+04  0.10566000000E+00 0. -1.
        994    1    1    2    0    0 -0.23229207809E+03  0.41178136437E+02  0.20862679129E+03  0.35845477610E+03  0.17120000000E+03 0.  0.
        998    1    1    2    0    0  0.38746268026E+02 -0.68420075458E+01  0.21545716252E+03  0.21902026216E+03  0.10000000000E-02 0. -1.
</event>
<event>
 5    1  0.7026671E-009  0.3883010E+03  0.7957747E-01  0.3415792E+00
         13   -1    0    0    0    0  0.00000000000E+00  0.00000000000E+00  0.14999999963E+04  0.15000000000E+04  0.10566000000E+00 0. -1.
        994   -1    0    0    0    0 -0.00000000000E+00 -0.00000000000E+00  0.11368683772E-12  0.17120000000E+03  0.17120000000E+03 0.  0.
         13    1    1    2    0    0  0.14561701433E+03  0.20345377843E+03  0.12597419373E+04  0.12843471161E+04  0.10566000000E+00 0. -1.
        994    1    1    2    0    0 -0.14562424627E+03 -0.20346310973E+03  0.24019937768E+03  0.38679301850E+03  0.17120000000E+03 0.  0.
        998    1    1    2    0    0  0.72319362607E-02  0.93312999138E-02  0.58681319472E-01  0.59865443414E-01  0.10000000000E-02 0.  0.
</event>
<event>
 5    1  0.7026671E-009  0.3880610E+03  0.7957747E-01  0.3416793E+00
         13   -1    0    0    0    0  0.00000000000E+00  0.00000000000E+00  0.14999999963E+04  0.15000000000E+04  0.10566000000E+00 0. -1.
        994   -1    0    0    0    0 -0.00000000000E+00 -0.00000000000E+00  0.11368683772E-12  0.17120000000E+03  0.17120000000E+03 0.  0.
         13    1    1    2    0    0  0.18879492684E+03  0.10187193917E+03  0.12841856956E+04  0.13019809247E+04  0.10566000000E+00 0. -1.
        994    1    1    2    0    0 -0.19187370355E+03 -0.10363567709E+03  0.17415058850E+03  0.32740454968E+03  0.17120000000E+03 0.  0.
        998    1    1    2    0    0  0.30787767038E+01  0.17637379165E+01  0.41663712157E+02  0.41814525576E+02  0.10000000000E-02 0.  1.
</event>
<event>
 5    1  0.7026671E-009  0.3883010E+03  0.7957747E-01  0.3415792E+00
         13   -1    0    0    0    0  0.00000000000E+00  0.00000000000E+00  0.14999999963E+04  0.15000000000E+04  0.10566000000E+00 0.  1.
        994   -1    0    0    0    0 -0.00000000000E+00 -0.00000000000E+00  0.11368683772E-12  0.17120000000E+03  0.17120000000E+03 0.  0.
         13    1    1    2    0    0  0.23539372006E+03  0.26701268070E+02  0.12785785213E+04  0.13003408044E+04  0.10566000000E+00 0.  1.
        994    1    1    2    0    0 -0.23681316325E+03 -0.26863626797E+02  0.21371893900E+03  0.36302527959E+03  0.17120000000E+03 0.  0.
        998    1    1    2    0    0  0.14194431965E+01  0.16235872764E+00  0.77025359546E+01  0.78339160371E+01  0.10000000000E-02 0.  0.
</event>
<event>
 5    1  0.7026671E-009  0.3883010E+03  0.7957747E-01  0.3415792E+00
         13   -1    0    0    0    0  0.00000000000E+00  0.00000000000E+00  0.14999999963E+04  0.15000000000E+04  0.10566000000E+00 0. -1.
        994   -1    0    0    0    0 -0.00000000000E+00 -0.00000000000E+00  0.11368683772E-12  0.17120000000E+03  0.17120000000E+03 0.  0.
         13    1    1    2    0    0  0.23689849257E+03 -0.12975861004E+03  0.71221574791E+03  0.76171482550E+03  0.10566000000E+00 0. -1.
        994    1    1    2    0    0 -0.29729269013E+03  0.16279926033E+03  0.60648326477E+03  0.71555428391E+03  0.17120000000E+03 0.  0.
        998    1    1    2    0    0  0.60394197562E+02 -0.33040650286E+02  0.18130098360E+03  0.19393089059E+03  0.10000000000E-02 0. -1.
</event>
<event>
 5    1  0.7026671E-009  0.3882987E+03  0.7957747E-01  0.3415801E+00
         13   -1    0    0    0    0  0.00000000000E+00  0.00000000000E+00  0.14999999963E+04  0.15000000000E+04  0.10566000000E+00 0.  1.
        994   -1    0    0    0    0 -0.00000000000E+00 -0.00000000000E+00  0.11368683772E-12  0.17120000000E+03  0.17120000000E+03 0.  0.
         13    1    1    2    0    0  0.13480423825E+03 -0.22109268349E+03  0.12001582096E+04  0.12277759961E+04  0.10566000000E+00 0.  1.
        994    1    1    2    0    0 -0.13771681876E+03  0.22574941044E+03  0.27557942356E+03  0.41854770000E+03  0.17120000000E+03 0.  0.
        998    1    1    2    0    0  0.29125805128E+01 -0.46567269584E+01  0.24262363149E+02  0.24876303942E+02  0.10000000000E-02 0. -1.
</event>
<event>
 5    1  0.7026671E-009  0.3883009E+03  0.7957747E-01  0.3415792E+00
         13   -1    0    0    0    0  0.00000000000E+00  0.00000000000E+00  0.14999999963E+04  0.15000000000E+04  0.10566000000E+00 0.  1.
        994   -1    0    0    0    0 -0.00000000000E+00 -0.00000000000E+00  0.11368683772E-12  0.17120000000E+03  0.17120000000E+03 0.  0.
         13    1    1    2    0    0  0.18219627538E+03 -0.20092166438E+02  0.93136048327E+03  0.94922681109E+03  0.10566000000E+00 0.  1.
        994    1    1    2    0    0 -0.24705155661E+03  0.27078322610E+02  0.23630589228E+03  0.38329834582E+03  0.17120000000E+03 0.  0.
        998    1    1    2    0    0  0.64855281236E+02 -0.69861561715E+01  0.33233362072E+03  0.33867484309E+03  0.10000000000E-02 0.  1.
</event>
<event>
 5    1  0.7026671E-009  0.3883010E+03  0.7957747E-01  0.3415792E+00
         13   -1    0    0    0    0  0.00000000000E+00  0.00000000000E+00  0.14999999963E+04  0.15000000000E+04  0.10566000000E+00 0. -1.
        994   -1    0    0    0    0 -0.00000000000E+00 -0.00000000000E+00  0.11368683772E-12  0.17120000000E+03  0.17120000000E+03 0.  0.
         13    1    1    2    0    0 -0.12714234817E+03  0.20459141092E+03  0.12592626023E+04  0.12820940429E+04  0.10566000000E+00 0. -1.
        994    1    1    2    0    0  0.12867230055E+03 -0.20707027033E+03  0.22558098074E+03  0.37367215130E+03  0.17120000000E+03 0.  0.
        998    1    1    2    0    0 -0.15299523805E+01  0.24788594133E+01  0.15156413233E+02  0.15433805796E+02  0.10000000000E-02 0. -1.
</event>
<event>
 5    1  0.7026671E-009  0.3883005E+03  0.7957747E-01  0.3415794E+00
         13   -1    0    0    0    0  0.00000000000E+00  0.00000000000E+00  0.14999999963E+04  0.15000000000E+04  0.10566000000E+00 0.  1.
        994   -1    0    0    0    0 -0.00000000000E+00 -0.00000000000E+00  0.11368683772E-12  0.17120000000E+03  0.17120000000E+03 0.  0.
         13    1    1    2    0    0  0.24251122566E+03  0.51781488494E+02  0.12643062605E+04  0.12883956491E+04  0.10566000000E+00 0.  1.
        994    1    1    2    0    0 -0.24259206538E+03 -0.51788458263E+02  0.23521795054E+03  0.38232169550E+03  0.17120000000E+03 0.  0.
        998    1    1    2    0    0  0.80839718610E-01  0.69697692488E-02  0.47578525302E+00  0.48265540997E+00  0.10000000000E-02 0. -1.
</event>
<event>
 5    1  0.7026671E-009  0.3883007E+03  0.7957747E-01  0.3415793E+00
         13   -1    0    0    0    0  0.00000000000E+00  0.00000000000E+00  0.14999999963E+04  0.15000000000E+04  0.10566000000E+00 0.  1.
        994   -1    0    0    0    0 -0.00000000000E+00 -0.00000000000E+00  0.11368683772E-12  0.17120000000E+03  0.17120000000E+03 0.  0.
         13    1    1    2    0    0  0.19492810303E+03  0.66615799211E+02  0.11357119947E+04  0.11542427718E+04  0.10566000000E+00 0.  1.
        994    1    1    2    0    0 -0.22225692638E+03 -0.75839945025E+02  0.20639720906E+03  0.35645348433E+03  0.17120000000E+03 0.  0.
        998    1    1    2    0    0  0.27328823349E+02  0.92241458140E+01  0.15789079248E+03  0.16050374389E+03  0.10000000000E-02 0. -1.
</event>
<event>
 5    1  0.7026671E-009  0.3880747E+03  0.7957747E-01  0.3416736E+00
         13   -1    0    0    0    0  0.00000000000E+00  0.00000000000E+00  0.14999999963E+04  0.15000000000E+04  0.10566000000E+00 0. -1.
        994   -1    0    0    0    0 -0.00000000000E+00 -0.00000000000E+00  0.11368683772E-12  0.17120000000E+03  0.17120000000E+03 0.  0.
         13    1    1    2    0    0 -0.12408748867E+03  0.18663408281E+03  0.67176845367E+03  0.70816866085E+03  0.10566000000E+00 0. -1.
        994    1    1    2    0    0  0.19009782538E+03 -0.26459061950E+03  0.51088353510E+03  0.62964816015E+03  0.17120000000E+03 0.  0.
        998    1    1    2    0    0 -0.66010336712E+02  0.77956536697E+02  0.31734800751E+03  0.33338317900E+03  0.10000000000E-02 0. -1.
</event>
<event>
 5    1  0.7026671E-009  0.3882334E+03  0.7957747E-01  0.3416074E+00
         13   -1    0    0    0    0  0.00000000000E+00  0.00000000000E+00  0.14999999963E+04  0.15000000000E+04  0.10566000000E+00 0. -1.
        994   -1    0    0    0    0 -0.00000000000E+00 -0.00000000000E+00  0.11368683772E-12  0.17120000000E+03  0.17120000000E+03 0.  0.
         13    1    1    2    0    0 -0.85772886912E+02 -0.20837692125E+03  0.13089541212E+04  0.13282088812E+04  0.10566000000E+00 0. -1.
        994    1    1    2    0    0  0.85646814565E+02  0.20907616434E+03  0.18869218773E+03  0.34053252568E+03  0.17120000000E+03 0.  0.
        998    1    1    2    0    0  0.12607234697E+00 -0.69924308872E+00  0.23536873490E+01  0.24585931487E+01  0.10000000000E-02 0. -1.
</event>
<event>
 5    1  0.7026671E-009  0.3882998E+03  0.7957747E-01  0.3415797E+00
         13   -1    0    0    0    0  0.00000000000E+00  0.00000000000E+00  0.14999999963E+04  0.15000000000E+04  0.10566000000E+00 0. -1.
        994   -1    0    0    0    0 -0.00000000000E+00 -0.00000000000E+00  0.11368683772E-12  0.17120000000E+03  0.17120000000E+03 0.  0.
         13    1    1    2    0    0  0.20366314340E+03 -0.87559328444E+02  0.12538508501E+04  0.12732977960E+04  0.10566000000E+00 0. -1.
        994    1    1    2    0    0 -0.21140400623E+03  0.91075485906E+02  0.19694773422E+03  0.34797161953E+03  0.17120000000E+03 0.  0.
        998    1    1    2    0    0  0.77408628241E+01 -0.35161574618E+01  0.49201411967E+02  0.49930584426E+02  0.10000000000E-02 0. -1.
</event>
<event>
 5    1  0.7026671E-009  0.3881953E+03  0.7957747E-01  0.3416233E+00
         13   -1    0    0    0    0  0.00000000000E+00  0.00000000000E+00  0.14999999963E+04  0.15000000000E+04  0.10566000000E+00 0. -1.
        994   -1    0    0    0    0 -0.00000000000E+00 -0.00000000000E+00  0.11368683772E-12  0.17120000000E+03  0.17120000000E+03 0.  0.
         13    1    1    2    0    0 -0.27241572952E+03  0.11261249004E+03  0.11119670653E+04  0.11503750119E+04  0.10566000000E+00 0. -1.
        994    1    1    2    0    0  0.27477325701E+03 -0.11452165345E+03  0.37968558234E+03  0.51194348644E+03  0.17120000000E+03 0.  0.
        998    1    1    2    0    0 -0.23575274923E+01  0.19091634047E+01  0.83473486328E+01  0.88815016174E+01  0.10000000000E-02 0. -1.
</event>
<event>
 5    1  0.7026671E-009  0.3883010E+03  0.7957747E-01  0.3415792E+00
         13   -1    0    0    0    0  0.00000000000E+00  0.00000000000E+00  0.14999999963E+04  0.15000000000E+04  0.10566000000E+00 0. -1.
        994   -1    0    0    0    0 -0.00000000000E+00 -0.00000000000E+00  0.11368683772E-12  0.17120000000E+03  0.17120000000E+03 0.  0.
         13    1    1    2    0    0 -0.21856378467E+03  0.39989680095E+02  0.13145201998E+04  0.13331664072E+04  0.10566000000E+00 0. -1.
        994    1    1    2    0    0  0.21906192199E+03 -0.40085984491E+02  0.18242693303E+03  0.33493885668E+03  0.17120000000E+03 0.  0.
        998    1    1    2    0    0 -0.49813731905E+00  0.96304396046E-01  0.30528634468E+01  0.30947361035E+01  0.10000000000E-02 0. -1.
</event>
<event>
 5    1  0.7026671E-009  0.3883004E+03  0.7957747E-01  0.3415794E+00
         13   -1    0    0    0    0  0.00000000000E+00  0.00000000000E+00  0.14999999963E+04  0.15000000000E+04  0.10566000000E+00 0.  1.
        994   -1    0    0    0    0 -0.00000000000E+00 -0.00000000000E+00  0.11368683772E-12  0.17120000000E+03  0.17120000000E+03 0.  0.
         13    1    1    2    0    0  0.22901196482E+03 -0.31937499062E+02  0.13003364483E+04  0.13207351642E+04  0.10566000000E+00 0.  1.
        994    1    1    2    0    0 -0.22908005467E+03  0.31950985581E+02  0.19917055615E+03  0.34996698039E+03  0.17120000000E+03 0.  0.
        998    1    1    2    0    0  0.68089847410E-01 -0.13486519558E-01  0.49299181565E+00  0.49785544472E+00  0.10000000000E-02 0. -1.
</event>
<event>
 5    1  0.7026671E-009  0.3883010E+03  0.7957747E-01  0.3415792E+00
         13   -1    0    0    0    0  0.00000000000E+00  0.00000000000E+00  0.14999999963E+04  0.15000000000E+04  0.10566000000E+00 0.  1.
        994   -1    0    0    0    0 -0.00000000000E+00 -0.00000000000E+00  0.11368683772E-12  0.17120000000E+03  0.17120000000E+03 0.  0.
         13    1    1    2    0    0 -0.17902944946E+03  0.16947958308E+03  0.12396935572E+04  0.12639679584E+04  0.10566000000E+00 0.  1.
        994    1    1    2    0    0  0.18187265766E+03 -0.17216855530E+03  0.24074193843E+03  0.38727999685E+03  0.17120000000E+03 0.  0.
        998    1    1    2    0    0 -0.28432081955E+01  0.26889722191E+01  0.19564500618E+02  0.19952044754E+02  0.10000000000E-02 0.  1.
</event>
<event>
 5    1  0.7026671E-009  0.3883009E+03  0.7957747E-01  0.3415792E+00
         13   -1    0    0    0    0  0.00000000000E+00  0.00000000000E+00  0.14999999963E+04  0.15000000000E+04  0.10566000000E+00 0.  1.
        994   -1    0    0    0    0 -0.00000000000E+00 -0.00000000000E+00  0.11368683772E-12  0.17120000000E+03  0.17120000000E+03 0.  0.
         13    1    1    2    0    0  0.27684053439E+03  0.80325750998E+02  0.11537864662E+04  0.11892502380E+04  0.10566000000E+00 0.  1.
        994    1    1    2    0    0 -0.27684573911E+03 -0.80326674348E+02  0.34619239636E+03  0.48192795434E+03  0.17120000000E+03 0.  0.
        998    1    1    2    0    0  0.52047122713E-02  0.92334996522E-03  0.21133724529E-01  0.21807703168E-01  0.10000000000E-02 0.  0.
</event>
<event>
 5    1  0.7026671E-009  0.3883010E+03  0.7957747E-01  0.3415792E+00
         13   -1    0    0    0    0  0.00000000000E+00  0.00000000000E+00  0.14999999963E+04  0.15000000000E+04  0.10566000000E+00 0. -1.
        994   -1    0    0    0    0 -0.00000000000E+00 -0.00000000000E+00  0.11368683772E-12  0.17120000000E+03  0.17120000000E+03 0.  0.
         13    1    1    2    0    0  0.21077976666E+03 -0.76810290928E+02  0.12969590915E+04  0.13162183812E+04  0.10566000000E+00 0. -1.
        994    1    1    2    0    0 -0.21291253467E+03  0.77582494549E+02  0.18989995355E+03  0.34164634234E+03  0.17120000000E+03 0.  0.
        998    1    1    2    0    0  0.21327680149E+01 -0.77220362075E+00  0.13140951205E+02  0.13335276428E+02  0.10000000000E-02 0.  1.
</event>
<event>
 5    1  0.7026671E-009  0.3883008E+03  0.7957747E-01  0.3415792E+00
         13   -1    0    0    0    0  0.00000000000E+00  0.00000000000E+00  0.14999999963E+04  0.15000000000E+04  0.10566000000E+00 0.  1.
        994   -1    0    0    0    0 -0.00000000000E+00 -0.00000000000E+00  0.11368683772E-12  0.17120000000E+03  0.17120000000E+03 0.  0.
         13    1    1    2    0    0  0.87550985892E+02 -0.16871555280E+03  0.11439952692E+04  0.11596789642E+04  0.10566000000E+00 0.  1.
        994    1    1    2    0    0 -0.10135107608E+03  0.19498008528E+03  0.17692850961E+03  0.33000365421E+03  0.17120000000E+03 0.  0.
        998    1    1    2    0    0  0.13800090192E+02 -0.26264532487E+02  0.17907621746E+03  0.18151738158E+03  0.10000000000E-02 0. -1.
</event>
<event>
 5    1  0.7026671E-009  0.3883009E+03  0.7957747E-01  0.3415792E+00
         13   -1    0    0    0    0  0.00000000000E+00  0.00000000000E+00  0.14999999963E+04  0.15000000000E+04  0.10566000000E+00 0.  1.
        994   -1    0    0    0    0 -0.00000000000E+00 -0.00000000000E+00  0.11368683772E-12  0.17120000000E+03  0.17120000000E+03 0.  0.
         13    1    1    2    0    0 -0.23932809902E+03 -0.69057299229E+02  0.12622241896E+04  0.12865678239E+04  0.10566000000E+00 0.  1.
        994    1    1    2    0    0  0.23935173719E+03  0.69061866034E+02  0.23765848841E+03  0.38451240883E+03  0.17120000000E+03 0.  0.
        998    1    1    2    0    0 -0.23638165454E-01 -0.45668043936E-02  0.11731830970E+00  0.11976729253E+00  0.10000000000E-02 0.  1.
</event>
<event>
 5    1  0.7026671E-009  0.3883010E+03  0.7957747E-01  0.3415792E+00
         13   -1    0    0    0    0  0.00000000000E+00  0.00000000000E+00  0.14999999963E+04  0.15000000000E+04  0.10566000000E+00 0.  1.
        994   -1    0    0    0    0 -0.00000000000E+00 -0.00000000000E+00  0.11368683772E-12  0.17120000000E+03  0.17120000000E+03 0.  0.
         13    1    1    2    0    0  0.20868813009E+03  0.78148429374E+02  0.13045159027E+04  0.13234121294E+04  0.10566000000E+00 0.  1.
        994    1    1    2    0    0 -0.21023548915E+03 -0.78729561142E+02  0.18583020649E+03  0.33799350636E+03  0.17120000000E+03 0.  0.
        998    1    1    2    0    0  0.15473590631E+01  0.58113176882E+00  0.96538871045E+01  0.97943642688E+01  0.10000000000E-02 0.  1.
</event>
<event>
 5    1  0.7026671E-009  0.3883010E+03  0.7957747E-01  0.3415792E+00
         13   -1    0    0    0    0  0.00000000000E+00  0.00000000000E+00  0.14999999963E+04  0.15000000000E+04  0.10566000000E+00 0.  1.
        994   -1    0    0    0    0 -0.00000000000E+00 -0.00000000000E+00  0.11368683772E-12  0.17120000000E+03  0.17120000000E+03 0.  0.
         13    1    1    2    0    0 -0.16747879543E+03  0.18310849481E+03  0.12338361712E+04  0.12585426398E+04  0.10566000000E+00 0.  1.
        994    1    1    2    0    0  0.17030879370E+03 -0.18621756510E+03  0.24526336050E+03  0.39133824599E+03  0.17120000000E+03 0.  0.
        998    1    1    2    0    0 -0.28299982706E+01  0.31090702984E+01  0.20900464595E+02  0.21319114185E+02  0.10000000000E-02 0.  1.
</event>
<event>
 5    1  0.7026671E-009  0.3882997E+03  0.7957747E-01  0.3415797E+00
         13   -1    0    0    0    0  0.00000000000E+00  0.00000000000E+00  0.14999999963E+04  0.15000000000E+04  0.10566000000E+00 0.  1.
        994   -1    0    0    0    0 -0.00000000000E+00 -0.00000000000E+00  0.11368683772E-12  0.17120000000E+03  0.17120000000E+03 0.  0.
         13    1    1    2    0    0 -0.29880255273E+03  0.30325837977E+02  0.11102891713E+04  0.11501933216E+04  0.10566000000E+00 0.  1.
        994    1    1    2    0    0  0.29883034931E+03 -0.30323772511E+02  0.38954938945E+03  0.52084285122E+03  0.17120000000E+03 0.  0.
        998    1    1    2    0    0 -0.27796582471E-01 -0.20654663873E-02  0.16143553326E+00  0.16382718806E+00  0.10000000000E-02 0. -1.
</event>
<event>
 5    1  0.7026671E-009  0.3822747E+03  0.7957747E-01  0.3441313E+00
         13   -1    0    0    0    0  0.00000000000E+00  0.00000000000E+00  0.14999999963E+04  0.15000000000E+04  0.10566000000E+00 0.  1.
        994   -1    0    0    0    0 -0.00000000000E+00 -0.00000000000E+00  0.11368683772E-12  0.17120000000E+03  0.17120000000E+03 0.  0.
         13    1    1    2    0    0 -0.10506482360E+03  0.37804840198E+02  0.66462901349E+03  0.67394329126E+03  0.10566000000E+00 0.  1.
        994    1    1    2    0    0  0.12561585178E+03 -0.10598759213E+03  0.98499141667E+02  0.25695181029E+03  0.17120000000E+03 0.  0.
        998    1    1    2    0    0 -0.20551028177E+02  0.68182751936E+02  0.73687184113E+03  0.74030489845E+03  0.10000000000E-02 0.  1.
</event>
<event>
 5    1  0.7026671E-009  0.3882986E+03  0.7957747E-01  0.3415802E+00
         13   -1    0    0    0    0  0.00000000000E+00  0.00000000000E+00  0.14999999963E+04  0.15000000000E+04  0.10566000000E+00 0.  1.
        994   -1    0    0    0    0 -0.00000000000E+00 -0.00000000000E+00  0.11368683772E-12  0.17120000000E+03  0.17120000000E+03 0.  0.
         13    1    1    2    0    0  0.18610234365E+03 -0.12659490490E+03  0.13110081271E+04  0.13301889613E+04  0.10566000000E+00 0.  1.
        994    1    1    2    0    0 -0.18626463796E+03  0.12676091396E+03  0.18739024635E+03  0.33939267683E+03  0.17120000000E+03 0.  0.
        998    1    1    2    0    0  0.16229431305E+00 -0.16600905975E+00  0.16016228578E+01  0.16183618973E+01  0.10000000000E-02 0. -1.
</event>
<event>
 5    1  0.7026671E-009  0.3883010E+03  0.7957747E-01  0.3415792E+00
         13   -1    0    0    0    0  0.00000000000E+00  0.00000000000E+00  0.14999999963E+04  0.15000000000E+04  0.10566000000E+00 0.  1.
        994   -1    0    0    0    0 -0.00000000000E+00 -0.00000000000E+00  0.11368683772E-12  0.17120000000E+03  0.17120000000E+03 0.  0.
         13    1    1    2    0    0 -0.18567130923E+03 -0.11631327741E+03  0.13205579887E+04  0.13386097363E+04  0.10566000000E+00 0.  1.
        994    1    1    2    0    0  0.18607301265E+03  0.11656103368E+03  0.17659460467E+03  0.32970401121E+03  0.17120000000E+03 0.  0.
        998    1    1    2    0    0 -0.40170342843E+00 -0.24775626697E+00  0.28474029336E+01  0.28862524627E+01  0.10000000000E-02 0.  1.
</event>
<event>
 5    1  0.7026671E-009  0.3883009E+03  0.7957747E-01  0.3415792E+00
         13   -1    0    0    0    0  0.00000000000E+00  0.00000000000E+00  0.14999999963E+04  0.15000000000E+04  0.10566000000E+00 0.  1.
        994   -1    0    0    0    0 -0.00000000000E+00 -0.00000000000E+00  0.11368683772E-12  0.17120000000E+03  0.17120000000E+03 0.  0.
         13    1    1    2    0    0  0.25251755530E+03  0.10901542594E+03  0.11948279770E+04  0.12260764187E+04  0.10566000000E+00 0.  1.
        994    1    1    2    0    0 -0.25254066291E+03 -0.10902230976E+03  0.30506266305E+03  0.44501159405E+03  0.17120000000E+03 0.  0.
        998    1    1    2    0    0  0.23107608890E-01  0.68838174715E-02  0.10935624123E+00  0.11198721368E+00  0.10000000000E-02 0.  1.
</event>
<event>
 5    1  0.7026671E-009  0.3883010E+03  0.7957747E-01  0.3415792E+00
         13   -1    0    0    0    0  0.00000000000E+00  0.00000000000E+00  0.14999999963E+04  0.15000000000E+04  0.10566000000E+00 0. -1.
        994   -1    0    0    0    0 -0.00000000000E+00 -0.00000000000E+00  0.11368683772E-12  0.17120000000E+03  0.17120000000E+03 0.  0.
         13    1    1    2    0    0 -0.22166582051E+03  0.53072888960E+02  0.12912231451E+04  0.13111863670E+04  0.10566000000E+00 0. -1.
        994    1    1    2    0    0  0.22374496725E+03 -0.53578968986E+02  0.19671272547E+03  0.34776120061E+03  0.17120000000E+03 0.  0.
        998    1    1    2    0    0 -0.20791467469E+01  0.50608002542E+00  0.12064125716E+02  0.12252432350E+02  0.10000000000E-02 0.  1.
</event>
<event>
 5    1  0.7026671E-009  0.3883010E+03  0.7957747E-01  0.3415792E+00
         13   -1    0    0    0    0  0.00000000000E+00  0.00000000000E+00  0.14999999963E+04  0.15000000000E+04  0.10566000000E+00 0. -1.
        994   -1    0    0    0    0 -0.00000000000E+00 -0.00000000000E+00  0.11368683772E-12  0.17120000000E+03  0.17120000000E+03 0.  0.
         13    1    1    2    0    0 -0.29933411344E+03  0.80968559908E+02  0.10436145900E+04  0.10887094391E+04  0.10566000000E+00 0. -1.
        994    1    1    2    0    0  0.30259649929E+03 -0.81852559319E+02  0.44499292754E+03  0.57060724532E+03  0.17120000000E+03 0.  0.
        998    1    1    2    0    0 -0.32623858512E+01  0.88399941105E+00  0.11392478753E+02  0.11883315595E+02  0.10000000000E-02 0.  1.
</event>
<event>
 5    1  0.7026671E-009  0.3883005E+03  0.7957747E-01  0.3415794E+00
         13   -1    0    0    0    0  0.00000000000E+00  0.00000000000E+00  0.14999999963E+04  0.15000000000E+04  0.10566000000E+00 0. -1.
        994   -1    0    0    0    0 -0.00000000000E+00 -0.00000000000E+00  0.11368683772E-12  0.17120000000E+03  0.17120000000E+03 0.  0.
         13    1    1    2    0    0  0.10011560216E+03 -0.21166840036E+03  0.12947371399E+04  0.13157396848E+04  0.10566000000E+00 0. -1.
        994    1    1    2    0    0 -0.10012326397E+03  0.21169937713E+03  0.20504034164E+03  0.35523552182E+03  0.17120000000E+03 0.  0.
        998    1    1    2    0    0  0.76618163463E-02 -0.30976769219E-01  0.22251475263E+00  0.22479341361E+00  0.10000000000E-02 0. -1.
</event>
<event>
 5    1  0.7026671E-009  0.3883010E+03  0.7957747E-01  0.3415792E+00
         13   -1    0    0    0    0  0.00000000000E+00  0.00000000000E+00  0.14999999963E+04  0.15000000000E+04  0.10566000000E+00 0. -1.
        994   -1    0    0    0    0 -0.00000000000E+00 -0.00000000000E+00  0.11368683772E-12  0.17120000000E+03  0.17120000000E+03 0.  0.
         13    1    1    2    0    0  0.13858477388E+03 -0.22542118350E+03  0.12168899837E+04  0.12453279460E+04  0.10566000000E+00 0. -1.
        994    1    1    2    0    0 -0.13909510467E+03  0.22625266841E+03  0.27862647310E+03  0.42128359761E+03  0.17120000000E+03 0.  0.
        998    1    1    2    0    0  0.51033079213E+00 -0.83148490848E+00  0.44835394859E+01  0.45884563844E+01  0.10000000000E-02 0.  0.
</event>
<event>
 5    1  0.7026671E-009  0.3880683E+03  0.7957747E-01  0.3416762E+00
         13   -1    0    0    0    0  0.00000000000E+00  0.00000000000E+00  0.14999999963E+04  0.15000000000E+04  0.10566000000E+00 0. -1.
        994   -1    0    0    0    0 -0.00000000000E+00 -0.00000000000E+00  0.11368683772E-12  0.17120000000E+03  0.17120000000E+03 0.  0.
         13    1    1    2    0    0 -0.13642454825E+03 -0.53239643857E+02  0.55993291871E+03  0.57876679385E+03  0.10566000000E+00 0. -1.
        994    1    1    2    0    0  0.26834985531E+03  0.97539732142E+02  0.33774496870E+03  0.47424334268E+03  0.17120000000E+03 0.  0.
        998    1    1    2    0    0 -0.13192530706E+03 -0.44300088286E+02  0.60232210886E+03  0.61818986347E+03  0.10000000000E-02 0.  1.
</event>
<event>
 5    1  0.7026671E-009  0.3882661E+03  0.7957747E-01  0.3415937E+00
         13   -1    0    0    0    0  0.00000000000E+00  0.00000000000E+00  0.14999999963E+04  0.15000000000E+04  0.10566000000E+00 0. -1.
        994   -1    0    0    0    0 -0.00000000000E+00 -0.00000000000E+00  0.11368683772E-12  0.17120000000E+03  0.17120000000E+03 0.  0.
         13    1    1    2    0    0  0.20321690574E+03  0.10415428145E+03  0.10124850079E+04  0.10379167247E+04  0.10566000000E+00 0. -1.
        994    1    1    2    0    0 -0.24027820843E+03 -0.12665936212E+03  0.29523728224E+03  0.43617737708E+03  0.17120000000E+03 0.  0.
        998    1    1    2    0    0  0.37061302681E+02  0.22505080666E+02  0.19227770616E+03  0.19710589819E+03  0.10000000000E-02 0.  1.
</event>
<event>
 5    1  0.7026671E-009  0.3883009E+03  0.7957747E-01  0.3415792E+00
         13   -1    0    0    0    0  0.00000000000E+00  0.00000000000E+00  0.14999999963E+04  0.15000000000E+04  0.10566000000E+00 0. -1.
        994   -1    0    0    0    0 -0.00000000000E+00 -0.00000000000E+00  0.11368683772E-12  0.17120000000E+03  0.17120000000E+03 0.  0.
         13    1    1    2    0    0  0.41874721897E+02  0.21518446331E+03  0.13089566113E+04  0.13271869752E+04  0.10566000000E+00 0. -1.
        994    1    1    2    0    0 -0.42210005062E+02 -0.21708387422E+03  0.17952396509E+03  0.33233324694E+03  0.17120000000E+03 0.  0.
        998    1    1    2    0    0  0.33528316529E+00  0.18994109133E+01  0.11519419869E+02  0.11679777897E+02  0.10000000000E-02 0.  1.
</event>
<event>
 5    1  0.7026671E-009  0.3882626E+03  0.7957747E-01  0.3415952E+00
         13   -1    0    0    0    0  0.00000000000E+00  0.00000000000E+00  0.14999999963E+04  0.15000000000E+04  0.10566000000E+00 0.  1.
        994   -1    0    0    0    0 -0.00000000000E+00 -0.00000000000E+00  0.11368683772E-12  0.17120000000E+03  0.17120000000E+03 0.  0.
         13    1    1    2    0    0  0.16775501136E+03 -0.59820478378E+02  0.85007071886E+03  0.86852776104E+03  0.10566000000E+00 0.  1.
        994    1    1    2    0    0 -0.24060801278E+03  0.87586546969E+02  0.25427816532E+03  0.39941262421E+03  0.17120000000E+03 0.  0.
        998    1    1    2    0    0  0.72853001415E+02 -0.27766068591E+02  0.39565111210E+03  0.40325961475E+03  0.10000000000E-02 0. -1.
</event>
<event>
 5    1  0.7026671E-009  0.3882738E+03  0.7957747E-01  0.3415905E+00
         13   -1    0    0    0    0  0.00000000000E+00  0.00000000000E+00  0.14999999963E+04  0.15000000000E+04  0.10566000000E+00 0.  1.
        994   -1    0    0    0    0 -0.00000000000E+00 -0.00000000000E+00  0.11368683772E-12  0.17120000000E+03  0.17120000000E+03 0.  0.
         13    1    1    2    0    0  0.53676236595E+02 -0.14024597883E+03  0.52243168246E+03  0.54358527109E+03  0.10566000000E+00 0.  1.
        994    1    1    2    0    0 -0.10454903049E+03  0.29120281031E+03  0.42670378273E+03  0.55417969531E+03  0.17120000000E+03 0.  0.
        998    1    1    2    0    0  0.50872793891E+02 -0.15095683148E+03  0.55086453110E+03  0.57343503359E+03  0.10000000000E-02 0.  1.
</event>
<event>
 5    1  0.7026671E-009  0.3883010E+03  0.7957747E-01  0.3415792E+00
         13   -1    0    0    0    0  0.00000000000E+00  0.00000000000E+00  0.14999999963E+04  0.15000000000E+04  0.10566000000E+00 0.  1.
        994   -1    0    0    0    0 -0.00000000000E+00 -0.00000000000E+00  0.11368683772E-12  0.17120000000E+03  0.17120000000E+03 0.  0.
         13    1    1    2    0    0  0.52525647886E+02  0.25072835687E+03  0.12240549275E+04  0.12505735201E+04  0.10566000000E+00 0.  1.
        994    1    1    2    0    0 -0.53132287373E+02 -0.25361539690E+03  0.26184673456E+03  0.40622279836E+03  0.17120000000E+03 0.  0.
        998    1    1    2    0    0  0.60663948758E+00  0.28870400274E+01  0.14098334233E+02  0.14403681500E+02  0.10000000000E-02 0.  1.
</event>
<event>
 5    1  0.7026671E-009  0.3882996E+03  0.7957747E-01  0.3415798E+00
         13   -1    0    0    0    0  0.00000000000E+00  0.00000000000E+00  0.14999999963E+04  0.15000000000E+04  0.10566000000E+00 0. -1.
        994   -1    0    0    0    0 -0.00000000000E+00 -0.00000000000E+00  0.11368683772E-12  0.17120000000E+03  0.17120000000E+03 0.  0.
         13    1    1    2    0    0  0.69695456040E+02  0.25542134868E+03  0.11540201270E+04  0.11840016836E+04  0.10566000000E+00 0. -1.
        994    1    1    2    0    0 -0.72149106828E+02 -0.26500957333E+03  0.30386366396E+03  0.44393483063E+03  0.17120000000E+03 0.  0.
        998    1    1    2    0    0  0.24536507882E+01  0.95882246494E+01  0.42116205282E+02  0.43263485788E+02  0.10000000000E-02 0.  1.
</event>
<event>
 5    1  0.7026671E-009  0.3882982E+03  0.7957747E-01  0.3415803E+00
         13   -1    0    0    0    0  0.00000000000E+00  0.00000000000E+00  0.14999999963E+04  0.15000000000E+04  0.10566000000E+00 0.  1.
        994   -1    0    0    0    0 -0.00000000000E+00 -0.00000000000E+00  0.11368683772E-12  0.17120000000E+03  0.17120000000E+03 0.  0.
         13    1    1    2    0    0  0.21266913972E+03 -0.47081877888E+02  0.12965869397E+04  0.13147557072E+04  0.10566000000E+00 0.  1.
        994    1    1    2    0    0 -0.21625096395E+03  0.47792401355E+02  0.18012328778E+03  0.33286999240E+03  0.17120000000E+03 0.  0.
        998    1    1    2    0    0  0.35818242292E+01 -0.71052346726E+00  0.23289768800E+02  0.23574300417E+02  0.10000000000E-02 0. -1.
</event>
<event>
 5    1  0.7026671E-009  0.3883006E+03  0.7957747E-01  0.3415793E+00
         13   -1    0    0    0    0  0.00000000000E+00  0.00000000000E+00  0.14999999963E+04  0.15000000000E+04  0.10566000000E+00 0. -1.
        994   -1    0    0    0    0 -0.00000000000E+00 -0.00000000000E+00  0.11368683772E-12  0.17120000000E+03  0.17120000000E+03 0.  0.
         13    1    1    2    0    0 -0.23365813769E+03  0.41251403336E+02  0.12875841232E+04  0.13092634147E+04  0.10566000000E+00 0. -1.
        994    1    1    2    0    0  0.23379293214E+03 -0.41267331666E+02  0.21176054423E+03  0.36126734682E+03  0.17120000000E+03 0.  0.
        998    1    1    2    0    0 -0.13479445303E+00  0.15928329842E-01  0.65532886312E+00  0.66923850390E+00  0.10000000000E-02 0. -1.
</event>
<event>
 5    1  0.7026671E-009  0.3882994E+03  0.7957747E-01  0.3415798E+00
         13   -1    0    0    0    0  0.00000000000E+00  0.00000000000E+00  0.14999999963E+04  0.15000000000E+04  0.10566000000E+00 0.  1.
        994   -1    0    0    0    0 -0.00000000000E+00 -0.00000000000E+00  0.11368683772E-12  0.17120000000E+03  0.17120000000E+03 0.  0.
         13    1    1    2    0    0 -0.22944820654E+03 -0.16547516289E+03  0.11603559813E+04  0.11943427161E+04  0.10566000000E+00 0.  1.
        994    1    1    2    0    0  0.23060319666E+03  0.16644141796E+03  0.33355046365E+03  0.47058042004E+03  0.17120000000E+03 0.  0.
        998    1    1    2    0    0 -0.11549901221E+01 -0.96625507141E+00  0.60935513537E+01  0.62768638782E+01  0.10000000000E-02 0. -1.
</event>
<event>
 5    1  0.7026671E-009  0.3876941E+03  0.7957747E-01  0.3418326E+00
         13   -1    0    0    0    0  0.00000000000E+00  0.00000000000E+00  0.14999999963E+04  0.15000000000E+04  0.10566000000E+00 0. -1.
        994   -1    0    0    0    0 -0.00000000000E+00 -0.00000000000E+00  0.11368683772E-12  0.17120000000E+03  0.17120000000E+03 0.  0.
         13    1    1    2    0    0  0.13662807057E+03  0.19233568149E+03  0.10710285212E+04  0.10967052241E+04  0.10566000000E+00 0. -1.
        994    1    1    2    0    0 -0.15359734783E+03 -0.21033979487E+03  0.26629616687E+03  0.40994885420E+03  0.17120000000E+03 0.  0.
        998    1    1    2    0    0  0.16969277255E+02  0.18004113377E+02  0.16267530816E+03  0.16454592172E+03  0.10000000000E-02 0. -1.
</event>
<event>
 5    1  0.7026671E-009  0.3883006E+03  0.7957747E-01  0.3415793E+00
         13   -1    0    0    0    0  0.00000000000E+00  0.00000000000E+00  0.14999999963E+04  0.15000000000E+04  0.10566000000E+00 0. -1.
        994   -1    0    0    0    0 -0.00000000000E+00 -0.00000000000E+00  0.11368683772E-12  0.17120000000E+03  0.17120000000E+03 0.  0.
         13    1    1    2    0    0  0.52299424318E+02  0.20587001096E+03  0.11158222444E+04  0.11358595791E+04  0.10566000000E+00 0. -1.
        994    1    1    2    0    0 -0.59558224459E+02 -0.23549865733E+03  0.22363665916E+03  0.37192686784E+03  0.17120000000E+03 0.  0.
        998    1    1    2    0    0  0.72588001418E+01  0.29628646367E+02  0.16054109274E+03  0.16341355306E+03  0.10000000000E-02 0. -1.
</event>
<event>
 5    1  0.7026671E-009  0.3883010E+03  0.7957747E-01  0.3415792E+00
         13   -1    0    0    0    0  0.00000000000E+00  0.00000000000E+00  0.14999999963E+04  0.15000000000E+04  0.10566000000E+00 0.  1.
        994   -1    0    0    0    0 -0.00000000000E+00 -0.00000000000E+00  0.11368683772E-12  0.17120000000E+03  0.17120000000E+03 0.  0.
         13    1    1    2    0    0 -0.13107751973E+03  0.18773065635E+03  0.13052383857E+04  0.13251684309E+04  0.10566000000E+00 0.  1.
        994    1    1    2    0    0  0.13109525515E+03 -0.18775707063E+03  0.19457733509E+03  0.34584456454E+03  0.17120000000E+03 0.  0.
        998    1    1    2    0    0 -0.17735413363E-01  0.26414274883E-01  0.18427549627E+00  0.18700459174E+00  0.10000000000E-02 0.  0.
</event>
<event>
 5    1  0.7026671E-009  0.3882818E+03  0.7957747E-01  0.3415872E+00
         13   -1    0    0    0    0  0.00000000000E+00  0.00000000000E+00  0.14999999963E+04  0.15000000000E+04  0.10566000000E+00 0. -1.
        994   -1    0    0    0    0 -0.00000000000E+00 -0.00000000000E+00  0.11368683772E-12  0.17120000000E+03  0.17120000000E+03 0.  0.
         13    1    1    2    0    0  0.30121058484E+03 -0.29324178453E+02  0.10745095426E+04  0.11163146922E+04  0.10566000000E+00 0. -1.
        994    1    1    2    0    0 -0.30473745741E+03  0.29096831784E+02  0.41267650312E+03  0.54159290966E+03  0.17120000000E+03 0.  0.
        998    1    1    2    0    0  0.35268725678E+01  0.22734666887E+00  0.12813950594E+02  0.13292398108E+02  0.10000000000E-02 0. -1.
</event>
<event>
 5    1  0.7026671E-009  0.3883007E+03  0.7957747E-01  0.3415793E+00
         13   -1    0    0    0    0  0.00000000000E+00  0.00000000000E+00  0.14999999963E+04  0.15000000000E+04  0.10566000000E+00 0. -1.
        994   -1    0    0    0    0 -0.00000000000E+00 -0.00000000000E+00  0.11368683772E-12  0.17120000000E+03  0.17120000000E+03 0.  0.
         13    1    1    2    0    0  0.27564111296E+03 -0.46897604852E+02  0.11780592518E+04  0.12107852908E+04  0.10566000000E+00 0. -1.
        994    1    1    2    0    0 -0.27608816073E+03  0.46958521739E+02  0.31995382855E+03  0.45837721111E+03  0.17120000000E+03 0.  0.
        998    1    1    2    0    0  0.44704776898E+00 -0.60916886758E-01  0.19869158867E+01  0.20374980529E+01  0.10000000000E-02 0.  1.
</event>
<event>
 5    1  0.7026671E-009  0.3841152E+03  0.7957747E-01  0.3433433E+00
         13   -1    0    0    0    0  0.00000000000E+00  0.00000000000E+00  0.14999999963E+04  0.15000000000E+04  0.10566000000E+00 0.  1.
        994   -1    0    0    0    0 -0.00000000000E+00 -0.00000000000E+00  0.11368683772E-12  0.17120000000E+03  0.17120000000E+03 0.  0.
         13    1    1    2    0    0 -0.46231113364E+01 -0.10264517605E+02  0.38845328363E+02  0.40443839825E+02  0.10566000000E+00 0.  1.
        994    1    1    2    0    0 -0.12962551072E+03  0.13727194418E+02  0.60280859934E+02  0.22346013284E+03  0.17120000000E+03 0.  0.
        998    1    1    2    0    0  0.13424862206E+03 -0.34626768126E+01  0.14008738080E+04  0.14072960273E+04  0.10000000000E-02 0.  1.
</event>
<event>
 5    1  0.7026671E-009  0.3878742E+03  0.7957747E-01  0.3417573E+00
         13   -1    0    0    0    0  0.00000000000E+00  0.00000000000E+00  0.14999999963E+04  0.15000000000E+04  0.10566000000E+00 0. -1.
        994   -1    0    0    0    0 -0.00000000000E+00 -0.00000000000E+00  0.11368683772E-12  0.17120000000E+03  0.17120000000E+03 0.  0.
         13    1    1    2    0    0  0.19905314281E+03 -0.28746899367E+02  0.11198287254E+04  0.11377455442E+04  0.10566000000E+00 0. -1.
        994    1    1    2    0    0 -0.22314303982E+03  0.37307254882E+02  0.18973867292E+03  0.34131342119E+03  0.17120000000E+03 0.  0.
        998    1    1    2    0    0  0.24089897012E+02 -0.85603555149E+01  0.19043259794E+03  0.19214103462E+03  0.10000000000E-02 0.  1.
</event>
<event>
 5    1  0.7026671E-009  0.3883009E+03  0.7957747E-01  0.3415792E+00
         13   -1    0    0    0    0  0.00000000000E+00  0.00000000000E+00  0.14999999963E+04  0.15000000000E+04  0.10566000000E+00 0.  1.
        994   -1    0    0    0    0 -0.00000000000E+00 -0.00000000000E+00  0.11368683772E-12  0.17120000000E+03  0.17120000000E+03 0.  0.
         13    1    1    2    0    0 -0.20589324656E+03 -0.15280840465E+03  0.11896071266E+04  0.12169254555E+04  0.10566000000E+00 0.  1.
        994    1    1    2    0    0  0.21209855420E+03  0.15736037268E+03  0.27467380938E+03  0.41773583177E+03  0.17120000000E+03 0.  0.
        998    1    1    2    0    0 -0.62053076396E+01 -0.45519680315E+01  0.35719060286E+02  0.36538712684E+02  0.10000000000E-02 0. -1.
</event>
<event>
 5    1  0.7026671E-009  0.3883009E+03  0.7957747E-01  0.3415792E+00
         13   -1    0    0    0    0  0.00000000000E+00  0.00000000000E+00  0.14999999963E+04  0.15000000000E+04  0.10566000000E+00 0. -1.
        994   -1    0    0    0    0 -0.00000000000E+00 -0.00000000000E+00  0.11368683772E-12  0.17120000000E+03  0.17120000000E+03 0.  0.
         13    1    1    2    0    0  0.15683199774E+03 -0.17829098379E+03  0.12880546051E+04  0.13097589959E+04  0.10566000000E+00 0. -1.
        994    1    1    2    0    0 -0.15683895401E+03  0.17829894320E+03  0.21187941467E+03  0.36137417866E+03  0.17120000000E+03 0.  0.
        998    1    1    2    0    0  0.69562737118E-02 -0.79594060868E-02  0.65976499975E-01  0.66825447535E-01  0.10000000000E-02 0.  1.
</event>
<event>
 5    1  0.7026671E-009  0.3883001E+03  0.7957747E-01  0.3415795E+00
         13   -1    0    0    0    0  0.00000000000E+00  0.00000000000E+00  0.14999999963E+04  0.15000000000E+04  0.10566000000E+00 0.  1.
        994   -1    0    0    0    0 -0.00000000000E+00 -0.00000000000E+00  0.11368683772E-12  0.17120000000E+03  0.17120000000E+03 0.  0.
         13    1    1    2    0    0 -0.22698035925E+03  0.86979573702E+02  0.12732474125E+04  0.12962424597E+04  0.10566000000E+00 0.  1.
        994    1    1    2    0    0  0.22732272548E+03 -0.87071393016E+02  0.22477412430E+03  0.37294757803E+03  0.17120000000E+03 0.  0.
        998    1    1    2    0    0 -0.34236623508E+00  0.91819314651E-01  0.19784594792E+01  0.20099622724E+01  0.10000000000E-02 0. -1.
</event>
<event>
 5    1  0.7026671E-009  0.3873686E+03  0.7957747E-01  0.3419689E+00
         13   -1    0    0    0    0  0.00000000000E+00  0.00000000000E+00  0.14999999963E+04  0.15000000000E+04  0.10566000000E+00 0. -1.
        994   -1    0    0    0    0 -0.00000000000E+00 -0.00000000000E+00  0.11368683772E-12  0.17120000000E+03  0.17120000000E+03 0.  0.
         13    1    1    2    0    0 -0.15908023276E+03  0.18742292908E+03  0.11079583392E+04  0.11349033295E+04  0.10566000000E+00 0. -1.
        994    1    1    2    0    0  0.17689712597E+03 -0.21077947136E+03  0.30732138718E+03  0.44662786942E+03  0.17120000000E+03 0.  0.
        998    1    1    2    0    0 -0.17816893210E+02  0.23356542280E+02  0.84720269937E+02  0.89668801097E+02  0.10000000000E-02 0.  1.
</event>
<event>
 5    1  0.7026671E-009  0.3883009E+03  0.7957747E-01  0.3415792E+00
         13   -1    0    0    0    0  0.00000000000E+00  0.00000000000E+00  0.14999999963E+04  0.15000000000E+04  0.10566000000E+00 0. -1.
        994   -1    0    0    0    0 -0.00000000000E+00 -0.00000000000E+00  0.11368683772E-12  0.17120000000E+03  0.17120000000E+03 0.  0.
         13    1    1    2    0    0  0.83266229173E+02  0.25508596356E+03  0.11386971593E+04  0.11698860396E+04  0.10566000000E+00 0. -1.
        994    1    1    2    0    0 -0.86613835844E+02 -0.26510189430E+03  0.31642008772E+03  0.45520553911E+03  0.17120000000E+03 0.  0.
        998    1    1    2    0    0  0.33476066710E+01  0.10015930738E+02  0.44882749227E+02  0.46108421337E+02  0.10000000000E-02 0.  1.
</event>
<event>
 5    1  0.7026671E-009  0.3859059E+03  0.7957747E-01  0.3425839E+00
         13   -1    0    0    0    0  0.00000000000E+00  0.00000000000E+00  0.14999999963E+04  0.15000000000E+04  0.10566000000E+00 0. -1.
        994   -1    0    0    0    0 -0.00000000000E+00 -0.00000000000E+00  0.11368683772E-12  0.17120000000E+03  0.17120000000E+03 0.  0.
         13    1    1    2    0    0 -0.11756730757E+03 -0.19742718484E+03  0.11776518226E+04  0.11998597383E+04  0.10566000000E+00 0. -1.
        994    1    1    2    0    0  0.11130784240E+03  0.21864394635E+03  0.23273656117E+03  0.37903872884E+03  0.17120000000E+03 0.  0.
        998    1    1    2    0    0  0.62594651635E+01 -0.21216761513E+02  0.89611612513E+02  0.92301532877E+02  0.10000000000E-02 0.  1.
</event>
<event>
 5    1  0.7026671E-009  0.3883007E+03  0.7957747E-01  0.3415793E+00
         13   -1    0    0    0    0  0.00000000000E+00  0.00000000000E+00  0.14999999963E+04  0.15000000000E+04  0.10566000000E+00 0. -1.
        994   -1    0    0    0    0 -0.00000000000E+00 -0.00000000000E+00  0.11368683772E-12  0.17120000000E+03  0.17120000000E+03 0.  0.
         13    1    1    2    0    0  0.11747255148E+03 -0.32788333503E+03  0.73171977929E+03  0.81038332184E+03  0.10566000000E+00 0. -1.
        994    1    1    2    0    0 -0.11749352684E+03  0.32797210060E+03  0.76808525684E+03  0.86060143469E+03  0.17120000000E+03 0.  0.
        998    1    1    2    0    0  0.20975361197E-01 -0.88765567808E-01  0.19496014608E+00  0.21524346765E+00  0.10000000000E-02 0.  1.
</event>
<event>
 5    1  0.7026671E-009  0.3883010E+03  0.7957747E-01  0.3415792E+00
         13   -1    0    0    0    0  0.00000000000E+00  0.00000000000E+00  0.14999999963E+04  0.15000000000E+04  0.10566000000E+00 0. -1.
        994   -1    0    0    0    0 -0.00000000000E+00 -0.00000000000E+00  0.11368683772E-12  0.17120000000E+03  0.17120000000E+03 0.  0.
         13    1    1    2    0    0 -0.95754421624E+02 -0.21247543334E+03  0.12927117879E+04  0.13135518630E+04  0.10566000000E+00 0. -1.
        994    1    1    2    0    0  0.96005300413E+02  0.21302516574E+03  0.20396623801E+03  0.35427165452E+03  0.17120000000E+03 0.  0.
        998    1    1    2    0    0 -0.25087878930E+00 -0.54973239781E+00  0.33219704033E+01  0.33764825242E+01  0.10000000000E-02 0.  1.
</event>
<event>
 5    1  0.7026671E-009  0.3883010E+03  0.7957747E-01  0.3415792E+00
         13   -1    0    0    0    0  0.00000000000E+00  0.00000000000E+00  0.14999999963E+04  0.15000000000E+04  0.10566000000E+00 0.  1.
        994   -1    0    0    0    0 -0.00000000000E+00 -0.00000000000E+00  0.11368683772E-12  0.17120000000E+03  0.17120000000E+03 0.  0.
         13    1    1    2    0    0  0.11329097840E+03  0.22692390406E+03  0.12508930450E+04  0.12763474156E+04  0.10566000000E+00 0.  1.
        994    1    1    2    0    0 -0.11333989990E+03 -0.22701919111E+03  0.24858325352E+03  0.39431804419E+03  0.17120000000E+03 0.  0.
        998    1    1    2    0    0  0.48921497064E-01  0.95287051518E-01  0.52369771255E+00  0.53454020353E+00  0.10000000000E-02 0. -1.
</event>
<event>
 5    1  0.7026671E-009  0.3883010E+03  0.7957747E-01  0.3415792E+00
         13   -1    0    0    0    0  0.00000000000E+00  0.00000000000E+00  0.14999999963E+04  0.15000000000E+04  0.10566000000E+00 0. -1.
        994   -1    0    0    0    0 -0.00000000000E+00 -0.00000000000E+00  0.11368683772E-12  0.17120000000E+03  0.17120000000E+03 0.  0.
         13    1    1    2    0    0  0.14521484738E+03 -0.26458283343E+03  0.11024105462E+04  0.11429787623E+04  0.10566000000E+00 0. -1.
        994    1    1    2    0    0 -0.14536830445E+03  0.26486057627E+03  0.39643031120E+03  0.52701944978E+03  0.17120000000E+03 0.  0.
        998    1    1    2    0    0  0.15345707575E+00 -0.27774284250E+00  0.11591389202E+01  0.12017879168E+01  0.10000000000E-02 0.  0.
</event>
<event>
 5    1  0.7026671E-009  0.3882617E+03  0.7957747E-01  0.3415955E+00
         13   -1    0    0    0    0  0.00000000000E+00  0.00000000000E+00  0.14999999963E+04  0.15000000000E+04  0.10566000000E+00 0. -1.
        994   -1    0    0    0    0 -0.00000000000E+00 -0.00000000000E+00  0.11368683772E-12  0.17120000000E+03  0.17120000000E+03 0.  0.
         13    1    1    2    0    0 -0.43009325063E+02  0.21146707622E+03  0.11421296365E+04  0.11623374055E+04  0.10566000000E+00 0. -1.
        994    1    1    2    0    0  0.45694938768E+02 -0.23639796661E+03  0.21901729474E+03  0.36776356731E+03  0.17120000000E+03 0.  0.
        998    1    1    2    0    0 -0.26856137058E+01  0.24930890392E+02  0.13885306499E+03  0.14109902719E+03  0.10000000000E-02 0. -1.
</event>
<event>
 5    1  0.7026671E-009  0.3883010E+03  0.7957747E-01  0.3415792E+00
         13   -1    0    0    0    0  0.00000000000E+00  0.00000000000E+00  0.14999999963E+04  0.15000000000E+04  0.10566000000E+00 0.  1.
        994   -1    0    0    0    0 -0.00000000000E+00 -0.00000000000E+00  0.11368683772E-12  0.17120000000E+03  0.17120000000E+03 0.  0.
         13    1    1    2    0    0  0.20461555672E+03  0.14303015823E+03  0.11836473633E+04  0.12096884905E+04  0.10566000000E+00 0.  1.
        994    1    1    2    0    0 -0.21346770742E+03 -0.14923576840E+03  0.26524398640E+03  0.40927202323E+03  0.17120000000E+03 0.  0.
        998    1    1    2    0    0  0.88521507006E+01  0.62056101729E+01  0.51108646542E+02  0.52239486234E+02  0.10000000000E-02 0. -1.
</event>
<event>
 5    1  0.7026671E-009  0.3882862E+03  0.7957747E-01  0.3415854E+00
         13   -1    0    0    0    0  0.00000000000E+00  0.00000000000E+00  0.14999999963E+04  0.15000000000E+04  0.10566000000E+00 0.  1.
        994   -1    0    0    0    0 -0.00000000000E+00 -0.00000000000E+00  0.11368683772E-12  0.17120000000E+03  0.17120000000E+03 0.  0.
         13    1    1    2    0    0  0.15177887037E+03 -0.34574583148E+01  0.90523510859E+03  0.91787765661E+03  0.10566000000E+00 0.  1.
        994    1    1    2    0    0 -0.22372683678E+03  0.45524964001E+01  0.18447693350E+03  0.33677232920E+03  0.17120000000E+03 0.  0.
        998    1    1    2    0    0  0.71947966406E+02 -0.10950380853E+01  0.41028795418E+03  0.41655001420E+03  0.10000000000E-02 0.  1.
</event>
<event>
 5    1  0.7026671E-009  0.3882836E+03  0.7957747E-01  0.3415864E+00
         13   -1    0    0    0    0  0.00000000000E+00  0.00000000000E+00  0.14999999963E+04  0.15000000000E+04  0.10566000000E+00 0. -1.
        994   -1    0    0    0    0 -0.00000000000E+00 -0.00000000000E+00  0.11368683772E-12  0.17120000000E+03  0.17120000000E+03 0.  0.
         13    1    1    2    0    0 -0.95654290050E+02 -0.34998841444E+02  0.50927962391E+03  0.51936539026E+03  0.10566000000E+00 0. -1.
        994    1    1    2    0    0  0.23160025949E+03  0.88725126784E+02  0.23514185318E+03  0.38224594103E+03  0.17120000000E+03 0.  0.
        998    1    1    2    0    0 -0.13594596944E+03 -0.53726285340E+02  0.75557851918E+03  0.76958866870E+03  0.10000000000E-02 0.  1.
</event>
<event>
 5    1  0.7026671E-009  0.3883010E+03  0.7957747E-01  0.3415792E+00
         13   -1    0    0    0    0  0.00000000000E+00  0.00000000000E+00  0.14999999963E+04  0.15000000000E+04  0.10566000000E+00 0.  1.
        994   -1    0    0    0    0 -0.00000000000E+00 -0.00000000000E+00  0.11368683772E-12  0.17120000000E+03  0.17120000000E+03 0.  0.
         13    1    1    2    0    0  0.26680856156E+03  0.12002384192E+02  0.12165241509E+04  0.12454966425E+04  0.10566000000E+00 0.  1.
        994    1    1    2    0    0 -0.26692543425E+03 -0.12008500644E+02  0.28294454682E+03  0.42515932086E+03  0.17120000000E+03 0.  0.
        998    1    1    2    0    0  0.11687269837E+00  0.61164511846E-02  0.53129859150E+00  0.54403660900E+00  0.10000000000E-02 0.  0.
</event>
<event>
 5    1  0.7026671E-009  0.3871428E+03  0.7957747E-01  0.3420635E+00
         13   -1    0    0    0    0  0.00000000000E+00  0.00000000000E+00  0.14999999963E+04  0.15000000000E+04  0.10566000000E+00 0.  1.
        994   -1    0    0    0    0 -0.00000000000E+00 -0.00000000000E+00  0.11368683772E-12  0.17120000000E+03  0.17120000000E+03 0.  0.
         13    1    1    2    0    0  0.15336033448E+03  0.20248896232E+03  0.11779901769E+04  0.12050651601E+04  0.10566000000E+00 0.  1.
        994    1    1    2    0    0 -0.15169194115E+03 -0.21105738207E+03  0.26590164528E+03  0.40935166849E+03  0.17120000000E+03 0.  0.
        998    1    1    2    0    0 -0.16683933344E+01  0.85684197513E+01  0.56108174127E+02  0.56783171435E+02  0.10000000000E-02 0. -1.
</event>
<event>
 5    1  0.7026671E-009  0.3882921E+03  0.7957747E-01  0.3415829E+00
         13   -1    0    0    0    0  0.00000000000E+00  0.00000000000E+00  0.14999999963E+04  0.15000000000E+04  0.10566000000E+00 0.  1.
        994   -1    0    0    0    0 -0.00000000000E+00 -0.00000000000E+00  0.11368683772E-12  0.17120000000E+03  0.17120000000E+03 0.  0.
         13    1    1    2    0    0  0.88027696682E+02  0.23682596862E+03  0.12536205490E+04  0.12788275517E+04  0.10566000000E+00 0.  1.
        994    1    1    2    0    0 -0.88028164330E+02 -0.23690761645E+03  0.24618494764E+03  0.39216150358E+03  0.17120000000E+03 0.  0.
        998    1    1    2    0    0  0.46764709756E-03  0.81647834858E-01  0.19449959293E+00  0.21094473040E+00  0.10000000000E-02 0.  1.
</event>
<event>
 5    1  0.7026671E-009  0.3883003E+03  0.7957747E-01  0.3415795E+00
         13   -1    0    0    0    0  0.00000000000E+00  0.00000000000E+00  0.14999999963E+04  0.15000000000E+04  0.10566000000E+00 0. -1.
        994   -1    0    0    0    0 -0.00000000000E+00 -0.00000000000E+00  0.11368683772E-12  0.17120000000E+03  0.17120000000E+03 0.  0.
         13    1    1    2    0    0 -0.15850101595E+03 -0.19652371706E+03  0.12536001093E+04  0.12787718282E+04  0.10566000000E+00 0. -1.
        994    1    1    2    0    0  0.15858524673E+03  0.19659671708E+03  0.24581893273E+03  0.39183662072E+03  0.17120000000E+03 0.  0.
        998    1    1    2    0    0 -0.84230782559E-01 -0.73000020892E-01  0.58095425189E+00  0.59155107182E+00  0.10000000000E-02 0. -1.
</event>
<event>
 5    1  0.7026671E-009  0.3882643E+03  0.7957747E-01  0.3415945E+00
         13   -1    0    0    0    0  0.00000000000E+00  0.00000000000E+00  0.14999999963E+04  0.15000000000E+04  0.10566000000E+00 0. -1.
        994   -1    0    0    0    0 -0.00000000000E+00 -0.00000000000E+00  0.11368683772E-12  0.17120000000E+03  0.17120000000E+03 0.  0.
         13    1    1    2    0    0  0.20662763519E+03 -0.15175352515E+03  0.86737257628E+03  0.90446631185E+03  0.10566000000E+00 0. -1.
        994    1    1    2    0    0 -0.25256077219E+03  0.18255247741E+03  0.43665169936E+03  0.56310433954E+03  0.17120000000E+03 0.  0.
        998    1    1    2    0    0  0.45933137001E+02 -0.30798952257E+02  0.19597572064E+03  0.20362934861E+03  0.10000000000E-02 0.  1.
</event>
<event>
 5    1  0.7026671E-009  0.3883010E+03  0.7957747E-01  0.3415792E+00
         13   -1    0    0    0    0  0.00000000000E+00  0.00000000000E+00  0.14999999963E+04  0.15000000000E+04  0.10566000000E+00 0.  1.
        994   -1    0    0    0    0 -0.00000000000E+00 -0.00000000000E+00  0.11368683772E-12  0.17120000000E+03  0.17120000000E+03 0.  0.
         13    1    1    2    0    0  0.64582046106E+00  0.22328431005E+03  0.13005230650E+04  0.13195516489E+04  0.10566000000E+00 0.  1.
        994    1    1    2    0    0 -0.64421954938E+00 -0.22534407041E+03  0.18746191878E+03  0.33945806233E+03  0.17120000000E+03 0.  0.
        998    1    1    2    0    0 -0.16009116771E-02  0.20597603673E+01  0.12015012479E+02  0.12190288808E+02  0.10000000000E-02 0.  1.
</event>
<event>
 5    1  0.7026671E-009  0.3882819E+03  0.7957747E-01  0.3415871E+00
         13   -1    0    0    0    0  0.00000000000E+00  0.00000000000E+00  0.14999999963E+04  0.15000000000E+04  0.10566000000E+00 0. -1.
        994   -1    0    0    0    0 -0.00000000000E+00 -0.00000000000E+00  0.11368683772E-12  0.17120000000E+03  0.17120000000E+03 0.  0.
         13    1    1    2    0    0 -0.22637594451E+03 -0.54952237712E+02  0.12898211659E+04  0.13106885473E+04  0.10566000000E+00 0. -1.
        994    1    1    2    0    0  0.22709609688E+03  0.55351339479E+02  0.20416636954E+03  0.35444287897E+03  0.17120000000E+03 0.  0.
        998    1    1    2    0    0 -0.72015236040E+00 -0.39910176634E+00  0.60124608180E+01  0.60685737805E+01  0.10000000000E-02 0. -1.
</event>
<event>
 5    1  0.7026671E-009  0.3882933E+03  0.7957747E-01  0.3415824E+00
         13   -1    0    0    0    0  0.00000000000E+00  0.00000000000E+00  0.14999999963E+04  0.15000000000E+04  0.10566000000E+00 0. -1.
        994   -1    0    0    0    0 -0.00000000000E+00 -0.00000000000E+00  0.11368683772E-12  0.17120000000E+03  0.17120000000E+03 0.  0.
         13    1    1    2    0    0  0.20279378225E+03  0.87709020871E+02  0.13075206714E+04  0.13260575054E+04  0.10566000000E+00 0. -1.
        994    1    1    2    0    0 -0.20412745454E+03 -0.88369450721E+02  0.18193818846E+03  0.33449681902E+03  0.17120000000E+03 0.  0.
        998    1    1    2    0    0  0.13336722933E+01  0.66042985011E+00  0.10541136441E+02  0.10645675546E+02  0.10000000000E-02 0. -1.
</event>
<event>
 5    1  0.7026671E-009  0.3883010E+03  0.7957747E-01  0.3415792E+00
         13   -1    0    0    0    0  0.00000000000E+00  0.00000000000E+00  0.14999999963E+04  0.15000000000E+04  0.10566000000E+00 0.  1.
        994   -1    0    0    0    0 -0.00000000000E+00 -0.00000000000E+00  0.11368683772E-12  0.17120000000E+03  0.17120000000E+03 0.  0.
         13    1    1    2    0    0 -0.51280308613E+02 -0.22384078864E+03  0.12992685965E+04  0.13194064066E+04  0.10566000000E+00 0.  1.
        994    1    1    2    0    0  0.51418116059E+02  0.22446335780E+03  0.19712484473E+03  0.34813110470E+03  0.17120000000E+03 0.  0.
        998    1    1    2    0    0 -0.13780744568E+00 -0.62256916171E+00  0.36065550275E+01  0.36624886921E+01  0.10000000000E-02 0.  1.
</event>
<event>
 5    1  0.7026671E-009  0.3883005E+03  0.7957747E-01  0.3415794E+00
         13   -1    0    0    0    0  0.00000000000E+00  0.00000000000E+00  0.14999999963E+04  0.15000000000E+04  0.10566000000E+00 0. -1.
        994   -1    0    0    0    0 -0.00000000000E+00 -0.00000000000E+00  0.11368683772E-12  0.17120000000E+03  0.17120000000E+03 0.  0.
         13    1    1    2    0    0  0.20005134094E+03 -0.21271084133E+03  0.11396082413E+04  0.11764239864E+04  0.10566000000E+00 0. -1.
        994    1    1    2    0    0 -0.20017053770E+03  0.21285491604E+03  0.35959229386E+03  0.49395497493E+03  0.17120000000E+03 0.  0.
        998    1    1    2    0    0  0.11919675811E+00 -0.14407471933E+00  0.79946114782E+00  0.82103868287E+00  0.10000000000E-02 0.  1.
</event>
<event>
 5    1  0.7026671E-009  0.3883008E+03  0.7957747E-01  0.3415792E+00
         13   -1    0    0    0    0  0.00000000000E+00  0.00000000000E+00  0.14999999963E+04  0.15000000000E+04  0.10566000000E+00 0. -1.
        994   -1    0    0    0    0 -0.00000000000E+00 -0.00000000000E+00  0.11368683772E-12  0.17120000000E+03  0.17120000000E+03 0.  0.
         13    1    1    2    0    0 -0.13744014134E+03  0.17818173093E+03  0.13109321729E+04  0.13301058961E+04  0.10566000000E+00 0. -1.
        994    1    1    2    0    0  0.13760326881E+03 -0.17841921476E+03  0.18740967502E+03  0.33941111071E+03  0.17120000000E+03 0.  0.
        998    1    1    2    0    0 -0.16312747193E+00  0.23748383671E+00  0.16581483109E+01  0.16829931568E+01  0.10000000000E-02 0.  1.
</event>
<event>
 5    1  0.7026671E-009  0.3883008E+03  0.7957747E-01  0.3415793E+00
         13   -1    0    0    0    0  0.00000000000E+00  0.00000000000E+00  0.14999999963E+04  0.15000000000E+04  0.10566000000E+00 0.  1.
        994   -1    0    0    0    0 -0.00000000000E+00 -0.00000000000E+00  0.11368683772E-12  0.17120000000E+03  0.17120000000E+03 0.  0.
         13    1    1    2    0    0 -0.23835126369E+03  0.45458335356E+02  0.12763405414E+04  0.12992008983E+04  0.10566000000E+00 0.  1.
        994    1    1    2    0    0  0.23842888157E+03 -0.45465488626E+02  0.22322202474E+03  0.37155478002E+03  0.17120000000E+03 0.  0.
        998    1    1    2    0    0 -0.77617883715E-01  0.71532703168E-02  0.43743010448E+00  0.44432173192E+00  0.10000000000E-02 0. -1.
</event>
<event>
 5    1  0.7026671E-009  0.3882985E+03  0.7957747E-01  0.3415802E+00
         13   -1    0    0    0    0  0.00000000000E+00  0.00000000000E+00  0.14999999963E+04  0.15000000000E+04  0.10566000000E+00 0.  1.
        994   -1    0    0    0    0 -0.00000000000E+00 -0.00000000000E+00  0.11368683772E-12  0.17120000000E+03  0.17120000000E+03 0.  0.
         13    1    1    2    0    0  0.24664384018E+03  0.11006915336E+03  0.12067573630E+04  0.12366130142E+04  0.10566000000E+00 0.  1.
        994    1    1    2    0    0 -0.24689608216E+03 -0.11024363208E+03  0.29173162915E+03  0.43304516768E+03  0.17120000000E+03 0.  0.
        998    1    1    2    0    0  0.25224198144E+00  0.17447872066E+00  0.15110041020E+01  0.15418181597E+01  0.10000000000E-02 0. -1.
</event>
<event>
 5    1  0.7026671E-009  0.3883002E+03  0.7957747E-01  0.3415795E+00
         13   -1    0    0    0    0  0.00000000000E+00  0.00000000000E+00  0.14999999963E+04  0.15000000000E+04  0.10566000000E+00 0. -1.
        994   -1    0    0    0    0 -0.00000000000E+00 -0.00000000000E+00  0.11368683772E-12  0.17120000000E+03  0.17120000000E+03 0.  0.
         13    1    1    2    0    0  0.18582857331E+03  0.11870537378E+03  0.13211661190E+04  0.13394413573E+04  0.10566000000E+00 0. -1.
        994    1    1    2    0    0 -0.18586956930E+03 -0.11875234443E+03  0.17844178906E+03  0.33136162751E+03  0.17120000000E+03 0.  0.
        998    1    1    2    0    0  0.40995993297E-01  0.46970651152E-01  0.39208821498E+00  0.39701521616E+00  0.10000000000E-02 0. -1.
</event>
<event>
 5    1  0.7026671E-009  0.3746615E+03  0.7957747E-01  0.3474738E+00
         13   -1    0    0    0    0  0.00000000000E+00  0.00000000000E+00  0.14999999963E+04  0.15000000000E+04  0.10566000000E+00 0. -1.
        994   -1    0    0    0    0 -0.00000000000E+00 -0.00000000000E+00  0.11368683772E-12  0.17120000000E+03  0.17120000000E+03 0.  0.
         13    1    1    2    0    0  0.14022470104E+02 -0.13288307119E+03  0.57998808212E+03  0.59518125545E+03  0.10566000000E+00 0. -1.
        994    1    1    2    0    0 -0.12366213505E+03  0.17095285571E+03  0.17763470351E+03  0.32462398311E+03  0.17120000000E+03 0.  0.
        998    1    1    2    0    0  0.10963966494E+03 -0.38069784524E+02  0.74237721065E+03  0.75139476144E+03  0.10000000000E-02 0. -1.
</event>
<event>
 5    1  0.7026671E-009  0.3883010E+03  0.7957747E-01  0.3415792E+00
         13   -1    0    0    0    0  0.00000000000E+00  0.00000000000E+00  0.14999999963E+04  0.15000000000E+04  0.10566000000E+00 0. -1.
        994   -1    0    0    0    0 -0.00000000000E+00 -0.00000000000E+00  0.11368683772E-12  0.17120000000E+03  0.17120000000E+03 0.  0.
         13    1    1    2    0    0 -0.86362991689E+02  0.28596135836E+03  0.11074130363E+04  0.11469943805E+04  0.10566000000E+00 0. -1.
        994    1    1    2    0    0  0.86726823539E+02 -0.28714805783E+03  0.38798613228E+03  0.51944030252E+03  0.17120000000E+03 0.  0.
        998    1    1    2    0    0 -0.36383185014E+00  0.11866994727E+01  0.46008276773E+01  0.47653169433E+01  0.10000000000E-02 0.  1.
</event>
<event>
 5    1  0.7026671E-009  0.3883010E+03  0.7957747E-01  0.3415792E+00
         13   -1    0    0    0    0  0.00000000000E+00  0.00000000000E+00  0.14999999963E+04  0.15000000000E+04  0.10566000000E+00 0.  1.
        994   -1    0    0    0    0 -0.00000000000E+00 -0.00000000000E+00  0.11368683772E-12  0.17120000000E+03  0.17120000000E+03 0.  0.
         13    1    1    2    0    0  0.20555027495E+03 -0.22433301208E+03  0.10939487451E+04  0.11354735065E+04  0.10566000000E+00 0.  1.
        994    1    1    2    0    0 -0.20564640911E+03  0.22443711426E+03  0.40553941831E+03  0.53519540697E+03  0.17120000000E+03 0.  0.
        998    1    1    2    0    0  0.96134159338E-01 -0.10410218319E+00  0.51183288658E+00  0.53108657008E+00  0.10000000000E-02 0. -1.
</event>
<event>
 5    1  0.7026671E-009  0.3883009E+03  0.7957747E-01  0.3415792E+00
         13   -1    0    0    0    0  0.00000000000E+00  0.00000000000E+00  0.14999999963E+04  0.15000000000E+04  0.10566000000E+00 0. -1.
        994   -1    0    0    0    0 -0.00000000000E+00 -0.00000000000E+00  0.11368683772E-12  0.17120000000E+03  0.17120000000E+03 0.  0.
         13    1    1    2    0    0 -0.17046278894E+03  0.17542645408E+03  0.11887368948E+04  0.12136422123E+04  0.10566000000E+00 0. -1.
        994    1    1    2    0    0  0.17862387315E+03 -0.18375048512E+03  0.25472731874E+03  0.39983268470E+03  0.17120000000E+03 0.  0.
        998    1    1    2    0    0 -0.81610842090E+01  0.83240310380E+01  0.56535782766E+02  0.57725103050E+02  0.10000000000E-02 0. -1.
</event>
<event>
 5    1  0.7026671E-009  0.3883005E+03  0.7957747E-01  0.3415794E+00
         13   -1    0    0    0    0  0.00000000000E+00  0.00000000000E+00  0.14999999963E+04  0.15000000000E+04  0.10566000000E+00 0.  1.
        994   -1    0    0    0    0 -0.00000000000E+00 -0.00000000000E+00  0.11368683772E-12  0.17120000000E+03  0.17120000000E+03 0.  0.
         13    1    1    2    0    0  0.16136363687E+03 -0.19013367191E+03  0.12472681417E+04  0.12719539556E+04  0.10566000000E+00 0.  1.
        994    1    1    2    0    0 -0.16259336344E+03  0.19169251449E+03  0.24291299388E+03  0.38922844776E+03  0.17120000000E+03 0.  0.
        998    1    1    2    0    0  0.12297265721E+01 -0.15588425821E+01  0.98188606630E+01  0.10017596686E+02  0.10000000000E-02 0.  1.
</event>
<event>
 5    1  0.7026671E-009  0.3883010E+03  0.7957747E-01  0.3415792E+00
         13   -1    0    0    0    0  0.00000000000E+00  0.00000000000E+00  0.14999999963E+04  0.15000000000E+04  0.10566000000E+00 0. -1.
        994   -1    0    0    0    0 -0.00000000000E+00 -0.00000000000E+00  0.11368683772E-12  0.17120000000E+03  0.17120000000E+03 0.  0.
         13    1    1    2    0    0  0.25817299216E+03  0.11643492465E+02  0.12348483477E+04  0.12616018856E+04  0.10566000000E+00 0. -1.
        994    1    1    2    0    0 -0.25886489402E+03 -0.11673837872E+02  0.26186378456E+03  0.40623809953E+03  0.17120000000E+03 0.  0.
        998    1    1    2    0    0  0.69190186429E+00  0.30345406838E-01  0.32878640700E+01  0.33600149072E+01  0.10000000000E-02 0.  1.
</event>
<event>
 5    1  0.7026671E-009  0.3883009E+03  0.7957747E-01  0.3415792E+00
         13   -1    0    0    0    0  0.00000000000E+00  0.00000000000E+00  0.14999999963E+04  0.15000000000E+04  0.10566000000E+00 0. -1.
        994   -1    0    0    0    0 -0.00000000000E+00 -0.00000000000E+00  0.11368683772E-12  0.17120000000E+03  0.17120000000E+03 0.  0.
         13    1    1    2    0    0 -0.22363471025E+03  0.91260866608E+02  0.12713735784E+04  0.12941142981E+04  0.10566000000E+00 0. -1.
        994    1    1    2    0    0  0.22460819373E+03 -0.91668178609E+02  0.22293386963E+03  0.37129617004E+03  0.17120000000E+03 0.  0.
        998    1    1    2    0    0 -0.97348347260E+00  0.40731200021E+00  0.56925482405E+01  0.57895318988E+01  0.10000000000E-02 0.  1.
</event>
<event>
 5    1  0.7026671E-009  0.3883003E+03  0.7957747E-01  0.3415795E+00
         13   -1    0    0    0    0  0.00000000000E+00  0.00000000000E+00  0.14999999963E+04  0.15000000000E+04  0.10566000000E+00 0. -1.
        994   -1    0    0    0    0 -0.00000000000E+00 -0.00000000000E+00  0.11368683772E-12  0.17120000000E+03  0.17120000000E+03 0.  0.
         13    1    1    2    0    0  0.18212179206E+03 -0.15425000160E+03  0.12855413361E+04  0.13075082975E+04  0.10566000000E+00 0. -1.
        994    1    1    2    0    0 -0.18212106846E+03  0.15425373643E+03  0.21443465100E+03  0.36366737320E+03  0.17120000000E+03 0.  0.
        998    1    1    2    0    0 -0.72360396628E-03 -0.37348270643E-02  0.24009180199E-01  0.24329267760E-01  0.10000000000E-02 0.  1.
</event>
<event>
 5    1  0.7026671E-009  0.3882963E+03  0.7957747E-01  0.3415811E+00
         13   -1    0    0    0    0  0.00000000000E+00  0.00000000000E+00  0.14999999963E+04  0.15000000000E+04  0.10566000000E+00 0.  1.
        994   -1    0    0    0    0 -0.00000000000E+00 -0.00000000000E+00  0.11368683772E-12  0.17120000000E+03  0.17120000000E+03 0.  0.
         13    1    1    2    0    0  0.11258948946E+03 -0.87392019468E+02  0.85640040606E+03  0.86817937367E+03  0.10566000000E+00 0.  1.
        994    1    1    2    0    0 -0.17505991376E+03  0.13584661805E+03  0.18034352582E+03  0.33306681664E+03  0.17120000000E+03 0.  0.
        998    1    1    2    0    0  0.62470424303E+02 -0.48454598585E+02  0.46325606440E+03  0.46995380969E+03  0.10000000000E-02 0.  1.
</event>
<event>
 5    1  0.7026671E-009  0.3881634E+03  0.7957747E-01  0.3416366E+00
         13   -1    0    0    0    0  0.00000000000E+00  0.00000000000E+00  0.14999999963E+04  0.15000000000E+04  0.10566000000E+00 0. -1.
        994   -1    0    0    0    0 -0.00000000000E+00 -0.00000000000E+00  0.11368683772E-12  0.17120000000E+03  0.17120000000E+03 0.  0.
         13    1    1    2    0    0  0.26059820027E+03  0.22186338171E+03  0.77922241113E+03  0.85107130095E+03  0.10566000000E+00 0. -1.
        994    1    1    2    0    0 -0.26306344472E+03 -0.22546817990E+03  0.70770771790E+03  0.80634851650E+03  0.17120000000E+03 0.  0.
        998    1    1    2    0    0  0.24652444439E+01  0.36047981838E+01  0.13069867246E+02  0.13780182544E+02  0.10000000000E-02 0. -1.
</event>
<event>
 5    1  0.7026671E-009  0.3883010E+03  0.7957747E-01  0.3415792E+00
         13   -1    0    0    0    0  0.00000000000E+00  0.00000000000E+00  0.14999999963E+04  0.15000000000E+04  0.10566000000E+00 0.  1.
        994   -1    0    0    0    0 -0.00000000000E+00 -0.00000000000E+00  0.11368683772E-12  0.17120000000E+03  0.17120000000E+03 0.  0.
         13    1    1    2    0    0 -0.34739950578E+01  0.25304031850E+03  0.12506914546E+04  0.12760370673E+04  0.10566000000E+00 0.  1.
        994    1    1    2    0    0  0.34781720015E+01 -0.25336116913E+03  0.24773112814E+03  0.39355321312E+03  0.17120000000E+03 0.  0.
        998    1    1    2    0    0 -0.41769437157E-02  0.32085062704E+00  0.15774135429E+01  0.16097195585E+01  0.10000000000E-02 0.  1.
</event>
<event>
 5    1  0.7026671E-009  0.3883009E+03  0.7957747E-01  0.3415792E+00
         13   -1    0    0    0    0  0.00000000000E+00  0.00000000000E+00  0.14999999963E+04  0.15000000000E+04  0.10566000000E+00 0.  1.
        994   -1    0    0    0    0 -0.00000000000E+00 -0.00000000000E+00  0.11368683772E-12  0.17120000000E+03  0.17120000000E+03 0.  0.
         13    1    1    2    0    0 -0.18130725933E+03  0.14332294363E+03  0.12258950985E+04  0.12474905179E+04  0.10566000000E+00 0.  1.
        994    1    1    2    0    0  0.18933840856E+03 -0.14962888677E+03  0.22015762902E+03  0.36880436322E+03  0.17120000000E+03 0.  0.
        998    1    1    2    0    0 -0.80311492312E+01  0.63059431392E+01  0.53947268745E+02  0.54905118914E+02  0.10000000000E-02 0.  1.
</event>
<event>
 5    1  0.7026671E-009  0.3882853E+03  0.7957747E-01  0.3415857E+00
         13   -1    0    0    0    0  0.00000000000E+00  0.00000000000E+00  0.14999999963E+04  0.15000000000E+04  0.10566000000E+00 0. -1.
        994   -1    0    0    0    0 -0.00000000000E+00 -0.00000000000E+00  0.11368683772E-12  0.17120000000E+03  0.17120000000E+03 0.  0.
         13    1    1    2    0    0  0.23439726110E+03 -0.12474234445E+02  0.12457747737E+04  0.12676957365E+04  0.10566000000E+00 0. -1.
        994    1    1    2    0    0 -0.24066037737E+03  0.12073156135E+02  0.21939326221E+03  0.36811142584E+03  0.17120000000E+03 0.  0.
        998    1    1    2    0    0  0.62631162700E+01  0.40107831027E+00  0.34831960378E+02  0.35392837609E+02  0.10000000000E-02 0. -1.
</event>
<event>
 5    1  0.7026671E-009  0.3882717E+03  0.7957747E-01  0.3415914E+00
         13   -1    0    0    0    0  0.00000000000E+00  0.00000000000E+00  0.14999999963E+04  0.15000000000E+04  0.10566000000E+00 0. -1.
        994   -1    0    0    0    0 -0.00000000000E+00 -0.00000000000E+00  0.11368683772E-12  0.17120000000E+03  0.17120000000E+03 0.  0.
         13    1    1    2    0    0 -0.26073028170E+03 -0.65395598026E+00  0.12282808991E+04  0.12556491093E+04  0.10566000000E+00 0. -1.
        994    1    1    2    0    0  0.26157410826E+03  0.31096725855E+00  0.26815084866E+03  0.41186821733E+03  0.17120000000E+03 0.  0.
        998    1    1    2    0    0 -0.84382656462E+00  0.34298872172E+00  0.35682485431E+01  0.36826733767E+01  0.10000000000E-02 0.  1.
</event>
<event>
 5    1  0.7026671E-009  0.3396838E+03  0.7957747E-01  0.3647983E+00
         13   -1    0    0    0    0  0.00000000000E+00  0.00000000000E+00  0.14999999963E+04  0.15000000000E+04  0.10566000000E+00 0.  1.
        994   -1    0    0    0    0 -0.00000000000E+00 -0.00000000000E+00  0.11368683772E-12  0.17120000000E+03  0.17120000000E+03 0.  0.
         13    1    1    2    0    0  0.12450971563E+03 -0.13627679206E+03  0.10940189758E+04  0.11094825658E+04  0.10566000000E+00 0.  1.
        994    1    1    2    0    0 -0.38326866212E+02  0.16310312900E+03  0.13254428949E+03  0.27376816477E+03  0.17120000000E+03 0.  0.
        998    1    1    2    0    0 -0.86182849417E+02 -0.26826336935E+02  0.27343673102E+03  0.28794926942E+03  0.10000000000E-02 0. -1.
</event>
<event>
 5    1  0.7026671E-009  0.3883007E+03  0.7957747E-01  0.3415793E+00
         13   -1    0    0    0    0  0.00000000000E+00  0.00000000000E+00  0.14999999963E+04  0.15000000000E+04  0.10566000000E+00 0. -1.
        994   -1    0    0    0    0 -0.00000000000E+00 -0.00000000000E+00  0.11368683772E-12  0.17120000000E+03  0.17120000000E+03 0.  0.
         13    1    1    2    0    0  0.45203740256E+02 -0.17863390432E+03  0.57474812543E+03  0.60356347534E+03  0.10566000000E+00 0. -1.
        994    1    1    2    0    0 -0.79369638558E+02  0.31318344028E+03  0.49402824387E+03  0.61461919310E+03  0.17120000000E+03 0.  0.
        998    1    1    2    0    0  0.34165898303E+02 -0.13454953596E+03  0.43122362698E+03  0.45301733156E+03  0.10000000000E-02 0. -1.
</event>
<event>
 5    1  0.7026671E-009  0.3883003E+03  0.7957747E-01  0.3415795E+00
         13   -1    0    0    0    0  0.00000000000E+00  0.00000000000E+00  0.14999999963E+04  0.15000000000E+04  0.10566000000E+00 0.  1.
        994   -1    0    0    0    0 -0.00000000000E+00 -0.00000000000E+00  0.11368683772E-12  0.17120000000E+03  0.17120000000E+03 0.  0.
         13    1    1    2    0    0 -0.24077665750E+03 -0.72055644457E+02  0.12563663802E+04  0.12812579393E+04  0.10566000000E+00 0.  1.
        994    1    1    2    0    0  0.24086609488E+03  0.72094046822E+02  0.24306082015E+03  0.38936105293E+03  0.17120000000E+03 0.  0.
        998    1    1    2    0    0 -0.89437373943E-01 -0.38402365327E-01  0.57279593561E+00  0.58100771886E+00  0.10000000000E-02 0.  1.
</event>
<event>
 5    1  0.7026671E-009  0.3865678E+03  0.7957747E-01  0.3423050E+00
         13   -1    0    0    0    0  0.00000000000E+00  0.00000000000E+00  0.14999999963E+04  0.15000000000E+04  0.10566000000E+00 0.  1.
        994   -1    0    0    0    0 -0.00000000000E+00 -0.00000000000E+00  0.11368683772E-12  0.17120000000E+03  0.17120000000E+03 0.  0.
         13    1    1    2    0    0 -0.24947260083E+03  0.79217793626E+02  0.93476551501E+03  0.97072066868E+03  0.10566000000E+00 0.  1.
        994    1    1    2    0    0  0.27767034412E+03 -0.98248118638E+02  0.37262379876E+03  0.50488755998E+03  0.17120000000E+03 0.  0.
        998    1    1    2    0    0 -0.28197743290E+02  0.19030325012E+02  0.19261068251E+03  0.19559177134E+03  0.10000000000E-02 0.  1.
</event>
<event>
 5    1  0.7026671E-009  0.3882181E+03  0.7957747E-01  0.3416138E+00
         13   -1    0    0    0    0  0.00000000000E+00  0.00000000000E+00  0.14999999963E+04  0.15000000000E+04  0.10566000000E+00 0. -1.
        994   -1    0    0    0    0 -0.00000000000E+00 -0.00000000000E+00  0.11368683772E-12  0.17120000000E+03  0.17120000000E+03 0.  0.
         13    1    1    2    0    0 -0.27539766838E+02  0.22374900460E+03  0.12048244435E+04  0.12257340684E+04  0.10566000000E+00 0. -1.
        994    1    1    2    0    0  0.28913263141E+02 -0.23613918331E+03  0.21292586120E+03  0.36227690107E+03  0.17120000000E+03 0.  0.
        998    1    1    2    0    0 -0.13734963027E+01  0.12390178718E+02  0.82249691620E+02  0.83189030486E+02  0.10000000000E-02 0.  1.
</event>
<event>
 5    1  0.7026671E-009  0.3882969E+03  0.7957747E-01  0.3415809E+00
         13   -1    0    0    0    0  0.00000000000E+00  0.00000000000E+00  0.14999999963E+04  0.15000000000E+04  0.10566000000E+00 0. -1.
        994   -1    0    0    0    0 -0.00000000000E+00 -0.00000000000E+00  0.11368683772E-12  0.17120000000E+03  0.17120000000E+03 0.  0.
         13    1    1    2    0    0  0.17144518116E+03  0.18789688734E+03  0.12497109069E+04  0.12753337024E+04  0.10566000000E+00 0. -1.
        994    1    1    2    0    0 -0.17147240358E+03 -0.18792991699E+03  0.25019106318E+03  0.39575932963E+03  0.17120000000E+03 0.  0.
        998    1    1    2    0    0  0.27222421490E-01  0.33029646817E-01  0.98026190890E-01  0.10696799475E+00  0.10000000000E-02 0.  1.
</event>
<event>
 5    1  0.7026671E-009  0.3883009E+03  0.7957747E-01  0.3415792E+00
         13   -1    0    0    0    0  0.00000000000E+00  0.00000000000E+00  0.14999999963E+04  0.15000000000E+04  0.10566000000E+00 0.  1.
        994   -1    0    0    0    0 -0.00000000000E+00 -0.00000000000E+00  0.11368683772E-12  0.17120000000E+03  0.17120000000E+03 0.  0.
         13    1    1    2    0    0  0.85053005589E+02 -0.20242074807E+03  0.12930924502E+04  0.13116006515E+04  0.10566000000E+00 0.  1.
        994    1    1    2    0    0 -0.86597557830E+02  0.20602374205E+03  0.18390889692E+03  0.33626900196E+03  0.17120000000E+03 0.  0.
        998    1    1    2    0    0  0.15445522414E+01 -0.36029939795E+01  0.22998649114E+02  0.23330346532E+02  0.10000000000E-02 0.  1.
</event>
<event>
 5    1  0.7026671E-009  0.3883010E+03  0.7957747E-01  0.3415792E+00
         13   -1    0    0    0    0  0.00000000000E+00  0.00000000000E+00  0.14999999963E+04  0.15000000000E+04  0.10566000000E+00 0.  1.
        994   -1    0    0    0    0 -0.00000000000E+00 -0.00000000000E+00  0.11368683772E-12  0.17120000000E+03  0.17120000000E+03 0.  0.
         13    1    1    2    0    0 -0.21201887250E+03 -0.12365107245E+03  0.12609934190E+04  0.12846579327E+04  0.10566000000E+00 0.  1.
        994    1    1    2    0    0  0.21315619879E+03  0.12431400466E+03  0.23224468830E+03  0.37965322609E+03  0.17120000000E+03 0.  0.
        998    1    1    2    0    0 -0.11373262962E+01 -0.66293220848E+00  0.67618889562E+01  0.68888412287E+01  0.10000000000E-02 0.  0.
</event>
<event>
 5    1  0.7026671E-009  0.3871722E+03  0.7957747E-01  0.3420511E+00
         13   -1    0    0    0    0  0.00000000000E+00  0.00000000000E+00  0.14999999963E+04  0.15000000000E+04  0.10566000000E+00 0. -1.
        994   -1    0    0    0    0 -0.00000000000E+00 -0.00000000000E+00  0.11368683772E-12  0.17120000000E+03  0.17120000000E+03 0.  0.
         13    1    1    2    0    0 -0.22420668990E+03 -0.11005145953E+03  0.11521928730E+04  0.11789522430E+04  0.10566000000E+00 0. -1.
        994    1    1    2    0    0  0.23393817846E+03  0.12576462337E+03  0.28077708930E+03  0.42271624727E+03  0.17120000000E+03 0.  0.
        998    1    1    2    0    0 -0.97314885663E+01 -0.15713163834E+02  0.67030033944E+02  0.69531509684E+02  0.10000000000E-02 0.  1.
</event>
<event>
 5    1  0.7026671E-009  0.3882809E+03  0.7957747E-01  0.3415875E+00
         13   -1    0    0    0    0  0.00000000000E+00  0.00000000000E+00  0.14999999963E+04  0.15000000000E+04  0.10566000000E+00 0.  1.
        994   -1    0    0    0    0 -0.00000000000E+00 -0.00000000000E+00  0.11368683772E-12  0.17120000000E+03  0.17120000000E+03 0.  0.
         13    1    1    2    0    0 -0.12574276468E+03  0.11166107315E+03  0.76884802338E+03  0.78702397190E+03  0.10566000000E+00 0.  1.
        994    1    1    2    0    0  0.19728235954E+03 -0.17521261361E+03  0.27407107730E+03  0.41718603137E+03  0.17120000000E+03 0.  0.
        998    1    1    2    0    0 -0.71539594862E+02  0.63551540457E+02  0.45708089559E+03  0.46698999673E+03  0.10000000000E-02 0.  1.
</event>
<event>
 5    1  0.7026671E-009  0.3396276E+03  0.7957747E-01  0.3648291E+00
         13   -1    0    0    0    0  0.00000000000E+00  0.00000000000E+00  0.14999999963E+04  0.15000000000E+04  0.10566000000E+00 0. -1.
        994   -1    0    0    0    0 -0.00000000000E+00 -0.00000000000E+00  0.11368683772E-12  0.17120000000E+03  0.17120000000E+03 0.  0.
         13    1    1    2    0    0  0.99378305266E+01  0.27852787989E+03  0.53731976967E+03  0.60530082306E+03  0.10566000000E+00 0. -1.
        994    1    1    2    0    0  0.69808584030E+02 -0.30416996363E+03  0.87502492618E+03  0.94465372842E+03  0.17120000000E+03 0.  0.
        998    1    1    2    0    0 -0.79746414556E+02  0.25642083742E+02  0.87655300426E+02  0.12124544852E+03  0.10000000000E-02 0.  1.
</event>
<event>
 5    1  0.7026671E-009  0.3883010E+03  0.7957747E-01  0.3415792E+00
         13   -1    0    0    0    0  0.00000000000E+00  0.00000000000E+00  0.14999999963E+04  0.15000000000E+04  0.10566000000E+00 0. -1.
        994   -1    0    0    0    0 -0.00000000000E+00 -0.00000000000E+00  0.11368683772E-12  0.17120000000E+03  0.17120000000E+03 0.  0.
         13    1    1    2    0    0  0.25001568731E+03 -0.58386169674E+02  0.12435845371E+04  0.12698107343E+04  0.10566000000E+00 0. -1.
        994    1    1    2    0    0 -0.25008115913E+03  0.58401981138E+02  0.25607635330E+03  0.40104353413E+03  0.17120000000E+03 0.  0.
        998    1    1    2    0    0  0.65471818950E-01 -0.15811463842E-01  0.33910583565E+00  0.34573158553E+00  0.10000000000E-02 0. -1.
</event>
<event>
 5    1  0.7026671E-009  0.3883010E+03  0.7957747E-01  0.3415792E+00
         13   -1    0    0    0    0  0.00000000000E+00  0.00000000000E+00  0.14999999963E+04  0.15000000000E+04  0.10566000000E+00 0. -1.
        994   -1    0    0    0    0 -0.00000000000E+00 -0.00000000000E+00  0.11368683772E-12  0.17120000000E+03  0.17120000000E+03 0.  0.
         13    1    1    2    0    0  0.91703463002E+02 -0.45900984781E+02  0.54651637785E+03  0.55605448290E+03  0.10566000000E+00 0. -1.
        994    1    1    2    0    0 -0.21507987896E+03  0.10772872673E+03  0.21847783500E+03  0.36729666114E+03  0.17120000000E+03 0.  0.
        998    1    1    2    0    0  0.12337641596E+03 -0.61827741946E+02  0.73500578342E+03  0.74784885596E+03  0.10000000000E-02 0. -1.
</event>
<event>
 5    1  0.7026671E-009  0.3883010E+03  0.7957747E-01  0.3415792E+00
         13   -1    0    0    0    0  0.00000000000E+00  0.00000000000E+00  0.14999999963E+04  0.15000000000E+04  0.10566000000E+00 0.  1.
        994   -1    0    0    0    0 -0.00000000000E+00 -0.00000000000E+00  0.11368683772E-12  0.17120000000E+03  0.17120000000E+03 0.  0.
         13    1    1    2    0    0  0.27058800538E+02 -0.22670593617E+03  0.12527987862E+04  0.12734333787E+04  0.10566000000E+00 0.  1.
        994    1    1    2    0    0 -0.27905948706E+02  0.23383463097E+03  0.20775273559E+03  0.35767026121E+03  0.17120000000E+03 0.  0.
        998    1    1    2    0    0  0.84714816812E+00 -0.71286947978E+01  0.39448474498E+02  0.40096360069E+02  0.10000000000E-02 0.  1.
</event>
<event>
 5    1  0.7026671E-009  0.3882842E+03  0.7957747E-01  0.3415862E+00
         13   -1    0    0    0    0  0.00000000000E+00  0.00000000000E+00  0.14999999963E+04  0.15000000000E+04  0.10566000000E+00 0. -1.
        994   -1    0    0    0    0 -0.00000000000E+00 -0.00000000000E+00  0.11368683772E-12  0.17120000000E+03  0.17120000000E+03 0.  0.
         13    1    1    2    0    0  0.40913755459E+02  0.22924084179E+03  0.12806105891E+04  0.13016100764E+04  0.10566000000E+00 0. -1.
        994    1    1    2    0    0 -0.41735730267E+02 -0.23124348086E+03  0.20670895149E+03  0.35672601426E+03  0.17120000000E+03 0.  0.
        998    1    1    2    0    0  0.82197480824E+00  0.20026390735E+01  0.12680455678E+02  0.12863909322E+02  0.10000000000E-02 0. -1.
</event>
<event>
 5    1  0.7026671E-009  0.3883010E+03  0.7957747E-01  0.3415792E+00
         13   -1    0    0    0    0  0.00000000000E+00  0.00000000000E+00  0.14999999963E+04  0.15000000000E+04  0.10566000000E+00 0.  1.
        994   -1    0    0    0    0 -0.00000000000E+00 -0.00000000000E+00  0.11368683772E-12  0.17120000000E+03  0.17120000000E+03 0.  0.
         13    1    1    2    0    0  0.24654913468E+03  0.88343033154E+02  0.12305861709E+04  0.12581467730E+04  0.10566000000E+00 0.  1.
        994    1    1    2    0    0 -0.24661055328E+03 -0.88366867609E+02  0.26910576498E+03  0.41273819913E+03  0.17120000000E+03 0.  0.
        998    1    1    2    0    0  0.61418603380E-01  0.23834454895E-01  0.30806042604E+00  0.31502785936E+00  0.10000000000E-02 0.  1.
</event>
<event>
 5    1  0.7026671E-009  0.3883010E+03  0.7957747E-01  0.3415792E+00
         13   -1    0    0    0    0  0.00000000000E+00  0.00000000000E+00  0.14999999963E+04  0.15000000000E+04  0.10566000000E+00 0.  1.
        994   -1    0    0    0    0 -0.00000000000E+00 -0.00000000000E+00  0.11368683772E-12  0.17120000000E+03  0.17120000000E+03 0.  0.
         13    1    1    2    0    0 -0.19849747068E+03  0.10663317718E+03  0.13033371387E+04  0.13226713835E+04  0.10566000000E+00 0.  1.
        994    1    1    2    0    0  0.19955211799E+03 -0.10719431883E+03  0.18973243335E+03  0.34149598248E+03  0.17120000000E+03 0.  0.
        998    1    1    2    0    0 -0.10546473092E+01  0.56114165243E+00  0.69304241878E+01  0.70326340246E+01  0.10000000000E-02 0. -1.
</event>
<event>
 5    1  0.7026671E-009  0.3883007E+03  0.7957747E-01  0.3415793E+00
         13   -1    0    0    0    0  0.00000000000E+00  0.00000000000E+00  0.14999999963E+04  0.15000000000E+04  0.10566000000E+00 0. -1.
        994   -1    0    0    0    0 -0.00000000000E+00 -0.00000000000E+00  0.11368683772E-12  0.17120000000E+03  0.17120000000E+03 0.  0.
         13    1    1    2    0    0 -0.56554949706E+02  0.25322507918E+03  0.12369143229E+04  0.12638348216E+04  0.10566000000E+00 0. -1.
        994    1    1    2    0    0  0.56558728759E+02 -0.25327892225E+03  0.26284702178E+03  0.40712049704E+03  0.17120000000E+03 0.  0.
        998    1    1    2    0    0 -0.37790538123E-02  0.53843064738E-01  0.23865160073E+00  0.24468130987E+00  0.10000000000E-02 0. -1.
</event>
<event>
 5    1  0.7026671E-009  0.3882995E+03  0.7957747E-01  0.3415798E+00
         13   -1    0    0    0    0  0.00000000000E+00  0.00000000000E+00  0.14999999963E+04  0.15000000000E+04  0.10566000000E+00 0. -1.
        994   -1    0    0    0    0 -0.00000000000E+00 -0.00000000000E+00  0.11368683772E-12  0.17120000000E+03  0.17120000000E+03 0.  0.
         13    1    1    2    0    0  0.13360838340E+03  0.26370618183E+03  0.10751699652E+04  0.11150706774E+04  0.10566000000E+00 0. -1.
        994    1    1    2    0    0 -0.13703655047E+03 -0.26997581911E+03  0.39894194904E+03  0.52927315988E+03  0.17120000000E+03 0.  0.
        998    1    1    2    0    0  0.34281670662E+01  0.62696372779E+01  0.25888082060E+02  0.26856162696E+02  0.10000000000E-02 0.  1.
</event>
<event>
 5    1  0.7026671E-009  0.3747646E+03  0.7957747E-01  0.3474276E+00
         13   -1    0    0    0    0  0.00000000000E+00  0.00000000000E+00  0.14999999963E+04  0.15000000000E+04  0.10566000000E+00 0. -1.
        994   -1    0    0    0    0 -0.00000000000E+00 -0.00000000000E+00  0.11368683772E-12  0.17120000000E+03  0.17120000000E+03 0.  0.
         13    1    1    2    0    0  0.23336917336E+03  0.60967322795E+02  0.69385615663E+03  0.73458461921E+03  0.10566000000E+00 0. -1.
        994    1    1    2    0    0 -0.32870586935E+03 -0.47886431656E+02  0.69884435141E+03  0.79248566320E+03  0.17120000000E+03 0.  0.
        998    1    1    2    0    0  0.95336695986E+02 -0.13080891139E+02  0.10729948823E+03  0.14412971758E+03  0.10000000000E-02 0. -1.
</event>
<event>
 5    1  0.7026671E-009  0.3883010E+03  0.7957747E-01  0.3415792E+00
         13   -1    0    0    0    0  0.00000000000E+00  0.00000000000E+00  0.14999999963E+04  0.15000000000E+04  0.10566000000E+00 0.  1.
        994   -1    0    0    0    0 -0.00000000000E+00 -0.00000000000E+00  0.11368683772E-12  0.17120000000E+03  0.17120000000E+03 0.  0.
         13    1    1    2    0    0  0.15998891307E+03 -0.19976566130E+03  0.11130603185E+04  0.11421059739E+04  0.10566000000E+00 0.  1.
        994    1    1    2    0    0 -0.17186721209E+03  0.21455309069E+03  0.30457908405E+03  0.44457758126E+03  0.17120000000E+03 0.  0.
        998    1    1    2    0    0  0.11878299020E+02 -0.14787429396E+02  0.82360593715E+02  0.84516444872E+02  0.10000000000E-02 0. -1.
</event>
<event>
 5    1  0.7026671E-009  0.3859974E+03  0.7957747E-01  0.3425453E+00
         13   -1    0    0    0    0  0.00000000000E+00  0.00000000000E+00  0.14999999963E+04  0.15000000000E+04  0.10566000000E+00 0. -1.
        994   -1    0    0    0    0 -0.00000000000E+00 -0.00000000000E+00  0.11368683772E-12  0.17120000000E+03  0.17120000000E+03 0.  0.
         13    1    1    2    0    0  0.14750832348E+02  0.10607270408E+01  0.79320325780E+02  0.80687281791E+02  0.10566000000E+00 0. -1.
        994    1    1    2    0    0 -0.38156068734E+02 -0.88350130791E+02  0.32107072549E+02  0.19900234999E+03  0.17120000000E+03 0.  0.
        998    1    1    2    0    0  0.23405236386E+02  0.87289403750E+02  0.13885725979E+04  0.13915103682E+04  0.10000000000E-02 0. -1.
</event>
<event>
 5    1  0.7026671E-009  0.3882192E+03  0.7957747E-01  0.3416133E+00
         13   -1    0    0    0    0  0.00000000000E+00  0.00000000000E+00  0.14999999963E+04  0.15000000000E+04  0.10566000000E+00 0.  1.
        994   -1    0    0    0    0 -0.00000000000E+00 -0.00000000000E+00  0.11368683772E-12  0.17120000000E+03  0.17120000000E+03 0.  0.
         13    1    1    2    0    0 -0.88969059991E+02  0.22683064571E+03  0.12325165831E+04  0.12563696806E+04  0.10566000000E+00 0.  1.
        994    1    1    2    0    0  0.92186204132E+02 -0.23278813643E+03  0.24072716183E+03  0.38723070532E+03  0.17120000000E+03 0.  0.
        998    1    1    2    0    0 -0.32171441410E+01  0.59574907260E+01  0.26756251309E+02  0.27599614079E+02  0.10000000000E-02 0. -1.
</event>
<event>
 5    1  0.7026671E-009  0.3882998E+03  0.7957747E-01  0.3415797E+00
         13   -1    0    0    0    0  0.00000000000E+00  0.00000000000E+00  0.14999999963E+04  0.15000000000E+04  0.10566000000E+00 0. -1.
        994   -1    0    0    0    0 -0.00000000000E+00 -0.00000000000E+00  0.11368683772E-12  0.17120000000E+03  0.17120000000E+03 0.  0.
         13    1    1    2    0    0  0.24465940836E+03  0.93136543827E+01  0.12717133774E+04  0.12950675255E+04  0.10566000000E+00 0. -1.
        994    1    1    2    0    0 -0.24471163884E+03 -0.92968994676E+01  0.22802656180E+03  0.37586669367E+03  0.17120000000E+03 0.  0.
        998    1    1    2    0    0  0.52230481379E-01 -0.16754915016E-01  0.26005706954E+00  0.26578079272E+00  0.10000000000E-02 0.  1.
</event>
<event>
 5    1  0.7026671E-009  0.3793716E+03  0.7957747E-01  0.3453899E+00
         13   -1    0    0    0    0  0.00000000000E+00  0.00000000000E+00  0.14999999963E+04  0.15000000000E+04  0.10566000000E+00 0. -1.
        994   -1    0    0    0    0 -0.00000000000E+00 -0.00000000000E+00  0.11368683772E-12  0.17120000000E+03  0.17120000000E+03 0.  0.
         13    1    1    2    0    0 -0.21429849093E+02 -0.68321610944E+02  0.18085114332E+03  0.19451022636E+03  0.10566000000E+00 0. -1.
        994    1    1    2    0    0 -0.92862148480E+01  0.23862101746E+03  0.22802489542E+03  0.37192877905E+03  0.17120000000E+03 0.  0.
        998    1    1    2    0    0  0.30716063941E+02 -0.17029940651E+03  0.10911239575E+04  0.11047609946E+04  0.10000000000E-02 0. -1.
</event>
<event>
 5    1  0.7026671E-009  0.3881924E+03  0.7957747E-01  0.3416245E+00
         13   -1    0    0    0    0  0.00000000000E+00  0.00000000000E+00  0.14999999963E+04  0.15000000000E+04  0.10566000000E+00 0. -1.
        994   -1    0    0    0    0 -0.00000000000E+00 -0.00000000000E+00  0.11368683772E-12  0.17120000000E+03  0.17120000000E+03 0.  0.
         13    1    1    2    0    0 -0.80869435314E+02  0.21053789868E+03  0.96298735064E+03  0.98904535842E+03  0.10566000000E+00 0. -1.
        994    1    1    2    0    0  0.95246223562E+02 -0.25773832998E+03  0.30443120772E+03  0.44439699603E+03  0.17120000000E+03 0.  0.
        998    1    1    2    0    0 -0.14376788248E+02  0.47200431303E+02  0.23258143791E+03  0.23775764555E+03  0.10000000000E-02 0. -1.
</event>
<event>
 5    1  0.7026671E-009  0.3881276E+03  0.7957747E-01  0.3416515E+00
         13   -1    0    0    0    0  0.00000000000E+00  0.00000000000E+00  0.14999999963E+04  0.15000000000E+04  0.10566000000E+00 0. -1.
        994   -1    0    0    0    0 -0.00000000000E+00 -0.00000000000E+00  0.11368683772E-12  0.17120000000E+03  0.17120000000E+03 0.  0.
         13    1    1    2    0    0  0.57895906880E+02  0.84502726471E+02  0.58370835245E+03  0.59262812851E+03  0.10566000000E+00 0. -1.
        994    1    1    2    0    0 -0.12428474864E+03 -0.17601402762E+03  0.16937761059E+03  0.32314989035E+03  0.17120000000E+03 0.  0.
        998    1    1    2    0    0  0.66388841759E+02  0.91511301147E+02  0.74691403323E+03  0.75542198114E+03  0.10000000000E-02 0. -1.
</event>
<event>
 5    1  0.7026671E-009  0.3882987E+03  0.7957747E-01  0.3415801E+00
         13   -1    0    0    0    0  0.00000000000E+00  0.00000000000E+00  0.14999999963E+04  0.15000000000E+04  0.10566000000E+00 0.  1.
        994   -1    0    0    0    0 -0.00000000000E+00 -0.00000000000E+00  0.11368683772E-12  0.17120000000E+03  0.17120000000E+03 0.  0.
         13    1    1    2    0    0  0.20769101426E+03  0.93286910746E+02  0.12925826069E+04  0.13124815473E+04  0.10566000000E+00 0.  1.
        994    1    1    2    0    0 -0.20949293252E+03 -0.93966610394E+02  0.19578287062E+03  0.34692561893E+03  0.17120000000E+03 0.  0.
        998    1    1    2    0    0  0.18019182599E+01  0.67969964829E+00  0.11634518734E+02  0.11792833765E+02  0.10000000000E-02 0. -1.
</event>
<event>
 5    1  0.7026671E-009  0.3882899E+03  0.7957747E-01  0.3415838E+00
         13   -1    0    0    0    0  0.00000000000E+00  0.00000000000E+00  0.14999999963E+04  0.15000000000E+04  0.10566000000E+00 0.  1.
        994   -1    0    0    0    0 -0.00000000000E+00 -0.00000000000E+00  0.11368683772E-12  0.17120000000E+03  0.17120000000E+03 0.  0.
         13    1    1    2    0    0  0.10227748770E+03  0.14566715550E+03  0.96189982788E+03  0.97822844710E+03  0.10566000000E+00 0.  1.
        994    1    1    2    0    0 -0.13716167793E+03 -0.19291901242E+03  0.21030617234E+03  0.35995721603E+03  0.17120000000E+03 0.  0.
        998    1    1    2    0    0  0.34884190235E+02  0.47251856915E+02  0.32779399605E+03  0.33301433687E+03  0.10000000000E-02 0. -1.
</event>
<event>
 5    1  0.7026671E-009  0.3883009E+03  0.7957747E-01  0.3415792E+00
         13   -1    0    0    0    0  0.00000000000E+00  0.00000000000E+00  0.14999999963E+04  0.15000000000E+04  0.10566000000E+00 0.  1.
        994   -1    0    0    0    0 -0.00000000000E+00 -0.00000000000E+00  0.11368683772E-12  0.17120000000E+03  0.17120000000E+03 0.  0.
         13    1    1    2    0    0 -0.25588011426E+03 -0.21104270200E+03  0.93768706231E+03  0.99462087900E+03  0.10566000000E+00 0.  1.
        994    1    1    2    0    0  0.25698554888E+03  0.21198345320E+03  0.55819201806E+03  0.67221003100E+03  0.17120000000E+03 0.  0.
        998    1    1    2    0    0 -0.11054346206E+01 -0.94075119184E+00  0.41209159106E+01  0.43690900022E+01  0.10000000000E-02 0.  1.
</event>
<event>
 5    1  0.7026671E-009  0.3883010E+03  0.7957747E-01  0.3415792E+00
         13   -1    0    0    0    0  0.00000000000E+00  0.00000000000E+00  0.14999999963E+04  0.15000000000E+04  0.10566000000E+00 0. -1.
        994   -1    0    0    0    0 -0.00000000000E+00 -0.00000000000E+00  0.11368683772E-12  0.17120000000E+03  0.17120000000E+03 0.  0.
         13    1    1    2    0    0  0.85600797278E+02  0.20319535217E+03  0.11488042254E+04  0.11697722031E+04  0.10566000000E+00 0. -1.
        994    1    1    2    0    0 -0.94856472705E+02 -0.22518865654E+03  0.22682547658E+03  0.37478916509E+03  0.17120000000E+03 0.  0.
        998    1    1    2    0    0  0.92556754271E+01  0.21993304372E+02  0.12437029430E+03  0.12663863183E+03  0.10000000000E-02 0. -1.
</event>
<event>
 5    1  0.7026671E-009  0.3883010E+03  0.7957747E-01  0.3415792E+00
         13   -1    0    0    0    0  0.00000000000E+00  0.00000000000E+00  0.14999999963E+04  0.15000000000E+04  0.10566000000E+00 0. -1.
        994   -1    0    0    0    0 -0.00000000000E+00 -0.00000000000E+00  0.11368683772E-12  0.17120000000E+03  0.17120000000E+03 0.  0.
         13    1    1    2    0    0 -0.20635471636E+03 -0.91961988395E+02  0.13106261507E+04  0.13299549595E+04  0.10566000000E+00 0. -1.
        994    1    1    2    0    0  0.20644960332E+03  0.92004605855E+02  0.18876821329E+03  0.34063053967E+03  0.17120000000E+03 0.  0.
        998    1    1    2    0    0 -0.94886956250E-01 -0.42617459401E-01  0.60563229439E+00  0.61450082044E+00  0.10000000000E-02 0.  1.
</event>
<event>
 5    1  0.7026671E-009  0.3744304E+03  0.7957747E-01  0.3475774E+00
         13   -1    0    0    0    0  0.00000000000E+00  0.00000000000E+00  0.14999999963E+04  0.15000000000E+04  0.10566000000E+00 0.  1.
        994   -1    0    0    0    0 -0.00000000000E+00 -0.00000000000E+00  0.11368683772E-12  0.17120000000E+03  0.17120000000E+03 0.  0.
         13    1    1    2    0    0  0.59732524865E+01 -0.24567938486E+02  0.35982852968E+02  0.43977724117E+02  0.10566000000E+00 0.  1.
        994    1    1    2    0    0  0.87074694996E+02  0.94909508686E+02  0.65757193182E+02  0.22410547919E+03  0.17120000000E+03 0.  0.
        998    1    1    2    0    0 -0.93047947482E+02 -0.70341570199E+02  0.13982599501E+04  0.14031167967E+04  0.10000000000E-02 0.  1.
</event>
<event>
 5    1  0.7026671E-009  0.3882892E+03  0.7957747E-01  0.3415841E+00
         13   -1    0    0    0    0  0.00000000000E+00  0.00000000000E+00  0.14999999963E+04  0.15000000000E+04  0.10566000000E+00 0. -1.
        994   -1    0    0    0    0 -0.00000000000E+00 -0.00000000000E+00  0.11368683772E-12  0.17120000000E+03  0.17120000000E+03 0.  0.
         13    1    1    2    0    0 -0.19112926438E+03 -0.14232427876E+03  0.12835630226E+04  0.13054963195E+04  0.10566000000E+00 0. -1.
        994    1    1    2    0    0  0.19144647480E+03  0.14267206258E+03  0.21465046205E+03  0.36385619551E+03  0.17120000000E+03 0.  0.
        998    1    1    2    0    0 -0.31721042061E+00 -0.34778382501E+00  0.17865115954E+01  0.18474849717E+01  0.10000000000E-02 0. -1.
</event>
<event>
 5    1  0.7026671E-009  0.3881139E+03  0.7957747E-01  0.3416572E+00
         13   -1    0    0    0    0  0.00000000000E+00  0.00000000000E+00  0.14999999963E+04  0.15000000000E+04  0.10566000000E+00 0.  1.
        994   -1    0    0    0    0 -0.00000000000E+00 -0.00000000000E+00  0.11368683772E-12  0.17120000000E+03  0.17120000000E+03 0.  0.
         13    1    1    2    0    0  0.22570871496E+03  0.37468284683E+02  0.11951851981E+04  0.12168878195E+04  0.10566000000E+00 0.  1.
        994    1    1    2    0    0 -0.24352020323E+03 -0.38927091427E+02  0.23220080109E+03  0.37953136873E+03  0.17120000000E+03 0.  0.
        998    1    1    2    0    0  0.17811488265E+02  0.14588067440E+01  0.72613997109E+02  0.74780811766E+02  0.10000000000E-02 0. -1.
</event>
<event>
 5    1  0.7026671E-009  0.3883010E+03  0.7957747E-01  0.3415792E+00
         13   -1    0    0    0    0  0.00000000000E+00  0.00000000000E+00  0.14999999963E+04  0.15000000000E+04  0.10566000000E+00 0. -1.
        994   -1    0    0    0    0 -0.00000000000E+00 -0.00000000000E+00  0.11368683772E-12  0.17120000000E+03  0.17120000000E+03 0.  0.
         13    1    1    2    0    0 -0.32728981968E+03 -0.61337574574E+02  0.74533955973E+03  0.81634061186E+03  0.10566000000E+00 0. -1.
        994    1    1    2    0    0  0.34129857591E+03  0.63967207586E+02  0.72276089898E+03  0.81992028799E+03  0.17120000000E+03 0.  0.
        998    1    1    2    0    0 -0.14008756225E+02 -0.26296330115E+01  0.31899537575E+02  0.34939100149E+02  0.10000000000E-02 0.  1.
</event>
<event>
 5    1  0.7026671E-009  0.3882944E+03  0.7957747E-01  0.3415819E+00
         13   -1    0    0    0    0  0.00000000000E+00  0.00000000000E+00  0.14999999963E+04  0.15000000000E+04  0.10566000000E+00 0.  1.
        994   -1    0    0    0    0 -0.00000000000E+00 -0.00000000000E+00  0.11368683772E-12  0.17120000000E+03  0.17120000000E+03 0.  0.
         13    1    1    2    0    0  0.24729758835E+03 -0.26444533331E+02  0.12600326325E+04  0.12843432783E+04  0.10566000000E+00 0.  1.
        994    1    1    2    0    0 -0.24782140553E+03  0.26458112755E+02  0.23793257549E+03  0.38475554739E+03  0.17120000000E+03 0.  0.
        998    1    1    2    0    0  0.52381717527E+00 -0.13579424518E-01  0.20347883209E+01  0.21011742776E+01  0.10000000000E-02 0. -1.
</event>
<event>
 5    1  0.7026671E-009  0.3803535E+03  0.7957747E-01  0.3449621E+00
         13   -1    0    0    0    0  0.00000000000E+00  0.00000000000E+00  0.14999999963E+04  0.15000000000E+04  0.10566000000E+00 0.  1.
        994   -1    0    0    0    0 -0.00000000000E+00 -0.00000000000E+00  0.11368683772E-12  0.17120000000E+03  0.17120000000E+03 0.  0.
         13    1    1    2    0    0 -0.38221894304E+02 -0.76861377548E+01  0.12263562296E+03  0.12868370954E+03  0.10566000000E+00 0.  1.
        994    1    1    2    0    0  0.14451909005E+03 -0.11924493342E+03  0.13177239627E+03  0.28596944934E+03  0.17120000000E+03 0.  0.
        998    1    1    2    0    0 -0.10629719575E+03  0.12693107117E+03  0.12455919771E+04  0.12565468411E+04  0.10000000000E-02 0.  1.
</event>
<event>
 5    1  0.7026671E-009  0.3883009E+03  0.7957747E-01  0.3415792E+00
         13   -1    0    0    0    0  0.00000000000E+00  0.00000000000E+00  0.14999999963E+04  0.15000000000E+04  0.10566000000E+00 0.  1.
        994   -1    0    0    0    0 -0.00000000000E+00 -0.00000000000E+00  0.11368683772E-12  0.17120000000E+03  0.17120000000E+03 0.  0.
         13    1    1    2    0    0  0.33374714486E+02  0.21479905458E+03  0.11449033262E+04  0.11653566591E+04  0.10566000000E+00 0.  1.
        994    1    1    2    0    0 -0.37172902270E+02 -0.23959971768E+03  0.22265262930E+03  0.37104377465E+03  0.17120000000E+03 0.  0.
        998    1    1    2    0    0  0.37981877846E+01  0.24800663100E+02  0.13244404079E+03  0.13479956626E+03  0.10000000000E-02 0.  1.
</event>
<event>
 5    1  0.7026671E-009  0.3871074E+03  0.7957747E-01  0.3420783E+00
         13   -1    0    0    0    0  0.00000000000E+00  0.00000000000E+00  0.14999999963E+04  0.15000000000E+04  0.10566000000E+00 0.  1.
        994   -1    0    0    0    0 -0.00000000000E+00 -0.00000000000E+00  0.11368683772E-12  0.17120000000E+03  0.17120000000E+03 0.  0.
         13    1    1    2    0    0 -0.97354609204E+02 -0.77546622549E+02  0.68797031301E+03  0.69913844219E+03  0.10566000000E+00 0.  1.
        994    1    1    2    0    0  0.18632511439E+03  0.10916794744E+03  0.17144966143E+03  0.32455987954E+03  0.17120000000E+03 0.  0.
        998    1    1    2    0    0 -0.88970505190E+02 -0.31621324890E+02  0.64058002184E+03  0.64750167827E+03  0.10000000000E-02 0.  1.
</event>
<event>
 5    1  0.7026671E-009  0.3883009E+03  0.7957747E-01  0.3415792E+00
         13   -1    0    0    0    0  0.00000000000E+00  0.00000000000E+00  0.14999999963E+04  0.15000000000E+04  0.10566000000E+00 0. -1.
        994   -1    0    0    0    0 -0.00000000000E+00 -0.00000000000E+00  0.11368683772E-12  0.17120000000E+03  0.17120000000E+03 0.  0.
         13    1    1    2    0    0 -0.19418097868E+03 -0.16638919253E+03  0.11959427674E+04  0.12229761771E+04  0.10566000000E+00 0. -1.
        994    1    1    2    0    0  0.19953454584E+03  0.17093620334E+03  0.27112128323E+03  0.41454723592E+03  0.17120000000E+03 0.  0.
        998    1    1    2    0    0 -0.53535671602E+01 -0.45470108094E+01  0.32935945689E+02  0.33676586942E+02  0.10000000000E-02 0. -1.
</event>
<event>
 5    1  0.7026671E-009  0.3882856E+03  0.7957747E-01  0.3415856E+00
         13   -1    0    0    0    0  0.00000000000E+00  0.00000000000E+00  0.14999999963E+04  0.15000000000E+04  0.10566000000E+00 0.  1.
        994   -1    0    0    0    0 -0.00000000000E+00 -0.00000000000E+00  0.11368683772E-12  0.17120000000E+03  0.17120000000E+03 0.  0.
         13    1    1    2    0    0 -0.31081003811E+03 -0.19777691428E+02  0.10597381128E+04  0.11045537179E+04  0.10566000000E+00 0.  1.
        994    1    1    2    0    0  0.31139191314E+03  0.20008230260E+02  0.43841797740E+03  0.56469904883E+03  0.17120000000E+03 0.  0.
        998    1    1    2    0    0 -0.58187503833E+00 -0.23053883168E+00  0.18439060975E+01  0.19472332705E+01  0.10000000000E-02 0. -1.
</event>
<event>
 5    1  0.7026671E-009  0.3882996E+03  0.7957747E-01  0.3415798E+00
         13   -1    0    0    0    0  0.00000000000E+00  0.00000000000E+00  0.14999999963E+04  0.15000000000E+04  0.10566000000E+00 0.  1.
        994   -1    0    0    0    0 -0.00000000000E+00 -0.00000000000E+00  0.11368683772E-12  0.17120000000E+03  0.17120000000E+03 0.  0.
         13    1    1    2    0    0  0.56141977330E+02 -0.28225796139E+03  0.11538221621E+04  0.11891707494E+04  0.10566000000E+00 0.  1.
        994    1    1    2    0    0 -0.56161885384E+02  0.28245107597E+03  0.34525211338E+03  0.48108339140E+03  0.17120000000E+03 0.  0.
        998    1    1    2    0    0  0.19908053802E-01 -0.19311458212E+00  0.92572080942E+00  0.94585918055E+00  0.10000000000E-02 0.  1.
</event>
<event>
 5    1  0.7026671E-009  0.3883009E+03  0.7957747E-01  0.3415792E+00
         13   -1    0    0    0    0  0.00000000000E+00  0.00000000000E+00  0.14999999963E+04  0.15000000000E+04  0.10566000000E+00 0. -1.
        994   -1    0    0    0    0 -0.00000000000E+00 -0.00000000000E+00  0.11368683772E-12  0.17120000000E+03  0.17120000000E+03 0.  0.
         13    1    1    2    0    0  0.37518585545E+02  0.22136364593E+03  0.12926801390E+04  0.13120333308E+04  0.10566000000E+00 0. -1.
        994    1    1    2    0    0 -0.38007318775E+02 -0.22408197643E+03  0.19121417753E+03  0.34282588894E+03  0.17120000000E+03 0.  0.
        998    1    1    2    0    0  0.48873322915E+00  0.27183305007E+01  0.16105679712E+02  0.16340780301E+02  0.10000000000E-02 0. -1.
</event>
<event>
 5    1  0.7026671E-009  0.3883009E+03  0.7957747E-01  0.3415792E+00
         13   -1    0    0    0    0  0.00000000000E+00  0.00000000000E+00  0.14999999963E+04  0.15000000000E+04  0.10566000000E+00 0. -1.
        994   -1    0    0    0    0 -0.00000000000E+00 -0.00000000000E+00  0.11368683772E-12  0.17120000000E+03  0.17120000000E+03 0.  0.
         13    1    1    2    0    0  0.97279862278E+02  0.32684983163E+03  0.86895216750E+03  0.93347311938E+03  0.10566000000E+00 0. -1.
        994    1    1    2    0    0 -0.97360042154E+02 -0.32711641994E+03  0.63036600176E+03  0.73699041119E+03  0.17120000000E+03 0.  0.
        998    1    1    2    0    0  0.80179875773E-01  0.26658831794E+00  0.68182701694E+00  0.73646943234E+00  0.10000000000E-02 0. -1.
</event>
<event>
 5    1  0.7026671E-009  0.3882971E+03  0.7957747E-01  0.3415808E+00
         13   -1    0    0    0    0  0.00000000000E+00  0.00000000000E+00  0.14999999963E+04  0.15000000000E+04  0.10566000000E+00 0.  1.
        994   -1    0    0    0    0 -0.00000000000E+00 -0.00000000000E+00  0.11368683772E-12  0.17120000000E+03  0.17120000000E+03 0.  0.
         13    1    1    2    0    0 -0.18802243455E+03 -0.10895549762E+03  0.10903144222E+04  0.11117595454E+04  0.10566000000E+00 0.  1.
        994    1    1    2    0    0  0.21678088975E+03  0.12503772954E+03  0.24032113055E+03  0.38690059932E+03  0.17120000000E+03 0.  0.
        998    1    1    2    0    0 -0.28758455201E+02 -0.16082231919E+02  0.16936444353E+03  0.17253985529E+03  0.10000000000E-02 0.  1.
</event>
<event>
 5    1  0.7026671E-009  0.3881532E+03  0.7957747E-01  0.3416408E+00
         13   -1    0    0    0    0  0.00000000000E+00  0.00000000000E+00  0.14999999963E+04  0.15000000000E+04  0.10566000000E+00 0. -1.
        994   -1    0    0    0    0 -0.00000000000E+00 -0.00000000000E+00  0.11368683772E-12  0.17120000000E+03  0.17120000000E+03 0.  0.
         13    1    1    2    0    0 -0.22062389317E+03 -0.16829632703E+01  0.13109593393E+04  0.13293954021E+04  0.10566000000E+00 0. -1.
        994    1    1    2    0    0  0.22121294918E+03  0.91256421386E+00  0.17982803183E+03  0.33254106917E+03  0.17120000000E+03 0.  0.
        998    1    1    2    0    0 -0.58905600383E+00  0.77039905646E+00  0.92126251051E+01  0.92635287018E+01  0.10000000000E-02 0.  1.
</event>
<event>
 5    1  0.7026671E-009  0.3883008E+03  0.7957747E-01  0.3415792E+00
         13   -1    0    0    0    0  0.00000000000E+00  0.00000000000E+00  0.14999999963E+04  0.15000000000E+04  0.10566000000E+00 0.  1.
        994   -1    0    0    0    0 -0.00000000000E+00 -0.00000000000E+00  0.11368683772E-12  0.17120000000E+03  0.17120000000E+03 0.  0.
         13    1    1    2    0    0  0.23091886207E+03 -0.62472707397E+02  0.12842886239E+04  0.13063780619E+04  0.10566000000E+00 0.  1.
        994    1    1    2    0    0 -0.23093156676E+03  0.62479044177E+02  0.21564394951E+03  0.36475302939E+03  0.17120000000E+03 0.  0.
        998    1    1    2    0    0  0.12704687911E-01 -0.63367799312E-02  0.67422906192E-01  0.68908723354E-01  0.10000000000E-02 0.  1.
</event>
<event>
 5    1  0.7026671E-009  0.3872995E+03  0.7957747E-01  0.3419978E+00
         13   -1    0    0    0    0  0.00000000000E+00  0.00000000000E+00  0.14999999963E+04  0.15000000000E+04  0.10566000000E+00 0.  1.
        994   -1    0    0    0    0 -0.00000000000E+00 -0.00000000000E+00  0.11368683772E-12  0.17120000000E+03  0.17120000000E+03 0.  0.
         13    1    1    2    0    0 -0.14620337627E+03 -0.16419589622E+03  0.85022183633E+03  0.87818728168E+03  0.10566000000E+00 0.  1.
        994    1    1    2    0    0  0.20229255848E+03  0.20100883563E+03  0.33844504292E+03  0.47453273680E+03  0.17120000000E+03 0.  0.
        998    1    1    2    0    0 -0.56089182206E+02 -0.36812939412E+02  0.31133311704E+03  0.31847998153E+03  0.10000000000E-02 0.  1.
</event>
<event>
 5    1  0.7026671E-009  0.3883009E+03  0.7957747E-01  0.3415792E+00
         13   -1    0    0    0    0  0.00000000000E+00  0.00000000000E+00  0.14999999963E+04  0.15000000000E+04  0.10566000000E+00 0. -1.
        994   -1    0    0    0    0 -0.00000000000E+00 -0.00000000000E+00  0.11368683772E-12  0.17120000000E+03  0.17120000000E+03 0.  0.
         13    1    1    2    0    0 -0.14963670877E+03 -0.19975207579E+03  0.12611994999E+04  0.12856578962E+04  0.10566000000E+00 0. -1.
        994    1    1    2    0    0  0.14964198427E+03  0.19975718875E+03  0.23876165935E+03  0.38550256535E+03  0.17120000000E+03 0.  0.
        998    1    1    2    0    0 -0.52755000052E-02 -0.51129530991E-02  0.38837012857E-01  0.39538421280E-01  0.10000000000E-02 0.  1.
</event>
<event>
 5    1  0.7026671E-009  0.3882938E+03  0.7957747E-01  0.3415822E+00
         13   -1    0    0    0    0  0.00000000000E+00  0.00000000000E+00  0.14999999963E+04  0.15000000000E+04  0.10566000000E+00 0. -1.
        994   -1    0    0    0    0 -0.00000000000E+00 -0.00000000000E+00  0.11368683772E-12  0.17120000000E+03  0.17120000000E+03 0.  0.
         13    1    1    2    0    0  0.23285633117E+02 -0.21776731124E+03  0.13108461089E+04  0.13290155585E+04  0.10566000000E+00 0. -1.
        994    1    1    2    0    0 -0.23399749126E+02  0.21970882450E+03  0.17916416272E+03  0.33200715809E+03  0.17120000000E+03 0.  0.
        998    1    1    2    0    0  0.11411600864E+00 -0.19415132631E+01  0.99897246870E+01  0.10177283357E+02  0.10000000000E-02 0.  1.
</event>
<event>
 5    1  0.7026671E-009  0.3883010E+03  0.7957747E-01  0.3415792E+00
         13   -1    0    0    0    0  0.00000000000E+00  0.00000000000E+00  0.14999999963E+04  0.15000000000E+04  0.10566000000E+00 0. -1.
        994   -1    0    0    0    0 -0.00000000000E+00 -0.00000000000E+00  0.11368683772E-12  0.17120000000E+03  0.17120000000E+03 0.  0.
         13    1    1    2    0    0  0.10218341693E+03 -0.25816917504E+03  0.91802286459E+03  0.95909267785E+03  0.10566000000E+00 0. -1.
        994    1    1    2    0    0 -0.11622476427E+03  0.29360024256E+03  0.45592223160E+03  0.58041693594E+03  0.17120000000E+03 0.  0.
        998    1    1    2    0    0  0.14041347337E+02 -0.35431067524E+02  0.12605490009E+03  0.13169038621E+03  0.10000000000E-02 0.  1.
</event>
<event>
 5    1  0.7026671E-009  0.3859894E+03  0.7957747E-01  0.3425487E+00
         13   -1    0    0    0    0  0.00000000000E+00  0.00000000000E+00  0.14999999963E+04  0.15000000000E+04  0.10566000000E+00 0. -1.
        994   -1    0    0    0    0 -0.00000000000E+00 -0.00000000000E+00  0.11368683772E-12  0.17120000000E+03  0.17120000000E+03 0.  0.
         13    1    1    2    0    0  0.57375378628E+00  0.38393436567E+02  0.21260363609E+03  0.21604328828E+03  0.10566000000E+00 0. -1.
        994    1    1    2    0    0 -0.19525649619E+02 -0.12065653844E+03  0.51744464170E+02  0.21662451577E+03  0.17120000000E+03 0.  0.
        998    1    1    2    0    0  0.18951895833E+02  0.82263101871E+02  0.12356518960E+04  0.12385321960E+04  0.10000000000E-02 0. -1.
</event>
<event>
 5    1  0.7026671E-009  0.3882996E+03  0.7957747E-01  0.3415798E+00
         13   -1    0    0    0    0  0.00000000000E+00  0.00000000000E+00  0.14999999963E+04  0.15000000000E+04  0.10566000000E+00 0.  1.
        994   -1    0    0    0    0 -0.00000000000E+00 -0.00000000000E+00  0.11368683772E-12  0.17120000000E+03  0.17120000000E+03 0.  0.
         13    1    1    2    0    0 -0.42911636060E+02  0.23972269465E+03  0.12721294383E+04  0.12952303648E+04  0.10566000000E+00 0.  1.
        994    1    1    2    0    0  0.42924295175E+02 -0.24011209477E+03  0.22586379902E+03  0.37392540550E+03  0.17120000000E+03 0.  0.
        998    1    1    2    0    0 -0.12659115404E-01  0.38940011960E+00  0.20067589540E+01  0.20442297341E+01  0.10000000000E-02 0.  1.
</event>
<event>
 5    1  0.7026671E-009  0.3883009E+03  0.7957747E-01  0.3415792E+00
         13   -1    0    0    0    0  0.00000000000E+00  0.00000000000E+00  0.14999999963E+04  0.15000000000E+04  0.10566000000E+00 0. -1.
        994   -1    0    0    0    0 -0.00000000000E+00 -0.00000000000E+00  0.11368683772E-12  0.17120000000E+03  0.17120000000E+03 0.  0.
         13    1    1    2    0    0  0.10966907915E+02  0.28138231895E+03  0.11750975278E+04  0.12083668704E+04  0.10566000000E+00 0. -1.
        994    1    1    2    0    0 -0.10970697089E+02 -0.28140815714E+03  0.32479500031E+03  0.46272252952E+03  0.17120000000E+03 0.  0.
        998    1    1    2    0    0  0.37891740639E-02  0.25838185087E-01  0.10746817624E+00  0.11060008387E+00  0.10000000000E-02 0.  1.
</event>
<event>
 5    1  0.7026671E-009  0.3883010E+03  0.7957747E-01  0.3415792E+00
         13   -1    0    0    0    0  0.00000000000E+00  0.00000000000E+00  0.14999999963E+04  0.15000000000E+04  0.10566000000E+00 0.  1.
        994   -1    0    0    0    0 -0.00000000000E+00 -0.00000000000E+00  0.11368683772E-12  0.17120000000E+03  0.17120000000E+03 0.  0.
         13    1    1    2    0    0 -0.49876861313E+01 -0.22397769838E+03  0.13145514538E+04  0.13335053140E+04  0.10566000000E+00 0.  1.
        994    1    1    2    0    0  0.49892790870E+01  0.22404225236E+03  0.18507569250E+03  0.33731628437E+03  0.17120000000E+03 0.  0.
        998    1    1    2    0    0 -0.15929557730E-02 -0.64553980164E-01  0.37284993193E+00  0.37840167231E+00  0.10000000000E-02 0. -1.
</event>
<event>
 5    1  0.7026671E-009  0.3757654E+03  0.7957747E-01  0.3469807E+00
         13   -1    0    0    0    0  0.00000000000E+00  0.00000000000E+00  0.14999999963E+04  0.15000000000E+04  0.10566000000E+00 0.  1.
        994   -1    0    0    0    0 -0.00000000000E+00 -0.00000000000E+00  0.11368683772E-12  0.17120000000E+03  0.17120000000E+03 0.  0.
         13    1    1    2    0    0  0.10079634018E+02 -0.24015402453E+01  0.47339221838E+01  0.11392436121E+02  0.10566000000E+00 0.  1.
        994    1    1    2    0    0 -0.73980775868E+02 -0.78441867786E+02  0.46783684994E+02  0.20766423621E+03  0.17120000000E+03 0.  0.
        998    1    1    2    0    0  0.63901141850E+02  0.80843408031E+02  0.14484823891E+04  0.14521433277E+04  0.10000000000E-02 0.  1.
</event>
<event>
 5    1  0.7026671E-009  0.3883007E+03  0.7957747E-01  0.3415793E+00
         13   -1    0    0    0    0  0.00000000000E+00  0.00000000000E+00  0.14999999963E+04  0.15000000000E+04  0.10566000000E+00 0. -1.
        994   -1    0    0    0    0 -0.00000000000E+00 -0.00000000000E+00  0.11368683772E-12  0.17120000000E+03  0.17120000000E+03 0.  0.
         13    1    1    2    0    0  0.21594908671E+03  0.18851546370E+03  0.11590208213E+04  0.11939436182E+04  0.10566000000E+00 0. -1.
        994    1    1    2    0    0 -0.21595649207E+03 -0.18852786356E+03  0.34092138879E+03  0.47719680965E+03  0.17120000000E+03 0.  0.
        998    1    1    2    0    0  0.74053523605E-02  0.12399856380E-01  0.57786201473E-01  0.59572147540E-01  0.10000000000E-02 0.  1.
</event>
<event>
 5    1  0.7026671E-009  0.3882999E+03  0.7957747E-01  0.3415796E+00
         13   -1    0    0    0    0  0.00000000000E+00  0.00000000000E+00  0.14999999963E+04  0.15000000000E+04  0.10566000000E+00 0.  1.
        994   -1    0    0    0    0 -0.00000000000E+00 -0.00000000000E+00  0.11368683772E-12  0.17120000000E+03  0.17120000000E+03 0.  0.
         13    1    1    2    0    0  0.12464156409E+03 -0.25728957370E+03  0.10811926751E+04  0.11183519375E+04  0.10566000000E+00 0.  1.
        994    1    1    2    0    0 -0.12936442086E+03  0.26743829875E+03  0.37716140985E+03  0.50972400974E+03  0.17120000000E+03 0.  0.
        998    1    1    2    0    0  0.47228567725E+01 -0.10148725053E+02  0.41645911309E+02  0.43124052756E+02  0.10000000000E-02 0.  1.
</event>
<event>
 5    1  0.7026671E-009  0.3882961E+03  0.7957747E-01  0.3415812E+00
         13   -1    0    0    0    0  0.00000000000E+00  0.00000000000E+00  0.14999999963E+04  0.15000000000E+04  0.10566000000E+00 0.  1.
        994   -1    0    0    0    0 -0.00000000000E+00 -0.00000000000E+00  0.11368683772E-12  0.17120000000E+03  0.17120000000E+03 0.  0.
         13    1    1    2    0    0  0.13948996715E+03 -0.22360093629E+02  0.64333796354E+03  0.65866620622E+03  0.10566000000E+00 0.  1.
        994    1    1    2    0    0 -0.26251490330E+03  0.41102398125E+02  0.27896625175E+03  0.42158639826E+03  0.17120000000E+03 0.  0.
        998    1    1    2    0    0  0.12302493615E+03 -0.18742304495E+02  0.57769578099E+03  0.59094739552E+03  0.10000000000E-02 0.  1.
</event>
<event>
 5    1  0.7026671E-009  0.3883009E+03  0.7957747E-01  0.3415792E+00
         13   -1    0    0    0    0  0.00000000000E+00  0.00000000000E+00  0.14999999963E+04  0.15000000000E+04  0.10566000000E+00 0. -1.
        994   -1    0    0    0    0 -0.00000000000E+00 -0.00000000000E+00  0.11368683772E-12  0.17120000000E+03  0.17120000000E+03 0.  0.
         13    1    1    2    0    0 -0.34891408533E+02  0.23166549078E+03  0.10009446613E+04  0.10279963697E+04  0.10566000000E+00 0. -1.
        994    1    1    2    0    0  0.41344573412E+02 -0.27476794834E+03  0.31331484734E+03  0.45241842663E+03  0.17120000000E+03 0.  0.
        998    1    1    2    0    0 -0.64531648787E+01  0.43102457564E+02  0.18574048761E+03  0.19078520363E+03  0.10000000000E-02 0.  1.
</event>
<event>
 5    1  0.7026671E-009  0.3883010E+03  0.7957747E-01  0.3415792E+00
         13   -1    0    0    0    0  0.00000000000E+00  0.00000000000E+00  0.14999999963E+04  0.15000000000E+04  0.10566000000E+00 0.  1.
        994   -1    0    0    0    0 -0.00000000000E+00 -0.00000000000E+00  0.11368683772E-12  0.17120000000E+03  0.17120000000E+03 0.  0.
         13    1    1    2    0    0  0.17869482692E+03 -0.14423465744E+03  0.12995075907E+04  0.13196421739E+04  0.10566000000E+00 0.  1.
        994    1    1    2    0    0 -0.17916303287E+03  0.14461530912E+03  0.19706137526E+03  0.34807413808E+03  0.17120000000E+03 0.  0.
        998    1    1    2    0    0  0.46820594437E+00 -0.38065167935E+00  0.34310303028E+01  0.34836880524E+01  0.10000000000E-02 0. -1.
</event>
<event>
 5    1  0.7026671E-009  0.3882991E+03  0.7957747E-01  0.3415800E+00
         13   -1    0    0    0    0  0.00000000000E+00  0.00000000000E+00  0.14999999963E+04  0.15000000000E+04  0.10566000000E+00 0. -1.
        994   -1    0    0    0    0 -0.00000000000E+00 -0.00000000000E+00  0.11368683772E-12  0.17120000000E+03  0.17120000000E+03 0.  0.
         13    1    1    2    0    0  0.14768887204E+02 -0.46728267805E+02  0.23812846137E+03  0.24311895508E+03  0.10566000000E+00 0. -1.
        994    1    1    2    0    0 -0.78951510836E+02  0.24605085674E+03  0.26005540234E+03  0.40461415874E+03  0.17120000000E+03 0.  0.
        998    1    1    2    0    0  0.64182623632E+02 -0.19932258893E+03  0.10018161326E+04  0.10234668862E+04  0.10000000000E-02 0. -1.
</event>
<event>
 5    1  0.7026671E-009  0.3882752E+03  0.7957747E-01  0.3415899E+00
         13   -1    0    0    0    0  0.00000000000E+00  0.00000000000E+00  0.14999999963E+04  0.15000000000E+04  0.10566000000E+00 0. -1.
        994   -1    0    0    0    0 -0.00000000000E+00 -0.00000000000E+00  0.11368683772E-12  0.17120000000E+03  0.17120000000E+03 0.  0.
         13    1    1    2    0    0 -0.15930855373E+03 -0.21236665404E+03  0.12144686226E+04  0.12431463540E+04  0.10566000000E+00 0. -1.
        994    1    1    2    0    0  0.15996325898E+03  0.21285051562E+03  0.28046640951E+03  0.42292367289E+03  0.17120000000E+03 0.  0.
        998    1    1    2    0    0 -0.65470525058E+00 -0.48386158150E+00  0.50649641604E+01  0.51299730936E+01  0.10000000000E-02 0. -1.
</event>
<event>
 5    1  0.7026671E-009  0.3882913E+03  0.7957747E-01  0.3415832E+00
         13   -1    0    0    0    0  0.00000000000E+00  0.00000000000E+00  0.14999999963E+04  0.15000000000E+04  0.10566000000E+00 0. -1.
        994   -1    0    0    0    0 -0.00000000000E+00 -0.00000000000E+00  0.11368683772E-12  0.17120000000E+03  0.17120000000E+03 0.  0.
         13    1    1    2    0    0  0.29090279217E+03 -0.31535702647E+02  0.11382226046E+04  0.11752317404E+04  0.10566000000E+00 0. -1.
        994    1    1    2    0    0 -0.29101765488E+03  0.31488572700E+02  0.36145508336E+03  0.49562286362E+03  0.17120000000E+03 0.  0.
        998    1    1    2    0    0  0.11486270953E+00  0.47129947042E-01  0.32230835651E+00  0.34539593313E+00  0.10000000000E-02 0. -1.
</event>
<event>
 5    1  0.7026671E-009  0.3864849E+03  0.7957747E-01  0.3423399E+00
         13   -1    0    0    0    0  0.00000000000E+00  0.00000000000E+00  0.14999999963E+04  0.15000000000E+04  0.10566000000E+00 0. -1.
        994   -1    0    0    0    0 -0.00000000000E+00 -0.00000000000E+00  0.11368683772E-12  0.17120000000E+03  0.17120000000E+03 0.  0.
         13    1    1    2    0    0  0.98570344957E+02  0.17649463014E+03  0.76793605383E+03  0.79409839523E+03  0.10566000000E+00 0. -1.
        994    1    1    2    0    0 -0.16636729425E+03 -0.23334073142E+03  0.34503288188E+03  0.48008655794E+03  0.17120000000E+03 0.  0.
        998    1    1    2    0    0  0.67796949293E+02  0.56846101277E+02  0.38703106057E+03  0.39701504683E+03  0.10000000000E-02 0. -1.
</event>
<event>
 5    1  0.7026671E-009  0.3883008E+03  0.7957747E-01  0.3415793E+00
         13   -1    0    0    0    0  0.00000000000E+00  0.00000000000E+00  0.14999999963E+04  0.15000000000E+04  0.10566000000E+00 0.  1.
        994   -1    0    0    0    0 -0.00000000000E+00 -0.00000000000E+00  0.11368683772E-12  0.17120000000E+03  0.17120000000E+03 0.  0.
         13    1    1    2    0    0  0.14181478900E+03  0.16868466181E+03  0.13218173644E+04  0.13400623513E+04  0.10566000000E+00 0.  1.
        994    1    1    2    0    0 -0.14182495606E+03 -0.16869049513E+03  0.17810998258E+03  0.33106405302E+03  0.17120000000E+03 0.  0.
        998    1    1    2    0    0  0.10167055731E-01  0.58333161771E-02  0.72649333277E-01  0.73595667165E-01  0.10000000000E-02 0. -1.
</event>
<event>
 5    1  0.7026671E-009  0.3882971E+03  0.7957747E-01  0.3415808E+00
         13   -1    0    0    0    0  0.00000000000E+00  0.00000000000E+00  0.14999999963E+04  0.15000000000E+04  0.10566000000E+00 0. -1.
        994   -1    0    0    0    0 -0.00000000000E+00 -0.00000000000E+00  0.11368683772E-12  0.17120000000E+03  0.17120000000E+03 0.  0.
         13    1    1    2    0    0 -0.72594496766E+01  0.72408160558E+02  0.42154421003E+03  0.42777935141E+03  0.10566000000E+00 0. -1.
        994    1    1    2    0    0  0.19791234951E+02 -0.22679310492E+03  0.19194705836E+03  0.34348204994E+03  0.17120000000E+03 0.  0.
        998    1    1    2    0    0 -0.12531785274E+02  0.15438494437E+03  0.88650872790E+03  0.89993859864E+03  0.10000000000E-02 0. -1.
</event>
<event>
 5    1  0.7026671E-009  0.3883010E+03  0.7957747E-01  0.3415792E+00
         13   -1    0    0    0    0  0.00000000000E+00  0.00000000000E+00  0.14999999963E+04  0.15000000000E+04  0.10566000000E+00 0.  1.
        994   -1    0    0    0    0 -0.00000000000E+00 -0.00000000000E+00  0.11368683772E-12  0.17120000000E+03  0.17120000000E+03 0.  0.
         13    1    1    2    0    0  0.60014657075E+02 -0.24259775554E+03  0.12238426611E+04  0.12490981948E+04  0.10566000000E+00 0.  1.
        994    1    1    2    0    0 -0.61246129591E+02  0.24749031144E+03  0.25152889377E+03  0.39696192141E+03  0.17120000000E+03 0.  0.
        998    1    1    2    0    0  0.12314725161E+01 -0.48925558997E+01  0.24628441457E+02  0.25139883798E+02  0.10000000000E-02 0. -1.
</event>
<event>
 5    1  0.7026671E-009  0.3883010E+03  0.7957747E-01  0.3415792E+00
         13   -1    0    0    0    0  0.00000000000E+00  0.00000000000E+00  0.14999999963E+04  0.15000000000E+04  0.10566000000E+00 0.  1.
        994   -1    0    0    0    0 -0.00000000000E+00 -0.00000000000E+00  0.11368683772E-12  0.17120000000E+03  0.17120000000E+03 0.  0.
         13    1    1    2    0    0 -0.19131777005E+03  0.23659578624E+03  0.10821744481E+04  0.11241359359E+04  0.10566000000E+00 0.  1.
        994    1    1    2    0    0  0.19237734970E+03 -0.23789052750E+03  0.41186216514E+03  0.54087043812E+03  0.17120000000E+03 0.  0.
        998    1    1    2    0    0 -0.10595796480E+01  0.12947412639E+01  0.59633830382E+01  0.61936259357E+01  0.10000000000E-02 0.  1.
</event>
<event>
 5    1  0.7026671E-009  0.3883009E+03  0.7957747E-01  0.3415792E+00
         13   -1    0    0    0    0  0.00000000000E+00  0.00000000000E+00  0.14999999963E+04  0.15000000000E+04  0.10566000000E+00 0. -1.
        994   -1    0    0    0    0 -0.00000000000E+00 -0.00000000000E+00  0.11368683772E-12  0.17120000000E+03  0.17120000000E+03 0.  0.
         13    1    1    2    0    0  0.23046161847E+03 -0.54623887489E+02  0.12879376133E+04  0.13095341284E+04  0.10566000000E+00 0. -1.
        994    1    1    2    0    0 -0.23065606614E+03  0.54661100658E+02  0.21099585762E+03  0.36058112639E+03  0.17120000000E+03 0.  0.
        998    1    1    2    0    0  0.19444767550E+00 -0.37213168521E-01  0.10665253713E+01  0.10847451711E+01  0.10000000000E-02 0. -1.
</event>
<event>
 5    1  0.7026671E-009  0.3882930E+03  0.7957747E-01  0.3415825E+00
         13   -1    0    0    0    0  0.00000000000E+00  0.00000000000E+00  0.14999999963E+04  0.15000000000E+04  0.10566000000E+00 0. -1.
        994   -1    0    0    0    0 -0.00000000000E+00 -0.00000000000E+00  0.11368683772E-12  0.17120000000E+03  0.17120000000E+03 0.  0.
         13    1    1    2    0    0 -0.24410640752E+03 -0.89404193786E+02  0.12172420884E+04  0.12446924764E+04  0.10566000000E+00 0. -1.
        994    1    1    2    0    0  0.24673624675E+03  0.90048220246E+02  0.27090901764E+03  0.41435322283E+03  0.17120000000E+03 0.  0.
        998    1    1    2    0    0 -0.26298392304E+01 -0.64402645968E+00  0.11848890284E+02  0.12154300738E+02  0.10000000000E-02 0.  1.
</event>
<event>
 5    1  0.7026671E-009  0.3882515E+03  0.7957747E-01  0.3415998E+00
         13   -1    0    0    0    0  0.00000000000E+00  0.00000000000E+00  0.14999999963E+04  0.15000000000E+04  0.10566000000E+00 0. -1.
        994   -1    0    0    0    0 -0.00000000000E+00 -0.00000000000E+00  0.11368683772E-12  0.17120000000E+03  0.17120000000E+03 0.  0.
         13    1    1    2    0    0  0.91191379392E+02 -0.45569512463E+02  0.57160758669E+03  0.58062698220E+03  0.10566000000E+00 0. -1.
        994    1    1    2    0    0 -0.21057479417E+03  0.94575156403E+02  0.19831293233E+03  0.34917569113E+03  0.17120000000E+03 0.  0.
        998    1    1    2    0    0  0.11938341478E+03 -0.49005643940E+02  0.73007947726E+03  0.74139732666E+03  0.10000000000E-02 0. -1.
</event>
<event>
 5    1  0.7026671E-009  0.3883009E+03  0.7957747E-01  0.3415792E+00
         13   -1    0    0    0    0  0.00000000000E+00  0.00000000000E+00  0.14999999963E+04  0.15000000000E+04  0.10566000000E+00 0. -1.
        994   -1    0    0    0    0 -0.00000000000E+00 -0.00000000000E+00  0.11368683772E-12  0.17120000000E+03  0.17120000000E+03 0.  0.
         13    1    1    2    0    0 -0.75717483046E+02 -0.20327693559E+03  0.12742185318E+04  0.12925507835E+04  0.10566000000E+00 0. -1.
        994    1    1    2    0    0  0.78110189719E+02  0.20985425536E+03  0.18473676463E+03  0.33701205088E+03  0.17120000000E+03 0.  0.
        998    1    1    2    0    0 -0.23927066722E+01 -0.65773197752E+01  0.41044699805E+02  0.41637165654E+02  0.10000000000E-02 0.  1.
</event>
<event>
 5    1  0.7026671E-009  0.3883010E+03  0.7957747E-01  0.3415792E+00
         13   -1    0    0    0    0  0.00000000000E+00  0.00000000000E+00  0.14999999963E+04  0.15000000000E+04  0.10566000000E+00 0. -1.
        994   -1    0    0    0    0 -0.00000000000E+00 -0.00000000000E+00  0.11368683772E-12  0.17120000000E+03  0.17120000000E+03 0.  0.
         13    1    1    2    0    0  0.17352007640E+03  0.13692101183E+03  0.13110638663E+04  0.13295657385E+04  0.10566000000E+00 0. -1.
        994    1    1    2    0    0 -0.17448860693E+03 -0.13768647569E+03  0.18161875491E+03  0.33421348218E+03  0.17120000000E+03 0.  0.
        998    1    1    2    0    0  0.96853053302E+00  0.76546386698E+00  0.73173751029E+01  0.74207793203E+01  0.10000000000E-02 0.  1.
</event>
<event>
 5    1  0.7026671E-009  0.3883002E+03  0.7957747E-01  0.3415795E+00
         13   -1    0    0    0    0  0.00000000000E+00  0.00000000000E+00  0.14999999963E+04  0.15000000000E+04  0.10566000000E+00 0. -1.
        994   -1    0    0    0    0 -0.00000000000E+00 -0.00000000000E+00  0.11368683772E-12  0.17120000000E+03  0.17120000000E+03 0.  0.
         13    1    1    2    0    0 -0.14510852752E+03 -0.16862393806E+03  0.12554723752E+04  0.12750299656E+04  0.10566000000E+00 0. -1.
        994    1    1    2    0    0  0.15044708048E+03  0.17504623763E+03  0.19820135337E+03  0.34909701490E+03  0.17120000000E+03 0.  0.
        998    1    1    2    0    0 -0.53385529655E+01 -0.64222995679E+01  0.46326267756E+02  0.47073019498E+02  0.10000000000E-02 0. -1.
</event>
<event>
 5    1  0.7026671E-009  0.3883010E+03  0.7957747E-01  0.3415792E+00
         13   -1    0    0    0    0  0.00000000000E+00  0.00000000000E+00  0.14999999963E+04  0.15000000000E+04  0.10566000000E+00 0. -1.
        994   -1    0    0    0    0 -0.00000000000E+00 -0.00000000000E+00  0.11368683772E-12  0.17120000000E+03  0.17120000000E+03 0.  0.
         13    1    1    2    0    0  0.19010322455E+03  0.13137509955E+03  0.12701939983E+04  0.12910427791E+04  0.10566000000E+00 0. -1.
        994    1    1    2    0    0 -0.19350866045E+03 -0.13371907915E+03  0.20717488512E+03  0.35715160201E+03  0.17120000000E+03 0.  0.
        998    1    1    2    0    0  0.34054358973E+01  0.23439795978E+01  0.22631112823E+02  0.23005618935E+02  0.10000000000E-02 0. -1.
</event>
<event>
 5    1  0.7026671E-009  0.3878008E+03  0.7957747E-01  0.3417880E+00
         13   -1    0    0    0    0  0.00000000000E+00  0.00000000000E+00  0.14999999963E+04  0.15000000000E+04  0.10566000000E+00 0.  1.
        994   -1    0    0    0    0 -0.00000000000E+00 -0.00000000000E+00  0.11368683772E-12  0.17120000000E+03  0.17120000000E+03 0.  0.
         13    1    1    2    0    0  0.82667521420E+02 -0.93518445584E+02  0.70253990762E+03  0.71354183600E+03  0.10566000000E+00 0.  1.
        994    1    1    2    0    0 -0.14519521258E+03  0.15471041712E+03  0.16393608171E+03  0.31812174054E+03  0.17120000000E+03 0.  0.
        998    1    1    2    0    0  0.62527691163E+02 -0.61191971531E+02  0.63352400695E+03  0.63953642345E+03  0.10000000000E-02 0. -1.
</event>
<event>
 5    1  0.7026671E-009  0.3882891E+03  0.7957747E-01  0.3415842E+00
         13   -1    0    0    0    0  0.00000000000E+00  0.00000000000E+00  0.14999999963E+04  0.15000000000E+04  0.10566000000E+00 0.  1.
        994   -1    0    0    0    0 -0.00000000000E+00 -0.00000000000E+00  0.11368683772E-12  0.17120000000E+03  0.17120000000E+03 0.  0.
         13    1    1    2    0    0 -0.21915727012E+03  0.43929075592E+00  0.13203937976E+04  0.13384580284E+04  0.10566000000E+00 0.  1.
        994    1    1    2    0    0  0.21955943587E+03 -0.26535398633E+00  0.17659560151E+03  0.32969965539E+03  0.17120000000E+03 0.  0.
        998    1    1    2    0    0 -0.40216574545E+00 -0.17393676958E+00  0.30105971986E+01  0.30423161865E+01  0.10000000000E-02 0.  1.
</event>
<event>
 5    1  0.7026671E-009  0.3882557E+03  0.7957747E-01  0.3415981E+00
         13   -1    0    0    0    0  0.00000000000E+00  0.00000000000E+00  0.14999999963E+04  0.15000000000E+04  0.10566000000E+00 0. -1.
        994   -1    0    0    0    0 -0.00000000000E+00 -0.00000000000E+00  0.11368683772E-12  0.17120000000E+03  0.17120000000E+03 0.  0.
         13    1    1    2    0    0  0.12991951987E+03  0.14593445141E+03  0.11102251775E+04  0.11272869651E+04  0.10566000000E+00 0. -1.
        994    1    1    2    0    0 -0.15232721694E+03 -0.17433680126E+03  0.19965867883E+03  0.35038540113E+03  0.17120000000E+03 0.  0.
        998    1    1    2    0    0  0.22407697067E+02  0.28402349851E+02  0.19011613998E+03  0.19352763381E+03  0.10000000000E-02 0.  1.
</event>
<event>
 5    1  0.7026671E-009  0.3882858E+03  0.7957747E-01  0.3415855E+00
         13   -1    0    0    0    0  0.00000000000E+00  0.00000000000E+00  0.14999999963E+04  0.15000000000E+04  0.10566000000E+00 0.  1.
        994   -1    0    0    0    0 -0.00000000000E+00 -0.00000000000E+00  0.11368683772E-12  0.17120000000E+03  0.17120000000E+03 0.  0.
         13    1    1    2    0    0  0.15813339029E+03 -0.15965353904E+03  0.13053465504E+04  0.13245471111E+04  0.10566000000E+00 0.  1.
        994    1    1    2    0    0 -0.15861420592E+03  0.16039868866E+03  0.18793298803E+03  0.33987417324E+03  0.17120000000E+03 0.  0.
        998    1    1    2    0    0  0.48081563016E+00 -0.74514962689E+00  0.67204578314E+01  0.67787156674E+01  0.10000000000E-02 0.  1.
</event>
<event>
 5    1  0.7026671E-009  0.3881434E+03  0.7957747E-01  0.3416449E+00
         13   -1    0    0    0    0  0.00000000000E+00  0.00000000000E+00  0.14999999963E+04  0.15000000000E+04  0.10566000000E+00 0.  1.
        994   -1    0    0    0    0 -0.00000000000E+00 -0.00000000000E+00  0.11368683772E-12  0.17120000000E+03  0.17120000000E+03 0.  0.
         13    1    1    2    0    0 -0.17793874376E+03 -0.19756861202E+03  0.11993324342E+04  0.12284518110E+04  0.10566000000E+00 0.  1.
        994    1    1    2    0    0  0.18115593811E+03  0.19935669379E+03  0.28920146597E+03  0.43070580817E+03  0.17120000000E+03 0.  0.
        998    1    1    2    0    0 -0.32171943425E+01 -0.17880817668E+01  0.11466096069E+02  0.12042380824E+02  0.10000000000E-02 0.  1.
</event>
<event>
 5    1  0.7026671E-009  0.3882979E+03  0.7957747E-01  0.3415805E+00
         13   -1    0    0    0    0  0.00000000000E+00  0.00000000000E+00  0.14999999963E+04  0.15000000000E+04  0.10566000000E+00 0.  1.
        994   -1    0    0    0    0 -0.00000000000E+00 -0.00000000000E+00  0.11368683772E-12  0.17120000000E+03  0.17120000000E+03 0.  0.
         13    1    1    2    0    0  0.19652560430E+03 -0.11031646497E+03  0.13095613690E+04  0.13288126376E+04  0.10566000000E+00 0.  1.
        994    1    1    2    0    0 -0.19678307142E+03  0.11050198181E+03  0.18812267665E+03  0.34004977084E+03  0.17120000000E+03 0.  0.
        998    1    1    2    0    0  0.25746711692E+00 -0.18551684218E+00  0.23159506657E+01  0.23375915599E+01  0.10000000000E-02 0.  1.
</event>
<event>
 5    1  0.7026671E-009  0.3883005E+03  0.7957747E-01  0.3415794E+00
         13   -1    0    0    0    0  0.00000000000E+00  0.00000000000E+00  0.14999999963E+04  0.15000000000E+04  0.10566000000E+00 0. -1.
        994   -1    0    0    0    0 -0.00000000000E+00 -0.00000000000E+00  0.11368683772E-12  0.17120000000E+03  0.17120000000E+03 0.  0.
         13    1    1    2    0    0  0.24491876929E+03 -0.23807705694E+02  0.10817946297E+04  0.11094285206E+04  0.10566000000E+00 0. -1.
        994    1    1    2    0    0 -0.27198698761E+03  0.26499924528E+02  0.29987995352E+03  0.44035961889E+03  0.17120000000E+03 0.  0.
        998    1    1    2    0    0  0.27068218317E+02 -0.26922188336E+01  0.11832541311E+03  0.12141186052E+03  0.10000000000E-02 0. -1.
</event>
<event>
 5    1  0.7026671E-009  0.3882756E+03  0.7957747E-01  0.3415898E+00
         13   -1    0    0    0    0  0.00000000000E+00  0.00000000000E+00  0.14999999963E+04  0.15000000000E+04  0.10566000000E+00 0.  1.
        994   -1    0    0    0    0 -0.00000000000E+00 -0.00000000000E+00  0.11368683772E-12  0.17120000000E+03  0.17120000000E+03 0.  0.
         13    1    1    2    0    0 -0.21556766292E+03  0.29796538510E+02  0.12780599066E+04  0.12964545449E+04  0.10566000000E+00 0.  1.
        994    1    1    2    0    0  0.22119838392E+03 -0.31381187012E+02  0.18380751773E+03  0.33616684476E+03  0.17120000000E+03 0.  0.
        998    1    1    2    0    0 -0.56307210014E+01  0.15846485021E+01  0.38132571966E+02  0.38578610338E+02  0.10000000000E-02 0.  1.
</event>
<event>
 5    1  0.7026671E-009  0.3882226E+03  0.7957747E-01  0.3416119E+00
         13   -1    0    0    0    0  0.00000000000E+00  0.00000000000E+00  0.14999999963E+04  0.15000000000E+04  0.10566000000E+00 0.  1.
        994   -1    0    0    0    0 -0.00000000000E+00 -0.00000000000E+00  0.11368683772E-12  0.17120000000E+03  0.17120000000E+03 0.  0.
         13    1    1    2    0    0 -0.17201928385E+03 -0.24727518019E+03  0.10909539296E+04  0.11317756564E+04  0.10566000000E+00 0.  1.
        994    1    1    2    0    0  0.17376732301E+03  0.24834428914E+03  0.40052177136E+03  0.53065723195E+03  0.17120000000E+03 0.  0.
        998    1    1    2    0    0 -0.17480391555E+01 -0.10691089433E+01  0.85242952946E+01  0.87671116162E+01  0.10000000000E-02 0. -1.
</event>
<event>
 5    1  0.7026671E-009  0.3883002E+03  0.7957747E-01  0.3415795E+00
         13   -1    0    0    0    0  0.00000000000E+00  0.00000000000E+00  0.14999999963E+04  0.15000000000E+04  0.10566000000E+00 0. -1.
        994   -1    0    0    0    0 -0.00000000000E+00 -0.00000000000E+00  0.11368683772E-12  0.17120000000E+03  0.17120000000E+03 0.  0.
         13    1    1    2    0    0  0.98639512080E+02  0.28574601275E+03  0.11023220158E+04  0.11430198489E+04  0.10566000000E+00 0. -1.
        994    1    1    2    0    0 -0.98656426775E+02 -0.28581616653E+03  0.39735340430E+03  0.52784764800E+03  0.17120000000E+03 0.  0.
        998    1    1    2    0    0  0.16914695201E-01  0.70153775728E-01  0.32457615628E+00  0.33250314343E+00  0.10000000000E-02 0.  1.
</event>
<event>
 5    1  0.7026671E-009  0.3882999E+03  0.7957747E-01  0.3415796E+00
         13   -1    0    0    0    0  0.00000000000E+00  0.00000000000E+00  0.14999999963E+04  0.15000000000E+04  0.10566000000E+00 0. -1.
        994   -1    0    0    0    0 -0.00000000000E+00 -0.00000000000E+00  0.11368683772E-12  0.17120000000E+03  0.17120000000E+03 0.  0.
         13    1    1    2    0    0 -0.20732016107E+03  0.40519809865E+02  0.12520034645E+04  0.12696992520E+04  0.10566000000E+00 0. -1.
        994    1    1    2    0    0  0.21840187117E+03 -0.42414795755E+02  0.18201963845E+03  0.33457283364E+03  0.17120000000E+03 0.  0.
        998    1    1    2    0    0 -0.11081710094E+02  0.18949858903E+01  0.65976893338E+02  0.66927914398E+02  0.10000000000E-02 0.  1.
</event>
<event>
 5    1  0.7026671E-009  0.3689596E+03  0.7957747E-01  0.3500686E+00
         13   -1    0    0    0    0  0.00000000000E+00  0.00000000000E+00  0.14999999963E+04  0.15000000000E+04  0.10566000000E+00 0. -1.
        994   -1    0    0    0    0 -0.00000000000E+00 -0.00000000000E+00  0.11368683772E-12  0.17120000000E+03  0.17120000000E+03 0.  0.
         13    1    1    2    0    0  0.69060051810E+02  0.88372266477E+02  0.46795789710E+03  0.48121050784E+03  0.10566000000E+00 0. -1.
        994    1    1    2    0    0 -0.10531052735E+03 -0.30738573553E+03  0.70139418736E+03  0.79173198978E+03  0.17120000000E+03 0.  0.
        998    1    1    2    0    0  0.36250475540E+02  0.21901346906E+03  0.33064791182E+03  0.39825750237E+03  0.10000000000E-02 0. -1.
</event>
<event>
 5    1  0.7026671E-009  0.3883008E+03  0.7957747E-01  0.3415792E+00
         13   -1    0    0    0    0  0.00000000000E+00  0.00000000000E+00  0.14999999963E+04  0.15000000000E+04  0.10566000000E+00 0. -1.
        994   -1    0    0    0    0 -0.00000000000E+00 -0.00000000000E+00  0.11368683772E-12  0.17120000000E+03  0.17120000000E+03 0.  0.
         13    1    1    2    0    0 -0.16635879658E+03 -0.15606511065E+03  0.13070945466E+04  0.13268487981E+04  0.10566000000E+00 0. -1.
        994    1    1    2    0    0  0.16636855578E+03  0.15607011447E+03  0.19284354114E+03  0.34428832154E+03  0.17120000000E+03 0.  0.
        998    1    1    2    0    0 -0.97592069686E-02 -0.50038277948E-02  0.61908513401E-01  0.62880397937E-01  0.10000000000E-02 0. -1.
</event>
<event>
 5    1  0.7026671E-009  0.3882239E+03  0.7957747E-01  0.3416113E+00
         13   -1    0    0    0    0  0.00000000000E+00  0.00000000000E+00  0.14999999963E+04  0.15000000000E+04  0.10566000000E+00 0. -1.
        994   -1    0    0    0    0 -0.00000000000E+00 -0.00000000000E+00  0.11368683772E-12  0.17120000000E+03  0.17120000000E+03 0.  0.
         13    1    1    2    0    0  0.28504120676E+03  0.12224756822E+03  0.82505784456E+03  0.88142692012E+03  0.10566000000E+00 0. -1.
        994    1    1    2    0    0 -0.30988881547E+03 -0.13346592018E+03  0.59307016503E+03  0.70348126518E+03  0.17120000000E+03 0.  0.
        998    1    1    2    0    0  0.24847608708E+02  0.11218351966E+02  0.81871986684E+02  0.86291814699E+02  0.10000000000E-02 0. -1.
</event>
<event>
 5    1  0.7026671E-009  0.3883010E+03  0.7957747E-01  0.3415792E+00
         13   -1    0    0    0    0  0.00000000000E+00  0.00000000000E+00  0.14999999963E+04  0.15000000000E+04  0.10566000000E+00 0. -1.
        994   -1    0    0    0    0 -0.00000000000E+00 -0.00000000000E+00  0.11368683772E-12  0.17120000000E+03  0.17120000000E+03 0.  0.
         13    1    1    2    0    0  0.99655179140E+02 -0.23415987085E+03  0.12392338138E+04  0.12650938528E+04  0.10566000000E+00 0. -1.
        994    1    1    2    0    0 -0.10020941736E+03  0.23546752458E+03  0.25384532894E+03  0.39904106742E+03  0.17120000000E+03 0.  0.
        998    1    1    2    0    0  0.55423822118E+00 -0.13076537368E+01  0.69208534985E+01  0.70650797907E+01  0.10000000000E-02 0.  1.
</event>
<event>
 5    1  0.7026671E-009  0.3882975E+03  0.7957747E-01  0.3415807E+00
         13   -1    0    0    0    0  0.00000000000E+00  0.00000000000E+00  0.14999999963E+04  0.15000000000E+04  0.10566000000E+00 0.  1.
        994   -1    0    0    0    0 -0.00000000000E+00 -0.00000000000E+00  0.11368683772E-12  0.17120000000E+03  0.17120000000E+03 0.  0.
         13    1    1    2    0    0  0.21517217386E+03  0.89074566846E+02  0.12960454796E+04  0.13168018983E+04  0.10566000000E+00 0.  1.
        994    1    1    2    0    0 -0.21531839747E+03 -0.89201602254E+02  0.20275398643E+03  0.35318204533E+03  0.17120000000E+03 0.  0.
        998    1    1    2    0    0  0.14622360826E+00  0.12703540830E+00  0.12005302268E+01  0.12160563984E+01  0.10000000000E-02 0.  1.
</event>
<event>
 5    1  0.7026671E-009  0.3882645E+03  0.7957747E-01  0.3415944E+00
         13   -1    0    0    0    0  0.00000000000E+00  0.00000000000E+00  0.14999999963E+04  0.15000000000E+04  0.10566000000E+00 0. -1.
        994   -1    0    0    0    0 -0.00000000000E+00 -0.00000000000E+00  0.11368683772E-12  0.17120000000E+03  0.17120000000E+03 0.  0.
         13    1    1    2    0    0  0.68699243333E+01  0.22212441682E+03  0.13042200088E+04  0.13230178740E+04  0.10566000000E+00 0. -1.
        994    1    1    2    0    0 -0.70752984408E+01 -0.22343271656E+03  0.18407057252E+03  0.33639805936E+03  0.17120000000E+03 0.  0.
        998    1    1    2    0    0  0.20537410743E+00  0.13082997348E+01  0.11709415009E+02  0.11784066682E+02  0.10000000000E-02 0. -1.
</event>
<event>
 5    1  0.7026671E-009  0.3882284E+03  0.7957747E-01  0.3416094E+00
         13   -1    0    0    0    0  0.00000000000E+00  0.00000000000E+00  0.14999999963E+04  0.15000000000E+04  0.10566000000E+00 0. -1.
        994   -1    0    0    0    0 -0.00000000000E+00 -0.00000000000E+00  0.11368683772E-12  0.17120000000E+03  0.17120000000E+03 0.  0.
         13    1    1    2    0    0  0.55470692452E+02  0.13257189800E+03  0.67311023809E+03  0.68828025517E+03  0.10566000000E+00 0. -1.
        994    1    1    2    0    0 -0.10146931200E+03 -0.24842755780E+03  0.28623041807E+03  0.42807658775E+03  0.17120000000E+03 0.  0.
        998    1    1    2    0    0  0.45998619548E+02  0.11585565980E+03  0.54065934011E+03  0.55484315708E+03  0.10000000000E-02 0. -1.
</event>
<event>
 5    1  0.7026671E-009  0.3882640E+03  0.7957747E-01  0.3415946E+00
         13   -1    0    0    0    0  0.00000000000E+00  0.00000000000E+00  0.14999999963E+04  0.15000000000E+04  0.10566000000E+00 0. -1.
        994   -1    0    0    0    0 -0.00000000000E+00 -0.00000000000E+00  0.11368683772E-12  0.17120000000E+03  0.17120000000E+03 0.  0.
         13    1    1    2    0    0  0.15298601552E+03 -0.26223991697E+02  0.77073936778E+03  0.78621345886E+03  0.10566000000E+00 0. -1.
        994    1    1    2    0    0 -0.25243719284E+03  0.44885125044E+02  0.25511885408E+03  0.40016781540E+03  0.17120000000E+03 0.  0.
        998    1    1    2    0    0  0.99451177327E+02 -0.18661133346E+02  0.47414177443E+03  0.48481872574E+03  0.10000000000E-02 0.  1.
</event>
<event>
 5    1  0.7026671E-009  0.3882800E+03  0.7957747E-01  0.3415879E+00
         13   -1    0    0    0    0  0.00000000000E+00  0.00000000000E+00  0.14999999963E+04  0.15000000000E+04  0.10566000000E+00 0.  1.
        994   -1    0    0    0    0 -0.00000000000E+00 -0.00000000000E+00  0.11368683772E-12  0.17120000000E+03  0.17120000000E+03 0.  0.
         13    1    1    2    0    0  0.16191515311E+03 -0.15614105443E+03  0.13075387342E+04  0.13267456796E+04  0.10566000000E+00 0.  1.
        994    1    1    2    0    0 -0.16271641104E+03  0.15650677475E+03  0.18830242618E+03  0.34020324024E+03  0.17120000000E+03 0.  0.
        998    1    1    2    0    0  0.80125793392E+00 -0.36572032738E+00  0.41588359009E+01  0.42510801786E+01  0.10000000000E-02 0.  1.
</event>
<event>
 5    1  0.7026671E-009  0.3883010E+03  0.7957747E-01  0.3415792E+00
         13   -1    0    0    0    0  0.00000000000E+00  0.00000000000E+00  0.14999999963E+04  0.15000000000E+04  0.10566000000E+00 0.  1.
        994   -1    0    0    0    0 -0.00000000000E+00 -0.00000000000E+00  0.11368683772E-12  0.17120000000E+03  0.17120000000E+03 0.  0.
         13    1    1    2    0    0  0.21348224312E+03 -0.53850571457E+02  0.13187302860E+04  0.13369832200E+04  0.10566000000E+00 0.  1.
        994    1    1    2    0    0 -0.21392667043E+03  0.53953716221E+02  0.17855017876E+03  0.33145924358E+03  0.17120000000E+03 0.  0.
        998    1    1    2    0    0  0.44442731594E+00 -0.10314476468E+00  0.27195315077E+01  0.27575364192E+01  0.10000000000E-02 0. -1.
</event>
<event>
 5    1  0.7026671E-009  0.3858017E+03  0.7957747E-01  0.3426279E+00
         13   -1    0    0    0    0  0.00000000000E+00  0.00000000000E+00  0.14999999963E+04  0.15000000000E+04  0.10566000000E+00 0. -1.
        994   -1    0    0    0    0 -0.00000000000E+00 -0.00000000000E+00  0.11368683772E-12  0.17120000000E+03  0.17120000000E+03 0.  0.
         13    1    1    2    0    0 -0.58564363282E+02  0.66295903435E+02  0.44564983693E+03  0.45434427451E+03  0.10566000000E+00 0. -1.
        994    1    1    2    0    0  0.13351517359E+03 -0.12964423286E+03  0.12452918650E+03  0.28187033718E+03  0.17120000000E+03 0.  0.
        998    1    1    2    0    0 -0.74950810310E+02  0.63348329420E+02  0.92982097284E+03  0.93498538831E+03  0.10000000000E-02 0. -1.
</event>
<event>
 5    1  0.7026671E-009  0.3883007E+03  0.7957747E-01  0.3415793E+00
         13   -1    0    0    0    0  0.00000000000E+00  0.00000000000E+00  0.14999999963E+04  0.15000000000E+04  0.10566000000E+00 0.  1.
        994   -1    0    0    0    0 -0.00000000000E+00 -0.00000000000E+00  0.11368683772E-12  0.17120000000E+03  0.17120000000E+03 0.  0.
         13    1    1    2    0    0  0.20552203342E+03 -0.16092653398E+03  0.11972577069E+04  0.12253826681E+04  0.10566000000E+00 0.  1.
        994    1    1    2    0    0 -0.20947197919E+03  0.16406852544E+03  0.27993145795E+03  0.42245479315E+03  0.17120000000E+03 0.  0.
        998    1    1    2    0    0  0.39499457704E+01 -0.31419914651E+01  0.22810831455E+02  0.23362538702E+02  0.10000000000E-02 0. -1.
</event>
<event>
 5    1  0.7026671E-009  0.3882990E+03  0.7957747E-01  0.3415800E+00
         13   -1    0    0    0    0  0.00000000000E+00  0.00000000000E+00  0.14999999963E+04  0.15000000000E+04  0.10566000000E+00 0. -1.
        994   -1    0    0    0    0 -0.00000000000E+00 -0.00000000000E+00  0.11368683772E-12  0.17120000000E+03  0.17120000000E+03 0.  0.
         13    1    1    2    0    0  0.18057119284E+03 -0.26131461202E+03  0.87154992804E+03  0.92762630966E+03  0.10566000000E+00 0. -1.
        994    1    1    2    0    0 -0.19117578348E+03  0.27599197796E+03  0.57835990691E+03  0.69031107047E+03  0.17120000000E+03 0.  0.
        998    1    1    2    0    0  0.10604590634E+02 -0.14677365936E+02  0.50090161321E+02  0.53262619871E+02  0.10000000000E-02 0. -1.
</event>
<event>
 5    1  0.7026671E-009  0.3882989E+03  0.7957747E-01  0.3415800E+00
         13   -1    0    0    0    0  0.00000000000E+00  0.00000000000E+00  0.14999999963E+04  0.15000000000E+04  0.10566000000E+00 0.  1.
        994   -1    0    0    0    0 -0.00000000000E+00 -0.00000000000E+00  0.11368683772E-12  0.17120000000E+03  0.17120000000E+03 0.  0.
         13    1    1    2    0    0 -0.50783713391E+02 -0.25225927354E+03  0.12216112665E+04  0.12484181288E+04  0.10566000000E+00 0.  1.
        994    1    1    2    0    0  0.51463474482E+02  0.25518730457E+03  0.26490133396E+03  0.40896357583E+03  0.17120000000E+03 0.  0.
        998    1    1    2    0    0 -0.67976109149E+00 -0.29280310317E+01  0.13487395818E+02  0.13818295402E+02  0.10000000000E-02 0.  1.
</event>
<event>
 5    1  0.7026671E-009  0.3882942E+03  0.7957747E-01  0.3415820E+00
         13   -1    0    0    0    0  0.00000000000E+00  0.00000000000E+00  0.14999999963E+04  0.15000000000E+04  0.10566000000E+00 0. -1.
        994   -1    0    0    0    0 -0.00000000000E+00 -0.00000000000E+00  0.11368683772E-12  0.17120000000E+03  0.17120000000E+03 0.  0.
         13    1    1    2    0    0 -0.84856208399E+02  0.23079293139E+03  0.10711860073E+04  0.10990475089E+04  0.10566000000E+00 0. -1.
        994    1    1    2    0    0  0.95622917115E+02 -0.25715870628E+03  0.30302332189E+03  0.44317819903E+03  0.17120000000E+03 0.  0.
        998    1    1    2    0    0 -0.10766708716E+02  0.26365774886E+02  0.12579066707E+03  0.12897429211E+03  0.10000000000E-02 0.  1.
</event>
<event>
 5    1  0.7026671E-009  0.3883010E+03  0.7957747E-01  0.3415792E+00
         13   -1    0    0    0    0  0.00000000000E+00  0.00000000000E+00  0.14999999963E+04  0.15000000000E+04  0.10566000000E+00 0. -1.
        994   -1    0    0    0    0 -0.00000000000E+00 -0.00000000000E+00  0.11368683772E-12  0.17120000000E+03  0.17120000000E+03 0.  0.
         13    1    1    2    0    0 -0.19665820861E+01  0.20943785765E+03  0.12199522600E+04  0.12378011195E+04  0.10566000000E+00 0. -1.
        994    1    1    2    0    0  0.20653148857E+01 -0.22533916597E+03  0.18746893888E+03  0.33946435496E+03  0.17120000000E+03 0.  0.
        998    1    1    2    0    0 -0.98732799692E-01  0.15901308317E+02  0.92578797390E+02  0.93934525503E+02  0.10000000000E-02 0.  1.
</event>
<event>
 5    1  0.7026671E-009  0.3883007E+03  0.7957747E-01  0.3415793E+00
         13   -1    0    0    0    0  0.00000000000E+00  0.00000000000E+00  0.14999999963E+04  0.15000000000E+04  0.10566000000E+00 0. -1.
        994   -1    0    0    0    0 -0.00000000000E+00 -0.00000000000E+00  0.11368683772E-12  0.17120000000E+03  0.17120000000E+03 0.  0.
         13    1    1    2    0    0 -0.13891501833E+03  0.18674439452E+03  0.11058226032E+04  0.11300506591E+04  0.10566000000E+00 0. -1.
        994    1    1    2    0    0  0.15507171289E+03 -0.20866517125E+03  0.26401474265E+03  0.40816860998E+03  0.17120000000E+03 0.  0.
        998    1    1    2    0    0 -0.16156694558E+02  0.21920776731E+02  0.13016265042E+03  0.13298073092E+03  0.10000000000E-02 0.  1.
</event>
<event>
 5    1  0.7026671E-009  0.3882978E+03  0.7957747E-01  0.3415805E+00
         13   -1    0    0    0    0  0.00000000000E+00  0.00000000000E+00  0.14999999963E+04  0.15000000000E+04  0.10566000000E+00 0.  1.
        994   -1    0    0    0    0 -0.00000000000E+00 -0.00000000000E+00  0.11368683772E-12  0.17120000000E+03  0.17120000000E+03 0.  0.
         13    1    1    2    0    0  0.41368133463E+02 -0.27833396056E+02  0.20927720701E+03  0.21513479714E+03  0.10566000000E+00 0.  1.
        994    1    1    2    0    0 -0.23562442911E+03  0.15740485223E+03  0.33027069702E+03  0.46763589727E+03  0.17120000000E+03 0.  0.
        998    1    1    2    0    0  0.19425629565E+03 -0.12957145618E+03  0.96045209224E+03  0.98842930559E+03  0.10000000000E-02 0.  1.
</event>
<event>
 5    1  0.7026671E-009  0.3883010E+03  0.7957747E-01  0.3415792E+00
         13   -1    0    0    0    0  0.00000000000E+00  0.00000000000E+00  0.14999999963E+04  0.15000000000E+04  0.10566000000E+00 0. -1.
        994   -1    0    0    0    0 -0.00000000000E+00 -0.00000000000E+00  0.11368683772E-12  0.17120000000E+03  0.17120000000E+03 0.  0.
         13    1    1    2    0    0 -0.22259079245E+03  0.15441445618E+02  0.13140020431E+04  0.13328114944E+04  0.10566000000E+00 0. -1.
        994    1    1    2    0    0  0.22294668759E+03 -0.15465310589E+02  0.18390665386E+03  0.33626700504E+03  0.17120000000E+03 0.  0.
        998    1    1    2    0    0 -0.35589514632E+00  0.23864970554E-01  0.20912992946E+01  0.21215005613E+01  0.10000000000E-02 0. -1.
</event>
<event>
 5    1  0.7026671E-009  0.3702122E+03  0.7957747E-01  0.3494916E+00
         13   -1    0    0    0    0  0.00000000000E+00  0.00000000000E+00  0.14999999963E+04  0.15000000000E+04  0.10566000000E+00 0.  1.
        994   -1    0    0    0    0 -0.00000000000E+00 -0.00000000000E+00  0.11368683772E-12  0.17120000000E+03  0.17120000000E+03 0.  0.
         13    1    1    2    0    0  0.25217174987E+02  0.96595214343E+01  0.49488089425E+02  0.56376364087E+02  0.10566000000E+00 0.  1.
        994    1    1    2    0    0  0.41925027297E+02  0.16812587131E+03  0.12133857334E+03  0.27213325026E+03  0.17120000000E+03 0.  0.
        998    1    1    2    0    0 -0.67142202284E+02 -0.17778539274E+03  0.13291733335E+04  0.13426903857E+04  0.10000000000E-02 0.  1.
</event>
<event>
 5    1  0.7026671E-009  0.3862483E+03  0.7957747E-01  0.3424395E+00
         13   -1    0    0    0    0  0.00000000000E+00  0.00000000000E+00  0.14999999963E+04  0.15000000000E+04  0.10566000000E+00 0. -1.
        994   -1    0    0    0    0 -0.00000000000E+00 -0.00000000000E+00  0.11368683772E-12  0.17120000000E+03  0.17120000000E+03 0.  0.
         13    1    1    2    0    0  0.51915567541E+02 -0.11714473915E+03  0.75904147675E+03  0.76978054707E+03  0.10566000000E+00 0. -1.
        994    1    1    2    0    0 -0.47687659505E+02  0.19097440284E+03  0.14026466601E+03  0.29619073575E+03  0.17120000000E+03 0.  0.
        998    1    1    2    0    0 -0.42279080360E+01 -0.73829663686E+02  0.60069385352E+03  0.60522871718E+03  0.10000000000E-02 0. -1.
</event>
<event>
 5    1  0.7026671E-009  0.3859456E+03  0.7957747E-01  0.3425672E+00
         13   -1    0    0    0    0  0.00000000000E+00  0.00000000000E+00  0.14999999963E+04  0.15000000000E+04  0.10566000000E+00 0.  1.
        994   -1    0    0    0    0 -0.00000000000E+00 -0.00000000000E+00  0.11368683772E-12  0.17120000000E+03  0.17120000000E+03 0.  0.
         13    1    1    2    0    0 -0.21338104661E+02 -0.27481790488E+01  0.11241865595E+03  0.11445886846E+03  0.10566000000E+00 0.  1.
        994    1    1    2    0    0  0.79935327052E+02 -0.14048102363E+02  0.23063236745E+02  0.19086214549E+03  0.17120000000E+03 0.  0.
        998    1    1    2    0    0 -0.58597222391E+02  0.16796281412E+02  0.13645181036E+04  0.13658789861E+04  0.10000000000E-02 0.  1.
</event>
<event>
 5    1  0.7026671E-009  0.3879859E+03  0.7957747E-01  0.3417106E+00
         13   -1    0    0    0    0  0.00000000000E+00  0.00000000000E+00  0.14999999963E+04  0.15000000000E+04  0.10566000000E+00 0.  1.
        994   -1    0    0    0    0 -0.00000000000E+00 -0.00000000000E+00  0.11368683772E-12  0.17120000000E+03  0.17120000000E+03 0.  0.
         13    1    1    2    0    0  0.40843759863E+02 -0.18239141731E+01  0.23931908876E+03  0.24278627802E+03  0.10566000000E+00 0.  1.
        994    1    1    2    0    0 -0.19496141938E+03  0.39284774313E+02  0.14166588271E+03  0.29821453832E+03  0.17120000000E+03 0.  0.
        998    1    1    2    0    0  0.15411765952E+03 -0.37460860140E+02  0.11190150248E+04  0.11301991837E+04  0.10000000000E-02 0. -1.
</event>
<event>
 5    1  0.7026671E-009  0.3883010E+03  0.7957747E-01  0.3415792E+00
         13   -1    0    0    0    0  0.00000000000E+00  0.00000000000E+00  0.14999999963E+04  0.15000000000E+04  0.10566000000E+00 0. -1.
        994   -1    0    0    0    0 -0.00000000000E+00 -0.00000000000E+00  0.11368683772E-12  0.17120000000E+03  0.17120000000E+03 0.  0.
         13    1    1    2    0    0  0.11395994228E+03 -0.21398863196E+03  0.12731150335E+04  0.12959937896E+04  0.10566000000E+00 0. -1.
        994    1    1    2    0    0 -0.11423074740E+03  0.21449600873E+03  0.22386491247E+03  0.37213188582E+03  0.17120000000E+03 0.  0.
        998    1    1    2    0    0  0.27080511742E+00 -0.50737677076E+00  0.30200503543E+01  0.30743245992E+01  0.10000000000E-02 0.  0.
</event>
<event>
 5    1  0.7026671E-009  0.3883010E+03  0.7957747E-01  0.3415792E+00
         13   -1    0    0    0    0  0.00000000000E+00  0.00000000000E+00  0.14999999963E+04  0.15000000000E+04  0.10566000000E+00 0.  1.
        994   -1    0    0    0    0 -0.00000000000E+00 -0.00000000000E+00  0.11368683772E-12  0.17120000000E+03  0.17120000000E+03 0.  0.
         13    1    1    2    0    0 -0.17418519291E+03 -0.80982198164E+02  0.95199023752E+03  0.97117661696E+03  0.10566000000E+00 0.  1.
        994    1    1    2    0    0  0.22929398107E+03  0.10661703004E+03  0.24649537206E+03  0.39244404607E+03  0.17120000000E+03 0.  0.
        998    1    1    2    0    0 -0.55108788165E+02 -0.25634831880E+02  0.30151438670E+03  0.30757933696E+03  0.10000000000E-02 0. -1.
</event>
<event>
 5    1  0.7026671E-009  0.3883009E+03  0.7957747E-01  0.3415792E+00
         13   -1    0    0    0    0  0.00000000000E+00  0.00000000000E+00  0.14999999963E+04  0.15000000000E+04  0.10566000000E+00 0. -1.
        994   -1    0    0    0    0 -0.00000000000E+00 -0.00000000000E+00  0.11368683772E-12  0.17120000000E+03  0.17120000000E+03 0.  0.
         13    1    1    2    0    0  0.60271548488E+02  0.30194920419E+03  0.10750255427E+04  0.11182512733E+04  0.10566000000E+00 0. -1.
        994    1    1    2    0    0 -0.60393744333E+02 -0.30256500729E+03  0.42283680279E+03  0.55072079114E+03  0.17120000000E+03 0.  0.
        998    1    1    2    0    0  0.12219584567E+00  0.61580310347E+00  0.21376507676E+01  0.22279356119E+01  0.10000000000E-02 0.  1.
</event>
<event>
 5    1  0.7026671E-009  0.3881757E+03  0.7957747E-01  0.3416314E+00
         13   -1    0    0    0    0  0.00000000000E+00  0.00000000000E+00  0.14999999963E+04  0.15000000000E+04  0.10566000000E+00 0.  1.
        994   -1    0    0    0    0 -0.00000000000E+00 -0.00000000000E+00  0.11368683772E-12  0.17120000000E+03  0.17120000000E+03 0.  0.
         13    1    1    2    0    0 -0.17712536842E+02 -0.12409342833E+03  0.48929461796E+03  0.50509617623E+03  0.10566000000E+00 0.  1.
        994    1    1    2    0    0  0.34711784601E+02  0.28167171782E+03  0.33194601644E+03  0.46908577301E+03  0.17120000000E+03 0.  0.
        998    1    1    2    0    0 -0.16999247760E+02 -0.15757828949E+03  0.67875936187E+03  0.69701805075E+03  0.10000000000E-02 0.  1.
</event>
<event>
 5    1  0.7026671E-009  0.3882993E+03  0.7957747E-01  0.3415799E+00
         13   -1    0    0    0    0  0.00000000000E+00  0.00000000000E+00  0.14999999963E+04  0.15000000000E+04  0.10566000000E+00 0.  1.
        994   -1    0    0    0    0 -0.00000000000E+00 -0.00000000000E+00  0.11368683772E-12  0.17120000000E+03  0.17120000000E+03 0.  0.
         13    1    1    2    0    0  0.12115443283E+03 -0.20707725088E+03  0.12825660578E+04  0.13048122808E+04  0.10566000000E+00 0.  1.
        994    1    1    2    0    0 -0.12115663752E+03  0.20711459586E+03  0.21718014514E+03  0.36613118152E+03  0.17120000000E+03 0.  0.
        998    1    1    2    0    0  0.22046880759E-02 -0.37344986406E-01  0.25379335946E+00  0.25653767358E+00  0.10000000000E-02 0. -1.
</event>
<event>
 5    1  0.7026671E-009  0.3863911E+03  0.7957747E-01  0.3423794E+00
         13   -1    0    0    0    0  0.00000000000E+00  0.00000000000E+00  0.14999999963E+04  0.15000000000E+04  0.10566000000E+00 0. -1.
        994   -1    0    0    0    0 -0.00000000000E+00 -0.00000000000E+00  0.11368683772E-12  0.17120000000E+03  0.17120000000E+03 0.  0.
         13    1    1    2    0    0  0.31282554973E+03  0.32606123950E+02  0.44807538384E+03  0.54744364518E+03  0.10566000000E+00 0. -1.
        994    1    1    2    0    0 -0.33260421138E+03 -0.28979274774E+02  0.99599775535E+03  0.10643243530E+04  0.17120000000E+03 0.  0.
        998    1    1    2    0    0  0.19778661653E+02 -0.36268491759E+01  0.55926857082E+02  0.59432001782E+02  0.10000000000E-02 0. -1.
</event>
<event>
 5    1  0.7026671E-009  0.3882007E+03  0.7957747E-01  0.3416210E+00
         13   -1    0    0    0    0  0.00000000000E+00  0.00000000000E+00  0.14999999963E+04  0.15000000000E+04  0.10566000000E+00 0. -1.
        994   -1    0    0    0    0 -0.00000000000E+00 -0.00000000000E+00  0.11368683772E-12  0.17120000000E+03  0.17120000000E+03 0.  0.
         13    1    1    2    0    0  0.20695303790E+03 -0.97127833736E+02  0.97562201260E+03  0.10020487506E+04  0.10566000000E+00 0. -1.
        994    1    1    2    0    0 -0.25167646048E+03  0.12289755199E+03  0.32025742447E+03  0.45860561158E+03  0.17120000000E+03 0.  0.
        998    1    1    2    0    0  0.44723422575E+02 -0.25769718250E+02  0.20412055921E+03  0.21054563780E+03  0.10000000000E-02 0. -1.
</event>
<event>
 5    1  0.7026671E-009  0.3882577E+03  0.7957747E-01  0.3415972E+00
         13   -1    0    0    0    0  0.00000000000E+00  0.00000000000E+00  0.14999999963E+04  0.15000000000E+04  0.10566000000E+00 0.  1.
        994   -1    0    0    0    0 -0.00000000000E+00 -0.00000000000E+00  0.11368683772E-12  0.17120000000E+03  0.17120000000E+03 0.  0.
         13    1    1    2    0    0 -0.16567421202E+03 -0.22181753304E+03  0.11841087064E+04  0.12160445725E+04  0.10566000000E+00 0.  1.
        994    1    1    2    0    0  0.16574175652E+03  0.22256428523E+03  0.31232191768E+03  0.45150815184E+03  0.17120000000E+03 0.  0.
        998    1    1    2    0    0 -0.67544507109E-01 -0.74675218870E+00  0.35693722154E+01  0.36472757099E+01  0.10000000000E-02 0. -1.
</event>
<event>
 5    1  0.7026671E-009  0.3879335E+03  0.7957747E-01  0.3417326E+00
         13   -1    0    0    0    0  0.00000000000E+00  0.00000000000E+00  0.14999999963E+04  0.15000000000E+04  0.10566000000E+00 0.  1.
        994   -1    0    0    0    0 -0.00000000000E+00 -0.00000000000E+00  0.11368683772E-12  0.17120000000E+03  0.17120000000E+03 0.  0.
         13    1    1    2    0    0  0.27189468227E+01  0.29039485966E+03  0.11235446847E+04  0.11604694036E+04  0.10566000000E+00 0.  1.
        994    1    1    2    0    0 -0.18718584791E+01 -0.29439162368E+03  0.36837852869E+03  0.50167929232E+03  0.17120000000E+03 0.  0.
        998    1    1    2    0    0 -0.84708834353E+00  0.39967640203E+01  0.80767829328E+01  0.90513040408E+01  0.10000000000E-02 0. -1.
</event>
<event>
 5    1  0.7026671E-009  0.3883010E+03  0.7957747E-01  0.3415792E+00
         13   -1    0    0    0    0  0.00000000000E+00  0.00000000000E+00  0.14999999963E+04  0.15000000000E+04  0.10566000000E+00 0.  1.
        994   -1    0    0    0    0 -0.00000000000E+00 -0.00000000000E+00  0.11368683772E-12  0.17120000000E+03  0.17120000000E+03 0.  0.
         13    1    1    2    0    0 -0.48872063809E+02 -0.24462576647E+03  0.10940842568E+04  0.11221633644E+04  0.10566000000E+00 0.  1.
        994    1    1    2    0    0  0.53598472269E+02  0.26819030268E+03  0.30050671849E+03  0.44092239968E+03  0.17120000000E+03 0.  0.
        998    1    1    2    0    0 -0.47264084607E+01 -0.23564536216E+02  0.10540902096E+03  0.10811423590E+03  0.10000000000E-02 0. -1.
</event>
<event>
 5    1  0.7026671E-009  0.3883009E+03  0.7957747E-01  0.3415792E+00
         13   -1    0    0    0    0  0.00000000000E+00  0.00000000000E+00  0.14999999963E+04  0.15000000000E+04  0.10566000000E+00 0.  1.
        994   -1    0    0    0    0 -0.00000000000E+00 -0.00000000000E+00  0.11368683772E-12  0.17120000000E+03  0.17120000000E+03 0.  0.
         13    1    1    2    0    0 -0.64675244286E+02 -0.21398675020E+03  0.13158410554E+04  0.13346950628E+04  0.10566000000E+00 0.  1.
        994    1    1    2    0    0  0.64678920785E+02  0.21400168238E+03  0.18405802829E+03  0.33640285468E+03  0.17120000000E+03 0.  0.
        998    1    1    2    0    0 -0.36764995928E-02 -0.14932185396E-01  0.10091263306E+00  0.10208254660E+00  0.10000000000E-02 0.  1.
</event>
<event>
 5    1  0.7026671E-009  0.3871144E+03  0.7957747E-01  0.3420754E+00
         13   -1    0    0    0    0  0.00000000000E+00  0.00000000000E+00  0.14999999963E+04  0.15000000000E+04  0.10566000000E+00 0.  1.
        994   -1    0    0    0    0 -0.00000000000E+00 -0.00000000000E+00  0.11368683772E-12  0.17120000000E+03  0.17120000000E+03 0.  0.
         13    1    1    2    0    0 -0.15145835899E+03  0.65299127945E+01  0.60899234658E+03  0.62757785464E+03  0.10566000000E+00 0.  1.
        994    1    1    2    0    0  0.28106688145E+03  0.26358524326E+02  0.32963017415E+03  0.46653923240E+03  0.17120000000E+03 0.  0.
        998    1    1    2    0    0 -0.12960852246E+03 -0.32888437120E+02  0.56137747554E+03  0.57708291297E+03  0.10000000000E-02 0.  1.
</event>
<event>
 5    1  0.7026671E-009  0.3883010E+03  0.7957747E-01  0.3415792E+00
         13   -1    0    0    0    0  0.00000000000E+00  0.00000000000E+00  0.14999999963E+04  0.15000000000E+04  0.10566000000E+00 0. -1.
        994   -1    0    0    0    0 -0.00000000000E+00 -0.00000000000E+00  0.11368683772E-12  0.17120000000E+03  0.17120000000E+03 0.  0.
         13    1    1    2    0    0  0.17607055883E+03 -0.22248233364E+03  0.11645242980E+04  0.11985892050E+04  0.10566000000E+00 0. -1.
        994    1    1    2    0    0 -0.17641590368E+03  0.22291796374E+03  0.33317781001E+03  0.47024661904E+03  0.17120000000E+03 0.  0.
        998    1    1    2    0    0  0.34534485291E+00 -0.43563009844E+00  0.22978882697E+01  0.23641759982E+01  0.10000000000E-02 0.  0.
</event>
<event>
 5    1  0.7026671E-009  0.3882352E+03  0.7957747E-01  0.3416066E+00
         13   -1    0    0    0    0  0.00000000000E+00  0.00000000000E+00  0.14999999963E+04  0.15000000000E+04  0.10566000000E+00 0. -1.
        994   -1    0    0    0    0 -0.00000000000E+00 -0.00000000000E+00  0.11368683772E-12  0.17120000000E+03  0.17120000000E+03 0.  0.
         13    1    1    2    0    0  0.48302362691E+02  0.29582258503E+03  0.11009804421E+04  0.11410530510E+04  0.10566000000E+00 0. -1.
        994    1    1    2    0    0 -0.48110192113E+02 -0.29708234531E+03  0.39201512039E+03  0.52302753760E+03  0.17120000000E+03 0.  0.
        998    1    1    2    0    0 -0.19217057752E+00  0.12597602728E+01  0.70044337663E+01  0.71194114127E+01  0.10000000000E-02 0. -1.
</event>
<event>
 5    1  0.7026671E-009  0.3883009E+03  0.7957747E-01  0.3415792E+00
         13   -1    0    0    0    0  0.00000000000E+00  0.00000000000E+00  0.14999999963E+04  0.15000000000E+04  0.10566000000E+00 0.  1.
        994   -1    0    0    0    0 -0.00000000000E+00 -0.00000000000E+00  0.11368683772E-12  0.17120000000E+03  0.17120000000E+03 0.  0.
         13    1    1    2    0    0 -0.17240875306E+03  0.17546949492E+03  0.12675358934E+04  0.12911861113E+04  0.10566000000E+00 0.  1.
        994    1    1    2    0    0  0.17258928509E+03 -0.17565089782E+03  0.23109756338E+03  0.37862359016E+03  0.17120000000E+03 0.  0.
        998    1    1    2    0    0 -0.18053202571E+00  0.18140289895E+00  0.13665395052E+01  0.13902985446E+01  0.10000000000E-02 0. -1.
</event>
<event>
 5    1  0.7026671E-009  0.3840197E+03  0.7957747E-01  0.3433840E+00
         13   -1    0    0    0    0  0.00000000000E+00  0.00000000000E+00  0.14999999963E+04  0.15000000000E+04  0.10566000000E+00 0.  1.
        994   -1    0    0    0    0 -0.00000000000E+00 -0.00000000000E+00  0.11368683772E-12  0.17120000000E+03  0.17120000000E+03 0.  0.
         13    1    1    2    0    0 -0.16457498817E+03  0.10421606698E+02  0.94580854272E+03  0.96007674030E+03  0.10566000000E+00 0.  1.
        994    1    1    2    0    0  0.19516731503E+03  0.17724120301E+02  0.14122836521E+03  0.29607316062E+03  0.17120000000E+03 0.  0.
        998    1    1    2    0    0 -0.30592326861E+02 -0.28145726999E+02  0.41296308834E+03  0.41505009908E+03  0.10000000000E-02 0.  1.
</event>
<event>
 5    1  0.7026671E-009  0.3883010E+03  0.7957747E-01  0.3415792E+00
         13   -1    0    0    0    0  0.00000000000E+00  0.00000000000E+00  0.14999999963E+04  0.15000000000E+04  0.10566000000E+00 0. -1.
        994   -1    0    0    0    0 -0.00000000000E+00 -0.00000000000E+00  0.11368683772E-12  0.17120000000E+03  0.17120000000E+03 0.  0.
         13    1    1    2    0    0 -0.25666053795E+03  0.85694241917E+02  0.12013454843E+04  0.12314418860E+04  0.10566000000E+00 0. -1.
        994    1    1    2    0    0  0.25749618361E+03 -0.85976558457E+02  0.29475249659E+03  0.43575764758E+03  0.17120000000E+03 0.  0.
        998    1    1    2    0    0 -0.83564566278E+00  0.28231653982E+00  0.39020154358E+01  0.40004664432E+01  0.10000000000E-02 0. -1.
</event>
<event>
 5    1  0.7026671E-009  0.3869495E+03  0.7957747E-01  0.3421446E+00
         13   -1    0    0    0    0  0.00000000000E+00  0.00000000000E+00  0.14999999963E+04  0.15000000000E+04  0.10566000000E+00 0. -1.
        994   -1    0    0    0    0 -0.00000000000E+00 -0.00000000000E+00  0.11368683772E-12  0.17120000000E+03  0.17120000000E+03 0.  0.
         13    1    1    2    0    0  0.28609475313E+03 -0.10734571245E+03  0.94862161715E+03  0.99662244277E+03  0.10566000000E+00 0. -1.
        994    1    1    2    0    0 -0.29617771826E+03  0.11723175103E+03  0.47546304212E+03  0.59736008292E+03  0.17120000000E+03 0.  0.
        998    1    1    2    0    0  0.10082965130E+02 -0.98860385736E+01  0.75915337012E+02  0.77217474312E+02  0.10000000000E-02 0.  1.
</event>
<event>
 5    1  0.7026671E-009  0.3883007E+03  0.7957747E-01  0.3415793E+00
         13   -1    0    0    0    0  0.00000000000E+00  0.00000000000E+00  0.14999999963E+04  0.15000000000E+04  0.10566000000E+00 0. -1.
        994   -1    0    0    0    0 -0.00000000000E+00 -0.00000000000E+00  0.11368683772E-12  0.17120000000E+03  0.17120000000E+03 0.  0.
         13    1    1    2    0    0  0.20098838312E+03 -0.18585713603E+02  0.11697358459E+04  0.11870230491E+04  0.10566000000E+00 0. -1.
        994    1    1    2    0    0 -0.22541166363E+03  0.20762980398E+02  0.18943253572E+03  0.34122667692E+03  0.17120000000E+03 0.  0.
        998    1    1    2    0    0  0.24423280511E+02 -0.21772667957E+01  0.14083161471E+03  0.14295027396E+03  0.10000000000E-02 0.  1.
</event>
<event>
 5    1  0.7026671E-009  0.3882984E+03  0.7957747E-01  0.3415803E+00
         13   -1    0    0    0    0  0.00000000000E+00  0.00000000000E+00  0.14999999963E+04  0.15000000000E+04  0.10566000000E+00 0. -1.
        994   -1    0    0    0    0 -0.00000000000E+00 -0.00000000000E+00  0.11368683772E-12  0.17120000000E+03  0.17120000000E+03 0.  0.
         13    1    1    2    0    0  0.77525927138E+02 -0.23289948321E+03  0.12703920359E+04  0.12938888572E+04  0.10566000000E+00 0. -1.
        994    1    1    2    0    0 -0.77561642562E+02  0.23293242562E+03  0.22941656708E+03  0.37711367590E+03  0.17120000000E+03 0.  0.
        998    1    1    2    0    0  0.35715423277E-01 -0.32942411384E-01  0.19139325536E+00  0.19746688868E+00  0.10000000000E-02 0. -1.
</event>
<event>
 5    1  0.7026671E-009  0.3857942E+03  0.7957747E-01  0.3426311E+00
         13   -1    0    0    0    0  0.00000000000E+00  0.00000000000E+00  0.14999999963E+04  0.15000000000E+04  0.10566000000E+00 0. -1.
        994   -1    0    0    0    0 -0.00000000000E+00 -0.00000000000E+00  0.11368683772E-12  0.17120000000E+03  0.17120000000E+03 0.  0.
         13    1    1    2    0    0  0.24609740469E+03 -0.15525614800E+03  0.11365228627E+04  0.11731805627E+04  0.10566000000E+00 0. -1.
        994    1    1    2    0    0 -0.24268868596E+03  0.15761417881E+03  0.36015142637E+03  0.49270530500E+03  0.17120000000E+03 0.  0.
        998    1    1    2    0    0 -0.34087187294E+01 -0.23580308124E+01  0.33257071836E+01  0.53141322866E+01  0.10000000000E-02 0.  1.
</event>
<event>
 5    1  0.7026671E-009  0.3882963E+03  0.7957747E-01  0.3415811E+00
         13   -1    0    0    0    0  0.00000000000E+00  0.00000000000E+00  0.14999999963E+04  0.15000000000E+04  0.10566000000E+00 0. -1.
        994   -1    0    0    0    0 -0.00000000000E+00 -0.00000000000E+00  0.11368683772E-12  0.17120000000E+03  0.17120000000E+03 0.  0.
         13    1    1    2    0    0  0.24954984870E+03 -0.22288542790E+02  0.11996251487E+04  0.12255090431E+04  0.10566000000E+00 0. -1.
        994    1    1    2    0    0 -0.25803773386E+03  0.22805575411E+02  0.26165908184E+03  0.40605231371E+03  0.17120000000E+03 0.  0.
        998    1    1    2    0    0  0.84878851587E+01 -0.51703262054E+00  0.38715765690E+02  0.39638643155E+02  0.10000000000E-02 0.  1.
</event>
<event>
 5    1  0.7026671E-009  0.3883009E+03  0.7957747E-01  0.3415792E+00
         13   -1    0    0    0    0  0.00000000000E+00  0.00000000000E+00  0.14999999963E+04  0.15000000000E+04  0.10566000000E+00 0.  1.
        994   -1    0    0    0    0 -0.00000000000E+00 -0.00000000000E+00  0.11368683772E-12  0.17120000000E+03  0.17120000000E+03 0.  0.
         13    1    1    2    0    0 -0.26838510506E+01  0.23522141996E+03  0.12906188153E+04  0.13118815713E+04  0.10566000000E+00 0.  1.
        994    1    1    2    0    0  0.26984348820E+01 -0.23550126544E+03  0.20780033827E+03  0.35771294100E+03  0.17120000000E+03 0.  0.
        998    1    1    2    0    0 -0.14583831402E-01  0.27984548659E+00  0.15808427089E+01  0.16054877311E+01  0.10000000000E-02 0.  1.
</event>
<event>
 5    1  0.7026671E-009  0.3883010E+03  0.7957747E-01  0.3415792E+00
         13   -1    0    0    0    0  0.00000000000E+00  0.00000000000E+00  0.14999999963E+04  0.15000000000E+04  0.10566000000E+00 0. -1.
        994   -1    0    0    0    0 -0.00000000000E+00 -0.00000000000E+00  0.11368683772E-12  0.17120000000E+03  0.17120000000E+03 0.  0.
         13    1    1    2    0    0  0.22747192651E+03  0.53884742782E+02  0.12902368536E+04  0.13112429952E+04  0.10566000000E+00 0. -1.
        994    1    1    2    0    0 -0.22819179306E+03 -0.54057128140E+02  0.20570953721E+03  0.35583636861E+03  0.17120000000E+03 0.  0.
        998    1    1    2    0    0  0.71986654610E+00  0.17238535801E+00  0.40536054641E+01  0.41206362147E+01  0.10000000000E-02 0. -1.
</event>
<event>
 5    1  0.7026671E-009  0.3882966E+03  0.7957747E-01  0.3415810E+00
         13   -1    0    0    0    0  0.00000000000E+00  0.00000000000E+00  0.14999999963E+04  0.15000000000E+04  0.10566000000E+00 0.  1.
        994   -1    0    0    0    0 -0.00000000000E+00 -0.00000000000E+00  0.11368683772E-12  0.17120000000E+03  0.17120000000E+03 0.  0.
         13    1    1    2    0    0 -0.13575821885E+03 -0.19560720612E+03  0.12833824462E+04  0.13052827232E+04  0.10566000000E+00 0.  1.
        994    1    1    2    0    0  0.13591196729E+03  0.19600100020E+03  0.21411026031E+03  0.36337459804E+03  0.17120000000E+03 0.  0.
        998    1    1    2    0    0 -0.15374844129E+00 -0.39379407282E+00  0.25072897969E+01  0.25426788001E+01  0.10000000000E-02 0.  1.
</event>
<event>
 5    1  0.7026671E-009  0.3883010E+03  0.7957747E-01  0.3415792E+00
         13   -1    0    0    0    0  0.00000000000E+00  0.00000000000E+00  0.14999999963E+04  0.15000000000E+04  0.10566000000E+00 0. -1.
        994   -1    0    0    0    0 -0.00000000000E+00 -0.00000000000E+00  0.11368683772E-12  0.17120000000E+03  0.17120000000E+03 0.  0.
         13    1    1    2    0    0 -0.25070499441E+03  0.11769150015E+03  0.10119761003E+04  0.10491901268E+04  0.10566000000E+00 0. -1.
        994    1    1    2    0    0  0.27343189556E+03 -0.12837628564E+03  0.39618499335E+03  0.52679926080E+03  0.17120000000E+03 0.  0.
        998    1    1    2    0    0 -0.22726901147E+02  0.10684785491E+02  0.91838902665E+02  0.95210612436E+02  0.10000000000E-02 0.  1.
</event>
<event>
 5    1  0.7026671E-009  0.3883010E+03  0.7957747E-01  0.3415792E+00
         13   -1    0    0    0    0  0.00000000000E+00  0.00000000000E+00  0.14999999963E+04  0.15000000000E+04  0.10566000000E+00 0.  1.
        994   -1    0    0    0    0 -0.00000000000E+00 -0.00000000000E+00  0.11368683772E-12  0.17120000000E+03  0.17120000000E+03 0.  0.
         13    1    1    2    0    0  0.11802850218E+03  0.22785803578E+03  0.12170453743E+04  0.12438044324E+04  0.10566000000E+00 0.  1.
        994    1    1    2    0    0 -0.11976631294E+03 -0.23121421199E+03  0.26506869742E+03  0.40911469773E+03  0.17120000000E+03 0.  0.
        998    1    1    2    0    0  0.17378107623E+01  0.33561762047E+01  0.17885924558E+02  0.18280869871E+02  0.10000000000E-02 0. -1.
</event>
<event>
 5    1  0.7026671E-009  0.3883010E+03  0.7957747E-01  0.3415792E+00
         13   -1    0    0    0    0  0.00000000000E+00  0.00000000000E+00  0.14999999963E+04  0.15000000000E+04  0.10566000000E+00 0. -1.
        994   -1    0    0    0    0 -0.00000000000E+00 -0.00000000000E+00  0.11368683772E-12  0.17120000000E+03  0.17120000000E+03 0.  0.
         13    1    1    2    0    0  0.18462758215E+03  0.12707247508E+03  0.13051490283E+04  0.13242540373E+04  0.10566000000E+00 0. -1.
        994    1    1    2    0    0 -0.18566328388E+03 -0.12778320579E+03  0.18754312206E+03  0.33953094895E+03  0.17120000000E+03 0.  0.
        998    1    1    2    0    0  0.10357017321E+01  0.71073070426E+00  0.73078459344E+01  0.74150137838E+01  0.10000000000E-02 0. -1.
</event>
<event>
 5    1  0.7026671E-009  0.3882648E+03  0.7957747E-01  0.3415943E+00
         13   -1    0    0    0    0  0.00000000000E+00  0.00000000000E+00  0.14999999963E+04  0.15000000000E+04  0.10566000000E+00 0. -1.
        994   -1    0    0    0    0 -0.00000000000E+00 -0.00000000000E+00  0.11368683772E-12  0.17120000000E+03  0.17120000000E+03 0.  0.
         13    1    1    2    0    0 -0.22575007186E+03 -0.26423520637E+03  0.76404543017E+03  0.83937403448E+03  0.10566000000E+00 0. -1.
        994    1    1    2    0    0  0.22592566470E+03  0.26422581438E+03  0.73567886105E+03  0.83149895584E+03  0.17120000000E+03 0.  0.
        998    1    1    2    0    0 -0.17559284029E+00  0.93919898464E-02  0.27570504925E+00  0.32700967756E+00  0.10000000000E-02 0. -1.
</event>
<event>
 5    1  0.7026671E-009  0.3883010E+03  0.7957747E-01  0.3415792E+00
         13   -1    0    0    0    0  0.00000000000E+00  0.00000000000E+00  0.14999999963E+04  0.15000000000E+04  0.10566000000E+00 0.  1.
        994   -1    0    0    0    0 -0.00000000000E+00 -0.00000000000E+00  0.11368683772E-12  0.17120000000E+03  0.17120000000E+03 0.  0.
         13    1    1    2    0    0 -0.30501509019E+03 -0.66806954899E+02  0.10533985829E+04  0.10987019432E+04  0.10566000000E+00 0.  1.
        994    1    1    2    0    0  0.30590470305E+03  0.67003054241E+02  0.44352652492E+03  0.56929106346E+03  0.17120000000E+03 0.  0.
        998    1    1    2    0    0 -0.88961285981E+00 -0.19609934193E+00  0.30748884945E+01  0.32069933342E+01  0.10000000000E-02 0.  1.
</event>
<event>
 5    1  0.7026671E-009  0.3882382E+03  0.7957747E-01  0.3416054E+00
         13   -1    0    0    0    0  0.00000000000E+00  0.00000000000E+00  0.14999999963E+04  0.15000000000E+04  0.10566000000E+00 0. -1.
        994   -1    0    0    0    0 -0.00000000000E+00 -0.00000000000E+00  0.11368683772E-12  0.17120000000E+03  0.17120000000E+03 0.  0.
         13    1    1    2    0    0 -0.33593319081E+02  0.22189249959E+03  0.12966982448E+04  0.13159753575E+04  0.10566000000E+00 0. -1.
        994    1    1    2    0    0  0.34894004314E+02 -0.22402940159E+03  0.19022084342E+03  0.34190667380E+03  0.17120000000E+03 0.  0.
        998    1    1    2    0    0 -0.13006852326E+01  0.21369020040E+01  0.13080908104E+02  0.13317968691E+02  0.10000000000E-02 0. -1.
</event>
<event>
 5    1  0.7026671E-009  0.3883010E+03  0.7957747E-01  0.3415792E+00
         13   -1    0    0    0    0  0.00000000000E+00  0.00000000000E+00  0.14999999963E+04  0.15000000000E+04  0.10566000000E+00 0.  1.
        994   -1    0    0    0    0 -0.00000000000E+00 -0.00000000000E+00  0.11368683772E-12  0.17120000000E+03  0.17120000000E+03 0.  0.
         13    1    1    2    0    0  0.24189098753E+03 -0.14721085660E+02  0.12712406241E+04  0.12941331831E+04  0.10566000000E+00 0.  1.
        994    1    1    2    0    0 -0.24275177829E+03  0.14770871601E+02  0.22427091333E+03  0.37249629136E+03  0.17120000000E+03 0.  0.
        998    1    1    2    0    0  0.86079076765E+00 -0.49785940795E-01  0.44884588518E+01  0.45705254894E+01  0.10000000000E-02 0.  1.
</event>
<event>
 5    1  0.7026671E-009  0.3883010E+03  0.7957747E-01  0.3415792E+00
         13   -1    0    0    0    0  0.00000000000E+00  0.00000000000E+00  0.14999999963E+04  0.15000000000E+04  0.10566000000E+00 0. -1.
        994   -1    0    0    0    0 -0.00000000000E+00 -0.00000000000E+00  0.11368683772E-12  0.17120000000E+03  0.17120000000E+03 0.  0.
         13    1    1    2    0    0 -0.21319834035E+03 -0.15610871196E+03  0.12109349985E+04  0.12394301287E+04  0.10566000000E+00 0. -1.
        994    1    1    2    0    0  0.21475444659E+03  0.15725686353E+03  0.28019408104E+03  0.42269061559E+03  0.17120000000E+03 0.  0.
        998    1    1    2    0    0 -0.15561062420E+01 -0.11481515658E+01  0.88709167758E+01  0.90792557018E+01  0.10000000000E-02 0. -1.
</event>
<event>
 5    1  0.7026671E-009  0.3882797E+03  0.7957747E-01  0.3415881E+00
         13   -1    0    0    0    0  0.00000000000E+00  0.00000000000E+00  0.14999999963E+04  0.15000000000E+04  0.10566000000E+00 0. -1.
        994   -1    0    0    0    0 -0.00000000000E+00 -0.00000000000E+00  0.11368683772E-12  0.17120000000E+03  0.17120000000E+03 0.  0.
         13    1    1    2    0    0  0.26914333334E+03 -0.15927461610E+03  0.10434571076E+04  0.10893159706E+04  0.10566000000E+00 0. -1.
        994    1    1    2    0    0 -0.27078771334E+03  0.15987071407E+03  0.44972249470E+03  0.57484292912E+03  0.17120000000E+03 0.  0.
        998    1    1    2    0    0  0.16443800034E+01 -0.59609797117E+00  0.68203939381E+01  0.70411002590E+01  0.10000000000E-02 0. -1.
</event>
<event>
 5    1  0.7026671E-009  0.3883010E+03  0.7957747E-01  0.3415792E+00
         13   -1    0    0    0    0  0.00000000000E+00  0.00000000000E+00  0.14999999963E+04  0.15000000000E+04  0.10566000000E+00 0. -1.
        994   -1    0    0    0    0 -0.00000000000E+00 -0.00000000000E+00  0.11368683772E-12  0.17120000000E+03  0.17120000000E+03 0.  0.
         13    1    1    2    0    0 -0.19122049549E+03  0.52908989510E+02  0.89343663689E+03  0.91520143923E+03  0.10566000000E+00 0. -1.
        994    1    1    2    0    0  0.25940653128E+03 -0.71664666800E+02  0.28821302593E+03  0.42988807992E+03  0.17120000000E+03 0.  0.
        998    1    1    2    0    0 -0.68186035794E+02  0.18755677290E+02  0.31835033346E+03  0.32611048085E+03  0.10000000000E-02 0. -1.
</event>
<event>
 5    1  0.7026671E-009  0.3882986E+03  0.7957747E-01  0.3415802E+00
         13   -1    0    0    0    0  0.00000000000E+00  0.00000000000E+00  0.14999999963E+04  0.15000000000E+04  0.10566000000E+00 0. -1.
        994   -1    0    0    0    0 -0.00000000000E+00 -0.00000000000E+00  0.11368683772E-12  0.17120000000E+03  0.17120000000E+03 0.  0.
         13    1    1    2    0    0 -0.20706538387E+03  0.23565901430E+03  0.10462487559E+04  0.10922672359E+04  0.10566000000E+00 0. -1.
        994    1    1    2    0    0  0.20775712137E+03 -0.23636470220E+03  0.45075894349E+03  0.57578152025E+03  0.17120000000E+03 0.  0.
        998    1    1    2    0    0 -0.69173749278E+00  0.70568790537E+00  0.29922969127E+01  0.31512438802E+01  0.10000000000E-02 0.  1.
</event>
<event>
 5    1  0.7026671E-009  0.3882989E+03  0.7957747E-01  0.3415800E+00
         13   -1    0    0    0    0  0.00000000000E+00  0.00000000000E+00  0.14999999963E+04  0.15000000000E+04  0.10566000000E+00 0. -1.
        994   -1    0    0    0    0 -0.00000000000E+00 -0.00000000000E+00  0.11368683772E-12  0.17120000000E+03  0.17120000000E+03 0.  0.
         13    1    1    2    0    0 -0.12494406171E+03 -0.25934005510E+03  0.11439649136E+04  0.11796287626E+04  0.10566000000E+00 0. -1.
        994    1    1    2    0    0  0.12571761748E+03  0.26069728075E+03  0.35010532602E+03  0.48543915256E+03  0.17120000000E+03 0.  0.
        998    1    1    2    0    0 -0.77355576978E+00 -0.13572256478E+01  0.59297566090E+01  0.61320848355E+01  0.10000000000E-02 0.  1.
</event>
<event>
 5    1  0.7026671E-009  0.3882796E+03  0.7957747E-01  0.3415881E+00
         13   -1    0    0    0    0  0.00000000000E+00  0.00000000000E+00  0.14999999963E+04  0.15000000000E+04  0.10566000000E+00 0. -1.
        994   -1    0    0    0    0 -0.00000000000E+00 -0.00000000000E+00  0.11368683772E-12  0.17120000000E+03  0.17120000000E+03 0.  0.
         13    1    1    2    0    0  0.95246720985E+02  0.29643147770E+03  0.92642729865E+03  0.97734902142E+03  0.10566000000E+00 0. -1.
        994    1    1    2    0    0 -0.99803993129E+02 -0.31290333844E+03  0.52611339321E+03  0.64340817431E+03  0.17120000000E+03 0.  0.
        998    1    1    2    0    0  0.45572721449E+01  0.16471860738E+02  0.47459304419E+02  0.50442804269E+02  0.10000000000E-02 0. -1.
</event>
<event>
 5    1  0.7026671E-009  0.3883010E+03  0.7957747E-01  0.3415792E+00
         13   -1    0    0    0    0  0.00000000000E+00  0.00000000000E+00  0.14999999963E+04  0.15000000000E+04  0.10566000000E+00 0. -1.
        994   -1    0    0    0    0 -0.00000000000E+00 -0.00000000000E+00  0.11368683772E-12  0.17120000000E+03  0.17120000000E+03 0.  0.
         13    1    1    2    0    0  0.18382206374E+03  0.16437554909E+03  0.12672594595E+04  0.12910292100E+04  0.10566000000E+00 0. -1.
        994    1    1    2    0    0 -0.18390905180E+03 -0.16445188877E+03  0.23214069358E+03  0.37955988285E+03  0.17120000000E+03 0.  0.
        998    1    1    2    0    0  0.86988059480E-01  0.76339678834E-01  0.59984319348E+00  0.61090713355E+00  0.10000000000E-02 0.  0.
</event>
<event>
 5    1  0.9107192E-009  0.3883007E+03  0.7957747E-01  0.3415793E+00
         13   -1    0    0    0    0  0.00000000000E+00  0.00000000000E+00  0.14999999963E+04  0.15000000000E+04  0.10566000000E+00 0. -1.
        994   -1    0    0    0    0 -0.00000000000E+00 -0.00000000000E+00  0.11368683772E-12  0.17120000000E+03  0.17120000000E+03 0.  0.
         13    1    1    2    0    0 -0.32281719682E+03 -0.14209666020E+02  0.10055141686E+04  0.10561588951E+04  0.10566000000E+00 0. -1.
        994    1    1    2    0    0  0.32284200779E+03  0.14211997052E+02  0.49442345609E+03  0.61497393180E+03  0.17120000000E+03 0.  0.
        998    1    1    2    0    0 -0.24810972666E-01 -0.23310315809E-02  0.62371542539E-01  0.67173115095E-01  0.10000000000E-02 0.  1.
</event>
<event>
 5    1  0.7026671E-009  0.3882997E+03  0.7957747E-01  0.3415797E+00
         13   -1    0    0    0    0  0.00000000000E+00  0.00000000000E+00  0.14999999963E+04  0.15000000000E+04  0.10566000000E+00 0. -1.
        994   -1    0    0    0    0 -0.00000000000E+00 -0.00000000000E+00  0.11368683772E-12  0.17120000000E+03  0.17120000000E+03 0.  0.
         13    1    1    2    0    0 -0.70731625919E+02 -0.21658900188E+03  0.12983310898E+04  0.13181719875E+04  0.10566000000E+00 0. -1.
        994    1    1    2    0    0  0.71168251150E+02  0.21767763660E+03  0.19462126876E+03  0.34588343658E+03  0.17120000000E+03 0.  0.
        998    1    1    2    0    0 -0.43662523101E+00 -0.10886347129E+01  0.70476377032E+01  0.71445759374E+01  0.10000000000E-02 0. -1.
</event>
<event>
 5    1  0.7026671E-009  0.3883009E+03  0.7957747E-01  0.3415792E+00
         13   -1    0    0    0    0  0.00000000000E+00  0.00000000000E+00  0.14999999963E+04  0.15000000000E+04  0.10566000000E+00 0. -1.
        994   -1    0    0    0    0 -0.00000000000E+00 -0.00000000000E+00  0.11368683772E-12  0.17120000000E+03  0.17120000000E+03 0.  0.
         13    1    1    2    0    0  0.53953518459E+02 -0.27081927057E+03  0.11903894932E+04  0.12219988609E+04  0.10566000000E+00 0. -1.
        994    1    1    2    0    0 -0.53986971798E+02  0.27101272403E+03  0.30878516506E+03  0.44835277168E+03  0.17120000000E+03 0.  0.
        998    1    1    2    0    0  0.33453339172E-01 -0.19345345548E+00  0.82533803791E+00  0.84836739810E+00  0.10000000000E-02 0. -1.
</event>
<event>
 5    1  0.7162993E-009  0.3882862E+03  0.7957747E-01  0.3415853E+00
         13   -1    0    0    0    0  0.00000000000E+00  0.00000000000E+00  0.14999999963E+04  0.15000000000E+04  0.10566000000E+00 0. -1.
        994   -1    0    0    0    0 -0.00000000000E+00 -0.00000000000E+00  0.11368683772E-12  0.17120000000E+03  0.17120000000E+03 0.  0.
         13    1    1    2    0    0  0.20195427111E+03 -0.28365039120E+03  0.74319602016E+03  0.82072127278E+03  0.10566000000E+00 0. -1.
        994    1    1    2    0    0 -0.20195488832E+03  0.28362455791E+03  0.75678002212E+03  0.85044347763E+03  0.17120000000E+03 0.  0.
        998    1    1    2    0    0  0.61721031558E-03  0.25833281102E-01  0.23953998198E-01  0.35249587100E-01  0.10000000000E-02 0.  1.
</event>
<event>
 5    1  0.7026671E-009  0.3882944E+03  0.7957747E-01  0.3415819E+00
         13   -1    0    0    0    0  0.00000000000E+00  0.00000000000E+00  0.14999999963E+04  0.15000000000E+04  0.10566000000E+00 0.  1.
        994   -1    0    0    0    0 -0.00000000000E+00 -0.00000000000E+00  0.11368683772E-12  0.17120000000E+03  0.17120000000E+03 0.  0.
         13    1    1    2    0    0 -0.18870973409E+03  0.11697542915E+03  0.12864721664E+04  0.13054904292E+04  0.10566000000E+00 0.  1.
        994    1    1    2    0    0  0.19203603840E+03 -0.11953847371E+03  0.18912296301E+03  0.34094606887E+03  0.17120000000E+03 0.  0.
        998    1    1    2    0    0 -0.33263043100E+01  0.25630445609E+01  0.24404866906E+02  0.24763501923E+02  0.10000000000E-02 0. -1.
</event>
<event>
 5    1  0.7026671E-009  0.3883010E+03  0.7957747E-01  0.3415792E+00
         13   -1    0    0    0    0  0.00000000000E+00  0.00000000000E+00  0.14999999963E+04  0.15000000000E+04  0.10566000000E+00 0.  1.
        994   -1    0    0    0    0 -0.00000000000E+00 -0.00000000000E+00  0.11368683772E-12  0.17120000000E+03  0.17120000000E+03 0.  0.
         13    1    1    2    0    0 -0.97614640234E+02  0.24119764870E+03  0.11240543413E+04  0.11537777503E+04  0.10566000000E+00 0.  1.
        994    1    1    2    0    0  0.10351488149E+03 -0.25583686734E+03  0.30774678741E+03  0.44742078465E+03  0.17120000000E+03 0.  0.
        998    1    1    2    0    0 -0.59002412534E+01  0.14639218645E+02  0.68198867558E+02  0.70001465032E+02  0.10000000000E-02 0.  1.
</event>
<event>
 5    1  0.7026671E-009  0.3882994E+03  0.7957747E-01  0.3415799E+00
         13   -1    0    0    0    0  0.00000000000E+00  0.00000000000E+00  0.14999999963E+04  0.15000000000E+04  0.10566000000E+00 0. -1.
        994   -1    0    0    0    0 -0.00000000000E+00 -0.00000000000E+00  0.11368683772E-12  0.17120000000E+03  0.17120000000E+03 0.  0.
         13    1    1    2    0    0  0.17052339945E+03  0.17817430121E+03  0.12674033722E+04  0.12911760648E+04  0.10566000000E+00 0. -1.
        994    1    1    2    0    0 -0.17057092395E+03 -0.17822075133E+03  0.23209759560E+03  0.37952050035E+03  0.17120000000E+03 0.  0.
        998    1    1    2    0    0  0.47524503469E-01  0.46450124281E-01  0.49902846884E+00  0.50343480729E+00  0.10000000000E-02 0.  1.
</event>
<event>
 5    1  0.7026671E-009  0.3883004E+03  0.7957747E-01  0.3415794E+00
         13   -1    0    0    0    0  0.00000000000E+00  0.00000000000E+00  0.14999999963E+04  0.15000000000E+04  0.10566000000E+00 0. -1.
        994   -1    0    0    0    0 -0.00000000000E+00 -0.00000000000E+00  0.11368683772E-12  0.17120000000E+03  0.17120000000E+03 0.  0.
         13    1    1    2    0    0 -0.19066296166E+03  0.28854700888E+03  0.80575636352E+03  0.87684381152E+03  0.10566000000E+00 0. -1.
        994    1    1    2    0    0  0.19069454627E+03 -0.28861250438E+03  0.69409493677E+03  0.79419066282E+03  0.17120000000E+03 0.  0.
        998    1    1    2    0    0 -0.31584602562E-01  0.65495499461E-01  0.14869598364E+00  0.16552565698E+00  0.10000000000E-02 0. -1.
</event>
<event>
 5    1  0.7026671E-009  0.3829766E+03  0.7957747E-01  0.3438299E+00
         13   -1    0    0    0    0  0.00000000000E+00  0.00000000000E+00  0.14999999963E+04  0.15000000000E+04  0.10566000000E+00 0.  1.
        994   -1    0    0    0    0 -0.00000000000E+00 -0.00000000000E+00  0.11368683772E-12  0.17120000000E+03  0.17120000000E+03 0.  0.
         13    1    1    2    0    0  0.79922620786E+02 -0.22022757218E+03  0.10954478911E+04  0.11202204704E+04  0.10566000000E+00 0.  1.
        994    1    1    2    0    0 -0.63843200008E+02  0.25862051843E+03  0.29107782808E+03  0.43011192583E+03  0.17120000000E+03 0.  0.
        998    1    1    2    0    0 -0.16079420777E+02 -0.38392946249E+02  0.11347427705E+03  0.12086760379E+03  0.10000000000E-02 0. -1.
</event>
<event>
 5    1  0.7026671E-009  0.3882982E+03  0.7957747E-01  0.3415803E+00
         13   -1    0    0    0    0  0.00000000000E+00  0.00000000000E+00  0.14999999963E+04  0.15000000000E+04  0.10566000000E+00 0. -1.
        994   -1    0    0    0    0 -0.00000000000E+00 -0.00000000000E+00  0.11368683772E-12  0.17120000000E+03  0.17120000000E+03 0.  0.
         13    1    1    2    0    0 -0.82037064076E+02  0.25152347831E+03  0.12211058455E+04  0.12494373282E+04  0.10566000000E+00 0. -1.
        994    1    1    2    0    0  0.82231656436E+02 -0.25187496089E+03  0.27695253952E+03  0.41977993090E+03  0.17120000000E+03 0.  0.
        998    1    1    2    0    0 -0.19459235989E+00  0.35148258036E+00  0.19416112303E+01  0.19827408707E+01  0.10000000000E-02 0. -1.
</event>
<event>
 5    1  0.7026671E-009  0.3878471E+03  0.7957747E-01  0.3417687E+00
         13   -1    0    0    0    0  0.00000000000E+00  0.00000000000E+00  0.14999999963E+04  0.15000000000E+04  0.10566000000E+00 0. -1.
        994   -1    0    0    0    0 -0.00000000000E+00 -0.00000000000E+00  0.11368683772E-12  0.17120000000E+03  0.17120000000E+03 0.  0.
         13    1    1    2    0    0  0.14898321309E+03  0.10525543730E+03  0.10206950115E+04  0.10368669261E+04  0.10566000000E+00 0. -1.
        994    1    1    2    0    0 -0.18016470616E+03 -0.12912386911E+03  0.18103596089E+03  0.33349026081E+03  0.17120000000E+03 0.  0.
        998    1    1    2    0    0  0.31181493068E+02  0.23868431818E+02  0.29826902390E+03  0.30084281305E+03  0.10000000000E-02 0.  1.
</event>
<event>
 5    1  0.7026671E-009  0.3871765E+03  0.7957747E-01  0.3420493E+00
         13   -1    0    0    0    0  0.00000000000E+00  0.00000000000E+00  0.14999999963E+04  0.15000000000E+04  0.10566000000E+00 0.  1.
        994   -1    0    0    0    0 -0.00000000000E+00 -0.00000000000E+00  0.11368683772E-12  0.17120000000E+03  0.17120000000E+03 0.  0.
         13    1    1    2    0    0 -0.89915578259E+01  0.18764398938E+03  0.10564214963E+04  0.10729946430E+04  0.10566000000E+00 0.  1.
        994    1    1    2    0    0  0.29955880581E+02 -0.22593170007E+03  0.19391245962E+03  0.34475204115E+03  0.17120000000E+03 0.  0.
        998    1    1    2    0    0 -0.20964322755E+02  0.38287710691E+02  0.24966604031E+03  0.25345331583E+03  0.10000000000E-02 0.  1.
</event>
<event>
 5    1  0.7026671E-009  0.3882990E+03  0.7957747E-01  0.3415800E+00
         13   -1    0    0    0    0  0.00000000000E+00  0.00000000000E+00  0.14999999963E+04  0.15000000000E+04  0.10566000000E+00 0.  1.
        994   -1    0    0    0    0 -0.00000000000E+00 -0.00000000000E+00  0.11368683772E-12  0.17120000000E+03  0.17120000000E+03 0.  0.
         13    1    1    2    0    0  0.60179963926E+02  0.22374145879E+03  0.12675157362E+04  0.12885177613E+04  0.10566000000E+00 0.  1.
        994    1    1    2    0    0 -0.61228200479E+02 -0.22808927672E+03  0.20915307241E+03  0.35892625759E+03  0.17120000000E+03 0.  0.
        998    1    1    2    0    0  0.10482365525E+01  0.43478179309E+01  0.23331187620E+02  0.23755981086E+02  0.10000000000E-02 0.  1.
</event>
<event>
 5    1  0.7026671E-009  0.3882995E+03  0.7957747E-01  0.3415798E+00
         13   -1    0    0    0    0  0.00000000000E+00  0.00000000000E+00  0.14999999963E+04  0.15000000000E+04  0.10566000000E+00 0.  1.
        994   -1    0    0    0    0 -0.00000000000E+00 -0.00000000000E+00  0.11368683772E-12  0.17120000000E+03  0.17120000000E+03 0.  0.
         13    1    1    2    0    0 -0.16969526937E+03 -0.24370233294E+03  0.11202459159E+04  0.11589384085E+04  0.10566000000E+00 0.  1.
        994    1    1    2    0    0  0.16995571624E+03  0.24399520899E+03  0.37816089758E+03  0.51062090825E+03  0.17120000000E+03 0.  0.
        998    1    1    2    0    0 -0.26044686549E+00 -0.29287604896E+00  0.15931828248E+01  0.16406832306E+01  0.10000000000E-02 0.  1.
</event>
<event>
 5    1  0.7026671E-009  0.3882624E+03  0.7957747E-01  0.3415953E+00
         13   -1    0    0    0    0  0.00000000000E+00  0.00000000000E+00  0.14999999963E+04  0.15000000000E+04  0.10566000000E+00 0.  1.
        994   -1    0    0    0    0 -0.00000000000E+00 -0.00000000000E+00  0.11368683772E-12  0.17120000000E+03  0.17120000000E+03 0.  0.
         13    1    1    2    0    0 -0.29469713868E+03  0.13017234711E+03  0.99291272523E+03  0.10438711293E+04  0.10566000000E+00 0.  1.
        994    1    1    2    0    0  0.29674729061E+03 -0.13044088946E+03  0.50026532711E+03  0.62020046569E+03  0.17120000000E+03 0.  0.
        998    1    1    2    0    0 -0.20501519296E+01  0.26854235036E+00  0.68219439395E+01  0.71284050139E+01  0.10000000000E-02 0. -1.
</event>
<event>
 5    1  0.7026671E-009  0.3882982E+03  0.7957747E-01  0.3415804E+00
         13   -1    0    0    0    0  0.00000000000E+00  0.00000000000E+00  0.14999999963E+04  0.15000000000E+04  0.10566000000E+00 0. -1.
        994   -1    0    0    0    0 -0.00000000000E+00 -0.00000000000E+00  0.11368683772E-12  0.17120000000E+03  0.17120000000E+03 0.  0.
         13    1    1    2    0    0 -0.43856990295E+01 -0.22392269339E+03  0.12401407821E+04  0.12602022765E+04  0.10566000000E+00 0. -1.
        994    1    1    2    0    0  0.41607091231E+01  0.23383892050E+03  0.20441413524E+03  0.35467242763E+03  0.17120000000E+03 0.  0.
        998    1    1    2    0    0  0.22498990643E+00 -0.99162271049E+01  0.55445078901E+02  0.56325295878E+02  0.10000000000E-02 0.  1.
</event>
<event>
 5    1  0.7026671E-009  0.3881913E+03  0.7957747E-01  0.3416249E+00
         13   -1    0    0    0    0  0.00000000000E+00  0.00000000000E+00  0.14999999963E+04  0.15000000000E+04  0.10566000000E+00 0. -1.
        994   -1    0    0    0    0 -0.00000000000E+00 -0.00000000000E+00  0.11368683772E-12  0.17120000000E+03  0.17120000000E+03 0.  0.
         13    1    1    2    0    0 -0.26858206079E+03  0.36602911584E+02  0.11830061813E+04  0.12136637642E+04  0.10566000000E+00 0. -1.
        994    1    1    2    0    0  0.27084963405E+03 -0.36894203850E+02  0.30032038227E+03  0.44070679431E+03  0.17120000000E+03 0.  0.
        998    1    1    2    0    0 -0.22675732636E+01  0.29129226583E+00  0.16673432746E+02  0.16829441471E+02  0.10000000000E-02 0. -1.
</event>
<event>
 5    1  0.7026671E-009  0.3882998E+03  0.7957747E-01  0.3415797E+00
         13   -1    0    0    0    0  0.00000000000E+00  0.00000000000E+00  0.14999999963E+04  0.15000000000E+04  0.10566000000E+00 0.  1.
        994   -1    0    0    0    0 -0.00000000000E+00 -0.00000000000E+00  0.11368683772E-12  0.17120000000E+03  0.17120000000E+03 0.  0.
         13    1    1    2    0    0 -0.21751918345E+03  0.74607930714E+02  0.12884891079E+04  0.13088487807E+04  0.10566000000E+00 0.  1.
        994    1    1    2    0    0  0.21929637313E+03 -0.75228631147E+02  0.20026722964E+03  0.35095106422E+03  0.17120000000E+03 0.  0.
        998    1    1    2    0    0 -0.17771896771E+01  0.62070043285E+00  0.11243658726E+02  0.11400155030E+02  0.10000000000E-02 0. -1.
</event>
<event>
 5    1  0.7026671E-009  0.3883010E+03  0.7957747E-01  0.3415792E+00
         13   -1    0    0    0    0  0.00000000000E+00  0.00000000000E+00  0.14999999963E+04  0.15000000000E+04  0.10566000000E+00 0. -1.
        994   -1    0    0    0    0 -0.00000000000E+00 -0.00000000000E+00  0.11368683772E-12  0.17120000000E+03  0.17120000000E+03 0.  0.
         13    1    1    2    0    0  0.79018646706E+02 -0.21312177895E+03  0.12436899113E+04  0.12642900956E+04  0.10566000000E+00 0. -1.
        994    1    1    2    0    0 -0.82038243621E+02  0.22126276436E+03  0.20876930280E+03  0.35858269074E+03  0.17120000000E+03 0.  0.
        998    1    1    2    0    0  0.30195969151E+01 -0.81409854075E+01  0.47540782162E+02  0.48327213643E+02  0.10000000000E-02 0. -1.
</event>
<event>
 5    1  0.7026671E-009  0.3883005E+03  0.7957747E-01  0.3415794E+00
         13   -1    0    0    0    0  0.00000000000E+00  0.00000000000E+00  0.14999999963E+04  0.15000000000E+04  0.10566000000E+00 0. -1.
        994   -1    0    0    0    0 -0.00000000000E+00 -0.00000000000E+00  0.11368683772E-12  0.17120000000E+03  0.17120000000E+03 0.  0.
         13    1    1    2    0    0  0.60806651529E+02 -0.22326793845E+03  0.13006080673E+04  0.13210326935E+04  0.10566000000E+00 0. -1.
        994    1    1    2    0    0 -0.60808578758E+02  0.22327071470E+03  0.19938338331E+03  0.35015806264E+03  0.17120000000E+03 0.  0.
        998    1    1    2    0    0  0.19272285949E-02 -0.27762535042E-02  0.85456318975E-02  0.92438962621E-02  0.10000000000E-02 0.  1.
</event>
<event>
 5    1  0.7026671E-009  0.3882853E+03  0.7957747E-01  0.3415857E+00
         13   -1    0    0    0    0  0.00000000000E+00  0.00000000000E+00  0.14999999963E+04  0.15000000000E+04  0.10566000000E+00 0.  1.
        994   -1    0    0    0    0 -0.00000000000E+00 -0.00000000000E+00  0.11368683772E-12  0.17120000000E+03  0.17120000000E+03 0.  0.
         13    1    1    2    0    0 -0.31039024915E+02 -0.33507823127E+03  0.90574745724E+03  0.96623977852E+03  0.10566000000E+00 0.  1.
        994    1    1    2    0    0  0.31228397446E+02  0.33583689441E+03  0.59150381351E+03  0.70210243829E+03  0.17120000000E+03 0.  0.
        998    1    1    2    0    0 -0.18937253046E+00 -0.75866314160E+00  0.27487255348E+01  0.28577831939E+01  0.10000000000E-02 0.  1.
</event>
<event>
 5    1  0.7026671E-009  0.3881894E+03  0.7957747E-01  0.3416257E+00
         13   -1    0    0    0    0  0.00000000000E+00  0.00000000000E+00  0.14999999963E+04  0.15000000000E+04  0.10566000000E+00 0. -1.
        994   -1    0    0    0    0 -0.00000000000E+00 -0.00000000000E+00  0.11368683772E-12  0.17120000000E+03  0.17120000000E+03 0.  0.
         13    1    1    2    0    0  0.24156085966E+03  0.60369968604E+02  0.11103059675E+04  0.11378820389E+04  0.10566000000E+00 0. -1.
        994    1    1    2    0    0 -0.26007057813E+03 -0.66142724577E+02  0.28630197432E+03  0.42812361080E+03  0.17120000000E+03 0.  0.
        998    1    1    2    0    0  0.18509718469E+02  0.57727559727E+01  0.10339205451E+03  0.10519435026E+03  0.10000000000E-02 0.  1.
</event>
<event>
 5    1  0.7026671E-009  0.3880881E+03  0.7957747E-01  0.3416680E+00
         13   -1    0    0    0    0  0.00000000000E+00  0.00000000000E+00  0.14999999963E+04  0.15000000000E+04  0.10566000000E+00 0. -1.
        994   -1    0    0    0    0 -0.00000000000E+00 -0.00000000000E+00  0.11368683772E-12  0.17120000000E+03  0.17120000000E+03 0.  0.
         13    1    1    2    0    0  0.55177384556E+02  0.19251045207E+03  0.10836172263E+04  0.11019669333E+04  0.10566000000E+00 0. -1.
        994    1    1    2    0    0 -0.70582121841E+02 -0.23202431460E+03  0.22309209601E+03  0.37134437089E+03  0.17120000000E+03 0.  0.
        998    1    1    2    0    0  0.15404737285E+02  0.39513862528E+02  0.19329067399E+03  0.19788869578E+03  0.10000000000E-02 0. -1.
</event>
<event>
 5    1  0.7026671E-009  0.3883010E+03  0.7957747E-01  0.3415792E+00
         13   -1    0    0    0    0  0.00000000000E+00  0.00000000000E+00  0.14999999963E+04  0.15000000000E+04  0.10566000000E+00 0. -1.
        994   -1    0    0    0    0 -0.00000000000E+00 -0.00000000000E+00  0.11368683772E-12  0.17120000000E+03  0.17120000000E+03 0.  0.
         13    1    1    2    0    0 -0.29976070875E+02  0.25108932762E+03  0.12471821018E+04  0.12725594766E+04  0.10566000000E+00 0. -1.
        994    1    1    2    0    0  0.30071474137E+02 -0.25194817986E+03  0.24857630315E+03  0.39431180223E+03  0.17120000000E+03 0.  0.
        998    1    1    2    0    0 -0.95403261967E-01  0.85885224010E+00  0.42415913243E+01  0.43287211640E+01  0.10000000000E-02 0. -1.
</event>
<event>
 5    1  0.7026671E-009  0.3882989E+03  0.7957747E-01  0.3415801E+00
         13   -1    0    0    0    0  0.00000000000E+00  0.00000000000E+00  0.14999999963E+04  0.15000000000E+04  0.10566000000E+00 0. -1.
        994   -1    0    0    0    0 -0.00000000000E+00 -0.00000000000E+00  0.11368683772E-12  0.17120000000E+03  0.17120000000E+03 0.  0.
         13    1    1    2    0    0  0.13364774445E+03  0.23276236513E+03  0.12133307516E+04  0.12426630927E+04  0.10566000000E+00 0. -1.
        994    1    1    2    0    0 -0.13365585798E+03 -0.23281026312E+03  0.28636115305E+03  0.42822500740E+03  0.17120000000E+03 0.  0.
        998    1    1    2    0    0  0.81135248009E-02  0.47897993008E-01  0.30809165717E+00  0.31189984969E+00  0.10000000000E-02 0. -1.
</event>
<event>
 5    1  0.7026671E-009  0.3883010E+03  0.7957747E-01  0.3415792E+00
         13   -1    0    0    0    0  0.00000000000E+00  0.00000000000E+00  0.14999999963E+04  0.15000000000E+04  0.10566000000E+00 0.  1.
        994   -1    0    0    0    0 -0.00000000000E+00 -0.00000000000E+00  0.11368683772E-12  0.17120000000E+03  0.17120000000E+03 0.  0.
         13    1    1    2    0    0 -0.25926503751E+03  0.12605104307E+03  0.11444178286E+04  0.11801692263E+04  0.10566000000E+00 0.  1.
        994    1    1    2    0    0  0.26041390738E+03 -0.12660395132E+03  0.35054415714E+03  0.48583393228E+03  0.17120000000E+03 0.  0.
        998    1    1    2    0    0 -0.11488698780E+01  0.55290824303E+00  0.50380105904E+01  0.51968414667E+01  0.10000000000E-02 0. -1.
</event>
<event>
 5    1  0.7026671E-009  0.3883009E+03  0.7957747E-01  0.3415792E+00
         13   -1    0    0    0    0  0.00000000000E+00  0.00000000000E+00  0.14999999963E+04  0.15000000000E+04  0.10566000000E+00 0. -1.
        994   -1    0    0    0    0 -0.00000000000E+00 -0.00000000000E+00  0.11368683772E-12  0.17120000000E+03  0.17120000000E+03 0.  0.
         13    1    1    2    0    0 -0.87871374623E+02  0.11082700797E+03  0.79490072358E+03  0.80738539477E+03  0.10566000000E+00 0. -1.
        994    1    1    2    0    0  0.14349600626E+03 -0.18136432759E+03  0.19910717280E+03  0.34991031622E+03  0.17120000000E+03 0.  0.
        998    1    1    2    0    0 -0.55624631640E+02  0.70537319617E+02  0.50599209990E+03  0.51390428901E+03  0.10000000000E-02 0.  1.
</event>
<event>
 5    1  0.7026671E-009  0.3883003E+03  0.7957747E-01  0.3415795E+00
         13   -1    0    0    0    0  0.00000000000E+00  0.00000000000E+00  0.14999999963E+04  0.15000000000E+04  0.10566000000E+00 0.  1.
        994   -1    0    0    0    0 -0.00000000000E+00 -0.00000000000E+00  0.11368683772E-12  0.17120000000E+03  0.17120000000E+03 0.  0.
         13    1    1    2    0    0  0.22507399231E+02  0.16501144407E+03  0.99901749088E+03  0.10128036917E+04  0.10566000000E+00 0.  1.
        994    1    1    2    0    0 -0.29287584122E+02 -0.21814606566E+03  0.17758435142E+03  0.33059206043E+03  0.17120000000E+03 0.  0.
        998    1    1    2    0    0  0.67801848910E+01  0.53134621599E+02  0.32339815398E+03  0.32780424787E+03  0.10000000000E-02 0. -1.
</event>
<event>
 5    1  0.7026671E-009  0.3881692E+03  0.7957747E-01  0.3416341E+00
         13   -1    0    0    0    0  0.00000000000E+00  0.00000000000E+00  0.14999999963E+04  0.15000000000E+04  0.10566000000E+00 0.  1.
        994   -1    0    0    0    0 -0.00000000000E+00 -0.00000000000E+00  0.11368683772E-12  0.17120000000E+03  0.17120000000E+03 0.  0.
         13    1    1    2    0    0  0.27916057358E+03 -0.87160516760E+02  0.11088859545E+04  0.11468023600E+04  0.10566000000E+00 0.  1.
        994    1    1    2    0    0 -0.28203433286E+03  0.88846832892E+02  0.37243992893E+03  0.50542859564E+03  0.17120000000E+03 0.  0.
        998    1    1    2    0    0  0.28737592820E+01 -0.16863161321E+01  0.18674112825E+02  0.18969044396E+02  0.10000000000E-02 0. -1.
</event>
<event>
 5    1  0.7026671E-009  0.3883009E+03  0.7957747E-01  0.3415792E+00
         13   -1    0    0    0    0  0.00000000000E+00  0.00000000000E+00  0.14999999963E+04  0.15000000000E+04  0.10566000000E+00 0. -1.
        994   -1    0    0    0    0 -0.00000000000E+00 -0.00000000000E+00  0.11368683772E-12  0.17120000000E+03  0.17120000000E+03 0.  0.
         13    1    1    2    0    0 -0.24392560991E+03  0.10527887015E+03  0.12167199405E+04  0.12453877984E+04  0.10566000000E+00 0. -1.
        994    1    1    2    0    0  0.24449222551E+03 -0.10552369481E+03  0.28050930932E+03  0.42297353477E+03  0.17120000000E+03 0.  0.
        998    1    1    2    0    0 -0.56661559642E+00  0.24482465898E+00  0.27707464755E+01  0.28386668314E+01  0.10000000000E-02 0.  1.
</event>
<event>
 5    1  0.7026671E-009  0.3883004E+03  0.7957747E-01  0.3415794E+00
         13   -1    0    0    0    0  0.00000000000E+00  0.00000000000E+00  0.14999999963E+04  0.15000000000E+04  0.10566000000E+00 0.  1.
        994   -1    0    0    0    0 -0.00000000000E+00 -0.00000000000E+00  0.11368683772E-12  0.17120000000E+03  0.17120000000E+03 0.  0.
         13    1    1    2    0    0 -0.17003102414E+03 -0.16036005927E+03  0.12938969972E+04  0.13148366241E+04  0.10566000000E+00 0.  1.
        994    1    1    2    0    0  0.17020085093E+03  0.16053161599E+03  0.20459009804E+03  0.35483133685E+03  0.17120000000E+03 0.  0.
        998    1    1    2    0    0 -0.16982679612E+00 -0.17155671630E+00  0.15129010829E+01  0.15320390120E+01  0.10000000000E-02 0. -1.
</event>
<event>
 5    1  0.7026671E-009  0.3883010E+03  0.7957747E-01  0.3415792E+00
         13   -1    0    0    0    0  0.00000000000E+00  0.00000000000E+00  0.14999999963E+04  0.15000000000E+04  0.10566000000E+00 0. -1.
        994   -1    0    0    0    0 -0.00000000000E+00 -0.00000000000E+00  0.11368683772E-12  0.17120000000E+03  0.17120000000E+03 0.  0.
         13    1    1    2    0    0 -0.23791269451E+03  0.13197865791E+03  0.12006832360E+04  0.12311218708E+04  0.10566000000E+00 0. -1.
        994    1    1    2    0    0  0.23826103915E+03 -0.13216608148E+03  0.29756201213E+03  0.43827934806E+03  0.17120000000E+03 0.  0.
        998    1    1    2    0    0 -0.34834464184E+00  0.18742357381E+00  0.17547481264E+01  0.17987811353E+01  0.10000000000E-02 0. -1.
</event>
<event>
 5    1  0.7026671E-009  0.3782595E+03  0.7957747E-01  0.3458772E+00
         13   -1    0    0    0    0  0.00000000000E+00  0.00000000000E+00  0.14999999963E+04  0.15000000000E+04  0.10566000000E+00 0. -1.
        994   -1    0    0    0    0 -0.00000000000E+00 -0.00000000000E+00  0.11368683772E-12  0.17120000000E+03  0.17120000000E+03 0.  0.
         13    1    1    2    0    0 -0.16693099808E+02  0.19159449182E+02  0.10569405842E+03  0.10870597602E+03  0.10566000000E+00 0. -1.
        994    1    1    2    0    0  0.33194178444E+01  0.10869210708E+03  0.45862445829E+02  0.20793700155E+03  0.17120000000E+03 0.  0.
        998    1    1    2    0    0  0.13373681963E+02 -0.12785155626E+03  0.13484434920E+04  0.13545570224E+04  0.10000000000E-02 0. -1.
</event>
<event>
 5    1  0.7026671E-009  0.3882989E+03  0.7957747E-01  0.3415800E+00
         13   -1    0    0    0    0  0.00000000000E+00  0.00000000000E+00  0.14999999963E+04  0.15000000000E+04  0.10566000000E+00 0.  1.
        994   -1    0    0    0    0 -0.00000000000E+00 -0.00000000000E+00  0.11368683772E-12  0.17120000000E+03  0.17120000000E+03 0.  0.
         13    1    1    2    0    0 -0.24181456552E+02 -0.28393966539E+03  0.83080582488E+03  0.87831930768E+03  0.10566000000E+00 0.  1.
        994    1    1    2    0    0  0.27667940207E+02  0.32920045925E+03  0.53865149513E+03  0.65467039836E+03  0.17120000000E+03 0.  0.
        998    1    1    2    0    0 -0.34864836545E+01 -0.45260793859E+02  0.13054267626E+03  0.13821029396E+03  0.10000000000E-02 0. -1.
</event>
<event>
 5    1  0.8874800E-009  0.3883009E+03  0.7957747E-01  0.3415792E+00
         13   -1    0    0    0    0  0.00000000000E+00  0.00000000000E+00  0.14999999963E+04  0.15000000000E+04  0.10566000000E+00 0. -1.
        994   -1    0    0    0    0 -0.00000000000E+00 -0.00000000000E+00  0.11368683772E-12  0.17120000000E+03  0.17120000000E+03 0.  0.
         13    1    1    2    0    0 -0.13063097355E+03 -0.21654267364E+03  0.12533999294E+04  0.12786581150E+04  0.10566000000E+00 0. -1.
        994    1    1    2    0    0  0.13063468280E+03  0.21654683662E+03  0.24656658717E+03  0.39250792949E+03  0.17120000000E+03 0.  0.
        998    1    1    2    0    0 -0.37092551455E-02 -0.41629834453E-02  0.33479673198E-01  0.33955522707E-01  0.10000000000E-02 0.  1.
</event>
<event>
 5    1  0.7026671E-009  0.3883002E+03  0.7957747E-01  0.3415795E+00
         13   -1    0    0    0    0  0.00000000000E+00  0.00000000000E+00  0.14999999963E+04  0.15000000000E+04  0.10566000000E+00 0.  1.
        994   -1    0    0    0    0 -0.00000000000E+00 -0.00000000000E+00  0.11368683772E-12  0.17120000000E+03  0.17120000000E+03 0.  0.
         13    1    1    2    0    0 -0.14107048719E+03 -0.17053652769E+03  0.13189225242E+04  0.13373631614E+04  0.10566000000E+00 0.  1.
        994    1    1    2    0    0  0.14119621224E+03  0.17065680951E+03  0.18016941976E+03  0.33291226592E+03  0.17120000000E+03 0.  0.
        998    1    1    2    0    0 -0.12572505768E+00 -0.12028182574E+00  0.90805234797E+00  0.92457264419E+00  0.10000000000E-02 0. -1.
</event>
<event>
 5    1  0.7026671E-009  0.3882964E+03  0.7957747E-01  0.3415811E+00
         13   -1    0    0    0    0  0.00000000000E+00  0.00000000000E+00  0.14999999963E+04  0.15000000000E+04  0.10566000000E+00 0.  1.
        994   -1    0    0    0    0 -0.00000000000E+00 -0.00000000000E+00  0.11368683772E-12  0.17120000000E+03  0.17120000000E+03 0.  0.
         13    1    1    2    0    0  0.21824768016E+03 -0.46043637793E+02  0.11016307760E+04  0.11239850730E+04  0.10566000000E+00 0.  1.
        994    1    1    2    0    0 -0.24857380964E+03  0.52775130166E+02  0.24949588196E+03  0.39513515196E+03  0.17120000000E+03 0.  0.
        998    1    1    2    0    0  0.30326129479E+02 -0.67314923727E+01  0.14887333830E+03  0.15207977504E+03  0.10000000000E-02 0. -1.
</event>
<event>
 5    1  0.7026671E-009  0.3883010E+03  0.7957747E-01  0.3415792E+00
         13   -1    0    0    0    0  0.00000000000E+00  0.00000000000E+00  0.14999999963E+04  0.15000000000E+04  0.10566000000E+00 0.  1.
        994   -1    0    0    0    0 -0.00000000000E+00 -0.00000000000E+00  0.11368683772E-12  0.17120000000E+03  0.17120000000E+03 0.  0.
         13    1    1    2    0    0  0.47882800412E+02  0.27831191163E+03  0.11649940178E+04  0.11987332295E+04  0.10566000000E+00 0.  1.
        994    1    1    2    0    0 -0.48068464148E+02 -0.27935850380E+03  0.33057972356E+03  0.46791467654E+03  0.17120000000E+03 0.  0.
        998    1    1    2    0    0  0.18566373593E+00  0.10465921764E+01  0.44262549028E+01  0.45520939875E+01  0.10000000000E-02 0. -1.
</event>
<event>
 5    1  0.7026671E-009  0.3883005E+03  0.7957747E-01  0.3415794E+00
         13   -1    0    0    0    0  0.00000000000E+00  0.00000000000E+00  0.14999999963E+04  0.15000000000E+04  0.10566000000E+00 0. -1.
        994   -1    0    0    0    0 -0.00000000000E+00 -0.00000000000E+00  0.11368683772E-12  0.17120000000E+03  0.17120000000E+03 0.  0.
         13    1    1    2    0    0  0.76787703383E+02 -0.21048536224E+03  0.13102409033E+04  0.13292598222E+04  0.10566000000E+00 0. -1.
        994    1    1    2    0    0 -0.77041113209E+02  0.21106498442E+03  0.18619874192E+03  0.33832406398E+03  0.17120000000E+03 0.  0.
        998    1    1    2    0    0  0.25340982602E+00 -0.57962218411E+00  0.35603510780E+01  0.36161138277E+01  0.10000000000E-02 0. -1.
</event>
<event>
 5    1  0.7026671E-009  0.3882532E+03  0.7957747E-01  0.3415991E+00
         13   -1    0    0    0    0  0.00000000000E+00  0.00000000000E+00  0.14999999963E+04  0.15000000000E+04  0.10566000000E+00 0.  1.
        994   -1    0    0    0    0 -0.00000000000E+00 -0.00000000000E+00  0.11368683772E-12  0.17120000000E+03  0.17120000000E+03 0.  0.
         13    1    1    2    0    0  0.22426319863E+03  0.61170421832E+02  0.12745825361E+04  0.12956065974E+04  0.10566000000E+00 0.  1.
        994    1    1    2    0    0 -0.22743844996E+03 -0.61032220388E+02  0.20780074019E+03  0.35769228125E+03  0.17120000000E+03 0.  0.
        998    1    1    2    0    0  0.31752513291E+01 -0.13820144429E+00  0.17616719977E+02  0.17901121316E+02  0.10000000000E-02 0.  1.
</event>
<event>
 5    1  0.7026671E-009  0.3882815E+03  0.7957747E-01  0.3415873E+00
         13   -1    0    0    0    0  0.00000000000E+00  0.00000000000E+00  0.14999999963E+04  0.15000000000E+04  0.10566000000E+00 0. -1.
        994   -1    0    0    0    0 -0.00000000000E+00 -0.00000000000E+00  0.11368683772E-12  0.17120000000E+03  0.17120000000E+03 0.  0.
         13    1    1    2    0    0  0.10455743615E+03  0.40803329338E+02  0.67885725127E+03  0.68807292339E+03  0.10566000000E+00 0. -1.
        994    1    1    2    0    0 -0.20437272169E+03 -0.74521342376E+02  0.17290852357E+03  0.32638694423E+03  0.17120000000E+03 0.  0.
        998    1    1    2    0    0  0.99815285540E+02  0.33718013038E+02  0.64823422143E+03  0.65674013237E+03  0.10000000000E-02 0. -1.
</event>
<event>
 5    1  0.7026671E-009  0.3882998E+03  0.7957747E-01  0.3415797E+00
         13   -1    0    0    0    0  0.00000000000E+00  0.00000000000E+00  0.14999999963E+04  0.15000000000E+04  0.10566000000E+00 0. -1.
        994   -1    0    0    0    0 -0.00000000000E+00 -0.00000000000E+00  0.11368683772E-12  0.17120000000E+03  0.17120000000E+03 0.  0.
         13    1    1    2    0    0  0.43833136151E+02  0.21573810640E+03  0.13196172106E+04  0.13378542028E+04  0.10566000000E+00 0. -1.
        994    1    1    2    0    0 -0.43952571827E+02 -0.21606265578E+03  0.17829642594E+03  0.33123096971E+03  0.17120000000E+03 0.  0.
        998    1    1    2    0    0  0.11943567631E+00  0.32454937919E+00  0.20863597741E+01  0.21148274841E+01  0.10000000000E-02 0. -1.
</event>
<event>
 5    1  0.7026671E-009  0.3883008E+03  0.7957747E-01  0.3415792E+00
         13   -1    0    0    0    0  0.00000000000E+00  0.00000000000E+00  0.14999999963E+04  0.15000000000E+04  0.10566000000E+00 0.  1.
        994   -1    0    0    0    0 -0.00000000000E+00 -0.00000000000E+00  0.11368683772E-12  0.17120000000E+03  0.17120000000E+03 0.  0.
         13    1    1    2    0    0 -0.64861486735E+02  0.14872194184E+03  0.70717800178E+03  0.72555217994E+03  0.10566000000E+00 0.  1.
        994    1    1    2    0    0  0.10965294563E+03 -0.25143282934E+03  0.30284017485E+03  0.44301675776E+03  0.17120000000E+03 0.  0.
        998    1    1    2    0    0 -0.44791458893E+02  0.10271088750E+03  0.48998181965E+03  0.50263106230E+03  0.10000000000E-02 0.  1.
</event>
<event>
 5    1  0.7026671E-009  0.3883002E+03  0.7957747E-01  0.3415795E+00
         13   -1    0    0    0    0  0.00000000000E+00  0.00000000000E+00  0.14999999963E+04  0.15000000000E+04  0.10566000000E+00 0. -1.
        994   -1    0    0    0    0 -0.00000000000E+00 -0.00000000000E+00  0.11368683772E-12  0.17120000000E+03  0.17120000000E+03 0.  0.
         13    1    1    2    0    0  0.20964573638E+03 -0.72104692587E+02  0.13194360331E+04  0.13379319407E+04  0.10566000000E+00 0. -1.
        994    1    1    2    0    0 -0.20964480850E+03  0.72106289635E+02  0.18054938782E+03  0.33325333333E+03  0.17120000000E+03 0.  0.
        998    1    1    2    0    0 -0.92788415592E-03 -0.15970483453E-02  0.14575394644E-01  0.14725951971E-01  0.10000000000E-02 0. -1.
</event>
<event>
 5    1  0.7026671E-009  0.3883009E+03  0.7957747E-01  0.3415792E+00
         13   -1    0    0    0    0  0.00000000000E+00  0.00000000000E+00  0.14999999963E+04  0.15000000000E+04  0.10566000000E+00 0. -1.
        994   -1    0    0    0    0 -0.00000000000E+00 -0.00000000000E+00  0.11368683772E-12  0.17120000000E+03  0.17120000000E+03 0.  0.
         13    1    1    2    0    0  0.19398705987E+03 -0.92189636552E+02  0.11903575587E+04  0.12095788677E+04  0.10566000000E+00 0. -1.
        994    1    1    2    0    0 -0.21121809884E+03  0.10029766886E+03  0.20429954643E+03  0.35457080016E+03  0.17120000000E+03 0.  0.
        998    1    1    2    0    0  0.17231038975E+02 -0.81080323097E+01  0.10534289113E+03  0.10705033211E+03  0.10000000000E-02 0.  1.
</event>
<event>
 5    1  0.7026671E-009  0.3882999E+03  0.7957747E-01  0.3415796E+00
         13   -1    0    0    0    0  0.00000000000E+00  0.00000000000E+00  0.14999999963E+04  0.15000000000E+04  0.10566000000E+00 0. -1.
        994   -1    0    0    0    0 -0.00000000000E+00 -0.00000000000E+00  0.11368683772E-12  0.17120000000E+03  0.17120000000E+03 0.  0.
         13    1    1    2    0    0 -0.25749163294E+03 -0.79788145087E+02  0.12104688946E+04  0.12401221896E+04  0.10566000000E+00 0. -1.
        994    1    1    2    0    0  0.25749646159E+03  0.79793485986E+02  0.28946537712E+03  0.43101168510E+03  0.17120000000E+03 0.  0.
        998    1    1    2    0    0 -0.48286517522E-02 -0.53408985670E-02  0.65724556171E-01  0.66125323130E-01  0.10000000000E-02 0. -1.
</event>
<event>
 5    1  0.7026671E-009  0.3882630E+03  0.7957747E-01  0.3415950E+00
         13   -1    0    0    0    0  0.00000000000E+00  0.00000000000E+00  0.14999999963E+04  0.15000000000E+04  0.10566000000E+00 0.  1.
        994   -1    0    0    0    0 -0.00000000000E+00 -0.00000000000E+00  0.11368683772E-12  0.17120000000E+03  0.17120000000E+03 0.  0.
         13    1    1    2    0    0 -0.16616899978E+03 -0.17573938698E+03  0.12682374074E+04  0.12910935680E+04  0.10566000000E+00 0.  1.
        994    1    1    2    0    0  0.16694220716E+03  0.17635358942E+03  0.22352697861E+03  0.37181183305E+03  0.17120000000E+03 0.  0.
        998    1    1    2    0    0 -0.77320737826E+00 -0.61420243825E+00  0.82356102862E+01  0.82945989698E+01  0.10000000000E-02 0.  1.
</event>
<event>
 5    1  0.7026671E-009  0.3883010E+03  0.7957747E-01  0.3415792E+00
         13   -1    0    0    0    0  0.00000000000E+00  0.00000000000E+00  0.14999999963E+04  0.15000000000E+04  0.10566000000E+00 0.  1.
        994   -1    0    0    0    0 -0.00000000000E+00 -0.00000000000E+00  0.11368683772E-12  0.17120000000E+03  0.17120000000E+03 0.  0.
         13    1    1    2    0    0 -0.17753184215E+03  0.18476571566E+03  0.12419761883E+04  0.12681327959E+04  0.10566000000E+00 0.  1.
        994    1    1    2    0    0  0.17785088710E+03 -0.18509816422E+03  0.25579189925E+03  0.40078822857E+03  0.17120000000E+03 0.  0.
        998    1    1    2    0    0 -0.31904495021E+00  0.33244855324E+00  0.22319087495E+01  0.22789755126E+01  0.10000000000E-02 0.  0.
</event>
<event>
 5    1  0.7026671E-009  0.3883008E+03  0.7957747E-01  0.3415792E+00
         13   -1    0    0    0    0  0.00000000000E+00  0.00000000000E+00  0.14999999963E+04  0.15000000000E+04  0.10566000000E+00 0. -1.
        994   -1    0    0    0    0 -0.00000000000E+00 -0.00000000000E+00  0.11368683772E-12  0.17120000000E+03  0.17120000000E+03 0.  0.
         13    1    1    2    0    0 -0.27676792043E+03 -0.29217772769E+02  0.11829872615E+04  0.12152831078E+04  0.10566000000E+00 0. -1.
        994    1    1    2    0    0  0.27708216453E+03  0.29253979969E+02  0.31560347593E+03  0.45447256821E+03  0.17120000000E+03 0.  0.
        998    1    1    2    0    0 -0.31424409404E+00 -0.36207200102E-01  0.14092588247E+01  0.14443239758E+01  0.10000000000E-02 0. -1.
</event>
<event>
 5    1  0.7026671E-009  0.3883001E+03  0.7957747E-01  0.3415795E+00
         13   -1    0    0    0    0  0.00000000000E+00  0.00000000000E+00  0.14999999963E+04  0.15000000000E+04  0.10566000000E+00 0. -1.
        994   -1    0    0    0    0 -0.00000000000E+00 -0.00000000000E+00  0.11368683772E-12  0.17120000000E+03  0.17120000000E+03 0.  0.
         13    1    1    2    0    0 -0.18387620859E+03  0.19406595865E+03  0.11914492983E+04  0.12210747307E+04  0.10566000000E+00 0. -1.
        994    1    1    2    0    0  0.18621727755E+03 -0.19655021603E+03  0.29274823550E+03  0.43395832895E+03  0.17120000000E+03 0.  0.
        998    1    1    2    0    0 -0.23410689570E+01  0.24842573820E+01  0.15802462445E+02  0.16166940308E+02  0.10000000000E-02 0.  1.
</event>
<event>
 5    1  0.7026671E-009  0.3883010E+03  0.7957747E-01  0.3415792E+00
         13   -1    0    0    0    0  0.00000000000E+00  0.00000000000E+00  0.14999999963E+04  0.15000000000E+04  0.10566000000E+00 0. -1.
        994   -1    0    0    0    0 -0.00000000000E+00 -0.00000000000E+00  0.11368683772E-12  0.17120000000E+03  0.17120000000E+03 0.  0.
         13    1    1    2    0    0 -0.35976576436E+02 -0.21384123208E+03  0.13085078505E+04  0.13263540977E+04  0.10566000000E+00 0. -1.
        994    1    1    2    0    0  0.36408119531E+02  0.21631853952E+03  0.17621607158E+03  0.32936424456E+03  0.17120000000E+03 0.  0.
        998    1    1    2    0    0 -0.43154309432E+00 -0.24773074424E+01  0.15276074190E+02  0.15481657704E+02  0.10000000000E-02 0.  1.
</event>
<event>
 5    1  0.7026671E-009  0.3883010E+03  0.7957747E-01  0.3415792E+00
         13   -1    0    0    0    0  0.00000000000E+00  0.00000000000E+00  0.14999999963E+04  0.15000000000E+04  0.10566000000E+00 0. -1.
        994   -1    0    0    0    0 -0.00000000000E+00 -0.00000000000E+00  0.11368683772E-12  0.17120000000E+03  0.17120000000E+03 0.  0.
         13    1    1    2    0    0  0.15237279347E+03 -0.29127448605E+03  0.93846149904E+03  0.99436828729E+03  0.10566000000E+00 0. -1.
        994    1    1    2    0    0 -0.15399409397E+03  0.29437506094E+03  0.55155732701E+03  0.66625504310E+03  0.17120000000E+03 0.  0.
        998    1    1    2    0    0  0.16213004951E+01 -0.31005748917E+01  0.99811702241E+01  0.10576669608E+02  0.10000000000E-02 0. -1.
</event>
<event>
 5    1  0.7026671E-009  0.3883010E+03  0.7957747E-01  0.3415792E+00
         13   -1    0    0    0    0  0.00000000000E+00  0.00000000000E+00  0.14999999963E+04  0.15000000000E+04  0.10566000000E+00 0. -1.
        994   -1    0    0    0    0 -0.00000000000E+00 -0.00000000000E+00  0.11368683772E-12  0.17120000000E+03  0.17120000000E+03 0.  0.
         13    1    1    2    0    0  0.19320767145E+03  0.91923423962E+02  0.11183437399E+04  0.11386271786E+04  0.10566000000E+00 0. -1.
        994    1    1    2    0    0 -0.22014278012E+03 -0.10476171832E+03  0.22559555212E+03  0.37368523439E+03  0.17120000000E+03 0.  0.
        998    1    1    2    0    0  0.26935108670E+02  0.12838294355E+02  0.15606070428E+03  0.15888758700E+03  0.10000000000E-02 0. -1.
</event>
<event>
 5    1  0.7026671E-009  0.3883002E+03  0.7957747E-01  0.3415795E+00
         13   -1    0    0    0    0  0.00000000000E+00  0.00000000000E+00  0.14999999963E+04  0.15000000000E+04  0.10566000000E+00 0.  1.
        994   -1    0    0    0    0 -0.00000000000E+00 -0.00000000000E+00  0.11368683772E-12  0.17120000000E+03  0.17120000000E+03 0.  0.
         13    1    1    2    0    0  0.20015409640E+02 -0.26303190026E+03  0.12093966740E+04  0.12378314600E+04  0.10566000000E+00 0.  1.
        994    1    1    2    0    0 -0.20286083369E+02  0.26534639465E+03  0.28004951673E+03  0.42256053549E+03  0.17120000000E+03 0.  0.
        998    1    1    2    0    0  0.27067372916E+00 -0.23144943812E+01  0.10553805570E+02  0.10808004511E+02  0.10000000000E-02 0.  1.
</event>
<event>
 5    1  0.7026671E-009  0.3883009E+03  0.7957747E-01  0.3415792E+00
         13   -1    0    0    0    0  0.00000000000E+00  0.00000000000E+00  0.14999999963E+04  0.15000000000E+04  0.10566000000E+00 0. -1.
        994   -1    0    0    0    0 -0.00000000000E+00 -0.00000000000E+00  0.11368683772E-12  0.17120000000E+03  0.17120000000E+03 0.  0.
         13    1    1    2    0    0 -0.24639129523E+03  0.13451593203E+03  0.11776395713E+04  0.12106354437E+04  0.10566000000E+00 0. -1.
        994    1    1    2    0    0  0.24643710228E+03 -0.13453529763E+03  0.32215185865E+03  0.46035014035E+03  0.17120000000E+03 0.  0.
        998    1    1    2    0    0 -0.45807050092E-01  0.19365601314E-01  0.20856630371E+00  0.21441598680E+00  0.10000000000E-02 0. -1.
</event>
<event>
 5    1  0.7026671E-009  0.3883008E+03  0.7957747E-01  0.3415792E+00
         13   -1    0    0    0    0  0.00000000000E+00  0.00000000000E+00  0.14999999963E+04  0.15000000000E+04  0.10566000000E+00 0.  1.
        994   -1    0    0    0    0 -0.00000000000E+00 -0.00000000000E+00  0.11368683772E-12  0.17120000000E+03  0.17120000000E+03 0.  0.
         13    1    1    2    0    0  0.17574278910E+03 -0.11131156081E+03  0.10638501296E+04  0.10839985705E+04  0.10566000000E+00 0.  1.
        994    1    1    2    0    0 -0.20898425680E+03  0.13243481547E+03  0.23373914325E+03  0.38099452362E+03  0.17120000000E+03 0.  0.
        998    1    1    2    0    0  0.33241467703E+02 -0.21123254662E+02  0.20241072342E+03  0.20620690585E+03  0.10000000000E-02 0. -1.
</event>
<event>
 5    1  0.7026671E-009  0.3883010E+03  0.7957747E-01  0.3415792E+00
         13   -1    0    0    0    0  0.00000000000E+00  0.00000000000E+00  0.14999999963E+04  0.15000000000E+04  0.10566000000E+00 0.  1.
        994   -1    0    0    0    0 -0.00000000000E+00 -0.00000000000E+00  0.11368683772E-12  0.17120000000E+03  0.17120000000E+03 0.  0.
         13    1    1    2    0    0  0.16995911322E+02 -0.23361489314E+03  0.12937699347E+04  0.13148024317E+04  0.10566000000E+00 0.  1.
        994    1    1    2    0    0 -0.17004223981E+02  0.23375838240E+03  0.20543890123E+03  0.35559345763E+03  0.17120000000E+03 0.  0.
        998    1    1    2    0    0  0.83126582015E-02 -0.14348925304E+00  0.79116036893E+00  0.80411068604E+00  0.10000000000E-02 0.  1.
</event>
<event>
 5    1  0.7026671E-009  0.3883006E+03  0.7957747E-01  0.3415794E+00
         13   -1    0    0    0    0  0.00000000000E+00  0.00000000000E+00  0.14999999963E+04  0.15000000000E+04  0.10566000000E+00 0. -1.
        994   -1    0    0    0    0 -0.00000000000E+00 -0.00000000000E+00  0.11368683772E-12  0.17120000000E+03  0.17120000000E+03 0.  0.
         13    1    1    2    0    0 -0.14189304816E+03  0.15157532090E+03  0.12161773487E+04  0.12337731030E+04  0.10566000000E+00 0. -1.
        994    1    1    2    0    0  0.15341448325E+03 -0.16362264728E+03  0.18545251869E+03  0.33765433666E+03  0.17120000000E+03 0.  0.
        998    1    1    2    0    0 -0.11521435093E+02  0.12047326379E+02  0.98370128922E+02  0.99772560379E+02  0.10000000000E-02 0. -1.
</event>
<event>
 5    1  0.7026671E-009  0.3832385E+03  0.7957747E-01  0.3437178E+00
         13   -1    0    0    0    0  0.00000000000E+00  0.00000000000E+00  0.14999999963E+04  0.15000000000E+04  0.10566000000E+00 0.  1.
        994   -1    0    0    0    0 -0.00000000000E+00 -0.00000000000E+00  0.11368683772E-12  0.17120000000E+03  0.17120000000E+03 0.  0.
         13    1    1    2    0    0 -0.37676020265E+02 -0.28275081004E+03  0.80355404135E+03  0.85268201084E+03  0.10566000000E+00 0.  1.
        994    1    1    2    0    0  0.18279417516E+02  0.31929043047E+03  0.49980040998E+03  0.61756813867E+03  0.17120000000E+03 0.  0.
        998    1    1    2    0    0  0.19396602748E+02 -0.36539620431E+02  0.19664554495E+03  0.20094985048E+03  0.10000000000E-02 0.  1.
</event>
<event>
 5    1  0.7026671E-009  0.3883009E+03  0.7957747E-01  0.3415792E+00
         13   -1    0    0    0    0  0.00000000000E+00  0.00000000000E+00  0.14999999963E+04  0.15000000000E+04  0.10566000000E+00 0.  1.
        994   -1    0    0    0    0 -0.00000000000E+00 -0.00000000000E+00  0.11368683772E-12  0.17120000000E+03  0.17120000000E+03 0.  0.
         13    1    1    2    0    0 -0.20367286102E+03 -0.95462104469E+02  0.13126381728E+04  0.13317712385E+04  0.10566000000E+00 0.  1.
        994    1    1    2    0    0  0.20374967224E+03  0.95502420872E+02  0.18684070869E+03  0.33890047470E+03  0.17120000000E+03 0.  0.
        998    1    1    2    0    0 -0.76811217009E-01 -0.40316402707E-01  0.52111475626E+00  0.52828682037E+00  0.10000000000E-02 0. -1.
</event>
<event>
 5    1  0.7026671E-009  0.3883009E+03  0.7957747E-01  0.3415792E+00
         13   -1    0    0    0    0  0.00000000000E+00  0.00000000000E+00  0.14999999963E+04  0.15000000000E+04  0.10566000000E+00 0. -1.
        994   -1    0    0    0    0 -0.00000000000E+00 -0.00000000000E+00  0.11368683772E-12  0.17120000000E+03  0.17120000000E+03 0.  0.
         13    1    1    2    0    0 -0.82956289528E+02 -0.23274792873E+03  0.12662636035E+04  0.12901460650E+04  0.10566000000E+00 0. -1.
        994    1    1    2    0    0  0.82989188365E+02  0.23284750443E+03  0.23323928201E+03  0.38054588209E+03  0.17120000000E+03 0.  0.
        998    1    1    2    0    0 -0.32898837115E-01 -0.99575698040E-01  0.49711079175E+00  0.50805294252E+00  0.10000000000E-02 0. -1.
</event>
<event>
 5    1  0.7026671E-009  0.3883010E+03  0.7957747E-01  0.3415792E+00
         13   -1    0    0    0    0  0.00000000000E+00  0.00000000000E+00  0.14999999963E+04  0.15000000000E+04  0.10566000000E+00 0.  1.
        994   -1    0    0    0    0 -0.00000000000E+00 -0.00000000000E+00  0.11368683772E-12  0.17120000000E+03  0.17120000000E+03 0.  0.
         13    1    1    2    0    0  0.26197730016E+03 -0.14326533255E+03  0.10754511705E+04  0.11161327397E+04  0.10566000000E+00 0.  1.
        994    1    1    2    0    0 -0.26685672786E+03  0.14593432019E+03  0.40451761377E+03  0.53427827849E+03  0.17120000000E+03 0.  0.
        998    1    1    2    0    0  0.48794277061E+01 -0.26689876359E+01  0.20031212041E+02  0.20788981855E+02  0.10000000000E-02 0.  0.
</event>
<event>
 5    1  0.7026671E-009  0.3882756E+03  0.7957747E-01  0.3415898E+00
         13   -1    0    0    0    0  0.00000000000E+00  0.00000000000E+00  0.14999999963E+04  0.15000000000E+04  0.10566000000E+00 0. -1.
        994   -1    0    0    0    0 -0.00000000000E+00 -0.00000000000E+00  0.11368683772E-12  0.17120000000E+03  0.17120000000E+03 0.  0.
         13    1    1    2    0    0  0.16060664005E+03  0.12733962284E+03  0.11016219719E+04  0.11205270423E+04  0.10566000000E+00 0. -1.
        994    1    1    2    0    0 -0.18806944017E+03 -0.15023968654E+03  0.21886224319E+03  0.36763051999E+03  0.17120000000E+03 0.  0.
        998    1    1    2    0    0  0.27462800116E+02  0.22900063699E+02  0.17951578118E+03  0.18304243771E+03  0.10000000000E-02 0.  1.
</event>
<event>
 5    1  0.7026671E-009  0.3883008E+03  0.7957747E-01  0.3415792E+00
         13   -1    0    0    0    0  0.00000000000E+00  0.00000000000E+00  0.14999999963E+04  0.15000000000E+04  0.10566000000E+00 0.  1.
        994   -1    0    0    0    0 -0.00000000000E+00 -0.00000000000E+00  0.11368683772E-12  0.17120000000E+03  0.17120000000E+03 0.  0.
         13    1    1    2    0    0 -0.16346558971E+03  0.12572352464E+03  0.11408939889E+04  0.11593819512E+04  0.10566000000E+00 0.  1.
        994    1    1    2    0    0  0.18552598554E+03 -0.14287532458E+03  0.20500455210E+03  0.35520354174E+03  0.17120000000E+03 0.  0.
        998    1    1    2    0    0 -0.22060395831E+02  0.17151799938E+02  0.15410145530E+03  0.15661450709E+03  0.10000000000E-02 0. -1.
</event>
<event>
 5    1  0.7026671E-009  0.3877991E+03  0.7957747E-01  0.3417887E+00
         13   -1    0    0    0    0  0.00000000000E+00  0.00000000000E+00  0.14999999963E+04  0.15000000000E+04  0.10566000000E+00 0.  1.
        994   -1    0    0    0    0 -0.00000000000E+00 -0.00000000000E+00  0.11368683772E-12  0.17120000000E+03  0.17120000000E+03 0.  0.
         13    1    1    2    0    0  0.19296951830E+03 -0.87776213624E+02  0.97089662089E+03  0.99377168318E+03  0.10566000000E+00 0.  1.
        994    1    1    2    0    0 -0.23396016137E+03  0.12083096847E+03  0.27354683688E+03  0.41650305164E+03  0.17120000000E+03 0.  0.
        998    1    1    2    0    0  0.40990643072E+02 -0.33054754850E+02  0.25555653850E+03  0.26092526518E+03  0.10000000000E-02 0.  1.
</event>
<event>
 5    1  0.7026671E-009  0.3882997E+03  0.7957747E-01  0.3415797E+00
         13   -1    0    0    0    0  0.00000000000E+00  0.00000000000E+00  0.14999999963E+04  0.15000000000E+04  0.10566000000E+00 0. -1.
        994   -1    0    0    0    0 -0.00000000000E+00 -0.00000000000E+00  0.11368683772E-12  0.17120000000E+03  0.17120000000E+03 0.  0.
         13    1    1    2    0    0 -0.26125943753E+02 -0.31464704961E+03  0.10385428054E+04  0.10854752418E+04  0.10566000000E+00 0. -1.
        994    1    1    2    0    0  0.26129874660E+02  0.31536223425E+03  0.45922501204E+03  0.58338080259E+03  0.17120000000E+03 0.  0.
        998    1    1    2    0    0 -0.39309074546E-02 -0.71518463760E+00  0.22321788427E+01  0.23439556104E+01  0.10000000000E-02 0. -1.
</event>
<event>
 5    1  0.7026671E-009  0.3882990E+03  0.7957747E-01  0.3415800E+00
         13   -1    0    0    0    0  0.00000000000E+00  0.00000000000E+00  0.14999999963E+04  0.15000000000E+04  0.10566000000E+00 0.  1.
        994   -1    0    0    0    0 -0.00000000000E+00 -0.00000000000E+00  0.11368683772E-12  0.17120000000E+03  0.17120000000E+03 0.  0.
         13    1    1    2    0    0 -0.18272864190E+03 -0.26128002691E+02  0.10726586352E+04  0.10884250033E+04  0.10566000000E+00 0.  1.
        994    1    1    2    0    0  0.22333528286E+03  0.32743009827E+02  0.18819163122E+03  0.34011216286E+03  0.17120000000E+03 0.  0.
        998    1    1    2    0    0 -0.40606640960E+02 -0.66150071358E+01  0.23914972986E+03  0.24266283379E+03  0.10000000000E-02 0. -1.
</event>
<event>
 5    1  0.7026671E-009  0.3881944E+03  0.7957747E-01  0.3416236E+00
         13   -1    0    0    0    0  0.00000000000E+00  0.00000000000E+00  0.14999999963E+04  0.15000000000E+04  0.10566000000E+00 0.  1.
        994   -1    0    0    0    0 -0.00000000000E+00 -0.00000000000E+00  0.11368683772E-12  0.17120000000E+03  0.17120000000E+03 0.  0.
         13    1    1    2    0    0  0.22363427634E+03  0.22305540754E+03  0.10184032111E+04  0.10662603415E+04  0.10566000000E+00 0.  1.
        994    1    1    2    0    0 -0.22630931976E+03 -0.22523821208E+03  0.47405733064E+03  0.59664726022E+03  0.17120000000E+03 0.  0.
        998    1    1    2    0    0  0.26750434187E+01  0.21828045462E+01  0.75394545682E+01  0.82923982758E+01  0.10000000000E-02 0.  1.
</event>
<event>
 5    1  0.7026671E-009  0.3882996E+03  0.7957747E-01  0.3415798E+00
         13   -1    0    0    0    0  0.00000000000E+00  0.00000000000E+00  0.14999999963E+04  0.15000000000E+04  0.10566000000E+00 0.  1.
        994   -1    0    0    0    0 -0.00000000000E+00 -0.00000000000E+00  0.11368683772E-12  0.17120000000E+03  0.17120000000E+03 0.  0.
         13    1    1    2    0    0  0.21255264943E+03 -0.53520796307E+02  0.11703478117E+04  0.11906960636E+04  0.10566000000E+00 0.  1.
        994    1    1    2    0    0 -0.23318631772E+03  0.58386878634E+02  0.21812044226E+03  0.36697527669E+03  0.17120000000E+03 0.  0.
        998    1    1    2    0    0  0.20633668295E+02 -0.48660823271E+01  0.11153174231E+03  0.11352865967E+03  0.10000000000E-02 0. -1.
</event>
<event>
 5    1  0.7026671E-009  0.3883009E+03  0.7957747E-01  0.3415792E+00
         13   -1    0    0    0    0  0.00000000000E+00  0.00000000000E+00  0.14999999963E+04  0.15000000000E+04  0.10566000000E+00 0. -1.
        994   -1    0    0    0    0 -0.00000000000E+00 -0.00000000000E+00  0.11368683772E-12  0.17120000000E+03  0.17120000000E+03 0.  0.
         13    1    1    2    0    0  0.11394091102E+03 -0.17953777272E+03  0.10000394277E+04  0.10223967973E+04  0.10566000000E+00 0. -1.
        994    1    1    2    0    0 -0.14043498586E+03  0.22091891778E+03  0.26862116954E+03  0.41230319695E+03  0.17120000000E+03 0.  0.
        998    1    1    2    0    0  0.26494074836E+02 -0.41381145055E+02  0.23133939900E+03  0.23650000571E+03  0.10000000000E-02 0.  1.
</event>
<event>
 5    1  0.7026671E-009  0.3882988E+03  0.7957747E-01  0.3415801E+00
         13   -1    0    0    0    0  0.00000000000E+00  0.00000000000E+00  0.14999999963E+04  0.15000000000E+04  0.10566000000E+00 0. -1.
        994   -1    0    0    0    0 -0.00000000000E+00 -0.00000000000E+00  0.11368683772E-12  0.17120000000E+03  0.17120000000E+03 0.  0.
         13    1    1    2    0    0  0.16646217548E+03  0.16362801591E+03  0.10163810288E+04  0.10428394844E+04  0.10566000000E+00 0. -1.
        994    1    1    2    0    0 -0.19549027853E+03 -0.19316214192E+03  0.30435435262E+03  0.44437492507E+03  0.17120000000E+03 0.  0.
        998    1    1    2    0    0  0.29028103046E+02  0.29534126008E+02  0.17926461490E+03  0.18398559053E+03  0.10000000000E-02 0.  1.
</event>
<event>
 5    1  0.7026671E-009  0.3883010E+03  0.7957747E-01  0.3415792E+00
         13   -1    0    0    0    0  0.00000000000E+00  0.00000000000E+00  0.14999999963E+04  0.15000000000E+04  0.10566000000E+00 0. -1.
        994   -1    0    0    0    0 -0.00000000000E+00 -0.00000000000E+00  0.11368683772E-12  0.17120000000E+03  0.17120000000E+03 0.  0.
         13    1    1    2    0    0  0.86785611198E+02  0.20324963451E+03  0.13172405150E+04  0.13356514297E+04  0.10566000000E+00 0. -1.
        994    1    1    2    0    0 -0.86961490761E+02 -0.20366137953E+03  0.18008474230E+03  0.33283661577E+03  0.17120000000E+03 0.  0.
        998    1    1    2    0    0  0.17587956261E+00  0.41174501986E+00  0.26747390103E+01  0.27119545267E+01  0.10000000000E-02 0.  0.
</event>
<event>
 5    1  0.7026671E-009  0.3883010E+03  0.7957747E-01  0.3415792E+00
         13   -1    0    0    0    0  0.00000000000E+00  0.00000000000E+00  0.14999999963E+04  0.15000000000E+04  0.10566000000E+00 0. -1.
        994   -1    0    0    0    0 -0.00000000000E+00 -0.00000000000E+00  0.11368683772E-12  0.17120000000E+03  0.17120000000E+03 0.  0.
         13    1    1    2    0    0  0.22246397638E+03 -0.11812005653E+03  0.12538992562E+04  0.12789471937E+04  0.10566000000E+00 0. -1.
        994    1    1    2    0    0 -0.22269909396E+03  0.11824528465E+03  0.24476713368E+03  0.39089285428E+03  0.17120000000E+03 0.  0.
        998    1    1    2    0    0  0.23511758077E+00 -0.12522811245E+00  0.13336064119E+01  0.13599519913E+01  0.10000000000E-02 0. -1.
</event>
<event>
 5    1  0.7026671E-009  0.3883005E+03  0.7957747E-01  0.3415794E+00
         13   -1    0    0    0    0  0.00000000000E+00  0.00000000000E+00  0.14999999963E+04  0.15000000000E+04  0.10566000000E+00 0. -1.
        994   -1    0    0    0    0 -0.00000000000E+00 -0.00000000000E+00  0.11368683772E-12  0.17120000000E+03  0.17120000000E+03 0.  0.
         13    1    1    2    0    0  0.92463935287E+02  0.20190729263E+03  0.13176319435E+04  0.13362148344E+04  0.10566000000E+00 0. -1.
        994    1    1    2    0    0 -0.92529669108E+02 -0.20202024310E+03  0.18149295022E+03  0.33410035808E+03  0.17120000000E+03 0.  0.
        998    1    1    2    0    0  0.65733821287E-01  0.11295047793E+00  0.87510259362E+00  0.88480749041E+00  0.10000000000E-02 0. -1.
</event>
<event>
 5    1  0.7026671E-009  0.3882984E+03  0.7957747E-01  0.3415803E+00
         13   -1    0    0    0    0  0.00000000000E+00  0.00000000000E+00  0.14999999963E+04  0.15000000000E+04  0.10566000000E+00 0. -1.
        994   -1    0    0    0    0 -0.00000000000E+00 -0.00000000000E+00  0.11368683772E-12  0.17120000000E+03  0.17120000000E+03 0.  0.
         13    1    1    2    0    0  0.95274146959E+01 -0.12081628283E+03  0.58667860071E+03  0.59906521976E+03  0.10566000000E+00 0. -1.
        994    1    1    2    0    0 -0.20202110170E+02  0.25471185301E+03  0.25288889964E+03  0.39818147732E+03  0.17120000000E+03 0.  0.
        998    1    1    2    0    0  0.10674695475E+02 -0.13389557018E+03  0.66043249593E+03  0.67395330292E+03  0.10000000000E-02 0. -1.
</event>
<event>
 5    1  0.7026671E-009  0.3883003E+03  0.7957747E-01  0.3415795E+00
         13   -1    0    0    0    0  0.00000000000E+00  0.00000000000E+00  0.14999999963E+04  0.15000000000E+04  0.10566000000E+00 0.  1.
        994   -1    0    0    0    0 -0.00000000000E+00 -0.00000000000E+00  0.11368683772E-12  0.17120000000E+03  0.17120000000E+03 0.  0.
         13    1    1    2    0    0  0.96452650913E+01  0.27870013893E+03  0.93955079902E+03  0.98006250499E+03  0.10566000000E+00 0.  1.
        994    1    1    2    0    0 -0.11074001464E+02 -0.31302707969E+03  0.44383664648E+03  0.56956913091E+03  0.17120000000E+03 0.  0.
        998    1    1    2    0    0  0.14287363725E+01  0.34326940768E+02  0.11661255078E+03  0.12156836410E+03  0.10000000000E-02 0.  1.
</event>
<event>
 5    1  0.7026671E-009  0.3840577E+03  0.7957747E-01  0.3433678E+00
         13   -1    0    0    0    0  0.00000000000E+00  0.00000000000E+00  0.14999999963E+04  0.15000000000E+04  0.10566000000E+00 0. -1.
        994   -1    0    0    0    0 -0.00000000000E+00 -0.00000000000E+00  0.11368683772E-12  0.17120000000E+03  0.17120000000E+03 0.  0.
         13    1    1    2    0    0 -0.24754211098E+02  0.10500247595E+03  0.61486184276E+03  0.62425426532E+03  0.10566000000E+00 0. -1.
        994    1    1    2    0    0  0.10656733755E+03 -0.16225563234E+03  0.13830060320E+03  0.29346206655E+03  0.17120000000E+03 0.  0.
        998    1    1    2    0    0 -0.81813126449E+02  0.57253156389E+02  0.74683755032E+03  0.75348366813E+03  0.10000000000E-02 0. -1.
</event>
<event>
 5    1  0.7026671E-009  0.3882913E+03  0.7957747E-01  0.3415832E+00
         13   -1    0    0    0    0  0.00000000000E+00  0.00000000000E+00  0.14999999963E+04  0.15000000000E+04  0.10566000000E+00 0. -1.
        994   -1    0    0    0    0 -0.00000000000E+00 -0.00000000000E+00  0.11368683772E-12  0.17120000000E+03  0.17120000000E+03 0.  0.
         13    1    1    2    0    0  0.99082613422E+02 -0.25794523241E+03  0.11897958312E+04  0.12214611079E+04  0.10566000000E+00 0. -1.
        994    1    1    2    0    0 -0.99128933216E+02  0.25806870541E+03  0.30914468751E+03  0.44867123813E+03  0.17120000000E+03 0.  0.
        998    1    1    2    0    0  0.46319794767E-01 -0.12347299980E+00  0.10594776057E+01  0.10676539243E+01  0.10000000000E-02 0.  1.
</event>
<event>
 5    1  0.7026671E-009  0.3883002E+03  0.7957747E-01  0.3415795E+00
         13   -1    0    0    0    0  0.00000000000E+00  0.00000000000E+00  0.14999999963E+04  0.15000000000E+04  0.10566000000E+00 0. -1.
        994   -1    0    0    0    0 -0.00000000000E+00 -0.00000000000E+00  0.11368683772E-12  0.17120000000E+03  0.17120000000E+03 0.  0.
         13    1    1    2    0    0  0.14999015888E+03  0.93790785126E+02  0.68710614640E+03  0.70951295035E+03  0.10566000000E+00 0. -1.
        994    1    1    2    0    0 -0.24899148534E+03 -0.15495448910E+03  0.36338373652E+03  0.49735785248E+03  0.17120000000E+03 0.  0.
        998    1    1    2    0    0  0.99001326460E+02  0.61163703970E+02  0.44951011336E+03  0.46432919717E+03  0.10000000000E-02 0. -1.
</event>
<event>
 5    1  0.7026671E-009  0.3883004E+03  0.7957747E-01  0.3415794E+00
         13   -1    0    0    0    0  0.00000000000E+00  0.00000000000E+00  0.14999999963E+04  0.15000000000E+04  0.10566000000E+00 0.  1.
        994   -1    0    0    0    0 -0.00000000000E+00 -0.00000000000E+00  0.11368683772E-12  0.17120000000E+03  0.17120000000E+03 0.  0.
         13    1    1    2    0    0 -0.47932985077E+02  0.17755139094E+03  0.38059917672E+02  0.18780478157E+03  0.10566000000E+00 0.  1.
        994    1    1    2    0    0  0.47928629086E+02 -0.17757445316E+03  0.14619335758E+04  0.14833708437E+04  0.17120000000E+03 0.  0.
        998    1    1    2    0    0  0.43559903827E-02  0.23062219624E-01  0.65028080306E-02  0.24374723352E-01  0.10000000000E-02 0.  1.
</event>
<event>
 5    1  0.7026671E-009  0.3883009E+03  0.7957747E-01  0.3415792E+00
         13   -1    0    0    0    0  0.00000000000E+00  0.00000000000E+00  0.14999999963E+04  0.15000000000E+04  0.10566000000E+00 0. -1.
        994   -1    0    0    0    0 -0.00000000000E+00 -0.00000000000E+00  0.11368683772E-12  0.17120000000E+03  0.17120000000E+03 0.  0.
         13    1    1    2    0    0  0.19745162230E+03  0.13993270978E+03  0.12317438040E+04  0.12552932392E+04  0.10566000000E+00 0. -1.
        994    1    1    2    0    0 -0.20265455348E+03 -0.14354823792E+03  0.23587559902E+03  0.38291213466E+03  0.17120000000E+03 0.  0.
        998    1    1    2    0    0  0.52029311729E+01  0.36155281426E+01  0.32380593259E+02  0.32994626188E+02  0.10000000000E-02 0. -1.
</event>
<event>
 5    1  0.1611419E-008  0.3883008E+03  0.7957747E-01  0.3415793E+00
         13   -1    0    0    0    0  0.00000000000E+00  0.00000000000E+00  0.14999999963E+04  0.15000000000E+04  0.10566000000E+00 0.  1.
        994   -1    0    0    0    0 -0.00000000000E+00 -0.00000000000E+00  0.11368683772E-12  0.17120000000E+03  0.17120000000E+03 0.  0.
         13    1    1    2    0    0 -0.19996993311E+03 -0.97336148971E+02  0.13181004870E+04  0.13367315381E+04  0.10566000000E+00 0.  1.
        994    1    1    2    0    0  0.19997200662E+03  0.97337987143E+02  0.18187102473E+03  0.33443982539E+03  0.17120000000E+03 0.  0.
        998    1    1    2    0    0 -0.20735049577E-02 -0.18381721214E-02  0.28484568060E-01  0.28636496244E-01  0.10000000000E-02 0. -1.
</event>
<event>
 5    1  0.7026671E-009  0.3875592E+03  0.7957747E-01  0.3418890E+00
         13   -1    0    0    0    0  0.00000000000E+00  0.00000000000E+00  0.14999999963E+04  0.15000000000E+04  0.10566000000E+00 0.  1.
        994   -1    0    0    0    0 -0.00000000000E+00 -0.00000000000E+00  0.11368683772E-12  0.17120000000E+03  0.17120000000E+03 0.  0.
         13    1    1    2    0    0 -0.25077661817E+03 -0.53035372915E+02  0.11079608621E+04  0.11372242286E+04  0.10566000000E+00 0.  1.
        994    1    1    2    0    0  0.27195334127E+03  0.63776824351E+02  0.31938344197E+03  0.45753833299E+03  0.17120000000E+03 0.  0.
        998    1    1    2    0    0 -0.21176723094E+02 -0.10741451436E+02  0.72655692208E+02  0.76437438413E+02  0.10000000000E-02 0. -1.
</event>
<event>
 5    1  0.7026671E-009  0.3883010E+03  0.7957747E-01  0.3415792E+00
         13   -1    0    0    0    0  0.00000000000E+00  0.00000000000E+00  0.14999999963E+04  0.15000000000E+04  0.10566000000E+00 0. -1.
        994   -1    0    0    0    0 -0.00000000000E+00 -0.00000000000E+00  0.11368683772E-12  0.17120000000E+03  0.17120000000E+03 0.  0.
         13    1    1    2    0    0 -0.18198445276E+03 -0.13444748459E+03  0.12162650248E+04  0.12371317993E+04  0.10566000000E+00 0. -1.
        994    1    1    2    0    0  0.19226308438E+03  0.14200618945E+03  0.21518679467E+03  0.36434276177E+03  0.17120000000E+03 0.  0.
        998    1    1    2    0    0 -0.10278631620E+02 -0.75587048580E+01  0.68548176837E+02  0.69725438943E+02  0.10000000000E-02 0. -1.
</event>
<event>
 5    1  0.7026671E-009  0.3882908E+03  0.7957747E-01  0.3415834E+00
         13   -1    0    0    0    0  0.00000000000E+00  0.00000000000E+00  0.14999999963E+04  0.15000000000E+04  0.10566000000E+00 0.  1.
        994   -1    0    0    0    0 -0.00000000000E+00 -0.00000000000E+00  0.11368683772E-12  0.17120000000E+03  0.17120000000E+03 0.  0.
         13    1    1    2    0    0 -0.20701218108E+03  0.58485365440E+02  0.12310786869E+04  0.12497317014E+04  0.10566000000E+00 0.  1.
        994    1    1    2    0    0  0.21913763704E+03 -0.62758701130E+02  0.19252777599E+03  0.34400049864E+03  0.17120000000E+03 0.  0.
        998    1    1    2    0    0 -0.12125455961E+02  0.42733356900E+01  0.76393533392E+02  0.77467799925E+02  0.10000000000E-02 0.  1.
</event>
<event>
 5    1  0.7026671E-009  0.3883010E+03  0.7957747E-01  0.3415792E+00
         13   -1    0    0    0    0  0.00000000000E+00  0.00000000000E+00  0.14999999963E+04  0.15000000000E+04  0.10566000000E+00 0.  1.
        994   -1    0    0    0    0 -0.00000000000E+00 -0.00000000000E+00  0.11368683772E-12  0.17120000000E+03  0.17120000000E+03 0.  0.
         13    1    1    2    0    0 -0.29246119159E+03  0.15147447737E+03  0.96750597793E+03  0.10220302806E+04  0.10566000000E+00 0.  1.
        994    1    1    2    0    0  0.29250868879E+03 -0.15149981114E+03  0.53233583835E+03  0.64900262756E+03  0.17120000000E+03 0.  0.
        998    1    1    2    0    0 -0.47497200794E-01  0.25333764778E-01  0.15817999747E+00  0.16709187689E+00  0.10000000000E-02 0.  0.
</event>
<event>
 5    1  0.7026671E-009  0.3608285E+03  0.7957747E-01  0.3539133E+00
         13   -1    0    0    0    0  0.00000000000E+00  0.00000000000E+00  0.14999999963E+04  0.15000000000E+04  0.10566000000E+00 0. -1.
        994   -1    0    0    0    0 -0.00000000000E+00 -0.00000000000E+00  0.11368683772E-12  0.17120000000E+03  0.17120000000E+03 0.  0.
         13    1    1    2    0    0  0.19278297672E+03  0.15274535192E+03  0.12243370430E+04  0.12487984724E+04  0.10566000000E+00 0. -1.
        994    1    1    2    0    0 -0.19141158377E+03 -0.11970786895E+03  0.26421166184E+03  0.38740884159E+03  0.17120000000E+03 0.  0.
        998    1    1    2    0    0 -0.13713929567E+01 -0.33037482964E+02  0.11451291474E+02  0.34992686045E+02  0.10000000000E-02 0. -1.
</event>
<event>
 5    1  0.7026671E-009  0.3883010E+03  0.7957747E-01  0.3415792E+00
         13   -1    0    0    0    0  0.00000000000E+00  0.00000000000E+00  0.14999999963E+04  0.15000000000E+04  0.10566000000E+00 0.  1.
        994   -1    0    0    0    0 -0.00000000000E+00 -0.00000000000E+00  0.11368683772E-12  0.17120000000E+03  0.17120000000E+03 0.  0.
         13    1    1    2    0    0 -0.54393877733E+02 -0.21517053555E+03  0.13176642095E+04  0.13362245446E+04  0.10566000000E+00 0.  1.
        994    1    1    2    0    0  0.54435417219E+02  0.21533538284E+03  0.18131763551E+03  0.33394320879E+03  0.17120000000E+03 0.  0.
        998    1    1    2    0    0 -0.41539486321E-01 -0.16484728921E+00  0.10181512673E+01  0.10322466569E+01  0.10000000000E-02 0.  0.
</event>
<event>
 5    1  0.7026671E-009  0.3807875E+03  0.7957747E-01  0.3447737E+00
         13   -1    0    0    0    0  0.00000000000E+00  0.00000000000E+00  0.14999999963E+04  0.15000000000E+04  0.10566000000E+00 0. -1.
        994   -1    0    0    0    0 -0.00000000000E+00 -0.00000000000E+00  0.11368683772E-12  0.17120000000E+03  0.17120000000E+03 0.  0.
         13    1    1    2    0    0  0.12224856389E+03  0.20563445817E+03  0.12244534992E+04  0.12476043542E+04  0.10566000000E+00 0. -1.
        994    1    1    2    0    0 -0.13733901303E+03 -0.20961878331E+03  0.24801372511E+03  0.39194679060E+03  0.17120000000E+03 0.  0.
        998    1    1    2    0    0  0.15090449143E+02  0.39843251415E+01  0.27532772014E+02  0.31648855239E+02  0.10000000000E-02 0.  1.
</event>
<event>
 5    1  0.7026671E-009  0.3881097E+03  0.7957747E-01  0.3416590E+00
         13   -1    0    0    0    0  0.00000000000E+00  0.00000000000E+00  0.14999999963E+04  0.15000000000E+04  0.10566000000E+00 0. -1.
        994   -1    0    0    0    0 -0.00000000000E+00 -0.00000000000E+00  0.11368683772E-12  0.17120000000E+03  0.17120000000E+03 0.  0.
         13    1    1    2    0    0  0.26586427167E+03  0.54697268810E+02  0.10384513763E+04  0.10733391236E+04  0.10566000000E+00 0. -1.
        994    1    1    2    0    0 -0.29166935670E+03 -0.59412176910E+02  0.37983536673E+03  0.51204019981E+03  0.17120000000E+03 0.  0.
        998    1    1    2    0    0  0.25805085024E+02  0.47149081002E+01  0.81713253237E+02  0.85820676571E+02  0.10000000000E-02 0.  1.
</event>
<event>
 5    1  0.7026671E-009  0.3883008E+03  0.7957747E-01  0.3415792E+00
         13   -1    0    0    0    0  0.00000000000E+00  0.00000000000E+00  0.14999999963E+04  0.15000000000E+04  0.10566000000E+00 0.  1.
        994   -1    0    0    0    0 -0.00000000000E+00 -0.00000000000E+00  0.11368683772E-12  0.17120000000E+03  0.17120000000E+03 0.  0.
         13    1    1    2    0    0  0.11515132204E+03 -0.19535093758E+03  0.12739980465E+04  0.12940219663E+04  0.10566000000E+00 0.  1.
        994    1    1    2    0    0 -0.11754983723E+03  0.19945910444E+03  0.19961968479E+03  0.35037031429E+03  0.17120000000E+03 0.  0.
        998    1    1    2    0    0  0.23985151907E+01 -0.41081668530E+01  0.26382265021E+02  0.26807719386E+02  0.10000000000E-02 0. -1.
</event>
<event>
 5    1  0.7026671E-009  0.3883009E+03  0.7957747E-01  0.3415792E+00
         13   -1    0    0    0    0  0.00000000000E+00  0.00000000000E+00  0.14999999963E+04  0.15000000000E+04  0.10566000000E+00 0. -1.
        994   -1    0    0    0    0 -0.00000000000E+00 -0.00000000000E+00  0.11368683772E-12  0.17120000000E+03  0.17120000000E+03 0.  0.
         13    1    1    2    0    0 -0.50785043823E+02 -0.21001927029E+03  0.94786357015E+03  0.97217929074E+03  0.10566000000E+00 0. -1.
        994    1    1    2    0    0  0.64128714684E+02  0.26580928138E+03  0.30034008784E+03  0.44077281504E+03  0.17120000000E+03 0.  0.
        998    1    1    2    0    0 -0.13343670861E+02 -0.55790011098E+02  0.25179633829E+03  0.25824789421E+03  0.10000000000E-02 0. -1.
</event>
<event>
 5    1  0.7026671E-009  0.3883010E+03  0.7957747E-01  0.3415792E+00
         13   -1    0    0    0    0  0.00000000000E+00  0.00000000000E+00  0.14999999963E+04  0.15000000000E+04  0.10566000000E+00 0. -1.
        994   -1    0    0    0    0 -0.00000000000E+00 -0.00000000000E+00  0.11368683772E-12  0.17120000000E+03  0.17120000000E+03 0.  0.
         13    1    1    2    0    0 -0.15551168684E+02 -0.22525557445E+03  0.13066616993E+04  0.13260266665E+04  0.10566000000E+00 0. -1.
        994    1    1    2    0    0  0.15592577551E+02  0.22590613477E+03  0.18958277151E+03  0.34136165200E+03  0.17120000000E+03 0.  0.
        998    1    1    2    0    0 -0.41408866633E-01 -0.65056031917E+00  0.37555254202E+01  0.38116814669E+01  0.10000000000E-02 0. -1.
</event>
<event>
 5    1  0.7026671E-009  0.3883010E+03  0.7957747E-01  0.3415792E+00
         13   -1    0    0    0    0  0.00000000000E+00  0.00000000000E+00  0.14999999963E+04  0.15000000000E+04  0.10566000000E+00 0. -1.
        994   -1    0    0    0    0 -0.00000000000E+00 -0.00000000000E+00  0.11368683772E-12  0.17120000000E+03  0.17120000000E+03 0.  0.
         13    1    1    2    0    0 -0.22564322720E+03  0.13450047823E+03  0.12052074863E+04  0.12335032796E+04  0.10566000000E+00 0. -1.
        994    1    1    2    0    0  0.22847075417E+03 -0.13619101857E+03  0.27967861325E+03  0.42222795473E+03  0.17120000000E+03 0.  0.
        998    1    1    2    0    0 -0.28275269665E+01  0.16905403441E+01  0.15113896717E+02  0.15468765638E+02  0.10000000000E-02 0. -1.
</event>
<event>
 5    1  0.7026671E-009  0.3883010E+03  0.7957747E-01  0.3415792E+00
         13   -1    0    0    0    0  0.00000000000E+00  0.00000000000E+00  0.14999999963E+04  0.15000000000E+04  0.10566000000E+00 0.  1.
        994   -1    0    0    0    0 -0.00000000000E+00 -0.00000000000E+00  0.11368683772E-12  0.17120000000E+03  0.17120000000E+03 0.  0.
         13    1    1    2    0    0 -0.17642028476E+03 -0.15555140390E+03  0.12502951969E+04  0.12722257845E+04  0.10566000000E+00 0.  1.
        994    1    1    2    0    0  0.18071196418E+03  0.15934102896E+03  0.21929475037E+03  0.36802989695E+03  0.17120000000E+03 0.  0.
        998    1    1    2    0    0 -0.42916794175E+01 -0.37896250668E+01  0.30410048961E+02  0.30944318529E+02  0.10000000000E-02 0.  1.
</event>
<event>
 5    1  0.7026671E-009  0.3883010E+03  0.7957747E-01  0.3415792E+00
         13   -1    0    0    0    0  0.00000000000E+00  0.00000000000E+00  0.14999999963E+04  0.15000000000E+04  0.10566000000E+00 0.  1.
        994   -1    0    0    0    0 -0.00000000000E+00 -0.00000000000E+00  0.11368683772E-12  0.17120000000E+03  0.17120000000E+03 0.  0.
         13    1    1    2    0    0  0.59842597501E+02 -0.25426983456E+03  0.12272740308E+04  0.12547652542E+04  0.10566000000E+00 0.  1.
        994    1    1    2    0    0 -0.60017187014E+02  0.25501414957E+03  0.26914921935E+03  0.41277720564E+03  0.17120000000E+03 0.  0.
        998    1    1    2    0    0  0.17458951250E+00 -0.74431501046E+00  0.35767461455E+01  0.36575402010E+01  0.10000000000E-02 0. -1.
</event>
<event>
 5    1  0.7026671E-009  0.3883010E+03  0.7957747E-01  0.3415792E+00
         13   -1    0    0    0    0  0.00000000000E+00  0.00000000000E+00  0.14999999963E+04  0.15000000000E+04  0.10566000000E+00 0.  1.
        994   -1    0    0    0    0 -0.00000000000E+00 -0.00000000000E+00  0.11368683772E-12  0.17120000000E+03  0.17120000000E+03 0.  0.
         13    1    1    2    0    0 -0.79497639388E+01 -0.22473541209E+03  0.13013570163E+04  0.13206435171E+04  0.10566000000E+00 0.  1.
        994    1    1    2    0    0  0.80058412137E+01  0.22630518563E+03  0.18958884965E+03  0.34136710803E+03  0.17120000000E+03 0.  0.
        998    1    1    2    0    0 -0.56077274894E-01 -0.15697735360E+01  0.90541303473E+01  0.91893748950E+01  0.10000000000E-02 0. -1.
</event>
<event>
 5    1  0.7026671E-009  0.3882951E+03  0.7957747E-01  0.3415817E+00
         13   -1    0    0    0    0  0.00000000000E+00  0.00000000000E+00  0.14999999963E+04  0.15000000000E+04  0.10566000000E+00 0. -1.
        994   -1    0    0    0    0 -0.00000000000E+00 -0.00000000000E+00  0.11368683772E-12  0.17120000000E+03  0.17120000000E+03 0.  0.
         13    1    1    2    0    0 -0.18854885142E+03  0.15319559473E+03  0.12757588103E+04  0.12986839926E+04  0.10566000000E+00 0. -1.
        994    1    1    2    0    0  0.18855962681E+03 -0.15324700438E+03  0.22379280739E+03  0.37206456140E+03  0.17120000000E+03 0.  0.
        998    1    1    2    0    0 -0.10775385595E-01  0.51409644989E-01  0.44837863287E+00  0.45144596459E+00  0.10000000000E-02 0. -1.
</event>
<event>
 5    1  0.7026671E-009  0.3883001E+03  0.7957747E-01  0.3415795E+00
         13   -1    0    0    0    0  0.00000000000E+00  0.00000000000E+00  0.14999999963E+04  0.15000000000E+04  0.10566000000E+00 0.  1.
        994   -1    0    0    0    0 -0.00000000000E+00 -0.00000000000E+00  0.11368683772E-12  0.17120000000E+03  0.17120000000E+03 0.  0.
         13    1    1    2    0    0 -0.42684096999E+02 -0.22619517887E+03  0.12909087403E+04  0.13112709781E+04  0.10566000000E+00 0.  1.
        994    1    1    2    0    0  0.42918674041E+02  0.22781982126E+03  0.20023907434E+03  0.35092593297E+03  0.17120000000E+03 0.  0.
        998    1    1    2    0    0 -0.23457704223E+00 -0.16246423969E+01  0.88521816521E+01  0.90030889315E+01  0.10000000000E-02 0. -1.
</event>
<event>
 5    1  0.7026671E-009  0.3882995E+03  0.7957747E-01  0.3415798E+00
         13   -1    0    0    0    0  0.00000000000E+00  0.00000000000E+00  0.14999999963E+04  0.15000000000E+04  0.10566000000E+00 0.  1.
        994   -1    0    0    0    0 -0.00000000000E+00 -0.00000000000E+00  0.11368683772E-12  0.17120000000E+03  0.17120000000E+03 0.  0.
         13    1    1    2    0    0  0.10219217952E+03 -0.25763337054E+03  0.11876786639E+04  0.12195896093E+04  0.10566000000E+00 0.  1.
        994    1    1    2    0    0 -0.10225614336E+03  0.25779174444E+03  0.31173638520E+03  0.45100101575E+03  0.17120000000E+03 0.  0.
        998    1    1    2    0    0  0.63963843105E-01 -0.15837389737E+00  0.58494715595E+00  0.60937495833E+00  0.10000000000E-02 0.  1.
</event>
<event>
 5    1  0.9813158E-009  0.3883009E+03  0.7957747E-01  0.3415792E+00
         13   -1    0    0    0    0  0.00000000000E+00  0.00000000000E+00  0.14999999963E+04  0.15000000000E+04  0.10566000000E+00 0. -1.
        994   -1    0    0    0    0 -0.00000000000E+00 -0.00000000000E+00  0.11368683772E-12  0.17120000000E+03  0.17120000000E+03 0.  0.
         13    1    1    2    0    0 -0.30136542896E+03  0.16576646340E+02  0.11047233993E+04  0.11452116429E+04  0.10566000000E+00 0. -1.
        994    1    1    2    0    0  0.30137451162E+03 -0.16577566431E+02  0.39524648826E+03  0.52595687889E+03  0.17120000000E+03 0.  0.
        998    1    1    2    0    0 -0.90826634520E-02  0.92009074634E-03  0.30108696812E-01  0.31478166498E-01  0.10000000000E-02 0.  0.
</event>
<event>
 5    1  0.7026671E-009  0.3882125E+03  0.7957747E-01  0.3416161E+00
         13   -1    0    0    0    0  0.00000000000E+00  0.00000000000E+00  0.14999999963E+04  0.15000000000E+04  0.10566000000E+00 0. -1.
        994   -1    0    0    0    0 -0.00000000000E+00 -0.00000000000E+00  0.11368683772E-12  0.17120000000E+03  0.17120000000E+03 0.  0.
         13    1    1    2    0    0 -0.25043224753E+02 -0.22106860459E+03  0.12537798390E+04  0.12733665564E+04  0.10566000000E+00 0. -1.
        994    1    1    2    0    0  0.25292219551E+02  0.22786295754E+03  0.19522322850E+03  0.34638529520E+03  0.17120000000E+03 0.  0.
        998    1    1    2    0    0 -0.24899479850E+00 -0.67943529424E+01  0.50996928747E+02  0.51448148392E+02  0.10000000000E-02 0.  1.
</event>
<event>
 5    1  0.7026671E-009  0.3882388E+03  0.7957747E-01  0.3416051E+00
         13   -1    0    0    0    0  0.00000000000E+00  0.00000000000E+00  0.14999999963E+04  0.15000000000E+04  0.10566000000E+00 0. -1.
        994   -1    0    0    0    0 -0.00000000000E+00 -0.00000000000E+00  0.11368683772E-12  0.17120000000E+03  0.17120000000E+03 0.  0.
         13    1    1    2    0    0 -0.19352670578E+03 -0.11716790439E+03  0.12991195473E+04  0.13186707371E+04  0.10566000000E+00 0. -1.
        994    1    1    2    0    0  0.19431511764E+03  0.11757377490E+03  0.19097138249E+03  0.34258059842E+03  0.17120000000E+03 0.  0.
        998    1    1    2    0    0 -0.78841185705E+00 -0.40587051548E+00  0.99090665323E+01  0.99486644668E+01  0.10000000000E-02 0.  1.
</event>
<event>
 5    1  0.7026671E-009  0.3883010E+03  0.7957747E-01  0.3415792E+00
         13   -1    0    0    0    0  0.00000000000E+00  0.00000000000E+00  0.14999999963E+04  0.15000000000E+04  0.10566000000E+00 0.  1.
        994   -1    0    0    0    0 -0.00000000000E+00 -0.00000000000E+00  0.11368683772E-12  0.17120000000E+03  0.17120000000E+03 0.  0.
         13    1    1    2    0    0 -0.88878956849E+02  0.24056238402E+03  0.12429081235E+04  0.12690903609E+04  0.10566000000E+00 0.  1.
        994    1    1    2    0    0  0.88973096305E+02 -0.24080123009E+03  0.25583608342E+03  0.40082787560E+03  0.17120000000E+03 0.  0.
        998    1    1    2    0    0 -0.94139456760E-01  0.23884607383E+00  0.12557893551E+01  0.12817634683E+01  0.10000000000E-02 0. -1.
</event>
<event>
 5    1  0.7026671E-009  0.3883009E+03  0.7957747E-01  0.3415792E+00
         13   -1    0    0    0    0  0.00000000000E+00  0.00000000000E+00  0.14999999963E+04  0.15000000000E+04  0.10566000000E+00 0.  1.
        994   -1    0    0    0    0 -0.00000000000E+00 -0.00000000000E+00  0.11368683772E-12  0.17120000000E+03  0.17120000000E+03 0.  0.
         13    1    1    2    0    0 -0.21935384102E+03  0.45997146635E+01  0.12729478014E+04  0.12917172218E+04  0.10566000000E+00 0.  1.
        994    1    1    2    0    0  0.22592459092E+03 -0.47365676094E+01  0.18867452394E+03  0.34054643125E+03  0.17120000000E+03 0.  0.
        998    1    1    2    0    0 -0.65707499005E+01  0.13685294582E+00  0.38377670927E+02  0.38936346898E+02  0.10000000000E-02 0. -1.
</event>
<event>
 5    1  0.7026671E-009  0.3883007E+03  0.7957747E-01  0.3415793E+00
         13   -1    0    0    0    0  0.00000000000E+00  0.00000000000E+00  0.14999999963E+04  0.15000000000E+04  0.10566000000E+00 0.  1.
        994   -1    0    0    0    0 -0.00000000000E+00 -0.00000000000E+00  0.11368683772E-12  0.17120000000E+03  0.17120000000E+03 0.  0.
         13    1    1    2    0    0 -0.19020556868E+03 -0.17933324699E+03  0.12228551095E+04  0.12504851865E+04  0.10566000000E+00 0.  1.
        994    1    1    2    0    0  0.19115237639E+03  0.18025903512E+03  0.27111835649E+03  0.41454451386E+03  0.17120000000E+03 0.  0.
        998    1    1    2    0    0 -0.94680771140E+00 -0.92578813543E+00  0.60265303362E+01  0.61702996205E+01  0.10000000000E-02 0. -1.
</event>
<event>
 5    1  0.7026671E-009  0.3882957E+03  0.7957747E-01  0.3415814E+00
         13   -1    0    0    0    0  0.00000000000E+00  0.00000000000E+00  0.14999999963E+04  0.15000000000E+04  0.10566000000E+00 0. -1.
        994   -1    0    0    0    0 -0.00000000000E+00 -0.00000000000E+00  0.11368683772E-12  0.17120000000E+03  0.17120000000E+03 0.  0.
         13    1    1    2    0    0 -0.16100194911E+03  0.11494979144E+03  0.10668397117E+04  0.10850262963E+04  0.10566000000E+00 0. -1.
        994    1    1    2    0    0  0.19509543956E+03 -0.13849570383E+03  0.21569736814E+03  0.36479869125E+03  0.17120000000E+03 0.  0.
        998    1    1    2    0    0 -0.34093490450E+02  0.23545912384E+02  0.21746291647E+03  0.22137501242E+03  0.10000000000E-02 0.  1.
</event>
<event>
 5    1  0.7026671E-009  0.3882983E+03  0.7957747E-01  0.3415803E+00
         13   -1    0    0    0    0  0.00000000000E+00  0.00000000000E+00  0.14999999963E+04  0.15000000000E+04  0.10566000000E+00 0. -1.
        994   -1    0    0    0    0 -0.00000000000E+00 -0.00000000000E+00  0.11368683772E-12  0.17120000000E+03  0.17120000000E+03 0.  0.
         13    1    1    2    0    0 -0.17518967803E+03  0.20497104341E+03  0.12097748947E+04  0.12394595027E+04  0.10566000000E+00 0. -1.
        994    1    1    2    0    0  0.17522577363E+03 -0.20501554394E+03  0.28979735462E+03  0.43130892843E+03  0.17120000000E+03 0.  0.
        998    1    1    2    0    0 -0.36095595382E-01  0.44500539290E-01  0.42774698634E+00  0.43156885235E+00  0.10000000000E-02 0. -1.
</event>
<event>
 5    1  0.7026671E-009  0.3883009E+03  0.7957747E-01  0.3415792E+00
         13   -1    0    0    0    0  0.00000000000E+00  0.00000000000E+00  0.14999999963E+04  0.15000000000E+04  0.10566000000E+00 0.  1.
        994   -1    0    0    0    0 -0.00000000000E+00 -0.00000000000E+00  0.11368683772E-12  0.17120000000E+03  0.17120000000E+03 0.  0.
         13    1    1    2    0    0  0.18727840382E+03 -0.17241986119E+03  0.12467661552E+04  0.12724887685E+04  0.10566000000E+00 0.  1.
        994    1    1    2    0    0 -0.18754862991E+03  0.17267300522E+03  0.25147126465E+03  0.39691018160E+03  0.17120000000E+03 0.  0.
        998    1    1    2    0    0  0.27022609196E+00 -0.25314402346E+00  0.17625764751E+01  0.18010499349E+01  0.10000000000E-02 0.  1.
</event>
<event>
 5    1  0.7026671E-009  0.3882943E+03  0.7957747E-01  0.3415820E+00
         13   -1    0    0    0    0  0.00000000000E+00  0.00000000000E+00  0.14999999963E+04  0.15000000000E+04  0.10566000000E+00 0. -1.
        994   -1    0    0    0    0 -0.00000000000E+00 -0.00000000000E+00  0.11368683772E-12  0.17120000000E+03  0.17120000000E+03 0.  0.
         13    1    1    2    0    0  0.78212991291E+02 -0.20500071459E+03  0.13169759998E+04  0.13351285932E+04  0.10566000000E+00 0. -1.
        994    1    1    2    0    0 -0.78706780092E+02  0.20576368203E+03  0.17796101346E+03  0.33092750322E+03  0.17120000000E+03 0.  0.
        998    1    1    2    0    0  0.49378880074E+00 -0.76296744601E+00  0.50629829738E+01  0.51439036049E+01  0.10000000000E-02 0.  1.
</event>
<event>
 5    1  0.7026671E-009  0.3883000E+03  0.7957747E-01  0.3415796E+00
         13   -1    0    0    0    0  0.00000000000E+00  0.00000000000E+00  0.14999999963E+04  0.15000000000E+04  0.10566000000E+00 0.  1.
        994   -1    0    0    0    0 -0.00000000000E+00 -0.00000000000E+00  0.11368683772E-12  0.17120000000E+03  0.17120000000E+03 0.  0.
         13    1    1    2    0    0  0.24462659414E+03 -0.14143675109E+02  0.12714872370E+04  0.12948830137E+04  0.10566000000E+00 0.  1.
        994    1    1    2    0    0 -0.24464228689E+03  0.14136578049E+02  0.22838977329E+03  0.37619279620E+03  0.17120000000E+03 0.  0.
        998    1    1    2    0    0  0.15692743311E-01  0.70970596594E-02  0.12298595878E+00  0.12419008216E+00  0.10000000000E-02 0. -1.
</event>
<event>
 5    1  0.7026671E-009  0.3838617E+03  0.7957747E-01  0.3434514E+00
         13   -1    0    0    0    0  0.00000000000E+00  0.00000000000E+00  0.14999999963E+04  0.15000000000E+04  0.10566000000E+00 0.  1.
        994   -1    0    0    0    0 -0.00000000000E+00 -0.00000000000E+00  0.11368683772E-12  0.17120000000E+03  0.17120000000E+03 0.  0.
         13    1    1    2    0    0 -0.31536179164E+02 -0.32668521685E+02  0.24717620598E+03  0.25131225770E+03  0.10566000000E+00 0.  1.
        994    1    1    2    0    0  0.58069557461E+01  0.16036021369E+03  0.92411204871E+02  0.25218721152E+03  0.17120000000E+03 0.  0.
        998    1    1    2    0    0  0.25729223418E+02 -0.12769169201E+03  0.11604125854E+04  0.11677005308E+04  0.10000000000E-02 0.  1.
</event>
<event>
 5    1  0.7026671E-009  0.3882990E+03  0.7957747E-01  0.3415800E+00
         13   -1    0    0    0    0  0.00000000000E+00  0.00000000000E+00  0.14999999963E+04  0.15000000000E+04  0.10566000000E+00 0. -1.
        994   -1    0    0    0    0 -0.00000000000E+00 -0.00000000000E+00  0.11368683772E-12  0.17120000000E+03  0.17120000000E+03 0.  0.
         13    1    1    2    0    0 -0.23959312411E+03 -0.52164417722E+01  0.12833888471E+04  0.13055722961E+04  0.10566000000E+00 0. -1.
        994    1    1    2    0    0  0.23960296761E+03  0.52057582302E+01  0.21655861215E+03  0.36557318625E+03  0.17120000000E+03 0.  0.
        998    1    1    2    0    0 -0.98434976952E-02  0.10683541996E-01  0.52537028469E-01  0.54517629046E-01  0.10000000000E-02 0.  1.
</event>
<event>
 5    1  0.7026671E-009  0.3883010E+03  0.7957747E-01  0.3415792E+00
         13   -1    0    0    0    0  0.00000000000E+00  0.00000000000E+00  0.14999999963E+04  0.15000000000E+04  0.10566000000E+00 0.  1.
        994   -1    0    0    0    0 -0.00000000000E+00 -0.00000000000E+00  0.11368683772E-12  0.17120000000E+03  0.17120000000E+03 0.  0.
         13    1    1    2    0    0 -0.24658390303E+03  0.13109358301E+03  0.11183730355E+04  0.11527130633E+04  0.10566000000E+00 0.  1.
        994    1    1    2    0    0  0.25445945672E+03 -0.13527939214E+03  0.34592715605E+03  0.48168990684E+03  0.17120000000E+03 0.  0.
        998    1    1    2    0    0 -0.78755536952E+01  0.41858091252E+01  0.35699804771E+02  0.36797029849E+02  0.10000000000E-02 0.  1.
</event>
<event>
 5    1  0.7026671E-009  0.3883009E+03  0.7957747E-01  0.3415792E+00
         13   -1    0    0    0    0  0.00000000000E+00  0.00000000000E+00  0.14999999963E+04  0.15000000000E+04  0.10566000000E+00 0.  1.
        994   -1    0    0    0    0 -0.00000000000E+00 -0.00000000000E+00  0.11368683772E-12  0.17120000000E+03  0.17120000000E+03 0.  0.
         13    1    1    2    0    0  0.16083045433E+03 -0.25881074331E+03  0.10730116808E+04  0.11154387093E+04  0.10566000000E+00 0.  1.
        994    1    1    2    0    0 -0.16221709271E+03  0.26103131508E+03  0.41768679008E+03  0.54609836772E+03  0.17120000000E+03 0.  0.
        998    1    1    2    0    0  0.13866383764E+01 -0.22205717632E+01  0.93015254060E+01  0.96629229957E+01  0.10000000000E-02 0. -1.
</event>
<event>
 5    1  0.7026671E-009  0.3882996E+03  0.7957747E-01  0.3415798E+00
         13   -1    0    0    0    0  0.00000000000E+00  0.00000000000E+00  0.14999999963E+04  0.15000000000E+04  0.10566000000E+00 0.  1.
        994   -1    0    0    0    0 -0.00000000000E+00 -0.00000000000E+00  0.11368683772E-12  0.17120000000E+03  0.17120000000E+03 0.  0.
         13    1    1    2    0    0  0.25614988164E+03 -0.19429102791E+02  0.12436552851E+04  0.12699089461E+04  0.10566000000E+00 0.  1.
        994    1    1    2    0    0 -0.25615818616E+03  0.19438865158E+02  0.25628807987E+03  0.40123298182E+03  0.17120000000E+03 0.  0.
        998    1    1    2    0    0  0.83045227010E-02 -0.97623665617E-02  0.56631263504E-01  0.58072100911E-01  0.10000000000E-02 0.  1.
</event>
<event>
 5    1  0.7026671E-009  0.3883010E+03  0.7957747E-01  0.3415792E+00
         13   -1    0    0    0    0  0.00000000000E+00  0.00000000000E+00  0.14999999963E+04  0.15000000000E+04  0.10566000000E+00 0. -1.
        994   -1    0    0    0    0 -0.00000000000E+00 -0.00000000000E+00  0.11368683772E-12  0.17120000000E+03  0.17120000000E+03 0.  0.
         13    1    1    2    0    0 -0.22856432117E+03  0.12123317292E+03  0.12380677145E+04  0.12648125585E+04  0.10566000000E+00 0. -1.
        994    1    1    2    0    0  0.22869735530E+03 -0.12129900257E+03  0.26122491868E+03  0.40566467246E+03  0.17120000000E+03 0.  0.
        998    1    1    2    0    0 -0.13303412848E+00  0.65829652476E-01  0.70736306779E+00  0.72276907250E+00  0.10000000000E-02 0. -1.
</event>
<event>
 5    1  0.7026671E-009  0.3882914E+03  0.7957747E-01  0.3415832E+00
         13   -1    0    0    0    0  0.00000000000E+00  0.00000000000E+00  0.14999999963E+04  0.15000000000E+04  0.10566000000E+00 0. -1.
        994   -1    0    0    0    0 -0.00000000000E+00 -0.00000000000E+00  0.11368683772E-12  0.17120000000E+03  0.17120000000E+03 0.  0.
         13    1    1    2    0    0  0.24883096015E+03  0.85237848981E+02  0.11145668666E+04  0.11451819283E+04  0.10566000000E+00 0. -1.
        994    1    1    2    0    0 -0.26350078382E+03 -0.91030435175E+02  0.31610563303E+03  0.45491912955E+03  0.17120000000E+03 0.  0.
        998    1    1    2    0    0  0.14669823668E+02  0.57925861936E+01  0.69327496663E+02  0.71098942157E+02  0.10000000000E-02 0. -1.
</event>
<event>
 5    1  0.7026671E-009  0.3883010E+03  0.7957747E-01  0.3415792E+00
         13   -1    0    0    0    0  0.00000000000E+00  0.00000000000E+00  0.14999999963E+04  0.15000000000E+04  0.10566000000E+00 0. -1.
        994   -1    0    0    0    0 -0.00000000000E+00 -0.00000000000E+00  0.11368683772E-12  0.17120000000E+03  0.17120000000E+03 0.  0.
         13    1    1    2    0    0  0.34559985183E+03 -0.17065967507E+02  0.76572002612E+03  0.84027238108E+03  0.10566000000E+00 0. -1.
        994    1    1    2    0    0 -0.34711058554E+03  0.17131272236E+02  0.73095618586E+03  0.82727602693E+03  0.17120000000E+03 0.  0.
        998    1    1    2    0    0  0.15107337117E+01 -0.65304728657E-01  0.33237842966E+01  0.36515919960E+01  0.10000000000E-02 0.  1.
</event>
<event>
 5    1  0.7026671E-009  0.3883005E+03  0.7957747E-01  0.3415794E+00
         13   -1    0    0    0    0  0.00000000000E+00  0.00000000000E+00  0.14999999963E+04  0.15000000000E+04  0.10566000000E+00 0.  1.
        994   -1    0    0    0    0 -0.00000000000E+00 -0.00000000000E+00  0.11368683772E-12  0.17120000000E+03  0.17120000000E+03 0.  0.
         13    1    1    2    0    0 -0.20012407722E+03 -0.14044114965E+03  0.12493216336E+04  0.12730192136E+04  0.10566000000E+00 0.  1.
        994    1    1    2    0    0  0.20271240965E+03  0.14236015813E+03  0.23441145409E+03  0.38159783209E+03  0.17120000000E+03 0.  0.
        998    1    1    2    0    0 -0.25883324254E+01 -0.19190084792E+01  0.16266908587E+02  0.16582954329E+02  0.10000000000E-02 0.  1.
</event>
<event>
 5    1  0.7026671E-009  0.3882987E+03  0.7957747E-01  0.3415801E+00
         13   -1    0    0    0    0  0.00000000000E+00  0.00000000000E+00  0.14999999963E+04  0.15000000000E+04  0.10566000000E+00 0. -1.
        994   -1    0    0    0    0 -0.00000000000E+00 -0.00000000000E+00  0.11368683772E-12  0.17120000000E+03  0.17120000000E+03 0.  0.
         13    1    1    2    0    0  0.68814278439E+02 -0.75468205859E+01  0.38813062831E+03  0.39425595140E+03  0.10566000000E+00 0. -1.
        994    1    1    2    0    0 -0.23050659275E+03  0.28037617796E+02  0.20100631938E+03  0.35161396125E+03  0.17120000000E+03 0.  0.
        998    1    1    2    0    0  0.16169231431E+03 -0.20490797210E+02  0.91086304859E+03  0.92533008736E+03  0.10000000000E-02 0. -1.
</event>
<event>
 5    1  0.7026671E-009  0.3883010E+03  0.7957747E-01  0.3415792E+00
         13   -1    0    0    0    0  0.00000000000E+00  0.00000000000E+00  0.14999999963E+04  0.15000000000E+04  0.10566000000E+00 0.  1.
        994   -1    0    0    0    0 -0.00000000000E+00 -0.00000000000E+00  0.11368683772E-12  0.17120000000E+03  0.17120000000E+03 0.  0.
         13    1    1    2    0    0 -0.18895056015E+03 -0.16823910697E+03  0.12464475246E+04  0.12718640470E+04  0.10566000000E+00 0.  1.
        994    1    1    2    0    0  0.18963311215E+03  0.16885851178E+03  0.24901189783E+03  0.39470277359E+03  0.17120000000E+03 0.  0.
        998    1    1    2    0    0 -0.68255200311E+00 -0.61940480388E+00  0.45405738557E+01  0.46331794145E+01  0.10000000000E-02 0.  1.
</event>
<event>
 5    1  0.9835164E-009  0.3883001E+03  0.7957747E-01  0.3415796E+00
         13   -1    0    0    0    0  0.00000000000E+00  0.00000000000E+00  0.14999999963E+04  0.15000000000E+04  0.10566000000E+00 0. -1.
        994   -1    0    0    0    0 -0.00000000000E+00 -0.00000000000E+00  0.11368683772E-12  0.17120000000E+03  0.17120000000E+03 0.  0.
         13    1    1    2    0    0  0.20141696930E+03 -0.18897812311E+03  0.11915966675E+04  0.12231860675E+04  0.10566000000E+00 0. -1.
        994    1    1    2    0    0 -0.20141693835E+03  0.18898379227E+03  0.30836616611E+03  0.44797632660E+03  0.17120000000E+03 0.  0.
        998    1    1    2    0    0 -0.30957854535E-04 -0.56691602382E-02  0.37162660417E-01  0.37605899344E-01  0.10000000000E-02 0. -1.
</event>
<event>
 5    1  0.7026671E-009  0.3883005E+03  0.7957747E-01  0.3415794E+00
         13   -1    0    0    0    0  0.00000000000E+00  0.00000000000E+00  0.14999999963E+04  0.15000000000E+04  0.10566000000E+00 0.  1.
        994   -1    0    0    0    0 -0.00000000000E+00 -0.00000000000E+00  0.11368683772E-12  0.17120000000E+03  0.17120000000E+03 0.  0.
         13    1    1    2    0    0 -0.12801699873E+02 -0.25633799095E+03  0.12388934593E+04  0.12651996142E+04  0.10566000000E+00 0.  1.
        994    1    1    2    0    0  0.12821185358E+02  0.25704990998E+03  0.25746344811E+03  0.40228833705E+03  0.17120000000E+03 0.  0.
        998    1    1    2    0    0 -0.19485485778E-01 -0.71191902943E+00  0.36430888872E+01  0.37120487643E+01  0.10000000000E-02 0.  1.
</event>
<event>
 5    1  0.7026671E-009  0.3882966E+03  0.7957747E-01  0.3415810E+00
         13   -1    0    0    0    0  0.00000000000E+00  0.00000000000E+00  0.14999999963E+04  0.15000000000E+04  0.10566000000E+00 0. -1.
        994   -1    0    0    0    0 -0.00000000000E+00 -0.00000000000E+00  0.11368683772E-12  0.17120000000E+03  0.17120000000E+03 0.  0.
         13    1    1    2    0    0 -0.27387371864E+03 -0.18652132934E+03  0.92521550572E+03  0.98276180393E+03  0.10566000000E+00 0. -1.
        994    1    1    2    0    0  0.27638583578E+03  0.18795470017E+03  0.56653686473E+03  0.67969813788E+03  0.17120000000E+03 0.  0.
        998    1    1    2    0    0 -0.25121171428E+01 -0.14333708290E+01  0.82476258284E+01  0.87400581964E+01  0.10000000000E-02 0. -1.
</event>
<event>
 5    1  0.7026671E-009  0.3882923E+03  0.7957747E-01  0.3415828E+00
         13   -1    0    0    0    0  0.00000000000E+00  0.00000000000E+00  0.14999999963E+04  0.15000000000E+04  0.10566000000E+00 0.  1.
        994   -1    0    0    0    0 -0.00000000000E+00 -0.00000000000E+00  0.11368683772E-12  0.17120000000E+03  0.17120000000E+03 0.  0.
         13    1    1    2    0    0 -0.19656554444E+03 -0.91762615566E+02  0.12591138946E+04  0.12776643540E+04  0.10566000000E+00 0.  1.
        994    1    1    2    0    0  0.20415191110E+03  0.95883092888E+02  0.18786213029E+03  0.33981346399E+03  0.17120000000E+03 0.  0.
        998    1    1    2    0    0 -0.75863666584E+01 -0.41204773214E+01  0.53023971427E+02  0.53722182004E+02  0.10000000000E-02 0.  1.
</event>
<event>
 5    1  0.7026671E-009  0.3883009E+03  0.7957747E-01  0.3415792E+00
         13   -1    0    0    0    0  0.00000000000E+00  0.00000000000E+00  0.14999999963E+04  0.15000000000E+04  0.10566000000E+00 0.  1.
        994   -1    0    0    0    0 -0.00000000000E+00 -0.00000000000E+00  0.11368683772E-12  0.17120000000E+03  0.17120000000E+03 0.  0.
         13    1    1    2    0    0  0.10189783107E+02 -0.21476632547E+03  0.58325036859E+03  0.62161837960E+03  0.10566000000E+00 0.  1.
        994    1    1    2    0    0 -0.15980041212E+02  0.33639152105E+03  0.58694510441E+03  0.69801763068E+03  0.17120000000E+03 0.  0.
        998    1    1    2    0    0  0.57902581045E+01 -0.12162519558E+03  0.32980452329E+03  0.35156398973E+03  0.10000000000E-02 0.  1.
</event>
<event>
 5    1  0.7026671E-009  0.3882923E+03  0.7957747E-01  0.3415828E+00
         13   -1    0    0    0    0  0.00000000000E+00  0.00000000000E+00  0.14999999963E+04  0.15000000000E+04  0.10566000000E+00 0. -1.
        994   -1    0    0    0    0 -0.00000000000E+00 -0.00000000000E+00  0.11368683772E-12  0.17120000000E+03  0.17120000000E+03 0.  0.
         13    1    1    2    0    0 -0.17149610628E+03  0.14084902146E+03  0.11918468551E+04  0.12123317609E+04  0.10566000000E+00 0. -1.
        994    1    1    2    0    0  0.18470683774E+03 -0.15267616773E+03  0.21652323970E+03  0.36553848147E+03  0.17120000000E+03 0.  0.
        998    1    1    2    0    0 -0.13210731452E+02  0.11827146277E+02  0.91629901446E+02  0.93329757604E+02  0.10000000000E-02 0.  1.
</event>
<event>
 5    1  0.7026671E-009  0.3882899E+03  0.7957747E-01  0.3415838E+00
         13   -1    0    0    0    0  0.00000000000E+00  0.00000000000E+00  0.14999999963E+04  0.15000000000E+04  0.10566000000E+00 0.  1.
        994   -1    0    0    0    0 -0.00000000000E+00 -0.00000000000E+00  0.11368683772E-12  0.17120000000E+03  0.17120000000E+03 0.  0.
         13    1    1    2    0    0  0.21697850820E+03  0.12810847986E+03  0.12534043577E+04  0.12784811108E+04  0.10566000000E+00 0.  1.
        994    1    1    2    0    0 -0.21730484284E+03 -0.12832337462E+03  0.24531071259E+03  0.39137586653E+03  0.17120000000E+03 0.  0.
        998    1    1    2    0    0  0.32633463853E+00  0.21489475651E+00  0.12849259938E+01  0.13430226589E+01  0.10000000000E-02 0. -1.
</event>
<event>
 5    1  0.7026671E-009  0.3883010E+03  0.7957747E-01  0.3415792E+00
         13   -1    0    0    0    0  0.00000000000E+00  0.00000000000E+00  0.14999999963E+04  0.15000000000E+04  0.10566000000E+00 0. -1.
        994   -1    0    0    0    0 -0.00000000000E+00 -0.00000000000E+00  0.11368683772E-12  0.17120000000E+03  0.17120000000E+03 0.  0.
         13    1    1    2    0    0 -0.22466351113E+03  0.18235659409E+02  0.12112007855E+04  0.12319957738E+04  0.10566000000E+00 0. -1.
        994    1    1    2    0    0  0.23830764597E+03 -0.19318674202E+02  0.21533388011E+03  0.36447477996E+03  0.17120000000E+03 0.  0.
        998    1    1    2    0    0 -0.13644134840E+02  0.10830147927E+01  0.73465330623E+02  0.74729446279E+02  0.10000000000E-02 0. -1.
</event>
<event>
 5    1  0.7026671E-009  0.3878130E+03  0.7957747E-01  0.3417829E+00
         13   -1    0    0    0    0  0.00000000000E+00  0.00000000000E+00  0.14999999963E+04  0.15000000000E+04  0.10566000000E+00 0. -1.
        994   -1    0    0    0    0 -0.00000000000E+00 -0.00000000000E+00  0.11368683772E-12  0.17120000000E+03  0.17120000000E+03 0.  0.
         13    1    1    2    0    0 -0.56720930668E+02 -0.13848597922E+03  0.79718351328E+03  0.81110862123E+03  0.10566000000E+00 0. -1.
        994    1    1    2    0    0  0.10526113942E+03  0.20833572352E+03  0.20413903103E+03  0.35421161070E+03  0.17120000000E+03 0.  0.
        998    1    1    2    0    0 -0.48540208749E+02 -0.69849744293E+02  0.49867745197E+03  0.50587976807E+03  0.10000000000E-02 0. -1.
</event>
<event>
 5    1  0.7026671E-009  0.3882995E+03  0.7957747E-01  0.3415798E+00
         13   -1    0    0    0    0  0.00000000000E+00  0.00000000000E+00  0.14999999963E+04  0.15000000000E+04  0.10566000000E+00 0.  1.
        994   -1    0    0    0    0 -0.00000000000E+00 -0.00000000000E+00  0.11368683772E-12  0.17120000000E+03  0.17120000000E+03 0.  0.
         13    1    1    2    0    0 -0.18274656671E+03  0.12327531748E+03  0.13202243699E+04  0.13385012176E+04  0.10566000000E+00 0.  1.
        994    1    1    2    0    0  0.18288507643E+03 -0.12336612726E+03  0.17851209492E+03  0.33142444172E+03  0.17120000000E+03 0.  0.
        998    1    1    2    0    0 -0.13850971707E+00  0.90809780842E-01  0.12635314544E+01  0.12743406508E+01  0.10000000000E-02 0. -1.
</event>
<event>
 5    1  0.7026671E-009  0.3882953E+03  0.7957747E-01  0.3415816E+00
         13   -1    0    0    0    0  0.00000000000E+00  0.00000000000E+00  0.14999999963E+04  0.15000000000E+04  0.10566000000E+00 0.  1.
        994   -1    0    0    0    0 -0.00000000000E+00 -0.00000000000E+00  0.11368683772E-12  0.17120000000E+03  0.17120000000E+03 0.  0.
         13    1    1    2    0    0 -0.12430786540E+03  0.20232910689E+03  0.92972415278E+03  0.95957101057E+03  0.10566000000E+00 0.  1.
        994    1    1    2    0    0  0.15145531282E+03 -0.24901133291E+03  0.35704594652E+03  0.49166716753E+03  0.17120000000E+03 0.  0.
        998    1    1    2    0    0 -0.27147447415E+02  0.46682226027E+02  0.21322989698E+03  0.21996182191E+03  0.10000000000E-02 0. -1.
</event>
<event>
 5    1  0.7026671E-009  0.3883007E+03  0.7957747E-01  0.3415793E+00
         13   -1    0    0    0    0  0.00000000000E+00  0.00000000000E+00  0.14999999963E+04  0.15000000000E+04  0.10566000000E+00 0.  1.
        994   -1    0    0    0    0 -0.00000000000E+00 -0.00000000000E+00  0.11368683772E-12  0.17120000000E+03  0.17120000000E+03 0.  0.
         13    1    1    2    0    0  0.13510683714E+03 -0.25585737269E+03  0.11276798756E+04  0.11642073550E+04  0.10566000000E+00 0.  1.
        994    1    1    2    0    0 -0.13659206473E+03  0.25857982893E+03  0.36046115610E+03  0.49473488368E+03  0.17120000000E+03 0.  0.
        998    1    1    2    0    0  0.14852275837E+01 -0.27224562386E+01  0.11858964617E+02  0.12257761285E+02  0.10000000000E-02 0. -1.
</event>
<event>
 5    1  0.7026671E-009  0.3866994E+03  0.7957747E-01  0.3422497E+00
         13   -1    0    0    0    0  0.00000000000E+00  0.00000000000E+00  0.14999999963E+04  0.15000000000E+04  0.10566000000E+00 0.  1.
        994   -1    0    0    0    0 -0.00000000000E+00 -0.00000000000E+00  0.11368683772E-12  0.17120000000E+03  0.17120000000E+03 0.  0.
         13    1    1    2    0    0  0.16800341420E+03 -0.12569592226E+03  0.11776893124E+04  0.11962344000E+04  0.10566000000E+00 0.  1.
        994    1    1    2    0    0 -0.19107266623E+03  0.14776676701E+03  0.22300553922E+03  0.37065441012E+03  0.17120000000E+03 0.  0.
        998    1    1    2    0    0  0.23069252025E+02 -0.22070844754E+02  0.99305144619E+02  0.10431118984E+03  0.10000000000E-02 0.  1.
</event>
<event>
 5    1  0.7026671E-009  0.3883007E+03  0.7957747E-01  0.3415793E+00
         13   -1    0    0    0    0  0.00000000000E+00  0.00000000000E+00  0.14999999963E+04  0.15000000000E+04  0.10566000000E+00 0.  1.
        994   -1    0    0    0    0 -0.00000000000E+00 -0.00000000000E+00  0.11368683772E-12  0.17120000000E+03  0.17120000000E+03 0.  0.
         13    1    1    2    0    0  0.15455384950E+03 -0.23447791792E+03  0.11536393255E+04  0.11873291418E+04  0.10566000000E+00 0.  1.
        994    1    1    2    0    0 -0.15643583803E+03  0.23722706480E+03  0.33280653786E+03  0.46991327214E+03  0.17120000000E+03 0.  0.
        998    1    1    2    0    0  0.18819885263E+01 -0.27491468767E+01  0.13554132937E+02  0.13957586110E+02  0.10000000000E-02 0.  1.
</event>
<event>
 5    1  0.7026671E-009  0.3879872E+03  0.7957747E-01  0.3417101E+00
         13   -1    0    0    0    0  0.00000000000E+00  0.00000000000E+00  0.14999999963E+04  0.15000000000E+04  0.10566000000E+00 0. -1.
        994   -1    0    0    0    0 -0.00000000000E+00 -0.00000000000E+00  0.11368683772E-12  0.17120000000E+03  0.17120000000E+03 0.  0.
         13    1    1    2    0    0  0.25196638419E+03 -0.10128239795E+03  0.11316869516E+04  0.11638129362E+04  0.10566000000E+00 0. -1.
        994    1    1    2    0    0 -0.26126455524E+03  0.10126408752E+03  0.32110747204E+03  0.45927446244E+03  0.17120000000E+03 0.  0.
        998    1    1    2    0    0  0.92981710494E+01  0.18310437612E-01  0.47205572673E+02  0.48112601390E+02  0.10000000000E-02 0.  1.
</event>
<event>
 5    1  0.7026671E-009  0.3883009E+03  0.7957747E-01  0.3415792E+00
         13   -1    0    0    0    0  0.00000000000E+00  0.00000000000E+00  0.14999999963E+04  0.15000000000E+04  0.10566000000E+00 0. -1.
        994   -1    0    0    0    0 -0.00000000000E+00 -0.00000000000E+00  0.11368683772E-12  0.17120000000E+03  0.17120000000E+03 0.  0.
         13    1    1    2    0    0 -0.63285612864E+02  0.90150613633E+02  0.58794200151E+03  0.59817055280E+03  0.10566000000E+00 0. -1.
        994    1    1    2    0    0  0.13811957919E+03 -0.19672437804E+03  0.21808528196E+03  0.36694431359E+03  0.17120000000E+03 0.  0.
        998    1    1    2    0    0 -0.74833966326E+02  0.10657376441E+03  0.69397271281E+03  0.70608513361E+03  0.10000000000E-02 0.  1.
</event>
<event>
 5    1  0.7026671E-009  0.3883001E+03  0.7957747E-01  0.3415796E+00
         13   -1    0    0    0    0  0.00000000000E+00  0.00000000000E+00  0.14999999963E+04  0.15000000000E+04  0.10566000000E+00 0. -1.
        994   -1    0    0    0    0 -0.00000000000E+00 -0.00000000000E+00  0.11368683772E-12  0.17120000000E+03  0.17120000000E+03 0.  0.
         13    1    1    2    0    0  0.26128382603E+03  0.30077207319E+02  0.10958068151E+04  0.11269278874E+04  0.10566000000E+00 0. -1.
        994    1    1    2    0    0 -0.28019418846E+03 -0.32085769353E+02  0.32605439536E+03  0.46385255047E+03  0.17120000000E+03 0.  0.
        998    1    1    2    0    0  0.18910362426E+02  0.20085620339E+01  0.78138785786E+02  0.80419562133E+02  0.10000000000E-02 0.  1.
</event>
<event>
 5    1  0.7026671E-009  0.3883009E+03  0.7957747E-01  0.3415792E+00
         13   -1    0    0    0    0  0.00000000000E+00  0.00000000000E+00  0.14999999963E+04  0.15000000000E+04  0.10566000000E+00 0.  1.
        994   -1    0    0    0    0 -0.00000000000E+00 -0.00000000000E+00  0.11368683772E-12  0.17120000000E+03  0.17120000000E+03 0.  0.
         13    1    1    2    0    0  0.22056215991E+03  0.24488427910E+03  0.86149492999E+03  0.92238251398E+03  0.10566000000E+00 0.  1.
        994    1    1    2    0    0 -0.22721754754E+03 -0.25234266674E+03  0.61242385646E+03  0.72088629847E+03  0.17120000000E+03 0.  0.
        998    1    1    2    0    0  0.66553876292E+01  0.74583876363E+01  0.26081209828E+02  0.27931187546E+02  0.10000000000E-02 0. -1.
</event>
<event>
 5    1  0.7026671E-009  0.3883009E+03  0.7957747E-01  0.3415792E+00
         13   -1    0    0    0    0  0.00000000000E+00  0.00000000000E+00  0.14999999963E+04  0.15000000000E+04  0.10566000000E+00 0.  1.
        994   -1    0    0    0    0 -0.00000000000E+00 -0.00000000000E+00  0.11368683772E-12  0.17120000000E+03  0.17120000000E+03 0.  0.
         13    1    1    2    0    0  0.11134705558E+03  0.22737628414E+03  0.12511102256E+04  0.12764697212E+04  0.10566000000E+00 0.  1.
        994    1    1    2    0    0 -0.11144743479E+03 -0.22758491719E+03  0.24778545179E+03  0.39360195042E+03  0.17120000000E+03 0.  0.
        998    1    1    2    0    0  0.10037921487E+00  0.20863304584E+00  0.11043188654E+01  0.11283283613E+01  0.10000000000E-02 0. -1.
</event>
<event>
 5    1  0.7026671E-009  0.3883010E+03  0.7957747E-01  0.3415792E+00
         13   -1    0    0    0    0  0.00000000000E+00  0.00000000000E+00  0.14999999963E+04  0.15000000000E+04  0.10566000000E+00 0. -1.
        994   -1    0    0    0    0 -0.00000000000E+00 -0.00000000000E+00  0.11368683772E-12  0.17120000000E+03  0.17120000000E+03 0.  0.
         13    1    1    2    0    0 -0.15499130489E+03  0.20754211586E+03  0.12064548843E+04  0.12339487159E+04  0.10566000000E+00 0. -1.
        994    1    1    2    0    0  0.15762871454E+03 -0.21108445577E+03  0.27295808360E+03  0.41619588479E+03  0.17120000000E+03 0.  0.
        998    1    1    2    0    0 -0.26374096531E+01  0.35423399115E+01  0.20587028387E+02  0.21055399320E+02  0.10000000000E-02 0. -1.
</event>
<event>
 5    1  0.7026671E-009  0.3883010E+03  0.7957747E-01  0.3415792E+00
         13   -1    0    0    0    0  0.00000000000E+00  0.00000000000E+00  0.14999999963E+04  0.15000000000E+04  0.10566000000E+00 0. -1.
        994   -1    0    0    0    0 -0.00000000000E+00 -0.00000000000E+00  0.11368683772E-12  0.17120000000E+03  0.17120000000E+03 0.  0.
         13    1    1    2    0    0  0.29039750323E+03 -0.11105724768E+03  0.10047658296E+04  0.10517693691E+04  0.10566000000E+00 0. -1.
        994    1    1    2    0    0 -0.29761582335E+03  0.11383266081E+03  0.47025015627E+03  0.59327708741E+03  0.17120000000E+03 0.  0.
        998    1    1    2    0    0  0.72183201167E+01 -0.27754131374E+01  0.24984010368E+02  0.26153543516E+02  0.10000000000E-02 0. -1.
</event>
<event>
 5    1  0.7026671E-009  0.3830710E+03  0.7957747E-01  0.3437895E+00
         13   -1    0    0    0    0  0.00000000000E+00  0.00000000000E+00  0.14999999963E+04  0.15000000000E+04  0.10566000000E+00 0. -1.
        994   -1    0    0    0    0 -0.00000000000E+00 -0.00000000000E+00  0.11368683772E-12  0.17120000000E+03  0.17120000000E+03 0.  0.
         13    1    1    2    0    0  0.18365719731E+03  0.58886319121E+02  0.92344920759E+03  0.94337480084E+03  0.10566000000E+00 0. -1.
        994    1    1    2    0    0 -0.24726895517E+03 -0.12128868272E+03  0.31734147772E+03  0.45372671756E+03  0.17120000000E+03 0.  0.
        998    1    1    2    0    0  0.63611757858E+02  0.62402363595E+02  0.25920931097E+03  0.27409848160E+03  0.10000000000E-02 0.  1.
</event>
<event>
 5    1  0.7026671E-009  0.3883010E+03  0.7957747E-01  0.3415792E+00
         13   -1    0    0    0    0  0.00000000000E+00  0.00000000000E+00  0.14999999963E+04  0.15000000000E+04  0.10566000000E+00 0. -1.
        994   -1    0    0    0    0 -0.00000000000E+00 -0.00000000000E+00  0.11368683772E-12  0.17120000000E+03  0.17120000000E+03 0.  0.
         13    1    1    2    0    0 -0.17549382093E+03 -0.15533322321E+03  0.12919441918E+04  0.13130294351E+04  0.10566000000E+00 0. -1.
        994    1    1    2    0    0  0.17575453395E+03  0.15556489087E+03  0.20613380428E+03  0.35621717637E+03  0.17120000000E+03 0.  0.
        998    1    1    2    0    0 -0.26071302501E+00 -0.23166765814E+00  0.19220001634E+01  0.19533885465E+01  0.10000000000E-02 0.  0.
</event>
<event>
 5    1  0.7026671E-009  0.3883010E+03  0.7957747E-01  0.3415792E+00
         13   -1    0    0    0    0  0.00000000000E+00  0.00000000000E+00  0.14999999963E+04  0.15000000000E+04  0.10566000000E+00 0.  1.
        994   -1    0    0    0    0 -0.00000000000E+00 -0.00000000000E+00  0.11368683772E-12  0.17120000000E+03  0.17120000000E+03 0.  0.
         13    1    1    2    0    0  0.25990276642E+03  0.94334277699E+02  0.11667593618E+04  0.11990729016E+04  0.10566000000E+00 0.  1.
        994    1    1    2    0    0 -0.26302199587E+03 -0.95473749131E+02  0.31922151274E+03  0.45772002499E+03  0.17120000000E+03 0.  0.
        998    1    1    2    0    0  0.31192294512E+01  0.11394714322E+01  0.14019121751E+02  0.14407073373E+02  0.10000000000E-02 0. -1.
</event>
<event>
 5    1  0.7026671E-009  0.3882895E+03  0.7957747E-01  0.3415840E+00
         13   -1    0    0    0    0  0.00000000000E+00  0.00000000000E+00  0.14999999963E+04  0.15000000000E+04  0.10566000000E+00 0.  1.
        994   -1    0    0    0    0 -0.00000000000E+00 -0.00000000000E+00  0.11368683772E-12  0.17120000000E+03  0.17120000000E+03 0.  0.
         13    1    1    2    0    0  0.25842581214E+03 -0.15529450272E+03  0.11023785351E+04  0.11428642653E+04  0.10566000000E+00 0.  1.
        994    1    1    2    0    0 -0.25879444583E+03  0.15568253977E+03  0.39599891702E+03  0.52662719325E+03  0.17120000000E+03 0.  0.
        998    1    1    2    0    0  0.36863369265E+00 -0.38803704906E+00  0.16225441085E+01  0.17085414642E+01  0.10000000000E-02 0. -1.
</event>
<event>
 5    1  0.7026671E-009  0.3879544E+03  0.7957747E-01  0.3417238E+00
         13   -1    0    0    0    0  0.00000000000E+00  0.00000000000E+00  0.14999999963E+04  0.15000000000E+04  0.10566000000E+00 0. -1.
        994   -1    0    0    0    0 -0.00000000000E+00 -0.00000000000E+00  0.11368683772E-12  0.17120000000E+03  0.17120000000E+03 0.  0.
         13    1    1    2    0    0  0.32024372096E+02 -0.16497931862E+03  0.80435914873E+03  0.82172829286E+03  0.10566000000E+00 0. -1.
        994    1    1    2    0    0 -0.65268613415E+02  0.25421219117E+03  0.27100851880E+03  0.41429323830E+03  0.17120000000E+03 0.  0.
        998    1    1    2    0    0  0.33244241318E+02 -0.89232872546E+02  0.42463232875E+03  0.43517846884E+03  0.10000000000E-02 0.  1.
</event>
<event>
 5    1  0.7026671E-009  0.3883009E+03  0.7957747E-01  0.3415792E+00
         13   -1    0    0    0    0  0.00000000000E+00  0.00000000000E+00  0.14999999963E+04  0.15000000000E+04  0.10566000000E+00 0. -1.
        994   -1    0    0    0    0 -0.00000000000E+00 -0.00000000000E+00  0.11368683772E-12  0.17120000000E+03  0.17120000000E+03 0.  0.
         13    1    1    2    0    0  0.14758487733E+03 -0.20097718203E+03  0.12293547036E+04  0.12543867514E+04  0.10566000000E+00 0. -1.
        994    1    1    2    0    0 -0.15023812319E+03  0.20457019131E+03  0.24875804991E+03  0.39447492218E+03  0.17120000000E+03 0.  0.
        998    1    1    2    0    0  0.26532458622E+01 -0.35930092846E+01  0.21887242790E+02  0.22338326421E+02  0.10000000000E-02 0.  1.
</event>
<event>
 5    1  0.7026671E-009  0.3880578E+03  0.7957747E-01  0.3416806E+00
         13   -1    0    0    0    0  0.00000000000E+00  0.00000000000E+00  0.14999999963E+04  0.15000000000E+04  0.10566000000E+00 0.  1.
        994   -1    0    0    0    0 -0.00000000000E+00 -0.00000000000E+00  0.11368683772E-12  0.17120000000E+03  0.17120000000E+03 0.  0.
         13    1    1    2    0    0  0.88473185096E+02 -0.28069379417E+03  0.10964249939E+04  0.11352375473E+04  0.10566000000E+00 0.  1.
        994    1    1    2    0    0 -0.92245011654E+02  0.28462003662E+03  0.38577549767E+03  0.51734889777E+03  0.17120000000E+03 0.  0.
        998    1    1    2    0    0  0.37718265580E+01 -0.39262424517E+01  0.17799504761E+02  0.18613554902E+02  0.10000000000E-02 0.  1.
</event>
<event>
 5    1  0.7026671E-009  0.3883008E+03  0.7957747E-01  0.3415792E+00
         13   -1    0    0    0    0  0.00000000000E+00  0.00000000000E+00  0.14999999963E+04  0.15000000000E+04  0.10566000000E+00 0. -1.
        994   -1    0    0    0    0 -0.00000000000E+00 -0.00000000000E+00  0.11368683772E-12  0.17120000000E+03  0.17120000000E+03 0.  0.
         13    1    1    2    0    0 -0.17916298159E+03  0.13476712005E+03  0.13136278269E+04  0.13326213376E+04  0.10566000000E+00 0. -1.
        994    1    1    2    0    0  0.17928795075E+03 -0.13485177661E+03  0.18554061849E+03  0.33773352225E+03  0.17120000000E+03 0.  0.
        998    1    1    2    0    0 -0.12496915704E+00  0.84656559039E-01  0.83155092182E+00  0.84514020067E+00  0.10000000000E-02 0.  1.
</event>
<event>
 5    1  0.7026671E-009  0.3883010E+03  0.7957747E-01  0.3415792E+00
         13   -1    0    0    0    0  0.00000000000E+00  0.00000000000E+00  0.14999999963E+04  0.15000000000E+04  0.10566000000E+00 0.  1.
        994   -1    0    0    0    0 -0.00000000000E+00 -0.00000000000E+00  0.11368683772E-12  0.17120000000E+03  0.17120000000E+03 0.  0.
         13    1    1    2    0    0  0.18581574467E+03 -0.11401216399E+03  0.96315645300E+03  0.98752044466E+03  0.10566000000E+00 0.  1.
        994    1    1    2    0    0 -0.23206541270E+03  0.14236470452E+03  0.29696680730E+03  0.43774511934E+03  0.17120000000E+03 0.  0.
        998    1    1    2    0    0  0.46249668030E+02 -0.28352540531E+02  0.23987673598E+03  0.24593443600E+03  0.10000000000E-02 0. -1.
</event>
<event>
 5    1  0.7026671E-009  0.3883010E+03  0.7957747E-01  0.3415792E+00
         13   -1    0    0    0    0  0.00000000000E+00  0.00000000000E+00  0.14999999963E+04  0.15000000000E+04  0.10566000000E+00 0.  1.
        994   -1    0    0    0    0 -0.00000000000E+00 -0.00000000000E+00  0.11368683772E-12  0.17120000000E+03  0.17120000000E+03 0.  0.
         13    1    1    2    0    0 -0.24287845564E+03 -0.24301243378E+03  0.83869099903E+03  0.90633745934E+03  0.10566000000E+00 0.  1.
        994    1    1    2    0    0  0.24303455096E+03  0.24316921808E+03  0.66076703126E+03  0.76427715600E+03  0.17120000000E+03 0.  0.
        998    1    1    2    0    0 -0.15609532214E+00 -0.15678430307E+00  0.54196599120E+00  0.58538466234E+00  0.10000000000E-02 0. -1.
</event>
<event>
 5    1  0.7026671E-009  0.3883010E+03  0.7957747E-01  0.3415792E+00
         13   -1    0    0    0    0  0.00000000000E+00  0.00000000000E+00  0.14999999963E+04  0.15000000000E+04  0.10566000000E+00 0. -1.
        994   -1    0    0    0    0 -0.00000000000E+00 -0.00000000000E+00  0.11368683772E-12  0.17120000000E+03  0.17120000000E+03 0.  0.
         13    1    1    2    0    0 -0.29594894533E+03  0.89704243844E+02  0.10734449321E+04  0.11171019036E+04  0.10566000000E+00 0. -1.
        994    1    1    2    0    0  0.29602600864E+03 -0.89727929377E+02  0.42627736878E+03  0.55380893297E+03  0.17120000000E+03 0.  0.
        998    1    1    2    0    0 -0.77063305110E-01  0.23685533262E-01  0.27769538351E+00  0.28916342006E+00  0.10000000000E-02 0.  0.
</event>
<event>
 5    1  0.7026671E-009  0.3882952E+03  0.7957747E-01  0.3415816E+00
         13   -1    0    0    0    0  0.00000000000E+00  0.00000000000E+00  0.14999999963E+04  0.15000000000E+04  0.10566000000E+00 0.  1.
        994   -1    0    0    0    0 -0.00000000000E+00 -0.00000000000E+00  0.11368683772E-12  0.17120000000E+03  0.17120000000E+03 0.  0.
         13    1    1    2    0    0  0.20776250393E+03  0.10138365894E+03  0.13006208751E+04  0.13210066526E+04  0.10566000000E+00 0.  1.
        994    1    1    2    0    0 -0.20784420864E+03 -0.10137836292E+03  0.19908291232E+03  0.34988602932E+03  0.17120000000E+03 0.  0.
        998    1    1    2    0    0  0.81704707981E-01 -0.52960155172E-02  0.29620884932E+00  0.30731805918E+00  0.10000000000E-02 0.  1.
</event>
<event>
 5    1  0.7026671E-009  0.3883010E+03  0.7957747E-01  0.3415792E+00
         13   -1    0    0    0    0  0.00000000000E+00  0.00000000000E+00  0.14999999963E+04  0.15000000000E+04  0.10566000000E+00 0.  1.
        994   -1    0    0    0    0 -0.00000000000E+00 -0.00000000000E+00  0.11368683772E-12  0.17120000000E+03  0.17120000000E+03 0.  0.
         13    1    1    2    0    0  0.23088746302E+03  0.82912865774E+02  0.12682153519E+04  0.12917251076E+04  0.10566000000E+00 0.  1.
        994    1    1    2    0    0 -0.23124129209E+03 -0.83038394741E+02  0.22984639450E+03  0.37750061620E+03  0.17120000000E+03 0.  0.
        998    1    1    2    0    0  0.35382907327E+00  0.12552896671E+00  0.19382499306E+01  0.19742761529E+01  0.10000000000E-02 0. -1.
</event>
<event>
 5    1  0.7026671E-009  0.3883006E+03  0.7957747E-01  0.3415794E+00
         13   -1    0    0    0    0  0.00000000000E+00  0.00000000000E+00  0.14999999963E+04  0.15000000000E+04  0.10566000000E+00 0. -1.
        994   -1    0    0    0    0 -0.00000000000E+00 -0.00000000000E+00  0.11368683772E-12  0.17120000000E+03  0.17120000000E+03 0.  0.
         13    1    1    2    0    0 -0.25558150926E+03 -0.14922803062E+03  0.11218921740E+04  0.11602728016E+04  0.10566000000E+00 0. -1.
        994    1    1    2    0    0  0.25614456458E+03  0.14959199439E+03  0.37547908857E+03  0.50821431376E+03  0.17120000000E+03 0.  0.
        998    1    1    2    0    0 -0.56305531960E+00 -0.36396377452E+00  0.26287337250E+01  0.27128846122E+01  0.10000000000E-02 0. -1.
</event>
<event>
 5    1  0.7026671E-009  0.3883010E+03  0.7957747E-01  0.3415792E+00
         13   -1    0    0    0    0  0.00000000000E+00  0.00000000000E+00  0.14999999963E+04  0.15000000000E+04  0.10566000000E+00 0. -1.
        994   -1    0    0    0    0 -0.00000000000E+00 -0.00000000000E+00  0.11368683772E-12  0.17120000000E+03  0.17120000000E+03 0.  0.
         13    1    1    2    0    0  0.21082977817E+03 -0.25405863755E+03  0.94020873355E+03  0.99648756163E+03  0.10566000000E+00 0. -1.
        994    1    1    2    0    0 -0.21230766946E+03  0.25582698154E+03  0.55319003305E+03  0.66772048318E+03  0.17120000000E+03 0.  0.
        998    1    1    2    0    0  0.14778912887E+01 -0.17683439892E+01  0.66012296847E+01  0.69919551969E+01  0.10000000000E-02 0. -1.
</event>
<event>
 5    1  0.7026671E-009  0.3883010E+03  0.7957747E-01  0.3415792E+00
         13   -1    0    0    0    0  0.00000000000E+00  0.00000000000E+00  0.14999999963E+04  0.15000000000E+04  0.10566000000E+00 0. -1.
        994   -1    0    0    0    0 -0.00000000000E+00 -0.00000000000E+00  0.11368683772E-12  0.17120000000E+03  0.17120000000E+03 0.  0.
         13    1    1    2    0    0 -0.48347222298E+02  0.22259932816E+03  0.12524032042E+04  0.12729500037E+04  0.10566000000E+00 0. -1.
        994    1    1    2    0    0  0.49909027241E+02 -0.22981645460E+03  0.20708721996E+03  0.35707292039E+03  0.17120000000E+03 0.  0.
        998    1    1    2    0    0 -0.15618049432E+01  0.72171264346E+01  0.40509572116E+02  0.41177075936E+02  0.10000000000E-02 0. -1.
</event>
<event>
 5    1  0.7026671E-009  0.3883008E+03  0.7957747E-01  0.3415793E+00
         13   -1    0    0    0    0  0.00000000000E+00  0.00000000000E+00  0.14999999963E+04  0.15000000000E+04  0.10566000000E+00 0.  1.
        994   -1    0    0    0    0 -0.00000000000E+00 -0.00000000000E+00  0.11368683772E-12  0.17120000000E+03  0.17120000000E+03 0.  0.
         13    1    1    2    0    0 -0.74317705817E+02  0.13459651838E+03  0.87657276999E+03  0.88995459233E+03  0.10566000000E+00 0.  1.
        994    1    1    2    0    0  0.11061189869E+03 -0.20021402574E+03  0.19406825557E+03  0.34538757369E+03  0.17120000000E+03 0.  0.
        998    1    1    2    0    0 -0.36294192873E+02  0.65617507366E+02  0.42935897072E+03  0.43585783398E+03  0.10000000000E-02 0. -1.
</event>
<event>
 5    1  0.7026671E-009  0.3883003E+03  0.7957747E-01  0.3415795E+00
         13   -1    0    0    0    0  0.00000000000E+00  0.00000000000E+00  0.14999999963E+04  0.15000000000E+04  0.10566000000E+00 0.  1.
        994   -1    0    0    0    0 -0.00000000000E+00 -0.00000000000E+00  0.11368683772E-12  0.17120000000E+03  0.17120000000E+03 0.  0.
         13    1    1    2    0    0 -0.20014121489E+03 -0.13426587004E+03  0.12790493196E+04  0.13015571455E+04  0.10566000000E+00 0.  1.
        994    1    1    2    0    0  0.20032886819E+03  0.13436319964E+03  0.21992088796E+03  0.36859159215E+03  0.17120000000E+03 0.  0.
        998    1    1    2    0    0 -0.18765329692E+00 -0.97329600132E-01  0.10297887053E+01  0.10512623785E+01  0.10000000000E-02 0. -1.
</event>
<event>
 5    1  0.7026671E-009  0.3883006E+03  0.7957747E-01  0.3415793E+00
         13   -1    0    0    0    0  0.00000000000E+00  0.00000000000E+00  0.14999999963E+04  0.15000000000E+04  0.10566000000E+00 0.  1.
        994   -1    0    0    0    0 -0.00000000000E+00 -0.00000000000E+00  0.11368683772E-12  0.17120000000E+03  0.17120000000E+03 0.  0.
         13    1    1    2    0    0 -0.19356355687E+03 -0.12864281503E+03  0.12918938372E+04  0.13126330494E+04  0.10566000000E+00 0.  1.
        994    1    1    2    0    0  0.19425989602E+03  0.12914421345E+03  0.20317081831E+03  0.35355757167E+03  0.17120000000E+03 0.  0.
        998    1    1    2    0    0 -0.69633915387E+00 -0.50139842123E+00  0.49353407266E+01  0.50093789717E+01  0.10000000000E-02 0. -1.
</event>
<event>
 5    1  0.7026671E-009  0.3883000E+03  0.7957747E-01  0.3415796E+00
         13   -1    0    0    0    0  0.00000000000E+00  0.00000000000E+00  0.14999999963E+04  0.15000000000E+04  0.10566000000E+00 0.  1.
        994   -1    0    0    0    0 -0.00000000000E+00 -0.00000000000E+00  0.11368683772E-12  0.17120000000E+03  0.17120000000E+03 0.  0.
         13    1    1    2    0    0  0.21746198947E+03  0.59550073205E+02  0.13112318880E+04  0.13304754802E+04  0.10566000000E+00 0.  1.
        994    1    1    2    0    0 -0.21757701608E+03 -0.59609079806E+02  0.18794382845E+03  0.33989016310E+03  0.17120000000E+03 0.  0.
        998    1    1    2    0    0  0.11502660996E+00  0.59006600519E-01  0.82427982430E+00  0.83435671547E+00  0.10000000000E-02 0. -1.
</event>
<event>
 5    1  0.7026671E-009  0.3791791E+03  0.7957747E-01  0.3454741E+00
         13   -1    0    0    0    0  0.00000000000E+00  0.00000000000E+00  0.14999999963E+04  0.15000000000E+04  0.10566000000E+00 0. -1.
        994   -1    0    0    0    0 -0.00000000000E+00 -0.00000000000E+00  0.11368683772E-12  0.17120000000E+03  0.17120000000E+03 0.  0.
         13    1    1    2    0    0 -0.21389541106E+03  0.14263795748E+03  0.11850948696E+04  0.12126609975E+04  0.10566000000E+00 0. -1.
        994    1    1    2    0    0  0.22844652430E+03 -0.13198750903E+03  0.29011309904E+03  0.42788265592E+03  0.17120000000E+03 0.  0.
        998    1    1    2    0    0 -0.14551113245E+02 -0.10650448445E+02  0.24792027639E+02  0.30656346557E+02  0.10000000000E-02 0.  1.
</event>
<event>
 5    1  0.7026671E-009  0.3882712E+03  0.7957747E-01  0.3415916E+00
         13   -1    0    0    0    0  0.00000000000E+00  0.00000000000E+00  0.14999999963E+04  0.15000000000E+04  0.10566000000E+00 0. -1.
        994   -1    0    0    0    0 -0.00000000000E+00 -0.00000000000E+00  0.11368683772E-12  0.17120000000E+03  0.17120000000E+03 0.  0.
         13    1    1    2    0    0 -0.21402711363E+03 -0.51338773135E+02  0.94993737753E+03  0.97510220356E+03  0.10566000000E+00 0. -1.
        994    1    1    2    0    0  0.26829271662E+03  0.61280338092E+02  0.30551479476E+03  0.44540430111E+03  0.17120000000E+03 0.  0.
        998    1    1    2    0    0 -0.54265602997E+02 -0.99415649574E+01  0.24454782399E+03  0.25069349533E+03  0.10000000000E-02 0. -1.
</event>
<event>
 5    1  0.7026671E-009  0.3883010E+03  0.7957747E-01  0.3415792E+00
         13   -1    0    0    0    0  0.00000000000E+00  0.00000000000E+00  0.14999999963E+04  0.15000000000E+04  0.10566000000E+00 0. -1.
        994   -1    0    0    0    0 -0.00000000000E+00 -0.00000000000E+00  0.11368683772E-12  0.17120000000E+03  0.17120000000E+03 0.  0.
         13    1    1    2    0    0 -0.19268994226E+03  0.20180110113E+03  0.11676527644E+04  0.12005274206E+04  0.10566000000E+00 0. -1.
        994    1    1    2    0    0  0.19418351664E+03 -0.20334188309E+03  0.32338447545E+03  0.46145651855E+03  0.17120000000E+03 0.  0.
        998    1    1    2    0    0 -0.14935743759E+01  0.15407819585E+01  0.89627564311E+01  0.92160608344E+01  0.10000000000E-02 0. -1.
</event>
<event>
 5    1  0.7026671E-009  0.3882990E+03  0.7957747E-01  0.3415800E+00
         13   -1    0    0    0    0  0.00000000000E+00  0.00000000000E+00  0.14999999963E+04  0.15000000000E+04  0.10566000000E+00 0.  1.
        994   -1    0    0    0    0 -0.00000000000E+00 -0.00000000000E+00  0.11368683772E-12  0.17120000000E+03  0.17120000000E+03 0.  0.
         13    1    1    2    0    0 -0.25753246074E+02 -0.10907128093E+01  0.12218416195E+03  0.12487353576E+03  0.10566000000E+00 0.  1.
        994    1    1    2    0    0  0.26269620026E+03  0.74207104988E+01  0.27127909925E+03  0.41468801558E+03  0.17120000000E+03 0.  0.
        998    1    1    2    0    0 -0.23694295418E+03 -0.63299976895E+01  0.11065367351E+04  0.11316384487E+04  0.10000000000E-02 0.  1.
</event>
<event>
 5    1  0.7026671E-009  0.3882935E+03  0.7957747E-01  0.3415823E+00
         13   -1    0    0    0    0  0.00000000000E+00  0.00000000000E+00  0.14999999963E+04  0.15000000000E+04  0.10566000000E+00 0.  1.
        994   -1    0    0    0    0 -0.00000000000E+00 -0.00000000000E+00  0.11368683772E-12  0.17120000000E+03  0.17120000000E+03 0.  0.
         13    1    1    2    0    0  0.10684840394E+03  0.21730919314E+03  0.12245423991E+04  0.12482563700E+04  0.10566000000E+00 0.  1.
        994    1    1    2    0    0 -0.10953790794E+03 -0.22407395361E+03  0.23836339624E+03  0.38514184222E+03  0.17120000000E+03 0.  0.
        998    1    1    2    0    0  0.26895039973E+01  0.67647604773E+01  0.37094200894E+02  0.37801787749E+02  0.10000000000E-02 0. -1.
</event>
<event>
 5    1  0.7026671E-009  0.3883010E+03  0.7957747E-01  0.3415792E+00
         13   -1    0    0    0    0  0.00000000000E+00  0.00000000000E+00  0.14999999963E+04  0.15000000000E+04  0.10566000000E+00 0. -1.
        994   -1    0    0    0    0 -0.00000000000E+00 -0.00000000000E+00  0.11368683772E-12  0.17120000000E+03  0.17120000000E+03 0.  0.
         13    1    1    2    0    0 -0.15908336499E+03  0.19850894798E+03  0.12432333857E+04  0.12689927430E+04  0.10566000000E+00 0. -1.
        994    1    1    2    0    0  0.15965504702E+03 -0.19921858069E+03  0.25236584279E+03  0.39771313222E+03  0.17120000000E+03 0.  0.
        998    1    1    2    0    0 -0.57168203070E+00  0.70963271550E+00  0.44007678178E+01  0.44941247559E+01  0.10000000000E-02 0. -1.
</event>
<event>
 5    1  0.7026671E-009  0.3883010E+03  0.7957747E-01  0.3415792E+00
         13   -1    0    0    0    0  0.00000000000E+00  0.00000000000E+00  0.14999999963E+04  0.15000000000E+04  0.10566000000E+00 0.  1.
        994   -1    0    0    0    0 -0.00000000000E+00 -0.00000000000E+00  0.11368683772E-12  0.17120000000E+03  0.17120000000E+03 0.  0.
         13    1    1    2    0    0  0.29213501133E+02  0.22697428918E+03  0.13013476911E+04  0.13213162304E+04  0.10566000000E+00 0.  1.
        994    1    1    2    0    0 -0.29286567337E+02 -0.22753957681E+03  0.19541216930E+03  0.34659388043E+03  0.17120000000E+03 0.  0.
        998    1    1    2    0    0  0.73066203945E-01  0.56528763612E+00  0.32401359097E+01  0.32898891311E+01  0.10000000000E-02 0.  0.
</event>
<event>
 5    1  0.7026671E-009  0.3882941E+03  0.7957747E-01  0.3415821E+00
         13   -1    0    0    0    0  0.00000000000E+00  0.00000000000E+00  0.14999999963E+04  0.15000000000E+04  0.10566000000E+00 0.  1.
        994   -1    0    0    0    0 -0.00000000000E+00 -0.00000000000E+00  0.11368683772E-12  0.17120000000E+03  0.17120000000E+03 0.  0.
         13    1    1    2    0    0 -0.26849639612E+03  0.77085787478E+02  0.10873903301E+04  0.11226977664E+04  0.10566000000E+00 0.  1.
        994    1    1    2    0    0  0.28116638581E+03 -0.81406837489E+02  0.36144063365E+03  0.49561111908E+03  0.17120000000E+03 0.  0.
        998    1    1    2    0    0 -0.12669989687E+02  0.43210500105E+01  0.51169032509E+02  0.52891114573E+02  0.10000000000E-02 0.  1.
</event>
<event>
 5    1  0.7026671E-009  0.3883001E+03  0.7957747E-01  0.3415796E+00
         13   -1    0    0    0    0  0.00000000000E+00  0.00000000000E+00  0.14999999963E+04  0.15000000000E+04  0.10566000000E+00 0.  1.
        994   -1    0    0    0    0 -0.00000000000E+00 -0.00000000000E+00  0.11368683772E-12  0.17120000000E+03  0.17120000000E+03 0.  0.
         13    1    1    2    0    0  0.24172138098E+03  0.37766344497E+02  0.12722686601E+04  0.12955782791E+04  0.10566000000E+00 0.  1.
        994    1    1    2    0    0 -0.24174214156E+03 -0.37769634650E+02  0.22754890696E+03  0.37543808194E+03  0.17120000000E+03 0.  0.
        998    1    1    2    0    0  0.20760581211E-01  0.32901538025E-02  0.18242923214E+00  0.18363891631E+00  0.10000000000E-02 0. -1.
</event>
<event>
 5    1  0.7026671E-009  0.3883010E+03  0.7957747E-01  0.3415792E+00
         13   -1    0    0    0    0  0.00000000000E+00  0.00000000000E+00  0.14999999963E+04  0.15000000000E+04  0.10566000000E+00 0.  1.
        994   -1    0    0    0    0 -0.00000000000E+00 -0.00000000000E+00  0.11368683772E-12  0.17120000000E+03  0.17120000000E+03 0.  0.
         13    1    1    2    0    0  0.10473158677E+03  0.16961318005E+03  0.97604586792E+03  0.99619419972E+03  0.10566000000E+00 0.  1.
        994    1    1    2    0    0 -0.13389874078E+03 -0.21702309973E+03  0.25164992683E+03  0.39707055327E+03  0.17120000000E+03 0.  0.
        998    1    1    2    0    0  0.29167154010E+02  0.47409919686E+02  0.27230420153E+03  0.27793524700E+03  0.10000000000E-02 0.  1.
</event>
<event>
 5    1  0.7026671E-009  0.3882943E+03  0.7957747E-01  0.3415820E+00
         13   -1    0    0    0    0  0.00000000000E+00  0.00000000000E+00  0.14999999963E+04  0.15000000000E+04  0.10566000000E+00 0. -1.
        994   -1    0    0    0    0 -0.00000000000E+00 -0.00000000000E+00  0.11368683772E-12  0.17120000000E+03  0.17120000000E+03 0.  0.
         13    1    1    2    0    0  0.19893751484E+03 -0.12357938515E+03  0.12922837707E+04  0.13133336798E+04  0.10566000000E+00 0. -1.
        994    1    1    2    0    0 -0.19916348405E+03  0.12369988334E+03  0.20560477539E+03  0.35573939644E+03  0.17120000000E+03 0.  0.
        998    1    1    2    0    0  0.22596920557E+00 -0.12049819016E+00  0.21114501684E+01  0.21269237667E+01  0.10000000000E-02 0. -1.
</event>
<event>
 5    1  0.7026671E-009  0.3883010E+03  0.7957747E-01  0.3415792E+00
         13   -1    0    0    0    0  0.00000000000E+00  0.00000000000E+00  0.14999999963E+04  0.15000000000E+04  0.10566000000E+00 0.  1.
        994   -1    0    0    0    0 -0.00000000000E+00 -0.00000000000E+00  0.11368683772E-12  0.17120000000E+03  0.17120000000E+03 0.  0.
         13    1    1    2    0    0  0.16799907418E+03  0.14339656799E+03  0.12741675782E+04  0.12931702491E+04  0.10566000000E+00 0.  1.
        994    1    1    2    0    0 -0.17264451972E+03 -0.14735415506E+03  0.19062239693E+03  0.34229477854E+03  0.17120000000E+03 0.  0.
        998    1    1    2    0    0  0.46454455409E+01  0.39575870788E+01  0.35210021154E+02  0.35734972372E+02  0.10000000000E-02 0.  1.
</event>
<event>
 5    1  0.7026671E-009  0.3882932E+03  0.7957747E-01  0.3415825E+00
         13   -1    0    0    0    0  0.00000000000E+00  0.00000000000E+00  0.14999999963E+04  0.15000000000E+04  0.10566000000E+00 0. -1.
        994   -1    0    0    0    0 -0.00000000000E+00 -0.00000000000E+00  0.11368683772E-12  0.17120000000E+03  0.17120000000E+03 0.  0.
         13    1    1    2    0    0  0.22095346385E+03  0.17852290614E+02  0.13182601713E+04  0.13367681280E+04  0.10566000000E+00 0. -1.
        994    1    1    2    0    0 -0.22104894290E+03 -0.17814793435E+02  0.18068358974E+03  0.33337066701E+03  0.17120000000E+03 0.  0.
        998    1    1    2    0    0  0.95479048326E-01 -0.37497178852E-01  0.10562352002E+01  0.10612050156E+01  0.10000000000E-02 0.  1.
</event>
<event>
 5    1  0.7026671E-009  0.3882843E+03  0.7957747E-01  0.3415861E+00
         13   -1    0    0    0    0  0.00000000000E+00  0.00000000000E+00  0.14999999963E+04  0.15000000000E+04  0.10566000000E+00 0. -1.
        994   -1    0    0    0    0 -0.00000000000E+00 -0.00000000000E+00  0.11368683772E-12  0.17120000000E+03  0.17120000000E+03 0.  0.
         13    1    1    2    0    0  0.51412214233E+02 -0.32289569095E+02  0.18004534617E+03  0.19000571014E+03  0.10566000000E+00 0. -1.
        994    1    1    2    0    0 -0.27428358015E+03  0.18332111482E+03  0.53568692281E+03  0.65200309259E+03  0.17120000000E+03 0.  0.
        998    1    1    2    0    0  0.22287136591E+03 -0.15103154572E+03  0.78426772729E+03  0.82919119727E+03  0.10000000000E-02 0. -1.
</event>
<event>
 5    1  0.7026671E-009  0.3883008E+03  0.7957747E-01  0.3415793E+00
         13   -1    0    0    0    0  0.00000000000E+00  0.00000000000E+00  0.14999999963E+04  0.15000000000E+04  0.10566000000E+00 0.  1.
        994   -1    0    0    0    0 -0.00000000000E+00 -0.00000000000E+00  0.11368683772E-12  0.17120000000E+03  0.17120000000E+03 0.  0.
         13    1    1    2    0    0  0.12632773725E+03  0.24742605889E+03  0.11864413710E+04  0.12185325149E+04  0.10566000000E+00 0.  1.
        994    1    1    2    0    0 -0.12635143023E+03 -0.24747064177E+03  0.31331295147E+03  0.45241667522E+03  0.17120000000E+03 0.  0.
        998    1    1    2    0    0  0.23692977353E-01  0.44582880981E-01  0.24567377476E+00  0.25080987631E+00  0.10000000000E-02 0. -1.
</event>
<event>
 5    1  0.7026671E-009  0.3882707E+03  0.7957747E-01  0.3415918E+00
         13   -1    0    0    0    0  0.00000000000E+00  0.00000000000E+00  0.14999999963E+04  0.15000000000E+04  0.10566000000E+00 0.  1.
        994   -1    0    0    0    0 -0.00000000000E+00 -0.00000000000E+00  0.11368683772E-12  0.17120000000E+03  0.17120000000E+03 0.  0.
         13    1    1    2    0    0  0.23642427960E+03 -0.52077095507E+02  0.12761726833E+04  0.12989323280E+04  0.10566000000E+00 0.  1.
        994    1    1    2    0    0 -0.23663880856E+03  0.51919540371E+02  0.22226137221E+03  0.37067927102E+03  0.17120000000E+03 0.  0.
        998    1    1    2    0    0  0.21452895545E+00  0.15755513571E+00  0.15659407682E+01  0.15884010145E+01  0.10000000000E-02 0.  1.
</event>
<event>
 5    1  0.7026671E-009  0.3882958E+03  0.7957747E-01  0.3415814E+00
         13   -1    0    0    0    0  0.00000000000E+00  0.00000000000E+00  0.14999999963E+04  0.15000000000E+04  0.10566000000E+00 0. -1.
        994   -1    0    0    0    0 -0.00000000000E+00 -0.00000000000E+00  0.11368683772E-12  0.17120000000E+03  0.17120000000E+03 0.  0.
         13    1    1    2    0    0  0.72781108111E+01  0.26640954893E+03  0.12178963101E+04  0.12467150645E+04  0.10566000000E+00 0. -1.
        994    1    1    2    0    0 -0.72294601566E+01 -0.26652236934E+03  0.28140115495E+03  0.42377174099E+03  0.17120000000E+03 0.  0.
        998    1    1    2    0    0 -0.48650654487E-01  0.11282040542E+00  0.70253118050E+00  0.71319449636E+00  0.10000000000E-02 0.  1.
</event>
<event>
 5    1  0.7026671E-009  0.3883010E+03  0.7957747E-01  0.3415792E+00
         13   -1    0    0    0    0  0.00000000000E+00  0.00000000000E+00  0.14999999963E+04  0.15000000000E+04  0.10566000000E+00 0.  1.
        994   -1    0    0    0    0 -0.00000000000E+00 -0.00000000000E+00  0.11368683772E-12  0.17120000000E+03  0.17120000000E+03 0.  0.
         13    1    1    2    0    0 -0.82134188318E+02 -0.32775319637E+03  0.87747146981E+03  0.94027888103E+03  0.10566000000E+00 0.  1.
        994    1    1    2    0    0  0.82654778441E+02  0.32982546054E+03  0.61698891036E+03  0.72498372556E+03  0.17120000000E+03 0.  0.
        998    1    1    2    0    0 -0.52059012321E+00 -0.20722641693E+01  0.55396161154E+01  0.59373934155E+01  0.10000000000E-02 0.  1.
</event>
<event>
 5    1  0.7026671E-009  0.3883001E+03  0.7957747E-01  0.3415795E+00
         13   -1    0    0    0    0  0.00000000000E+00  0.00000000000E+00  0.14999999963E+04  0.15000000000E+04  0.10566000000E+00 0.  1.
        994   -1    0    0    0    0 -0.00000000000E+00 -0.00000000000E+00  0.11368683772E-12  0.17120000000E+03  0.17120000000E+03 0.  0.
         13    1    1    2    0    0 -0.26207389100E+03  0.15286081106E+02  0.12288965868E+04  0.12566237387E+04  0.10566000000E+00 0.  1.
        994    1    1    2    0    0  0.26213839014E+03 -0.15284284323E+02  0.27071148377E+03  0.41417905835E+03  0.17120000000E+03 0.  0.
        998    1    1    2    0    0 -0.64499137499E-01 -0.17967831890E-02  0.39192573796E+00  0.39720290941E+00  0.10000000000E-02 0. -1.
</event>
<event>
 5    1  0.7026671E-009  0.3883007E+03  0.7957747E-01  0.3415793E+00
         13   -1    0    0    0    0  0.00000000000E+00  0.00000000000E+00  0.14999999963E+04  0.15000000000E+04  0.10566000000E+00 0.  1.
        994   -1    0    0    0    0 -0.00000000000E+00 -0.00000000000E+00  0.11368683772E-12  0.17120000000E+03  0.17120000000E+03 0.  0.
         13    1    1    2    0    0 -0.13063710307E+03  0.18066784629E+03  0.95661759047E+03  0.98225462531E+03  0.10566000000E+00 0.  1.
        994    1    1    2    0    0  0.16224114885E+03 -0.22439032827E+03  0.31044774486E+03  0.44984492004E+03  0.17120000000E+03 0.  0.
        998    1    1    2    0    0 -0.31604045780E+02  0.43722481981E+02  0.23293466095E+03  0.23910045465E+03  0.10000000000E-02 0.  1.
</event>
<event>
 5    1  0.7026671E-009  0.3882810E+03  0.7957747E-01  0.3415875E+00
         13   -1    0    0    0    0  0.00000000000E+00  0.00000000000E+00  0.14999999963E+04  0.15000000000E+04  0.10566000000E+00 0.  1.
        994   -1    0    0    0    0 -0.00000000000E+00 -0.00000000000E+00  0.11368683772E-12  0.17120000000E+03  0.17120000000E+03 0.  0.
         13    1    1    2    0    0 -0.20421810391E+02  0.16670187834E+03  0.91917594576E+03  0.93439338451E+03  0.10566000000E+00 0.  1.
        994    1    1    2    0    0  0.26179286708E+02 -0.23605232080E+03  0.21198362165E+03  0.36145891752E+03  0.17120000000E+03 0.  0.
        998    1    1    2    0    0 -0.57574763171E+01  0.69350442458E+02  0.36884042887E+03  0.37534769797E+03  0.10000000000E-02 0.  1.
</event>
<event>
 5    1  0.7026671E-009  0.3883002E+03  0.7957747E-01  0.3415795E+00
         13   -1    0    0    0    0  0.00000000000E+00  0.00000000000E+00  0.14999999963E+04  0.15000000000E+04  0.10566000000E+00 0. -1.
        994   -1    0    0    0    0 -0.00000000000E+00 -0.00000000000E+00  0.11368683772E-12  0.17120000000E+03  0.17120000000E+03 0.  0.
         13    1    1    2    0    0 -0.35811721395E+02 -0.20159626195E+03  0.11039832133E+04  0.11228100813E+04  0.10566000000E+00 0. -1.
        994    1    1    2    0    0  0.41830166116E+02  0.23450127991E+03  0.21344579294E+03  0.36277976735E+03  0.17120000000E+03 0.  0.
        998    1    1    2    0    0 -0.60184447209E+01 -0.32905017959E+02  0.18257099000E+03  0.18561015132E+03  0.10000000000E-02 0.  1.
</event>
<event>
 5    1  0.7026671E-009  0.3562857E+03  0.7957747E-01  0.3561396E+00
         13   -1    0    0    0    0  0.00000000000E+00  0.00000000000E+00  0.14999999963E+04  0.15000000000E+04  0.10566000000E+00 0.  1.
        994   -1    0    0    0    0 -0.00000000000E+00 -0.00000000000E+00  0.11368683772E-12  0.17120000000E+03  0.17120000000E+03 0.  0.
         13    1    1    2    0    0  0.17731368259E+03  0.18559949546E+03  0.10325105506E+04  0.10639386087E+04  0.10566000000E+00 0.  1.
        994    1    1    2    0    0 -0.13056652242E+03 -0.23065450220E+03  0.33788220606E+03  0.46230178599E+03  0.17120000000E+03 0.  0.
        998    1    1    2    0    0 -0.46747160166E+02  0.45055006741E+02  0.12960723957E+03  0.14495960529E+03  0.10000000000E-02 0. -1.
</event>
<event>
 5    1  0.7026671E-009  0.3882993E+03  0.7957747E-01  0.3415799E+00
         13   -1    0    0    0    0  0.00000000000E+00  0.00000000000E+00  0.14999999963E+04  0.15000000000E+04  0.10566000000E+00 0. -1.
        994   -1    0    0    0    0 -0.00000000000E+00 -0.00000000000E+00  0.11368683772E-12  0.17120000000E+03  0.17120000000E+03 0.  0.
         13    1    1    2    0    0 -0.14849333419E+02  0.27005953065E+03  0.75380021756E+03  0.80085418894E+03  0.10566000000E+00 0. -1.
        994    1    1    2    0    0  0.17834338313E+02 -0.33379382385E+03  0.56675119555E+03  0.67989171058E+03  0.17120000000E+03 0.  0.
        998    1    1    2    0    0 -0.29850048944E+01  0.63734293193E+02  0.17944858317E+03  0.19045410047E+03  0.10000000000E-02 0.  1.
</event>
<event>
 5    1  0.7026671E-009  0.3881564E+03  0.7957747E-01  0.3416395E+00
         13   -1    0    0    0    0  0.00000000000E+00  0.00000000000E+00  0.14999999963E+04  0.15000000000E+04  0.10566000000E+00 0. -1.
        994   -1    0    0    0    0 -0.00000000000E+00 -0.00000000000E+00  0.11368683772E-12  0.17120000000E+03  0.17120000000E+03 0.  0.
         13    1    1    2    0    0 -0.15167798286E+03  0.16620237117E+03  0.97910876148E+03  0.10046309853E+04  0.10566000000E+00 0. -1.
        994    1    1    2    0    0  0.17930721457E+03 -0.20555775475E+03  0.29873678239E+03  0.43927004552E+03  0.17120000000E+03 0.  0.
        998    1    1    2    0    0 -0.27629231716E+02  0.39355383588E+02  0.22215445241E+03  0.22729896918E+03  0.10000000000E-02 0. -1.
</event>
<event>
 5    1  0.7026671E-009  0.3883010E+03  0.7957747E-01  0.3415792E+00
         13   -1    0    0    0    0  0.00000000000E+00  0.00000000000E+00  0.14999999963E+04  0.15000000000E+04  0.10566000000E+00 0.  1.
        994   -1    0    0    0    0 -0.00000000000E+00 -0.00000000000E+00  0.11368683772E-12  0.17120000000E+03  0.17120000000E+03 0.  0.
         13    1    1    2    0    0 -0.22178411493E+02  0.24921064418E+03  0.12493565050E+04  0.12741622796E+04  0.10566000000E+00 0.  1.
        994    1    1    2    0    0  0.22308662148E+02 -0.25063096186E+03  0.24352762377E+03  0.38978032145E+03  0.17120000000E+03 0.  0.
        998    1    1    2    0    0 -0.13025065479E+00  0.14203176854E+01  0.71158675069E+01  0.72573989099E+01  0.10000000000E-02 0.  1.
</event>
<event>
 5    1  0.7026671E-009  0.3883008E+03  0.7957747E-01  0.3415793E+00
         13   -1    0    0    0    0  0.00000000000E+00  0.00000000000E+00  0.14999999963E+04  0.15000000000E+04  0.10566000000E+00 0.  1.
        994   -1    0    0    0    0 -0.00000000000E+00 -0.00000000000E+00  0.11368683772E-12  0.17120000000E+03  0.17120000000E+03 0.  0.
         13    1    1    2    0    0  0.10792852895E+03 -0.20593431496E+03  0.12971570980E+04  0.13178292975E+04  0.10566000000E+00 0.  1.
        994    1    1    2    0    0 -0.10798929581E+03  0.20608049427E+03  0.20192698501E+03  0.35244120843E+03  0.17120000000E+03 0.  0.
        998    1    1    2    0    0  0.60766859590E-01 -0.14617931175E+00  0.91591328572E+00  0.92949402869E+00  0.10000000000E-02 0.  1.
</event>
<event>
 5    1  0.7026671E-009  0.3882888E+03  0.7957747E-01  0.3415843E+00
         13   -1    0    0    0    0  0.00000000000E+00  0.00000000000E+00  0.14999999963E+04  0.15000000000E+04  0.10566000000E+00 0.  1.
        994   -1    0    0    0    0 -0.00000000000E+00 -0.00000000000E+00  0.11368683772E-12  0.17120000000E+03  0.17120000000E+03 0.  0.
         13    1    1    2    0    0  0.24522581789E+03 -0.11596619044E+03  0.12049682630E+04  0.12351244411E+04  0.10566000000E+00 0.  1.
        994    1    1    2    0    0 -0.24531229142E+03  0.11594102046E+03  0.29438347349E+03  0.43542107208E+03  0.17120000000E+03 0.  0.
        998    1    1    2    0    0  0.86473524995E-01  0.25169981172E-01  0.64825978257E+00  0.65448677922E+00  0.10000000000E-02 0. -1.
</event>
<event>
 5    1  0.7026671E-009  0.3883010E+03  0.7957747E-01  0.3415792E+00
         13   -1    0    0    0    0  0.00000000000E+00  0.00000000000E+00  0.14999999963E+04  0.15000000000E+04  0.10566000000E+00 0. -1.
        994   -1    0    0    0    0 -0.00000000000E+00 -0.00000000000E+00  0.11368683772E-12  0.17120000000E+03  0.17120000000E+03 0.  0.
         13    1    1    2    0    0 -0.20219668418E+03  0.72109794267E+02  0.12822885578E+04  0.13001335616E+04  0.10566000000E+00 0. -1.
        994    1    1    2    0    0  0.20823562641E+03 -0.74250014630E+02  0.17938935944E+03  0.33221246674E+03  0.17120000000E+03 0.  0.
        998    1    1    2    0    0 -0.60389422276E+01  0.21402203627E+01  0.38322079052E+02  0.38853971615E+02  0.10000000000E-02 0.  1.
</event>
<event>
 5    1  0.7026671E-009  0.3875188E+03  0.7957747E-01  0.3419059E+00
         13   -1    0    0    0    0  0.00000000000E+00  0.00000000000E+00  0.14999999963E+04  0.15000000000E+04  0.10566000000E+00 0. -1.
        994   -1    0    0    0    0 -0.00000000000E+00 -0.00000000000E+00  0.11368683772E-12  0.17120000000E+03  0.17120000000E+03 0.  0.
         13    1    1    2    0    0 -0.39036631705E+01  0.25649392138E+02  0.14546471458E+03  0.14776036091E+03  0.10566000000E+00 0. -1.
        994    1    1    2    0    0  0.50100745342E+02 -0.14899611882E+03  0.85593725752E+02  0.24768054828E+03  0.17120000000E+03 0.  0.
        998    1    1    2    0    0 -0.46197082172E+02  0.12334672669E+03  0.12689415559E+04  0.12757590908E+04  0.10000000000E-02 0. -1.
</event>
<event>
 5    1  0.7026671E-009  0.3882933E+03  0.7957747E-01  0.3415824E+00
         13   -1    0    0    0    0  0.00000000000E+00  0.00000000000E+00  0.14999999963E+04  0.15000000000E+04  0.10566000000E+00 0. -1.
        994   -1    0    0    0    0 -0.00000000000E+00 -0.00000000000E+00  0.11368683772E-12  0.17120000000E+03  0.17120000000E+03 0.  0.
         13    1    1    2    0    0  0.24678930584E+03  0.31710468245E+02  0.12611952161E+04  0.12855053090E+04  0.10566000000E+00 0. -1.
        994    1    1    2    0    0 -0.24700060231E+03 -0.31647905323E+02  0.23744770647E+03  0.38431984175E+03  0.17120000000E+03 0.  0.
        998    1    1    2    0    0  0.21129647199E+00 -0.62562921767E-01  0.13570737342E+01  0.13748492420E+01  0.10000000000E-02 0. -1.
</event>
<event>
 5    1  0.7026671E-009  0.3882974E+03  0.7957747E-01  0.3415807E+00
         13   -1    0    0    0    0  0.00000000000E+00  0.00000000000E+00  0.14999999963E+04  0.15000000000E+04  0.10566000000E+00 0.  1.
        994   -1    0    0    0    0 -0.00000000000E+00 -0.00000000000E+00  0.11368683772E-12  0.17120000000E+03  0.17120000000E+03 0.  0.
         13    1    1    2    0    0 -0.22259864664E+03  0.15428964793E+03  0.12003678191E+04  0.12305439306E+04  0.10566000000E+00 0.  1.
        994    1    1    2    0    0  0.22339671358E+03 -0.15488418400E+03  0.29579292303E+03  0.43668993050E+03  0.17120000000E+03 0.  0.
        998    1    1    2    0    0 -0.79806693594E+00  0.59453607285E+00  0.38392541716E+01  0.39661388743E+01  0.10000000000E-02 0. -1.
</event>
<event>
 5    1  0.7026671E-009  0.3883006E+03  0.7957747E-01  0.3415793E+00
         13   -1    0    0    0    0  0.00000000000E+00  0.00000000000E+00  0.14999999963E+04  0.15000000000E+04  0.10566000000E+00 0.  1.
        994   -1    0    0    0    0 -0.00000000000E+00 -0.00000000000E+00  0.11368683772E-12  0.17120000000E+03  0.17120000000E+03 0.  0.
         13    1    1    2    0    0 -0.85508067252E+02 -0.21276507623E+03  0.11031443241E+04  0.11267244642E+04  0.10566000000E+00 0.  1.
        994    1    1    2    0    0  0.95960243011E+02  0.23944821761E+03  0.25893601822E+03  0.40361010727E+03  0.17120000000E+03 0.  0.
        998    1    1    2    0    0 -0.10452175759E+02 -0.26683141383E+02  0.13791965392E+03  0.14086542851E+03  0.10000000000E-02 0.  1.
</event>
<event>
 5    1  0.7026671E-009  0.3883010E+03  0.7957747E-01  0.3415792E+00
         13   -1    0    0    0    0  0.00000000000E+00  0.00000000000E+00  0.14999999963E+04  0.15000000000E+04  0.10566000000E+00 0. -1.
        994   -1    0    0    0    0 -0.00000000000E+00 -0.00000000000E+00  0.11368683772E-12  0.17120000000E+03  0.17120000000E+03 0.  0.
         13    1    1    2    0    0  0.35884026575E+02 -0.25132657381E+03  0.12468318499E+04  0.12724159631E+04  0.10566000000E+00 0. -1.
        994    1    1    2    0    0 -0.35962370385E+02  0.25190089827E+03  0.25031236236E+03  0.39587002082E+03  0.17120000000E+03 0.  0.
        998    1    1    2    0    0  0.78343809997E-01 -0.57432445969E+00  0.28557840667E+01  0.29140161243E+01  0.10000000000E-02 0. -1.
</event>
<event>
 5    1  0.7026671E-009  0.3882996E+03  0.7957747E-01  0.3415798E+00
         13   -1    0    0    0    0  0.00000000000E+00  0.00000000000E+00  0.14999999963E+04  0.15000000000E+04  0.10566000000E+00 0. -1.
        994   -1    0    0    0    0 -0.00000000000E+00 -0.00000000000E+00  0.11368683772E-12  0.17120000000E+03  0.17120000000E+03 0.  0.
         13    1    1    2    0    0 -0.20934451824E+03  0.22373249386E+03  0.10758858052E+04  0.11186651121E+04  0.10566000000E+00 0. -1.
        994    1    1    2    0    0  0.21031967034E+03 -0.22470028662E+03  0.41957862965E+03  0.54779580958E+03  0.17120000000E+03 0.  0.
        998    1    1    2    0    0 -0.97515209334E+00  0.96779275776E+00  0.45355614395E+01  0.47390782857E+01  0.10000000000E-02 0. -1.
</event>
<event>
 5    1  0.7026671E-009  0.3882921E+03  0.7957747E-01  0.3415829E+00
         13   -1    0    0    0    0  0.00000000000E+00  0.00000000000E+00  0.14999999963E+04  0.15000000000E+04  0.10566000000E+00 0. -1.
        994   -1    0    0    0    0 -0.00000000000E+00 -0.00000000000E+00  0.11368683772E-12  0.17120000000E+03  0.17120000000E+03 0.  0.
         13    1    1    2    0    0  0.55115721223E+02  0.21495565049E+03  0.13171761180E+04  0.13357382271E+04  0.10566000000E+00 0. -1.
        994    1    1    2    0    0 -0.55280947104E+02 -0.21513337067E+03  0.18135321609E+03  0.33397122522E+03  0.17120000000E+03 0.  0.
        998    1    1    2    0    0  0.16522588043E+00  0.17772017145E+00  0.14706621704E+01  0.14905476410E+01  0.10000000000E-02 0. -1.
</event>
<event>
 5    1  0.7026671E-009  0.3883010E+03  0.7957747E-01  0.3415792E+00
         13   -1    0    0    0    0  0.00000000000E+00  0.00000000000E+00  0.14999999963E+04  0.15000000000E+04  0.10566000000E+00 0.  1.
        994   -1    0    0    0    0 -0.00000000000E+00 -0.00000000000E+00  0.11368683772E-12  0.17120000000E+03  0.17120000000E+03 0.  0.
         13    1    1    2    0    0  0.25649425396E+03 -0.83505022796E+02  0.11767084687E+04  0.12072303934E+04  0.10566000000E+00 0.  1.
        994    1    1    2    0    0 -0.26089944262E+03  0.84945861239E+02  0.30306193089E+03  0.44321585312E+03  0.17120000000E+03 0.  0.
        998    1    1    2    0    0  0.44051886590E+01 -0.14408384424E+01  0.20229596676E+02  0.20753753521E+02  0.10000000000E-02 0. -1.
</event>
<event>
 5    1  0.7026671E-009  0.3874285E+03  0.7957747E-01  0.3419438E+00
         13   -1    0    0    0    0  0.00000000000E+00  0.00000000000E+00  0.14999999963E+04  0.15000000000E+04  0.10566000000E+00 0.  1.
        994   -1    0    0    0    0 -0.00000000000E+00 -0.00000000000E+00  0.11368683772E-12  0.17120000000E+03  0.17120000000E+03 0.  0.
         13    1    1    2    0    0  0.31844883451E+03 -0.68213930485E+01  0.98421879181E+03  0.10344770819E+04  0.10566000000E+00 0.  1.
        994    1    1    2    0    0 -0.32406992812E+03  0.32297556205E+01  0.50398019531E+03  0.62316709388E+03  0.17120000000E+03 0.  0.
        998    1    1    2    0    0  0.56210936065E+01  0.35916374280E+01  0.11801009166E+02  0.13555824250E+02  0.10000000000E-02 0.  1.
</event>
<event>
 5    1  0.7026671E-009  0.3882773E+03  0.7957747E-01  0.3415891E+00
         13   -1    0    0    0    0  0.00000000000E+00  0.00000000000E+00  0.14999999963E+04  0.15000000000E+04  0.10566000000E+00 0. -1.
        994   -1    0    0    0    0 -0.00000000000E+00 -0.00000000000E+00  0.11368683772E-12  0.17120000000E+03  0.17120000000E+03 0.  0.
         13    1    1    2    0    0 -0.23890081879E+03  0.77132354763E+02  0.12392814435E+04  0.12644530473E+04  0.10566000000E+00 0. -1.
        994    1    1    2    0    0  0.24095297112E+03 -0.77668228021E+02  0.24723339066E+03  0.39309601549E+03  0.17120000000E+03 0.  0.
        998    1    1    2    0    0 -0.20521523323E+01  0.53587325838E+00  0.13485162082E+02  0.13650937210E+02  0.10000000000E-02 0. -1.
</event>
<event>
 5    1  0.7026671E-009  0.3882999E+03  0.7957747E-01  0.3415796E+00
         13   -1    0    0    0    0  0.00000000000E+00  0.00000000000E+00  0.14999999963E+04  0.15000000000E+04  0.10566000000E+00 0.  1.
        994   -1    0    0    0    0 -0.00000000000E+00 -0.00000000000E+00  0.11368683772E-12  0.17120000000E+03  0.17120000000E+03 0.  0.
         13    1    1    2    0    0 -0.22424734960E+03  0.12857946813E+03  0.12383836034E+04  0.12650745092E+04  0.10566000000E+00 0.  1.
        994    1    1    2    0    0  0.22438852704E+03 -0.12865730319E+03  0.26067774256E+03  0.40517309658E+03  0.17120000000E+03 0.  0.
        998    1    1    2    0    0 -0.14117744310E+00  0.77835059612E-01  0.93865034032E+00  0.95239426096E+00  0.10000000000E-02 0.  1.
</event>
<event>
 5    1  0.7026671E-009  0.3883009E+03  0.7957747E-01  0.3415792E+00
         13   -1    0    0    0    0  0.00000000000E+00  0.00000000000E+00  0.14999999963E+04  0.15000000000E+04  0.10566000000E+00 0.  1.
        994   -1    0    0    0    0 -0.00000000000E+00 -0.00000000000E+00  0.11368683772E-12  0.17120000000E+03  0.17120000000E+03 0.  0.
         13    1    1    2    0    0  0.16437895600E+03  0.48300599950E+02  0.89713297301E+03  0.91334603057E+03  0.10566000000E+00 0.  1.
        994    1    1    2    0    0 -0.23364968197E+03 -0.68510738091E+02  0.22490406246E+03  0.37306456871E+03  0.17120000000E+03 0.  0.
        998    1    1    2    0    0  0.69270725970E+02  0.20210138140E+02  0.37796296081E+03  0.38478940072E+03  0.10000000000E-02 0.  1.
</event>
<event>
 5    1  0.7026671E-009  0.3883010E+03  0.7957747E-01  0.3415792E+00
         13   -1    0    0    0    0  0.00000000000E+00  0.00000000000E+00  0.14999999963E+04  0.15000000000E+04  0.10566000000E+00 0.  1.
        994   -1    0    0    0    0 -0.00000000000E+00 -0.00000000000E+00  0.11368683772E-12  0.17120000000E+03  0.17120000000E+03 0.  0.
         13    1    1    2    0    0 -0.22448885930E+03  0.82859760672E+02  0.12835796729E+04  0.13056943654E+04  0.10566000000E+00 0.  1.
        994    1    1    2    0    0  0.22457050847E+03 -0.82888510729E+02  0.21595437262E+03  0.36503171032E+03  0.17120000000E+03 0.  0.
        998    1    1    2    0    0 -0.81649170362E-01  0.28750056862E-01  0.46595072580E+00  0.47392428896E+00  0.10000000000E-02 0.  0.
</event>
<event>
 5    1  0.8025088E-009  0.3883008E+03  0.7957747E-01  0.3415793E+00
         13   -1    0    0    0    0  0.00000000000E+00  0.00000000000E+00  0.14999999963E+04  0.15000000000E+04  0.10566000000E+00 0. -1.
        994   -1    0    0    0    0 -0.00000000000E+00 -0.00000000000E+00  0.11368683772E-12  0.17120000000E+03  0.17120000000E+03 0.  0.
         13    1    1    2    0    0 -0.24201798150E+03  0.38472818267E+02  0.12715811810E+04  0.12949793713E+04  0.10566000000E+00 0. -1.
        994    1    1    2    0    0  0.24201988190E+03 -0.38474464594E+02  0.22840796066E+03  0.37620944187E+03  0.17120000000E+03 0.  0.
        998    1    1    2    0    0 -0.19003911552E-02  0.16463267581E-02  0.10854617284E-01  0.11186804491E-01  0.10000000000E-02 0.  1.
</event>
<event>
 5    1  0.7026671E-009  0.3803081E+03  0.7957747E-01  0.3449818E+00
         13   -1    0    0    0    0  0.00000000000E+00  0.00000000000E+00  0.14999999963E+04  0.15000000000E+04  0.10566000000E+00 0. -1.
        994   -1    0    0    0    0 -0.00000000000E+00 -0.00000000000E+00  0.11368683772E-12  0.17120000000E+03  0.17120000000E+03 0.  0.
         13    1    1    2    0    0  0.17870447300E+03  0.47069026704E+02  0.95859865693E+03  0.97624903492E+03  0.10566000000E+00 0. -1.
        994    1    1    2    0    0 -0.22206705548E+03 -0.11960763389E+03  0.25847726237E+03  0.39967449053E+03  0.17120000000E+03 0.  0.
        998    1    1    2    0    0  0.43362582482E+02  0.72538607186E+02  0.28292407697E+03  0.29527647455E+03  0.10000000000E-02 0.  1.
</event>
<event>
 5    1  0.7026671E-009  0.3883009E+03  0.7957747E-01  0.3415792E+00
         13   -1    0    0    0    0  0.00000000000E+00  0.00000000000E+00  0.14999999963E+04  0.15000000000E+04  0.10566000000E+00 0.  1.
        994   -1    0    0    0    0 -0.00000000000E+00 -0.00000000000E+00  0.11368683772E-12  0.17120000000E+03  0.17120000000E+03 0.  0.
         13    1    1    2    0    0 -0.13825954061E+03  0.17003288277E+03  0.13190902449E+04  0.13371708818E+04  0.10566000000E+00 0.  1.
        994    1    1    2    0    0  0.13868463595E+03 -0.17053554281E+03  0.17703966818E+03  0.33010344397E+03  0.17120000000E+03 0.  0.
        998    1    1    2    0    0 -0.42509533894E+00  0.50266004242E+00  0.38700831791E+01  0.39256742069E+01  0.10000000000E-02 0.  1.
</event>
<event>
 5    1  0.7026671E-009  0.3879392E+03  0.7957747E-01  0.3417302E+00
         13   -1    0    0    0    0  0.00000000000E+00  0.00000000000E+00  0.14999999963E+04  0.15000000000E+04  0.10566000000E+00 0. -1.
        994   -1    0    0    0    0 -0.00000000000E+00 -0.00000000000E+00  0.11368683772E-12  0.17120000000E+03  0.17120000000E+03 0.  0.
         13    1    1    2    0    0  0.22347967468E+03 -0.10312946410E+03  0.12124644011E+04  0.12371939163E+04  0.10566000000E+00 0. -1.
        994    1    1    2    0    0 -0.23032876448E+03  0.10250602504E+03  0.24527086799E+03  0.39118545934E+03  0.17120000000E+03 0.  0.
        998    1    1    2    0    0  0.68490898005E+01  0.62343906555E+00  0.42264727160E+02  0.42820624357E+02  0.10000000000E-02 0. -1.
</event>
<event>
 5    1  0.7026671E-009  0.3830480E+03  0.7957747E-01  0.3437993E+00
         13   -1    0    0    0    0  0.00000000000E+00  0.00000000000E+00  0.14999999963E+04  0.15000000000E+04  0.10566000000E+00 0. -1.
        994   -1    0    0    0    0 -0.00000000000E+00 -0.00000000000E+00  0.11368683772E-12  0.17120000000E+03  0.17120000000E+03 0.  0.
         13    1    1    2    0    0 -0.70710769145E+02  0.59100180845E+02  0.25447834133E+03  0.27065121766E+03  0.10566000000E+00 0. -1.
        994    1    1    2    0    0  0.23085761137E+03 -0.13755575794E+03  0.29759067756E+03  0.43598907629E+03  0.17120000000E+03 0.  0.
        998    1    1    2    0    0 -0.16014684223E+03  0.78455577096E+02  0.94793097739E+03  0.96455970606E+03  0.10000000000E-02 0. -1.
</event>
<event>
 5    1  0.7026671E-009  0.3882983E+03  0.7957747E-01  0.3415803E+00
         13   -1    0    0    0    0  0.00000000000E+00  0.00000000000E+00  0.14999999963E+04  0.15000000000E+04  0.10566000000E+00 0. -1.
        994   -1    0    0    0    0 -0.00000000000E+00 -0.00000000000E+00  0.11368683772E-12  0.17120000000E+03  0.17120000000E+03 0.  0.
         13    1    1    2    0    0  0.18805390882E+03 -0.11401233446E+03  0.13205657611E+04  0.13387520403E+04  0.10566000000E+00 0. -1.
        994    1    1    2    0    0 -0.18834627984E+03  0.11411561656E+03  0.17780185156E+03  0.33078638650E+03  0.17120000000E+03 0.  0.
        998    1    1    2    0    0  0.29237101836E+00 -0.10328209925E+00  0.16323836594E+01  0.16615731750E+01  0.10000000000E-02 0.  1.
</event>
<event>
 5    1  0.7026671E-009  0.3882879E+03  0.7957747E-01  0.3415846E+00
         13   -1    0    0    0    0  0.00000000000E+00  0.00000000000E+00  0.14999999963E+04  0.15000000000E+04  0.10566000000E+00 0. -1.
        994   -1    0    0    0    0 -0.00000000000E+00 -0.00000000000E+00  0.11368683772E-12  0.17120000000E+03  0.17120000000E+03 0.  0.
         13    1    1    2    0    0 -0.97211276969E+02 -0.12037409766E+03  0.68510528103E+03  0.70235974616E+03  0.10566000000E+00 0. -1.
        994    1    1    2    0    0  0.17391505450E+03  0.21132297000E+03  0.30108502469E+03  0.44143569852E+03  0.17120000000E+03 0.  0.
        998    1    1    2    0    0 -0.76703777530E+02 -0.90948872341E+02  0.51380969056E+03  0.52740455533E+03  0.10000000000E-02 0.  1.
</event>
<event>
 5    1  0.7026671E-009  0.3882960E+03  0.7957747E-01  0.3415812E+00
         13   -1    0    0    0    0  0.00000000000E+00  0.00000000000E+00  0.14999999963E+04  0.15000000000E+04  0.10566000000E+00 0.  1.
        994   -1    0    0    0    0 -0.00000000000E+00 -0.00000000000E+00  0.11368683772E-12  0.17120000000E+03  0.17120000000E+03 0.  0.
         13    1    1    2    0    0  0.21725152270E+03 -0.47478690954E+02  0.13136962414E+04  0.13323851830E+04  0.10566000000E+00 0.  1.
        994    1    1    2    0    0 -0.21770376375E+03  0.47634714884E+02  0.18272495321E+03  0.33520418156E+03  0.17120000000E+03 0.  0.
        998    1    1    2    0    0  0.45224105078E+00 -0.15602393006E+00  0.35788017011E+01  0.36106354082E+01  0.10000000000E-02 0. -1.
</event>
<event>
 5    1  0.7026671E-009  0.3883010E+03  0.7957747E-01  0.3415792E+00
         13   -1    0    0    0    0  0.00000000000E+00  0.00000000000E+00  0.14999999963E+04  0.15000000000E+04  0.10566000000E+00 0.  1.
        994   -1    0    0    0    0 -0.00000000000E+00 -0.00000000000E+00  0.11368683772E-12  0.17120000000E+03  0.17120000000E+03 0.  0.
         13    1    1    2    0    0 -0.15424481471E+03 -0.18176282815E+03  0.12493257664E+04  0.12718663728E+04  0.10566000000E+00 0.  1.
        994    1    1    2    0    0  0.15746533104E+03  0.18557456294E+03  0.22466467708E+03  0.37284970969E+03  0.17120000000E+03 0.  0.
        998    1    1    2    0    0 -0.32205163322E+01 -0.38117347911E+01  0.26009552812E+02  0.26483917498E+02  0.10000000000E-02 0. -1.
</event>
<event>
 5    1  0.7026671E-009  0.3882992E+03  0.7957747E-01  0.3415799E+00
         13   -1    0    0    0    0  0.00000000000E+00  0.00000000000E+00  0.14999999963E+04  0.15000000000E+04  0.10566000000E+00 0.  1.
        994   -1    0    0    0    0 -0.00000000000E+00 -0.00000000000E+00  0.11368683772E-12  0.17120000000E+03  0.17120000000E+03 0.  0.
         13    1    1    2    0    0 -0.93309207422E+02  0.19143277453E+03  0.10580494662E+04  0.10792691043E+04  0.10566000000E+00 0.  1.
        994    1    1    2    0    0  0.11118306880E+03 -0.22655157317E+03  0.24529093666E+03  0.39136220270E+03  0.17120000000E+03 0.  0.
        998    1    1    2    0    0 -0.17873861375E+02  0.35118798637E+02  0.19665959337E+03  0.20056869298E+03  0.10000000000E-02 0.  1.
</event>
<event>
 5    1  0.7026671E-009  0.3883010E+03  0.7957747E-01  0.3415792E+00
         13   -1    0    0    0    0  0.00000000000E+00  0.00000000000E+00  0.14999999963E+04  0.15000000000E+04  0.10566000000E+00 0. -1.
        994   -1    0    0    0    0 -0.00000000000E+00 -0.00000000000E+00  0.11368683772E-12  0.17120000000E+03  0.17120000000E+03 0.  0.
         13    1    1    2    0    0 -0.25860587942E+03  0.19549559462E+03  0.98917693285E+03  0.10409450245E+04  0.10566000000E+00 0. -1.
        994    1    1    2    0    0  0.25955354448E+03 -0.19621373752E+03  0.50719907789E+03  0.62644091330E+03  0.17120000000E+03 0.  0.
        998    1    1    2    0    0 -0.94766505636E+00  0.71814289879E+00  0.36239855357E+01  0.38140621974E+01  0.10000000000E-02 0.  0.
</event>
<event>
 5    1  0.7026671E-009  0.3883009E+03  0.7957747E-01  0.3415792E+00
         13   -1    0    0    0    0  0.00000000000E+00  0.00000000000E+00  0.14999999963E+04  0.15000000000E+04  0.10566000000E+00 0.  1.
        994   -1    0    0    0    0 -0.00000000000E+00 -0.00000000000E+00  0.11368683772E-12  0.17120000000E+03  0.17120000000E+03 0.  0.
         13    1    1    2    0    0 -0.32853035096E+02 -0.22427807264E+03  0.13095440852E+04  0.13290168163E+04  0.10566000000E+00 0.  1.
        994    1    1    2    0    0  0.32857291436E+02  0.22433068833E+03  0.19012737494E+03  0.34185043225E+03  0.17120000000E+03 0.  0.
        998    1    1    2    0    0 -0.42563393143E-02 -0.52615688932E-01  0.32853619044E+00  0.33275149222E+00  0.10000000000E-02 0.  1.
</event>
<event>
 5    1  0.7026671E-009  0.3883008E+03  0.7957747E-01  0.3415793E+00
         13   -1    0    0    0    0  0.00000000000E+00  0.00000000000E+00  0.14999999963E+04  0.15000000000E+04  0.10566000000E+00 0.  1.
        994   -1    0    0    0    0 -0.00000000000E+00 -0.00000000000E+00  0.11368683772E-12  0.17120000000E+03  0.17120000000E+03 0.  0.
         13    1    1    2    0    0 -0.18370198335E+03 -0.15665592247E+03  0.12792674901E+04  0.13018497682E+04  0.10566000000E+00 0.  1.
        994    1    1    2    0    0  0.18374224553E+03  0.15668174248E+03  0.22048505722E+03  0.36909820059E+03  0.17120000000E+03 0.  0.
        998    1    1    2    0    0 -0.40262181007E-01 -0.25820011220E-01  0.24744899990E+00  0.25203119599E+00  0.10000000000E-02 0. -1.
</event>
<event>
 5    1  0.7026671E-009  0.3882992E+03  0.7957747E-01  0.3415799E+00
         13   -1    0    0    0    0  0.00000000000E+00  0.00000000000E+00  0.14999999963E+04  0.15000000000E+04  0.10566000000E+00 0.  1.
        994   -1    0    0    0    0 -0.00000000000E+00 -0.00000000000E+00  0.11368683772E-12  0.17120000000E+03  0.17120000000E+03 0.  0.
         13    1    1    2    0    0  0.29361591601E+02  0.22614611781E+03  0.13053306343E+04  0.13251008436E+04  0.10566000000E+00 0.  1.
        994    1    1    2    0    0 -0.29432940024E+02 -0.22636803932E+03  0.19315735044E+03  0.34456928072E+03  0.17120000000E+03 0.  0.
        998    1    1    2    0    0  0.71348423326E-01  0.22192151265E+00  0.15120115564E+01  0.15298757146E+01  0.10000000000E-02 0. -1.
</event>
<event>
 5    1  0.7026671E-009  0.3883010E+03  0.7957747E-01  0.3415792E+00
         13   -1    0    0    0    0  0.00000000000E+00  0.00000000000E+00  0.14999999963E+04  0.15000000000E+04  0.10566000000E+00 0. -1.
        994   -1    0    0    0    0 -0.00000000000E+00 -0.00000000000E+00  0.11368683772E-12  0.17120000000E+03  0.17120000000E+03 0.  0.
         13    1    1    2    0    0 -0.10539725643E+02  0.23602855192E+03  0.12891257708E+04  0.13105975077E+04  0.10566000000E+00 0. -1.
        994    1    1    2    0    0  0.10548291283E+02 -0.23622897430E+03  0.20977791995E+03  0.35948798373E+03  0.17120000000E+03 0.  0.
        998    1    1    2    0    0 -0.85656399716E-02  0.20042237887E+00  0.10963055308E+01  0.11145085540E+01  0.10000000000E-02 0.  0.
</event>
<event>
 5    1  0.7026671E-009  0.3883007E+03  0.7957747E-01  0.3415793E+00
         13   -1    0    0    0    0  0.00000000000E+00  0.00000000000E+00  0.14999999963E+04  0.15000000000E+04  0.10566000000E+00 0. -1.
        994   -1    0    0    0    0 -0.00000000000E+00 -0.00000000000E+00  0.11368683772E-12  0.17120000000E+03  0.17120000000E+03 0.  0.
         13    1    1    2    0    0 -0.13949769957E+03 -0.20486497560E+03  0.12483689691E+04  0.12727349923E+04  0.10566000000E+00 0. -1.
        994    1    1    2    0    0  0.14083369115E+03  0.20677564947E+03  0.24013727654E+03  0.38673718383E+03  0.17120000000E+03 0.  0.
        998    1    1    2    0    0 -0.13359915813E+01 -0.19106738728E+01  0.11493750618E+02  0.11727823857E+02  0.10000000000E-02 0.  1.
</event>
<event>
 5    1  0.7026671E-009  0.3882961E+03  0.7957747E-01  0.3415812E+00
         13   -1    0    0    0    0  0.00000000000E+00  0.00000000000E+00  0.14999999963E+04  0.15000000000E+04  0.10566000000E+00 0. -1.
        994   -1    0    0    0    0 -0.00000000000E+00 -0.00000000000E+00  0.11368683772E-12  0.17120000000E+03  0.17120000000E+03 0.  0.
         13    1    1    2    0    0 -0.10141307257E+02  0.46862448720E+01  0.30062616911E+02  0.32071468682E+02  0.10566000000E+00 0. -1.
        994    1    1    2    0    0  0.29932679767E+03 -0.15316769703E+03  0.58251032875E+03  0.69403501231E+03  0.17120000000E+03 0.  0.
        998    1    1    2    0    0 -0.28918549041E+03  0.14848145216E+03  0.88742705061E+03  0.94509351900E+03  0.10000000000E-02 0. -1.
</event>
<event>
 5    1  0.7026671E-009  0.3883009E+03  0.7957747E-01  0.3415792E+00
         13   -1    0    0    0    0  0.00000000000E+00  0.00000000000E+00  0.14999999963E+04  0.15000000000E+04  0.10566000000E+00 0. -1.
        994   -1    0    0    0    0 -0.00000000000E+00 -0.00000000000E+00  0.11368683772E-12  0.17120000000E+03  0.17120000000E+03 0.  0.
         13    1    1    2    0    0 -0.27012134720E+03 -0.11636542555E+03  0.11248624203E+04  0.11626787734E+04  0.10566000000E+00 0. -1.
        994    1    1    2    0    0  0.27121735887E+03  0.11682078618E+03  0.37066033065E+03  0.50388934554E+03  0.17120000000E+03 0.  0.
        998    1    1    2    0    0 -0.10960116660E+01 -0.45536063649E+00  0.44772453600E+01  0.46318810321E+01  0.10000000000E-02 0. -1.
</event>
<event>
 5    1  0.7026671E-009  0.3882999E+03  0.7957747E-01  0.3415797E+00
         13   -1    0    0    0    0  0.00000000000E+00  0.00000000000E+00  0.14999999963E+04  0.15000000000E+04  0.10566000000E+00 0. -1.
        994   -1    0    0    0    0 -0.00000000000E+00 -0.00000000000E+00  0.11368683772E-12  0.17120000000E+03  0.17120000000E+03 0.  0.
         13    1    1    2    0    0 -0.54720570188E+02 -0.24111899464E+03  0.11983407699E+04  0.12235821682E+04  0.10566000000E+00 0. -1.
        994    1    1    2    0    0  0.56699928149E+02  0.25050789014E+03  0.25616346710E+03  0.40112123698E+03  0.17120000000E+03 0.  0.
        998    1    1    2    0    0 -0.19793579609E+01 -0.93888955069E+01  0.45495759304E+02  0.46496594848E+02  0.10000000000E-02 0.  1.
</event>
<event>
 5    1  0.7026671E-009  0.3871712E+03  0.7957747E-01  0.3420516E+00
         13   -1    0    0    0    0  0.00000000000E+00  0.00000000000E+00  0.14999999963E+04  0.15000000000E+04  0.10566000000E+00 0. -1.
        994   -1    0    0    0    0 -0.00000000000E+00 -0.00000000000E+00  0.11368683772E-12  0.17120000000E+03  0.17120000000E+03 0.  0.
         13    1    1    2    0    0  0.13448025579E+03 -0.11576248727E+03  0.68813382157E+03  0.71064341284E+03  0.10566000000E+00 0. -1.
        994    1    1    2    0    0 -0.24478612076E+03  0.18150485526E+03  0.41051052449E+03  0.53915914915E+03  0.17120000000E+03 0.  0.
        998    1    1    2    0    0  0.11030586498E+03 -0.65742367990E+02  0.40135565022E+03  0.42139743801E+03  0.10000000000E-02 0. -1.
</event>
<event>
 5    1  0.7026671E-009  0.3883010E+03  0.7957747E-01  0.3415792E+00
         13   -1    0    0    0    0  0.00000000000E+00  0.00000000000E+00  0.14999999963E+04  0.15000000000E+04  0.10566000000E+00 0. -1.
        994   -1    0    0    0    0 -0.00000000000E+00 -0.00000000000E+00  0.11368683772E-12  0.17120000000E+03  0.17120000000E+03 0.  0.
         13    1    1    2    0    0 -0.11202863203E+03  0.21428776246E+03  0.12785954645E+04  0.13012594025E+04  0.10566000000E+00 0. -1.
        994    1    1    2    0    0  0.11204027848E+03 -0.21431038504E+03  0.22125968116E+03  0.36979352570E+03  0.17120000000E+03 0.  0.
        998    1    1    2    0    0 -0.11646449266E-01  0.22622584046E-01  0.14485058498E+00  0.14707179559E+00  0.10000000000E-02 0. -1.
</event>
<event>
 5    1  0.7026671E-009  0.3883006E+03  0.7957747E-01  0.3415793E+00
         13   -1    0    0    0    0  0.00000000000E+00  0.00000000000E+00  0.14999999963E+04  0.15000000000E+04  0.10566000000E+00 0.  1.
        994   -1    0    0    0    0 -0.00000000000E+00 -0.00000000000E+00  0.11368683772E-12  0.17120000000E+03  0.17120000000E+03 0.  0.
         13    1    1    2    0    0  0.21420478740E+03 -0.57169166534E+02  0.12089213442E+04  0.12290821096E+04  0.10566000000E+00 0.  1.
        994    1    1    2    0    0 -0.22871134610E+03  0.60927624636E+02  0.21024664518E+03  0.35990852600E+03  0.17120000000E+03 0.  0.
        998    1    1    2    0    0  0.14506558703E+02 -0.37584581018E+01  0.80832006930E+02  0.82209364418E+02  0.10000000000E-02 0.  1.
</event>
<event>
 5    1  0.7026671E-009  0.3883010E+03  0.7957747E-01  0.3415792E+00
         13   -1    0    0    0    0  0.00000000000E+00  0.00000000000E+00  0.14999999963E+04  0.15000000000E+04  0.10566000000E+00 0.  1.
        994   -1    0    0    0    0 -0.00000000000E+00 -0.00000000000E+00  0.11368683772E-12  0.17120000000E+03  0.17120000000E+03 0.  0.
         13    1    1    2    0    0 -0.48288129992E+02  0.26669810424E+03  0.11161537307E+04  0.11485899112E+04  0.10566000000E+00 0.  1.
        994    1    1    2    0    0  0.50549586610E+02 -0.27921712596E+03  0.33150740940E+03  0.46874733772E+03  0.17120000000E+03 0.  0.
        998    1    1    2    0    0 -0.22614566180E+01  0.12519021715E+02  0.52338856185E+02  0.53862751123E+02  0.10000000000E-02 0. -1.
</event>
<event>
 5    1  0.7026671E-009  0.3882995E+03  0.7957747E-01  0.3415798E+00
         13   -1    0    0    0    0  0.00000000000E+00  0.00000000000E+00  0.14999999963E+04  0.15000000000E+04  0.10566000000E+00 0.  1.
        994   -1    0    0    0    0 -0.00000000000E+00 -0.00000000000E+00  0.11368683772E-12  0.17120000000E+03  0.17120000000E+03 0.  0.
         13    1    1    2    0    0  0.62044341266E+02  0.14578070483E+03  0.77592862103E+03  0.79193860259E+03  0.10566000000E+00 0.  1.
        994    1    1    2    0    0 -0.10086625224E+03 -0.23403753420E+03  0.25126909121E+03  0.39672807369E+03  0.17120000000E+03 0.  0.
        998    1    1    2    0    0  0.38821910978E+02  0.88256829371E+02  0.47280228404E+03  0.48253332372E+03  0.10000000000E-02 0.  1.
</event>
<event>
 5    1  0.7026671E-009  0.3872460E+03  0.7957747E-01  0.3420202E+00
         13   -1    0    0    0    0  0.00000000000E+00  0.00000000000E+00  0.14999999963E+04  0.15000000000E+04  0.10566000000E+00 0. -1.
        994   -1    0    0    0    0 -0.00000000000E+00 -0.00000000000E+00  0.11368683772E-12  0.17120000000E+03  0.17120000000E+03 0.  0.
         13    1    1    2    0    0  0.64186268635E+02 -0.20863573186E+03  0.11639259169E+04  0.11842180107E+04  0.10566000000E+00 0. -1.
        994    1    1    2    0    0 -0.62369602849E+02  0.22298164893E+03  0.20108330069E+03  0.35121890173E+03  0.17120000000E+03 0.  0.
        998    1    1    2    0    0 -0.18166657865E+01 -0.14345917070E+02  0.13499077874E+03  0.13576308761E+03  0.10000000000E-02 0.  1.
</event>
<event>
 5    1  0.7026671E-009  0.3883007E+03  0.7957747E-01  0.3415793E+00
         13   -1    0    0    0    0  0.00000000000E+00  0.00000000000E+00  0.14999999963E+04  0.15000000000E+04  0.10566000000E+00 0. -1.
        994   -1    0    0    0    0 -0.00000000000E+00 -0.00000000000E+00  0.11368683772E-12  0.17120000000E+03  0.17120000000E+03 0.  0.
         13    1    1    2    0    0 -0.65576538678E+02  0.32848803182E+03  0.92691848091E+03  0.98558741413E+03  0.10566000000E+00 0. -1.
        994    1    1    2    0    0  0.65586431232E+02 -0.32857317493E+03  0.57286735202E+03  0.68538190394E+03  0.17120000000E+03 0.  0.
        998    1    1    2    0    0 -0.98925539192E-02  0.85143102640E-01  0.21416335053E+00  0.23068192660E+00  0.10000000000E-02 0.  1.
</event>
<event>
 5    1  0.7026671E-009  0.3883009E+03  0.7957747E-01  0.3415792E+00
         13   -1    0    0    0    0  0.00000000000E+00  0.00000000000E+00  0.14999999963E+04  0.15000000000E+04  0.10566000000E+00 0. -1.
        994   -1    0    0    0    0 -0.00000000000E+00 -0.00000000000E+00  0.11368683772E-12  0.17120000000E+03  0.17120000000E+03 0.  0.
         13    1    1    2    0    0 -0.14435071503E+03  0.23784186427E+03  0.11854358545E+04  0.12176469348E+04  0.10566000000E+00 0. -1.
        994    1    1    2    0    0  0.14436241292E+03 -0.23786168664E+03  0.31445835350E+03  0.45344479743E+03  0.17120000000E+03 0.  0.
        998    1    1    2    0    0 -0.11697890942E-01  0.19822369632E-01  0.10578824864E+00  0.10826781859E+00  0.10000000000E-02 0. -1.
</event>
<event>
 5    1  0.7584640E-009  0.3883009E+03  0.7957747E-01  0.3415792E+00
         13   -1    0    0    0    0  0.00000000000E+00  0.00000000000E+00  0.14999999963E+04  0.15000000000E+04  0.10566000000E+00 0. -1.
        994   -1    0    0    0    0 -0.00000000000E+00 -0.00000000000E+00  0.11368683772E-12  0.17120000000E+03  0.17120000000E+03 0.  0.
         13    1    1    2    0    0 -0.18987646548E+02  0.23872524533E+03  0.12837836981E+04  0.13059291207E+04  0.10566000000E+00 0. -1.
        994    1    1    2    0    0  0.18986929400E+02 -0.23873087937E+03  0.21618069894E+03  0.36523481604E+03  0.17120000000E+03 0.  0.
        998    1    1    2    0    0  0.71714751004E-03  0.56340400696E-02  0.35599197903E-01  0.36063272167E-01  0.10000000000E-02 0.  0.
</event>
<event>
 5    1  0.7026671E-009  0.3883000E+03  0.7957747E-01  0.3415796E+00
         13   -1    0    0    0    0  0.00000000000E+00  0.00000000000E+00  0.14999999963E+04  0.15000000000E+04  0.10566000000E+00 0.  1.
        994   -1    0    0    0    0 -0.00000000000E+00 -0.00000000000E+00  0.11368683772E-12  0.17120000000E+03  0.17120000000E+03 0.  0.
         13    1    1    2    0    0 -0.10976102276E+03  0.19264268761E+03  0.12967080906E+04  0.13155267274E+04  0.10566000000E+00 0.  1.
        994    1    1    2    0    0  0.11133724777E+03 -0.19520444839E+03  0.18627171276E+03  0.33838934733E+03  0.17120000000E+03 0.  0.
        998    1    1    2    0    0 -0.15762250133E+01  0.25617607731E+01  0.17020192939E+02  0.17283925255E+02  0.10000000000E-02 0. -1.
</event>
<event>
 5    1  0.7026671E-009  0.3882555E+03  0.7957747E-01  0.3415981E+00
         13   -1    0    0    0    0  0.00000000000E+00  0.00000000000E+00  0.14999999963E+04  0.15000000000E+04  0.10566000000E+00 0. -1.
        994   -1    0    0    0    0 -0.00000000000E+00 -0.00000000000E+00  0.11368683772E-12  0.17120000000E+03  0.17120000000E+03 0.  0.
         13    1    1    2    0    0 -0.16364041920E+03 -0.16717605463E+03  0.12951075220E+04  0.13160659272E+04  0.10566000000E+00 0. -1.
        994    1    1    2    0    0  0.16370256777E+03  0.16724420180E+03  0.20475809817E+03  0.35497108684E+03  0.17120000000E+03 0.  0.
        998    1    1    2    0    0 -0.62148569498E-01 -0.68147171217E-01  0.13437609029E+00  0.16298593582E+00  0.10000000000E-02 0.  1.
</event>
<event>
 5    1  0.7026671E-009  0.3882995E+03  0.7957747E-01  0.3415798E+00
         13   -1    0    0    0    0  0.00000000000E+00  0.00000000000E+00  0.14999999963E+04  0.15000000000E+04  0.10566000000E+00 0. -1.
        994   -1    0    0    0    0 -0.00000000000E+00 -0.00000000000E+00  0.11368683772E-12  0.17120000000E+03  0.17120000000E+03 0.  0.
         13    1    1    2    0    0  0.12236701829E+03  0.19181755737E+03  0.12685408197E+04  0.12887837231E+04  0.10566000000E+00 0. -1.
        994    1    1    2    0    0 -0.12528085272E+03 -0.19606300763E+03  0.20195113587E+03  0.35246233316E+03  0.17120000000E+03 0.  0.
        998    1    1    2    0    0  0.29138344276E+01  0.42454502600E+01  0.29508040710E+02  0.29953943756E+02  0.10000000000E-02 0. -1.
</event>
<event>
 5    1  0.7026671E-009  0.3882232E+03  0.7957747E-01  0.3416116E+00
         13   -1    0    0    0    0  0.00000000000E+00  0.00000000000E+00  0.14999999963E+04  0.15000000000E+04  0.10566000000E+00 0.  1.
        994   -1    0    0    0    0 -0.00000000000E+00 -0.00000000000E+00  0.11368683772E-12  0.17120000000E+03  0.17120000000E+03 0.  0.
         13    1    1    2    0    0  0.15893612565E+03  0.55055191562E+01  0.93883614911E+03  0.95221023352E+03  0.10566000000E+00 0.  1.
        994    1    1    2    0    0 -0.21790720385E+03 -0.10070046575E+02  0.17407645257E+03  0.32740953967E+03  0.17120000000E+03 0.  0.
        998    1    1    2    0    0  0.58971078198E+02  0.45645274192E+01  0.38708739460E+03  0.39158022681E+03  0.10000000000E-02 0.  1.
</event>
<event>
 5    1  0.7026671E-009  0.3883004E+03  0.7957747E-01  0.3415794E+00
         13   -1    0    0    0    0  0.00000000000E+00  0.00000000000E+00  0.14999999963E+04  0.15000000000E+04  0.10566000000E+00 0. -1.
        994   -1    0    0    0    0 -0.00000000000E+00 -0.00000000000E+00  0.11368683772E-12  0.17120000000E+03  0.17120000000E+03 0.  0.
         13    1    1    2    0    0 -0.14338518667E+02  0.22825046900E+03  0.13001461506E+04  0.13201075312E+04  0.10566000000E+00 0. -1.
        994    1    1    2    0    0  0.14387434647E+02 -0.22897333789E+03  0.19542944874E+03  0.34660914179E+03  0.17120000000E+03 0.  0.
        998    1    1    2    0    0 -0.48915979574E-01  0.72286888597E+00  0.44243968931E+01  0.44833270087E+01  0.10000000000E-02 0.  1.
</event>
<event>
 5    1  0.7026671E-009  0.3883002E+03  0.7957747E-01  0.3415795E+00
         13   -1    0    0    0    0  0.00000000000E+00  0.00000000000E+00  0.14999999963E+04  0.15000000000E+04  0.10566000000E+00 0. -1.
        994   -1    0    0    0    0 -0.00000000000E+00 -0.00000000000E+00  0.11368683772E-12  0.17120000000E+03  0.17120000000E+03 0.  0.
         13    1    1    2    0    0  0.41284929511E+02  0.28436184953E+03  0.11566685868E+04  0.11918256322E+04  0.10566000000E+00 0. -1.
        994    1    1    2    0    0 -0.41295668229E+02 -0.28438240767E+03  0.34320976669E+03  0.47925052943E+03  0.17120000000E+03 0.  0.
        998    1    1    2    0    0  0.10738718313E-01  0.20558143092E-01  0.12164283375E+00  0.12383834753E+00  0.10000000000E-02 0. -1.
</event>
<event>
 5    1  0.7026671E-009  0.3883010E+03  0.7957747E-01  0.3415792E+00
         13   -1    0    0    0    0  0.00000000000E+00  0.00000000000E+00  0.14999999963E+04  0.15000000000E+04  0.10566000000E+00 0.  1.
        994   -1    0    0    0    0 -0.00000000000E+00 -0.00000000000E+00  0.11368683772E-12  0.17120000000E+03  0.17120000000E+03 0.  0.
         13    1    1    2    0    0 -0.23852998608E+03  0.10535796895E+03  0.42889414923E+03  0.50194328194E+03  0.10566000000E+00 0.  1.
        994    1    1    2    0    0  0.31333786144E+03 -0.13830228637E+03  0.93677913685E+03  0.10120141941E+04  0.17120000000E+03 0.  0.
        998    1    1    2    0    0 -0.74807875362E+02  0.32944317418E+02  0.13432671020E+03  0.15724252396E+03  0.10000000000E-02 0.  1.
</event>
<event>
 5    1  0.7026671E-009  0.3882908E+03  0.7957747E-01  0.3415834E+00
         13   -1    0    0    0    0  0.00000000000E+00  0.00000000000E+00  0.14999999963E+04  0.15000000000E+04  0.10566000000E+00 0.  1.
        994   -1    0    0    0    0 -0.00000000000E+00 -0.00000000000E+00  0.11368683772E-12  0.17120000000E+03  0.17120000000E+03 0.  0.
         13    1    1    2    0    0  0.17471021000E+03 -0.26830968638E+03  0.10212187061E+04  0.10702342744E+04  0.10566000000E+00 0.  1.
        994    1    1    2    0    0 -0.17476075642E+03  0.26832252383E+03  0.47847326081E+03  0.60065331106E+03  0.17120000000E+03 0.  0.
        998    1    1    2    0    0  0.50546427493E-01 -0.12837450864E-01  0.30802940438E+00  0.31241455702E+00  0.10000000000E-02 0.  1.
</event>
<event>
 5    1  0.7026671E-009  0.3862186E+03  0.7957747E-01  0.3424521E+00
         13   -1    0    0    0    0  0.00000000000E+00  0.00000000000E+00  0.14999999963E+04  0.15000000000E+04  0.10566000000E+00 0.  1.
        994   -1    0    0    0    0 -0.00000000000E+00 -0.00000000000E+00  0.11368683772E-12  0.17120000000E+03  0.17120000000E+03 0.  0.
         13    1    1    2    0    0 -0.13143039136E+02  0.66500574275E+01  0.54290989987E+02  0.56253759868E+02  0.10566000000E+00 0.  1.
        994    1    1    2    0    0  0.55939105578E+02 -0.19394057801E+03  0.14829630125E+03  0.30338649326E+03  0.17120000000E+03 0.  0.
        998    1    1    2    0    0 -0.42796066441E+02  0.18729052058E+03  0.12974127050E+04  0.13115597469E+04  0.10000000000E-02 0.  1.
</event>
<event>
 5    1  0.7026671E-009  0.3882986E+03  0.7957747E-01  0.3415802E+00
         13   -1    0    0    0    0  0.00000000000E+00  0.00000000000E+00  0.14999999963E+04  0.15000000000E+04  0.10566000000E+00 0.  1.
        994   -1    0    0    0    0 -0.00000000000E+00 -0.00000000000E+00  0.11368683772E-12  0.17120000000E+03  0.17120000000E+03 0.  0.
         13    1    1    2    0    0  0.46634069258E+02 -0.21605131979E+03  0.13202543119E+04  0.13386277931E+04  0.10566000000E+00 0.  1.
        994    1    1    2    0    0 -0.46622873417E+02  0.21609290508E+03  0.17936992959E+03  0.33219399090E+03  0.17120000000E+03 0.  0.
        998    1    1    2    0    0 -0.11195840526E-01 -0.41585282654E-01  0.37575482498E+00  0.37821603757E+00  0.10000000000E-02 0.  1.
</event>
<event>
 5    1  0.7026671E-009  0.3883003E+03  0.7957747E-01  0.3415795E+00
         13   -1    0    0    0    0  0.00000000000E+00  0.00000000000E+00  0.14999999963E+04  0.15000000000E+04  0.10566000000E+00 0. -1.
        994   -1    0    0    0    0 -0.00000000000E+00 -0.00000000000E+00  0.11368683772E-12  0.17120000000E+03  0.17120000000E+03 0.  0.
         13    1    1    2    0    0  0.17827858712E+03  0.16192733646E+03  0.12805946075E+04  0.13030450019E+04  0.10566000000E+00 0. -1.
        994    1    1    2    0    0 -0.17829741348E+03 -0.16195946215E+03  0.21918069427E+03  0.36792723706E+03  0.17120000000E+03 0.  0.
        998    1    1    2    0    0  0.18826364066E-01  0.32125688521E-01  0.22469450529E+00  0.22776108657E+00  0.10000000000E-02 0.  1.
</event>
<event>
 5    1  0.7026671E-009  0.3883005E+03  0.7957747E-01  0.3415794E+00
         13   -1    0    0    0    0  0.00000000000E+00  0.00000000000E+00  0.14999999963E+04  0.15000000000E+04  0.10566000000E+00 0.  1.
        994   -1    0    0    0    0 -0.00000000000E+00 -0.00000000000E+00  0.11368683772E-12  0.17120000000E+03  0.17120000000E+03 0.  0.
         13    1    1    2    0    0  0.10135600684E+03 -0.20095565305E+03  0.13129621798E+04  0.13321133253E+04  0.10566000000E+00 0.  1.
        994    1    1    2    0    0 -0.10136631172E+03  0.20096318330E+03  0.18695497719E+03  0.33900285204E+03  0.17120000000E+03 0.  0.
        998    1    1    2    0    0  0.10304878395E-01 -0.75302548985E-02  0.82839306138E-01  0.83822705152E-01  0.10000000000E-02 0.  1.
</event>
<event>
 5    1  0.7026671E-009  0.3883010E+03  0.7957747E-01  0.3415792E+00
         13   -1    0    0    0    0  0.00000000000E+00  0.00000000000E+00  0.14999999963E+04  0.15000000000E+04  0.10566000000E+00 0.  1.
        994   -1    0    0    0    0 -0.00000000000E+00 -0.00000000000E+00  0.11368683772E-12  0.17120000000E+03  0.17120000000E+03 0.  0.
         13    1    1    2    0    0  0.22092894381E+03 -0.23156575148E+03  0.10092111563E+04  0.10587442867E+04  0.10566000000E+00 0.  1.
        994    1    1    2    0    0 -0.22200311659E+03  0.23269159118E+03  0.48587367859E+03  0.60730011685E+03  0.17120000000E+03 0.  0.
        998    1    1    2    0    0  0.10741727785E+01 -0.11258397022E+01  0.49151613649E+01  0.51555964191E+01  0.10000000000E-02 0.  0.
</event>
<event>
 5    1  0.7026671E-009  0.3883009E+03  0.7957747E-01  0.3415792E+00
         13   -1    0    0    0    0  0.00000000000E+00  0.00000000000E+00  0.14999999963E+04  0.15000000000E+04  0.10566000000E+00 0. -1.
        994   -1    0    0    0    0 -0.00000000000E+00 -0.00000000000E+00  0.11368683772E-12  0.17120000000E+03  0.17120000000E+03 0.  0.
         13    1    1    2    0    0  0.21891269722E+03 -0.12755428275E+03  0.89571041078E+03  0.93085445436E+03  0.10566000000E+00 0. -1.
        994    1    1    2    0    0 -0.26512502830E+03  0.15430189059E+03  0.41527043746E+03  0.54392952696E+03  0.17120000000E+03 0.  0.
        998    1    1    2    0    0  0.46212331082E+02 -0.26747607840E+02  0.18901914804E+03  0.19641601868E+03  0.10000000000E-02 0.  1.
</event>
<event>
 5    1  0.7026671E-009  0.3883010E+03  0.7957747E-01  0.3415792E+00
         13   -1    0    0    0    0  0.00000000000E+00  0.00000000000E+00  0.14999999963E+04  0.15000000000E+04  0.10566000000E+00 0.  1.
        994   -1    0    0    0    0 -0.00000000000E+00 -0.00000000000E+00  0.11368683772E-12  0.17120000000E+03  0.17120000000E+03 0.  0.
         13    1    1    2    0    0 -0.21391084291E+03 -0.22405181872E+02  0.10164034285E+04  0.10389108631E+04  0.10566000000E+00 0.  1.
        994    1    1    2    0    0  0.25958353814E+03  0.27193119699E+02  0.26663314926E+03  0.41051888546E+03  0.17120000000E+03 0.  0.
        998    1    1    2    0    0 -0.45672695226E+02 -0.47879378267E+01  0.21696341849E+03  0.22177025139E+03  0.10000000000E-02 0. -1.
</event>
<event>
 5    1  0.7026671E-009  0.3883010E+03  0.7957747E-01  0.3415792E+00
         13   -1    0    0    0    0  0.00000000000E+00  0.00000000000E+00  0.14999999963E+04  0.15000000000E+04  0.10566000000E+00 0. -1.
        994   -1    0    0    0    0 -0.00000000000E+00 -0.00000000000E+00  0.11368683772E-12  0.17120000000E+03  0.17120000000E+03 0.  0.
         13    1    1    2    0    0  0.17571243202E+03 -0.15196428699E+03  0.12979882154E+04  0.13186134467E+04  0.10566000000E+00 0. -1.
        994    1    1    2    0    0 -0.17579294406E+03  0.15203014137E+03  0.20142635834E+03  0.35199196141E+03  0.17120000000E+03 0.  0.
        998    1    1    2    0    0  0.80512041954E-01 -0.65854379738E-01  0.58542255148E+00  0.59459192058E+00  0.10000000000E-02 0. -1.
</event>
<event>
 5    1  0.7026671E-009  0.3883001E+03  0.7957747E-01  0.3415795E+00
         13   -1    0    0    0    0  0.00000000000E+00  0.00000000000E+00  0.14999999963E+04  0.15000000000E+04  0.10566000000E+00 0. -1.
        994   -1    0    0    0    0 -0.00000000000E+00 -0.00000000000E+00  0.11368683772E-12  0.17120000000E+03  0.17120000000E+03 0.  0.
         13    1    1    2    0    0 -0.67456792535E+02  0.27225510715E+03  0.11654811288E+04  0.11987574964E+04  0.10566000000E+00 0. -1.
        994    1    1    2    0    0  0.67822694779E+02 -0.27406546146E+03  0.32701626261E+03  0.46471590365E+03  0.17120000000E+03 0.  0.
        998    1    1    2    0    0 -0.36590224359E+00  0.18103543133E+01  0.75026048210E+01  0.77265999826E+01  0.10000000000E-02 0.  1.
</event>
<event>
 5    1  0.7026671E-009  0.3883008E+03  0.7957747E-01  0.3415792E+00
         13   -1    0    0    0    0  0.00000000000E+00  0.00000000000E+00  0.14999999963E+04  0.15000000000E+04  0.10566000000E+00 0.  1.
        994   -1    0    0    0    0 -0.00000000000E+00 -0.00000000000E+00  0.11368683772E-12  0.17120000000E+03  0.17120000000E+03 0.  0.
         13    1    1    2    0    0  0.23293184468E+03  0.18969217428E+03  0.10798798022E+04  0.11208839207E+04  0.10566000000E+00 0.  1.
        994    1    1    2    0    0 -0.23605327256E+03 -0.19227145869E+03  0.40572025954E+03  0.53535766578E+03  0.17120000000E+03 0.  0.
        998    1    1    2    0    0  0.31214278806E+01  0.25792844119E+01  0.14399934519E+02  0.14958413527E+02  0.10000000000E-02 0.  1.
</event>
<event>
 5    1  0.7026671E-009  0.3864735E+03  0.7957747E-01  0.3423447E+00
         13   -1    0    0    0    0  0.00000000000E+00  0.00000000000E+00  0.14999999963E+04  0.15000000000E+04  0.10566000000E+00 0. -1.
        994   -1    0    0    0    0 -0.00000000000E+00 -0.00000000000E+00  0.11368683772E-12  0.17120000000E+03  0.17120000000E+03 0.  0.
         13    1    1    2    0    0 -0.12686480068E+02  0.28189867314E+02  0.16957195038E+03  0.17236668157E+03  0.10566000000E+00 0. -1.
        994    1    1    2    0    0 -0.29421388059E+02 -0.18652043963E+03  0.12785648542E+03  0.28515296481E+03  0.17120000000E+03 0.  0.
        998    1    1    2    0    0  0.42107868127E+02  0.15833057232E+03  0.12025715605E+04  0.12136803536E+04  0.10000000000E-02 0. -1.
</event>
<event>
 5    1  0.7026671E-009  0.3882929E+03  0.7957747E-01  0.3415826E+00
         13   -1    0    0    0    0  0.00000000000E+00  0.00000000000E+00  0.14999999963E+04  0.15000000000E+04  0.10566000000E+00 0. -1.
        994   -1    0    0    0    0 -0.00000000000E+00 -0.00000000000E+00  0.11368683772E-12  0.17120000000E+03  0.17120000000E+03 0.  0.
         13    1    1    2    0    0 -0.28427040630E+03 -0.61094143523E+02  0.11007056495E+04  0.11384617237E+04  0.10566000000E+00 0. -1.
        994    1    1    2    0    0  0.28993136914E+03  0.62503987031E+02  0.37537123417E+03  0.50811411184E+03  0.17120000000E+03 0.  0.
        998    1    1    2    0    0 -0.56609628364E+01 -0.14098435078E+01  0.23923112580E+02  0.24624164462E+02  0.10000000000E-02 0.  1.
</event>
<event>
 5    1  0.7026671E-009  0.3883010E+03  0.7957747E-01  0.3415792E+00
         13   -1    0    0    0    0  0.00000000000E+00  0.00000000000E+00  0.14999999963E+04  0.15000000000E+04  0.10566000000E+00 0. -1.
        994   -1    0    0    0    0 -0.00000000000E+00 -0.00000000000E+00  0.11368683772E-12  0.17120000000E+03  0.17120000000E+03 0.  0.
         13    1    1    2    0    0 -0.14456669379E+00 -0.28874557565E+03  0.11474649385E+04  0.11832370112E+04  0.10566000000E+00 0. -1.
        994    1    1    2    0    0  0.15250119368E+00  0.28939100984E+03  0.34997869281E+03  0.48532639044E+03  0.17120000000E+03 0.  0.
        998    1    1    2    0    0 -0.79344998844E-02 -0.64543418277E+00  0.25563649602E+01  0.26365983862E+01  0.10000000000E-02 0. -1.
</event>
<event>
 5    1  0.7026671E-009  0.3883008E+03  0.7957747E-01  0.3415792E+00
         13   -1    0    0    0    0  0.00000000000E+00  0.00000000000E+00  0.14999999963E+04  0.15000000000E+04  0.10566000000E+00 0. -1.
        994   -1    0    0    0    0 -0.00000000000E+00 -0.00000000000E+00  0.11368683772E-12  0.17120000000E+03  0.17120000000E+03 0.  0.
         13    1    1    2    0    0 -0.18695291142E+02 -0.22391590488E+03  0.13137162369E+04  0.13327933855E+04  0.10566000000E+00 0. -1.
        994    1    1    2    0    0  0.18697455596E+02  0.22392627463E+03  0.18623577998E+03  0.33835746935E+03  0.17120000000E+03 0.  0.
        998    1    1    2    0    0 -0.21644539205E-02 -0.10369754849E-01  0.47979443999E-01  0.49145129187E-01  0.10000000000E-02 0. -1.
</event>
<event>
 5    1  0.7026671E-009  0.3882791E+03  0.7957747E-01  0.3415883E+00
         13   -1    0    0    0    0  0.00000000000E+00  0.00000000000E+00  0.14999999963E+04  0.15000000000E+04  0.10566000000E+00 0. -1.
        994   -1    0    0    0    0 -0.00000000000E+00 -0.00000000000E+00  0.11368683772E-12  0.17120000000E+03  0.17120000000E+03 0.  0.
         13    1    1    2    0    0  0.40002420809E+02 -0.21245786044E+03  0.13064403191E+04  0.13242072552E+04  0.10566000000E+00 0. -1.
        994    1    1    2    0    0 -0.41200132811E+02  0.21530459745E+03  0.17596736516E+03  0.32913139356E+03  0.17120000000E+03 0.  0.
        998    1    1    2    0    0  0.11977120019E+01 -0.28467370134E+01  0.17592312037E+02  0.17861351278E+02  0.10000000000E-02 0.  1.
</event>
<event>
 5    1  0.7026671E-009  0.3882928E+03  0.7957747E-01  0.3415826E+00
         13   -1    0    0    0    0  0.00000000000E+00  0.00000000000E+00  0.14999999963E+04  0.15000000000E+04  0.10566000000E+00 0.  1.
        994   -1    0    0    0    0 -0.00000000000E+00 -0.00000000000E+00  0.11368683772E-12  0.17120000000E+03  0.17120000000E+03 0.  0.
         13    1    1    2    0    0 -0.56846245651E+01 -0.18348009988E+03  0.10417626084E+04  0.10578121787E+04  0.10566000000E+00 0.  1.
        994    1    1    2    0    0  0.87706580410E+01  0.22921763870E+03  0.19536109687E+03  0.34654443944E+03  0.17120000000E+03 0.  0.
        998    1    1    2    0    0 -0.30860334759E+01 -0.45737538825E+02  0.26287629098E+03  0.26684338182E+03  0.10000000000E-02 0.  1.
</event>
<event>
 5    1  0.7026671E-009  0.3883010E+03  0.7957747E-01  0.3415792E+00
         13   -1    0    0    0    0  0.00000000000E+00  0.00000000000E+00  0.14999999963E+04  0.15000000000E+04  0.10566000000E+00 0. -1.
        994   -1    0    0    0    0 -0.00000000000E+00 -0.00000000000E+00  0.11368683772E-12  0.17120000000E+03  0.17120000000E+03 0.  0.
         13    1    1    2    0    0 -0.12277575606E+03 -0.25411113174E+03  0.11721053040E+04  0.12056024255E+04  0.10566000000E+00 0. -1.
        994    1    1    2    0    0  0.12285128286E+03  0.25426360871E+03  0.32718437140E+03  0.46486715662E+03  0.17120000000E+03 0.  0.
        998    1    1    2    0    0 -0.75526797756E-01 -0.15247697265E+00  0.71032091987E+00  0.73041791707E+00  0.10000000000E-02 0.  0.
</event>
<event>
 5    1  0.7026671E-009  0.3882965E+03  0.7957747E-01  0.3415810E+00
         13   -1    0    0    0    0  0.00000000000E+00  0.00000000000E+00  0.14999999963E+04  0.15000000000E+04  0.10566000000E+00 0. -1.
        994   -1    0    0    0    0 -0.00000000000E+00 -0.00000000000E+00  0.11368683772E-12  0.17120000000E+03  0.17120000000E+03 0.  0.
         13    1    1    2    0    0  0.23174672664E+03  0.11790661385E+00  0.11746285619E+04  0.11972714098E+04  0.10566000000E+00 0. -1.
        994    1    1    2    0    0 -0.24919054237E+03  0.55035655975E+00  0.23783962109E+03  0.38467304904E+03  0.17120000000E+03 0.  0.
        998    1    1    2    0    0  0.17443815729E+02 -0.66826317360E+00  0.87531813319E+02  0.89255541154E+02  0.10000000000E-02 0.  1.
</event>
<event>
 5    1  0.7026671E-009  0.3784336E+03  0.7957747E-01  0.3458007E+00
         13   -1    0    0    0    0  0.00000000000E+00  0.00000000000E+00  0.14999999963E+04  0.15000000000E+04  0.10566000000E+00 0.  1.
        994   -1    0    0    0    0 -0.00000000000E+00 -0.00000000000E+00  0.11368683772E-12  0.17120000000E+03  0.17120000000E+03 0.  0.
         13    1    1    2    0    0  0.18304824500E+03  0.86928316727E+02  0.71736316798E+03  0.74543485173E+03  0.10566000000E+00 0.  1.
        994    1    1    2    0    0 -0.20932764090E+03 -0.15335464535E+03  0.28095754605E+03  0.41902540636E+03  0.17120000000E+03 0.  0.
        998    1    1    2    0    0  0.26279395907E+02  0.66426328619E+02  0.50167928225E+03  0.50673974190E+03  0.10000000000E-02 0.  1.
</event>
<event>
 5    1  0.8995634E-009  0.3883007E+03  0.7957747E-01  0.3415793E+00
         13   -1    0    0    0    0  0.00000000000E+00  0.00000000000E+00  0.14999999963E+04  0.15000000000E+04  0.10566000000E+00 0.  1.
        994   -1    0    0    0    0 -0.00000000000E+00 -0.00000000000E+00  0.11368683772E-12  0.17120000000E+03  0.17120000000E+03 0.  0.
         13    1    1    2    0    0  0.71910707399E+02 -0.22874072234E+03  0.12831689294E+04  0.13053796308E+04  0.10566000000E+00 0.  1.
        994    1    1    2    0    0 -0.71909721985E+02  0.22874324710E+03  0.21681523165E+03  0.36580427264E+03  0.17120000000E+03 0.  0.
        998    1    1    2    0    0 -0.98541364744E-03 -0.25247627026E-02  0.15835217440E-01  0.16096570384E-01  0.10000000000E-02 0. -1.
</event>
<event>
 5    1  0.7026671E-009  0.3882831E+03  0.7957747E-01  0.3415866E+00
         13   -1    0    0    0    0  0.00000000000E+00  0.00000000000E+00  0.14999999963E+04  0.15000000000E+04  0.10566000000E+00 0. -1.
        994   -1    0    0    0    0 -0.00000000000E+00 -0.00000000000E+00  0.11368683772E-12  0.17120000000E+03  0.17120000000E+03 0.  0.
         13    1    1    2    0    0 -0.66727182499E+02 -0.22638870928E+03  0.12857546417E+04  0.13072373061E+04  0.10566000000E+00 0. -1.
        994    1    1    2    0    0  0.67189481296E+02  0.22709428693E+03  0.21056035035E+03  0.36018237421E+03  0.17120000000E+03 0.  0.
        998    1    1    2    0    0 -0.46229879738E+00 -0.70557764906E+00  0.36850042437E+01  0.37803197316E+01  0.10000000000E-02 0. -1.
</event>
<event>
 5    1  0.7026671E-009  0.3883008E+03  0.7957747E-01  0.3415792E+00
         13   -1    0    0    0    0  0.00000000000E+00  0.00000000000E+00  0.14999999963E+04  0.15000000000E+04  0.10566000000E+00 0.  1.
        994   -1    0    0    0    0 -0.00000000000E+00 -0.00000000000E+00  0.11368683772E-12  0.17120000000E+03  0.17120000000E+03 0.  0.
         13    1    1    2    0    0  0.40462235281E+02  0.33861568721E+03  0.86935078549E+03  0.93384611982E+03  0.10566000000E+00 0.  1.
        994    1    1    2    0    0 -0.40494625315E+02 -0.33885362653E+03  0.63000497457E+03  0.73666634433E+03  0.17120000000E+03 0.  0.
        998    1    1    2    0    0  0.32390033909E-01  0.23793932028E+00  0.64423621957E+00  0.68753584709E+00  0.10000000000E-02 0.  1.
</event>
<event>
 5    1  0.7026671E-009  0.3882951E+03  0.7957747E-01  0.3415816E+00
         13   -1    0    0    0    0  0.00000000000E+00  0.00000000000E+00  0.14999999963E+04  0.15000000000E+04  0.10566000000E+00 0.  1.
        994   -1    0    0    0    0 -0.00000000000E+00 -0.00000000000E+00  0.11368683772E-12  0.17120000000E+03  0.17120000000E+03 0.  0.
         13    1    1    2    0    0 -0.24713915282E+03 -0.20116767126E+02  0.11681261002E+04  0.11941528555E+04  0.10566000000E+00 0.  1.
        994    1    1    2    0    0  0.26021618124E+03  0.21075352551E+02  0.26680833157E+03  0.41067354098E+03  0.17120000000E+03 0.  0.
        998    1    1    2    0    0 -0.13077028421E+02 -0.95858542472E+00  0.65065564474E+02  0.66373603486E+02  0.10000000000E-02 0. -1.
</event>
<event>
 5    1  0.7026671E-009  0.3883009E+03  0.7957747E-01  0.3415792E+00
         13   -1    0    0    0    0  0.00000000000E+00  0.00000000000E+00  0.14999999963E+04  0.15000000000E+04  0.10566000000E+00 0.  1.
        994   -1    0    0    0    0 -0.00000000000E+00 -0.00000000000E+00  0.11368683772E-12  0.17120000000E+03  0.17120000000E+03 0.  0.
         13    1    1    2    0    0  0.26938387305E+02  0.34374697846E+03  0.60228670753E+03  0.69400068526E+03  0.10566000000E+00 0.  1.
        994    1    1    2    0    0 -0.26973045542E+02 -0.34430671740E+03  0.89671584658E+03  0.97605502424E+03  0.17120000000E+03 0.  0.
        998    1    1    2    0    0  0.34658237066E-01  0.55973893839E+00  0.99744216881E+00  0.11442905019E+01  0.10000000000E-02 0. -1.
</event>
<event>
 5    1  0.7026671E-009  0.3883009E+03  0.7957747E-01  0.3415792E+00
         13   -1    0    0    0    0  0.00000000000E+00  0.00000000000E+00  0.14999999963E+04  0.15000000000E+04  0.10566000000E+00 0. -1.
        994   -1    0    0    0    0 -0.00000000000E+00 -0.00000000000E+00  0.11368683772E-12  0.17120000000E+03  0.17120000000E+03 0.  0.
         13    1    1    2    0    0  0.21319310312E+03 -0.19979234357E+03  0.11277002990E+04  0.11649361594E+04  0.10566000000E+00 0. -1.
        994    1    1    2    0    0 -0.21445707865E+03  0.20098664761E+03  0.36567527961E+03  0.49941497896E+03  0.17120000000E+03 0.  0.
        998    1    1    2    0    0  0.12639755264E+01 -0.11943040426E+01  0.66244176374E+01  0.68488616801E+01  0.10000000000E-02 0. -1.
</event>
<event>
 5    1  0.7026671E-009  0.3883010E+03  0.7957747E-01  0.3415792E+00
         13   -1    0    0    0    0  0.00000000000E+00  0.00000000000E+00  0.14999999963E+04  0.15000000000E+04  0.10566000000E+00 0. -1.
        994   -1    0    0    0    0 -0.00000000000E+00 -0.00000000000E+00  0.11368683772E-12  0.17120000000E+03  0.17120000000E+03 0.  0.
         13    1    1    2    0    0  0.21844507698E+03  0.40842922102E+02  0.12761794858E+04  0.12953843009E+04  0.10566000000E+00 0. -1.
        994    1    1    2    0    0 -0.22386902084E+03 -0.41871008983E+02  0.19212996120E+03  0.34364790393E+03  0.17120000000E+03 0.  0.
        998    1    1    2    0    0  0.54239438630E+01  0.10280868818E+01  0.31690549329E+02  0.32167795191E+02  0.10000000000E-02 0. -1.
</event>
<event>
 5    1  0.7026671E-009  0.3883010E+03  0.7957747E-01  0.3415792E+00
         13   -1    0    0    0    0  0.00000000000E+00  0.00000000000E+00  0.14999999963E+04  0.15000000000E+04  0.10566000000E+00 0. -1.
        994   -1    0    0    0    0 -0.00000000000E+00 -0.00000000000E+00  0.11368683772E-12  0.17120000000E+03  0.17120000000E+03 0.  0.
         13    1    1    2    0    0 -0.43245289620E+02 -0.25067048975E+03  0.11534691244E+04  0.11811845248E+04  0.10566000000E+00 0. -1.
        994    1    1    2    0    0  0.45521377563E+02  0.26405372566E+03  0.28499193024E+03  0.42699696270E+03  0.17120000000E+03 0.  0.
        998    1    1    2    0    0 -0.22760879431E+01 -0.13383235907E+02  0.61538941590E+02  0.63018512460E+02  0.10000000000E-02 0. -1.
</event>
<event>
 5    1  0.7026671E-009  0.3883010E+03  0.7957747E-01  0.3415792E+00
         13   -1    0    0    0    0  0.00000000000E+00  0.00000000000E+00  0.14999999963E+04  0.15000000000E+04  0.10566000000E+00 0. -1.
        994   -1    0    0    0    0 -0.00000000000E+00 -0.00000000000E+00  0.11368683772E-12  0.17120000000E+03  0.17120000000E+03 0.  0.
         13    1    1    2    0    0 -0.90432155242E+02  0.25852162409E+03  0.11969876867E+04  0.12279213892E+04  0.10566000000E+00 0. -1.
        994    1    1    2    0    0  0.90495385193E+02 -0.25870207756E+03  0.30217546160E+03  0.44242019537E+03  0.17120000000E+03 0.  0.
        998    1    1    2    0    0 -0.63229950509E-01  0.18045347092E+00  0.83684802802E+00  0.85841546107E+00  0.10000000000E-02 0.  0.
</event>
<event>
 5    1  0.7026671E-009  0.3873982E+03  0.7957747E-01  0.3419564E+00
         13   -1    0    0    0    0  0.00000000000E+00  0.00000000000E+00  0.14999999963E+04  0.15000000000E+04  0.10566000000E+00 0. -1.
        994   -1    0    0    0    0 -0.00000000000E+00 -0.00000000000E+00  0.11368683772E-12  0.17120000000E+03  0.17120000000E+03 0.  0.
         13    1    1    2    0    0 -0.79016987755E+02  0.12013650165E+03  0.83667402918E+03  0.84894046060E+03  0.10566000000E+00 0. -1.
        994    1    1    2    0    0  0.10070583961E+03 -0.18146682979E+03  0.15643740106E+03  0.31121371579E+03  0.17120000000E+03 0.  0.
        998    1    1    2    0    0 -0.21688851854E+02  0.61330328140E+02  0.50688856604E+03  0.51104582361E+03  0.10000000000E-02 0. -1.
</event>
<event>
 5    1  0.7026671E-009  0.3838665E+03  0.7957747E-01  0.3434494E+00
         13   -1    0    0    0    0  0.00000000000E+00  0.00000000000E+00  0.14999999963E+04  0.15000000000E+04  0.10566000000E+00 0.  1.
        994   -1    0    0    0    0 -0.00000000000E+00 -0.00000000000E+00  0.11368683772E-12  0.17120000000E+03  0.17120000000E+03 0.  0.
         13    1    1    2    0    0 -0.14602140403E+02 -0.42673086194E+02  0.23295739283E+03  0.23728331764E+03  0.10566000000E+00 0.  1.
        994    1    1    2    0    0 -0.16683750091E+02  0.11436271668E+03  0.47605875934E+02  0.21197390855E+03  0.17120000000E+03 0.  0.
        998    1    1    2    0    0  0.31285890494E+02 -0.71689630484E+02  0.12194367275E+04  0.12219427738E+04  0.10000000000E-02 0.  1.
</event>
<event>
 5    1  0.7026671E-009  0.3883009E+03  0.7957747E-01  0.3415792E+00
         13   -1    0    0    0    0  0.00000000000E+00  0.00000000000E+00  0.14999999963E+04  0.15000000000E+04  0.10566000000E+00 0.  1.
        994   -1    0    0    0    0 -0.00000000000E+00 -0.00000000000E+00  0.11368683772E-12  0.17120000000E+03  0.17120000000E+03 0.  0.
         13    1    1    2    0    0  0.98265877632E+02  0.19456474353E+03  0.12855238287E+04  0.13038723663E+04  0.10566000000E+00 0.  1.
        994    1    1    2    0    0 -0.10062705023E+03 -0.19929443589E+03  0.18348143046E+03  0.33588532379E+03  0.17120000000E+03 0.  0.
        998    1    1    2    0    0  0.23611725953E+01  0.47296923636E+01  0.30994737088E+02  0.31442309935E+02  0.10000000000E-02 0.  1.
</event>
<event>
 5    1  0.7026671E-009  0.3883009E+03  0.7957747E-01  0.3415792E+00
         13   -1    0    0    0    0  0.00000000000E+00  0.00000000000E+00  0.14999999963E+04  0.15000000000E+04  0.10566000000E+00 0.  1.
        994   -1    0    0    0    0 -0.00000000000E+00 -0.00000000000E+00  0.11368683772E-12  0.17120000000E+03  0.17120000000E+03 0.  0.
         13    1    1    2    0    0  0.21824981814E+03 -0.60723438560E+02  0.12214229498E+04  0.12422537392E+04  0.10566000000E+00 0.  1.
        994    1    1    2    0    0 -0.22980413277E+03  0.63880752858E+02  0.21411408713E+03  0.36337992835E+03  0.17120000000E+03 0.  0.
        998    1    1    2    0    0  0.11554314629E+02 -0.31573142976E+01  0.64462959341E+02  0.65566332429E+02  0.10000000000E-02 0.  1.
</event>
<event>
 5    1  0.7026671E-009  0.3883010E+03  0.7957747E-01  0.3415792E+00
         13   -1    0    0    0    0  0.00000000000E+00  0.00000000000E+00  0.14999999963E+04  0.15000000000E+04  0.10566000000E+00 0. -1.
        994   -1    0    0    0    0 -0.00000000000E+00 -0.00000000000E+00  0.11368683772E-12  0.17120000000E+03  0.17120000000E+03 0.  0.
         13    1    1    2    0    0 -0.23046093474E+03  0.16463821901E+03  0.11685548585E+04  0.12023886452E+04  0.10566000000E+00 0. -1.
        994    1    1    2    0    0  0.23064292075E+03 -0.16476349611E+03  0.33053169570E+03  0.46787157255E+03  0.17120000000E+03 0.  0.
        998    1    1    2    0    0 -0.18198600508E+00  0.12527709689E+00  0.91344208140E+00  0.93978225836E+00  0.10000000000E-02 0.  1.
</event>
<event>
 5    1  0.7026671E-009  0.3883000E+03  0.7957747E-01  0.3415796E+00
         13   -1    0    0    0    0  0.00000000000E+00  0.00000000000E+00  0.14999999963E+04  0.15000000000E+04  0.10566000000E+00 0. -1.
        994   -1    0    0    0    0 -0.00000000000E+00 -0.00000000000E+00  0.11368683772E-12  0.17120000000E+03  0.17120000000E+03 0.  0.
         13    1    1    2    0    0 -0.46472141586E+02  0.23926512219E+03  0.12742862173E+04  0.12973869251E+04  0.10566000000E+00 0. -1.
        994    1    1    2    0    0  0.46478898681E+02 -0.23930833188E+03  0.22555556483E+03  0.37364892420E+03  0.17120000000E+03 0.  0.
        998    1    1    2    0    0 -0.67570953476E-02  0.43209694286E-01  0.15821411237E+00  0.16415066668E+00  0.10000000000E-02 0.  1.
</event>
<event>
 5    1  0.7026671E-009  0.3882983E+03  0.7957747E-01  0.3415803E+00
         13   -1    0    0    0    0  0.00000000000E+00  0.00000000000E+00  0.14999999963E+04  0.15000000000E+04  0.10566000000E+00 0.  1.
        994   -1    0    0    0    0 -0.00000000000E+00 -0.00000000000E+00  0.11368683772E-12  0.17120000000E+03  0.17120000000E+03 0.  0.
         13    1    1    2    0    0 -0.17366759319E+03 -0.13889212550E+03  0.13121903121E+04  0.13309000269E+04  0.10566000000E+00 0.  1.
        994    1    1    2    0    0  0.17417474933E+03  0.13944037577E+03  0.18321527576E+03  0.33564525763E+03  0.17120000000E+03 0.  0.
        998    1    1    2    0    0 -0.50715614201E+00 -0.54825026900E+00  0.45944084592E+01  0.46547154370E+01  0.10000000000E-02 0. -1.
</event>
<event>
 5    1  0.7026671E-009  0.3883010E+03  0.7957747E-01  0.3415792E+00
         13   -1    0    0    0    0  0.00000000000E+00  0.00000000000E+00  0.14999999963E+04  0.15000000000E+04  0.10566000000E+00 0. -1.
        994   -1    0    0    0    0 -0.00000000000E+00 -0.00000000000E+00  0.11368683772E-12  0.17120000000E+03  0.17120000000E+03 0.  0.
         13    1    1    2    0    0 -0.25656354243E+03 -0.31788782292E+02  0.11451284737E+04  0.11739482997E+04  0.10566000000E+00 0. -1.
        994    1    1    2    0    0  0.26979658932E+03  0.33432362682E+02  0.29585197359E+03  0.43674449368E+03  0.17120000000E+03 0.  0.
        998    1    1    2    0    0 -0.13233046885E+02 -0.16435803903E+01  0.59019549013E+02  0.60507206620E+02  0.10000000000E-02 0.  1.
</event>
<event>
 5    1  0.7026671E-009  0.3883010E+03  0.7957747E-01  0.3415792E+00
         13   -1    0    0    0    0  0.00000000000E+00  0.00000000000E+00  0.14999999963E+04  0.15000000000E+04  0.10566000000E+00 0. -1.
        994   -1    0    0    0    0 -0.00000000000E+00 -0.00000000000E+00  0.11368683772E-12  0.17120000000E+03  0.17120000000E+03 0.  0.
         13    1    1    2    0    0 -0.13708000913E+03 -0.23981485480E+03  0.11894874891E+04  0.12211398738E+04  0.10566000000E+00 0. -1.
        994    1    1    2    0    0  0.13721959786E+03  0.24005950858E+03  0.30929419346E+03  0.44880967436E+03  0.17120000000E+03 0.  0.
        998    1    1    2    0    0 -0.13958873562E+00 -0.24465377599E+00  0.12183136966E+01  0.12504518178E+01  0.10000000000E-02 0.  1.
</event>
<event>
 5    1  0.7026671E-009  0.3882350E+03  0.7957747E-01  0.3416067E+00
         13   -1    0    0    0    0  0.00000000000E+00  0.00000000000E+00  0.14999999963E+04  0.15000000000E+04  0.10566000000E+00 0. -1.
        994   -1    0    0    0    0 -0.00000000000E+00 -0.00000000000E+00  0.11368683772E-12  0.17120000000E+03  0.17120000000E+03 0.  0.
         13    1    1    2    0    0  0.22929941881E+03 -0.17025638357E+03  0.11262560979E+04  0.11619028655E+04  0.10566000000E+00 0. -1.
        994    1    1    2    0    0 -0.23324274642E+03  0.17223548252E+03  0.35201760709E+03  0.48712737133E+03  0.17120000000E+03 0.  0.
        998    1    1    2    0    0  0.39433276128E+01 -0.19790989495E+01  0.21726291300E+02  0.22169763192E+02  0.10000000000E-02 0. -1.
</event>
<event>
 5    1  0.7026671E-009  0.3882899E+03  0.7957747E-01  0.3415838E+00
         13   -1    0    0    0    0  0.00000000000E+00  0.00000000000E+00  0.14999999963E+04  0.15000000000E+04  0.10566000000E+00 0.  1.
        994   -1    0    0    0    0 -0.00000000000E+00 -0.00000000000E+00  0.11368683772E-12  0.17120000000E+03  0.17120000000E+03 0.  0.
         13    1    1    2    0    0 -0.57446421324E+02  0.30829885645E+03  0.10507640521E+04  0.10965643531E+04  0.10566000000E+00 0.  1.
        994    1    1    2    0    0  0.57672651259E+02 -0.30872533482E+03  0.44782308809E+03  0.57314258722E+03  0.17120000000E+03 0.  0.
        998    1    1    2    0    0 -0.22622993440E+00  0.42647836462E+00  0.14128560927E+01  0.14930596496E+01  0.10000000000E-02 0.  1.
</event>
<event>
 5    1  0.7026671E-009  0.3864182E+03  0.7957747E-01  0.3423680E+00
         13   -1    0    0    0    0  0.00000000000E+00  0.00000000000E+00  0.14999999963E+04  0.15000000000E+04  0.10566000000E+00 0. -1.
        994   -1    0    0    0    0 -0.00000000000E+00 -0.00000000000E+00  0.11368683772E-12  0.17120000000E+03  0.17120000000E+03 0.  0.
         13    1    1    2    0    0 -0.11338421968E+03  0.37007763471E+01  0.45116643501E+03  0.46521053327E+03  0.10566000000E+00 0. -1.
        994    1    1    2    0    0  0.24740113535E+03 -0.30110617339E+02  0.24091425645E+03  0.38660456543E+03  0.17120000000E+03 0.  0.
        998    1    1    2    0    0 -0.13401691566E+03  0.26409840992E+02  0.80791930482E+03  0.81938490130E+03  0.10000000000E-02 0. -1.
</event>
<event>
 5    1  0.7026671E-009  0.3825798E+03  0.7957747E-01  0.3440002E+00
         13   -1    0    0    0    0  0.00000000000E+00  0.00000000000E+00  0.14999999963E+04  0.15000000000E+04  0.10566000000E+00 0. -1.
        994   -1    0    0    0    0 -0.00000000000E+00 -0.00000000000E+00  0.11368683772E-12  0.17120000000E+03  0.17120000000E+03 0.  0.
         13    1    1    2    0    0 -0.14938047375E+03 -0.86433945434E+02  0.82084198750E+03  0.83878896778E+03  0.10566000000E+00 0. -1.
        994    1    1    2    0    0  0.17485528694E+03  0.17196844065E+03  0.23776378776E+03  0.38208451254E+03  0.17120000000E+03 0.  0.
        998    1    1    2    0    0 -0.25474813188E+02 -0.85534495220E+02  0.44139422102E+03  0.45032651968E+03  0.10000000000E-02 0.  1.
</event>
<event>
 5    1  0.7026671E-009  0.3883010E+03  0.7957747E-01  0.3415792E+00
         13   -1    0    0    0    0  0.00000000000E+00  0.00000000000E+00  0.14999999963E+04  0.15000000000E+04  0.10566000000E+00 0. -1.
        994   -1    0    0    0    0 -0.00000000000E+00 -0.00000000000E+00  0.11368683772E-12  0.17120000000E+03  0.17120000000E+03 0.  0.
         13    1    1    2    0    0 -0.21337480214E+03  0.49171669783E+02  0.13231859930E+04  0.13411815099E+04  0.10566000000E+00 0. -1.
        994    1    1    2    0    0  0.21353795569E+03 -0.49209633572E+02  0.17580073107E+03  0.32899146433E+03  0.17120000000E+03 0.  0.
        998    1    1    2    0    0 -0.16315355022E+00  0.37963789298E-01  0.10132722380E+01  0.10270257828E+01  0.10000000000E-02 0.  0.
</event>
<event>
 5    1  0.7026671E-009  0.3881720E+03  0.7957747E-01  0.3416330E+00
         13   -1    0    0    0    0  0.00000000000E+00  0.00000000000E+00  0.14999999963E+04  0.15000000000E+04  0.10566000000E+00 0. -1.
        994   -1    0    0    0    0 -0.00000000000E+00 -0.00000000000E+00  0.11368683772E-12  0.17120000000E+03  0.17120000000E+03 0.  0.
         13    1    1    2    0    0  0.22762090154E+03  0.13884207702E+03  0.10925672809E+04  0.11246295709E+04  0.10566000000E+00 0. -1.
        994    1    1    2    0    0 -0.24108366610E+03 -0.14696264922E+03  0.32734991223E+03  0.46495887921E+03  0.17120000000E+03 0.  0.
        998    1    1    2    0    0  0.13462764559E+02  0.81205721959E+01  0.80082803112E+02  0.81611549903E+02  0.10000000000E-02 0.  1.
</event>
<event>
 5    1  0.7026671E-009  0.3882857E+03  0.7957747E-01  0.3415856E+00
         13   -1    0    0    0    0  0.00000000000E+00  0.00000000000E+00  0.14999999963E+04  0.15000000000E+04  0.10566000000E+00 0. -1.
        994   -1    0    0    0    0 -0.00000000000E+00 -0.00000000000E+00  0.11368683772E-12  0.17120000000E+03  0.17120000000E+03 0.  0.
         13    1    1    2    0    0  0.69492209973E+02  0.22054321061E+03  0.11935637229E+04  0.12157560803E+04  0.10566000000E+00 0. -1.
        994    1    1    2    0    0 -0.72799002979E+02 -0.23447809374E+03  0.22946498010E+03  0.37715154563E+03  0.17120000000E+03 0.  0.
        998    1    1    2    0    0  0.33067930061E+01  0.13934883131E+02  0.76971293252E+02  0.78292374046E+02  0.10000000000E-02 0. -1.
</event>
<event>
 5    1  0.7026671E-009  0.3882173E+03  0.7957747E-01  0.3416141E+00
         13   -1    0    0    0    0  0.00000000000E+00  0.00000000000E+00  0.14999999963E+04  0.15000000000E+04  0.10566000000E+00 0.  1.
        994   -1    0    0    0    0 -0.00000000000E+00 -0.00000000000E+00  0.11368683772E-12  0.17120000000E+03  0.17120000000E+03 0.  0.
         13    1    1    2    0    0  0.31877861138E+03  0.12536117497E+02  0.76645711567E+03  0.83020086644E+03  0.10566000000E+00 0.  1.
        994    1    1    2    0    0 -0.34383525951E+03 -0.12302315116E+02  0.66548586135E+03  0.76847570182E+03  0.17120000000E+03 0.  0.
        998    1    1    2    0    0  0.25056648127E+02 -0.23380238111E+00  0.68057019260E+02  0.72523431734E+02  0.10000000000E-02 0.  1.
</event>
<event>
 5    1  0.7026671E-009  0.3883007E+03  0.7957747E-01  0.3415793E+00
         13   -1    0    0    0    0  0.00000000000E+00  0.00000000000E+00  0.14999999963E+04  0.15000000000E+04  0.10566000000E+00 0.  1.
        994   -1    0    0    0    0 -0.00000000000E+00 -0.00000000000E+00  0.11368683772E-12  0.17120000000E+03  0.17120000000E+03 0.  0.
         13    1    1    2    0    0  0.21311749378E+03 -0.14945418959E+03  0.12320290532E+04  0.12592264372E+04  0.10566000000E+00 0.  1.
        994    1    1    2    0    0 -0.21349043040E+03  0.14969366279E+03  0.26596274234E+03  0.40991703656E+03  0.17120000000E+03 0.  0.
        998    1    1    2    0    0  0.37293661458E+00 -0.23947319829E+00  0.20082007108E+01  0.20565262522E+01  0.10000000000E-02 0.  1.
</event>
<event>
 5    1  0.7026671E-009  0.3882999E+03  0.7957747E-01  0.3415796E+00
         13   -1    0    0    0    0  0.00000000000E+00  0.00000000000E+00  0.14999999963E+04  0.15000000000E+04  0.10566000000E+00 0. -1.
        994   -1    0    0    0    0 -0.00000000000E+00 -0.00000000000E+00  0.11368683772E-12  0.17120000000E+03  0.17120000000E+03 0.  0.
         13    1    1    2    0    0  0.26491654087E+03 -0.26593150535E+02  0.12192138977E+04  0.12479465168E+04  0.10566000000E+00 0. -1.
        994    1    1    2    0    0 -0.26495872564E+03  0.26603983360E+02  0.28050716077E+03  0.42297116387E+03  0.17120000000E+03 0.  0.
        998    1    1    2    0    0  0.42184760500E-01 -0.10832824180E-01  0.27893784664E+00  0.28231936948E+00  0.10000000000E-02 0.  1.
</event>
<event>
 5    1  0.7026671E-009  0.3883010E+03  0.7957747E-01  0.3415792E+00
         13   -1    0    0    0    0  0.00000000000E+00  0.00000000000E+00  0.14999999963E+04  0.15000000000E+04  0.10566000000E+00 0.  1.
        994   -1    0    0    0    0 -0.00000000000E+00 -0.00000000000E+00  0.11368683772E-12  0.17120000000E+03  0.17120000000E+03 0.  0.
         13    1    1    2    0    0  0.20463329604E+03  0.66060833120E+02  0.68775828695E+03  0.72059023859E+03  0.10566000000E+00 0.  1.
        994    1    1    2    0    0 -0.30438813131E+03 -0.98371057873E+02  0.47670840465E+03  0.59907373718E+03  0.17120000000E+03 0.  0.
        998    1    1    2    0    0  0.99754835275E+02  0.32310224754E+02  0.33553330468E+03  0.35153602423E+03  0.10000000000E-02 0. -1.
</event>
<event>
 5    1  0.7026671E-009  0.3882989E+03  0.7957747E-01  0.3415800E+00
         13   -1    0    0    0    0  0.00000000000E+00  0.00000000000E+00  0.14999999963E+04  0.15000000000E+04  0.10566000000E+00 0.  1.
        994   -1    0    0    0    0 -0.00000000000E+00 -0.00000000000E+00  0.11368683772E-12  0.17120000000E+03  0.17120000000E+03 0.  0.
         13    1    1    2    0    0  0.13113530668E+03 -0.19664904787E+03  0.12903208447E+04  0.13117908408E+04  0.10566000000E+00 0.  1.
        994    1    1    2    0    0 -0.13115545791E+03  0.19665899882E+03  0.20960860575E+03  0.35933511318E+03  0.17120000000E+03 0.  0.
        998    1    1    2    0    0  0.20151231418E-01 -0.99509486930E-02  0.70545863053E-01  0.74046014757E-01  0.10000000000E-02 0.  1.
</event>
<event>
 5    1  0.7026671E-009  0.3882857E+03  0.7957747E-01  0.3415855E+00
         13   -1    0    0    0    0  0.00000000000E+00  0.00000000000E+00  0.14999999963E+04  0.15000000000E+04  0.10566000000E+00 0. -1.
        994   -1    0    0    0    0 -0.00000000000E+00 -0.00000000000E+00  0.11368683772E-12  0.17120000000E+03  0.17120000000E+03 0.  0.
         13    1    1    2    0    0  0.64831906985E+02  0.24235772540E+03  0.12570953267E+04  0.12818849850E+04  0.10566000000E+00 0. -1.
        994    1    1    2    0    0 -0.64755257409E+02 -0.24249491509E+03  0.24206559063E+03  0.38846134605E+03  0.17120000000E+03 0.  0.
        998    1    1    2    0    0 -0.76649575774E-01  0.13718969487E+00  0.83907891923E+00  0.85366890686E+00  0.10000000000E-02 0.  1.
</event>
<event>
 5    1  0.7026671E-009  0.3883002E+03  0.7957747E-01  0.3415795E+00
         13   -1    0    0    0    0  0.00000000000E+00  0.00000000000E+00  0.14999999963E+04  0.15000000000E+04  0.10566000000E+00 0.  1.
        994   -1    0    0    0    0 -0.00000000000E+00 -0.00000000000E+00  0.11368683772E-12  0.17120000000E+03  0.17120000000E+03 0.  0.
         13    1    1    2    0    0 -0.35491849758E+02  0.28684113054E+03  0.11508589564E+04  0.11865975958E+04  0.10566000000E+00 0.  1.
        994    1    1    2    0    0  0.35503501679E+02 -0.28688438058E+03  0.34890733783E+03  0.48436444630E+03  0.17120000000E+03 0.  0.
        998    1    1    2    0    0 -0.11651920760E-01  0.43250037752E-01  0.23370204675E+00  0.23795793678E+00  0.10000000000E-02 0.  1.
</event>
<event>
 5    1  0.7026671E-009  0.3877323E+03  0.7957747E-01  0.3418166E+00
         13   -1    0    0    0    0  0.00000000000E+00  0.00000000000E+00  0.14999999963E+04  0.15000000000E+04  0.10566000000E+00 0. -1.
        994   -1    0    0    0    0 -0.00000000000E+00 -0.00000000000E+00  0.11368683772E-12  0.17120000000E+03  0.17120000000E+03 0.  0.
         13    1    1    2    0    0  0.19088818728E+03  0.14190679337E+03  0.11925206120E+04  0.12160103861E+04  0.10566000000E+00 0. -1.
        994    1    1    2    0    0 -0.19558982491E+03 -0.15012922818E+03  0.23268321464E+03  0.37979610733E+03  0.17120000000E+03 0.  0.
        998    1    1    2    0    0  0.47016376320E+01  0.82224348099E+01  0.74796169652E+02  0.75393506526E+02  0.10000000000E-02 0.  1.
</event>
<event>
 5    1  0.7026671E-009  0.3882967E+03  0.7957747E-01  0.3415810E+00
         13   -1    0    0    0    0  0.00000000000E+00  0.00000000000E+00  0.14999999963E+04  0.15000000000E+04  0.10566000000E+00 0.  1.
        994   -1    0    0    0    0 -0.00000000000E+00 -0.00000000000E+00  0.11368683772E-12  0.17120000000E+03  0.17120000000E+03 0.  0.
         13    1    1    2    0    0  0.26484347711E+03  0.15846874919E+03  0.88019536470E+03  0.93273699564E+03  0.10566000000E+00 0.  1.
        994    1    1    2    0    0 -0.28493887890E+03 -0.17059734533E+03  0.55075437681E+03  0.66553245039E+03  0.17120000000E+03 0.  0.
        998    1    1    2    0    0  0.20095401798E+02  0.12128596135E+02  0.69050254766E+02  0.72930553967E+02  0.10000000000E-02 0.  1.
</event>
<event>
 5    1  0.7026671E-009  0.3882528E+03  0.7957747E-01  0.3415993E+00
         13   -1    0    0    0    0  0.00000000000E+00  0.00000000000E+00  0.14999999963E+04  0.15000000000E+04  0.10566000000E+00 0.  1.
        994   -1    0    0    0    0 -0.00000000000E+00 -0.00000000000E+00  0.11368683772E-12  0.17120000000E+03  0.17120000000E+03 0.  0.
         13    1    1    2    0    0  0.13714881423E+03 -0.18003356533E+03  0.13026364175E+04  0.13221510992E+04  0.10566000000E+00 0.  1.
        994    1    1    2    0    0 -0.13757589305E+03  0.18043645321E+03  0.19053486953E+03  0.34219499777E+03  0.17120000000E+03 0.  0.
        998    1    1    2    0    0  0.42707881700E+00 -0.40288787808E+00  0.68287092987E+01  0.68539030227E+01  0.10000000000E-02 0.  1.
</event>
<event>
 5    1  0.7026671E-009  0.3882387E+03  0.7957747E-01  0.3416052E+00
         13   -1    0    0    0    0  0.00000000000E+00  0.00000000000E+00  0.14999999963E+04  0.15000000000E+04  0.10566000000E+00 0.  1.
        994   -1    0    0    0    0 -0.00000000000E+00 -0.00000000000E+00  0.11368683772E-12  0.17120000000E+03  0.17120000000E+03 0.  0.
         13    1    1    2    0    0 -0.12320549673E+03  0.12683497524E+03  0.87936832812E+03  0.89697010710E+03  0.10566000000E+00 0.  1.
        994    1    1    2    0    0  0.17348277147E+03 -0.17717551730E+03  0.23510362227E+03  0.38219182243E+03  0.17120000000E+03 0.  0.
        998    1    1    2    0    0 -0.50277274746E+02  0.50340542058E+02  0.38552804589E+03  0.39203807047E+03  0.10000000000E-02 0.  1.
</event>
<event>
 5    1  0.7026671E-009  0.3883004E+03  0.7957747E-01  0.3415794E+00
         13   -1    0    0    0    0  0.00000000000E+00  0.00000000000E+00  0.14999999963E+04  0.15000000000E+04  0.10566000000E+00 0. -1.
        994   -1    0    0    0    0 -0.00000000000E+00 -0.00000000000E+00  0.11368683772E-12  0.17120000000E+03  0.17120000000E+03 0.  0.
         13    1    1    2    0    0  0.17005635200E+02  0.24936490721E+03  0.12573165105E+04  0.12819192125E+04  0.10566000000E+00 0. -1.
        994    1    1    2    0    0 -0.17054732786E+02 -0.24980542918E+03  0.24062091448E+03  0.38717112605E+03  0.17120000000E+03 0.  0.
        998    1    1    2    0    0  0.49097585464E-01  0.44052197733E+00  0.20625712933E+01  0.21096614718E+01  0.10000000000E-02 0.  1.
</event>
<event>
 5    1  0.7026671E-009  0.3882646E+03  0.7957747E-01  0.3415944E+00
         13   -1    0    0    0    0  0.00000000000E+00  0.00000000000E+00  0.14999999963E+04  0.15000000000E+04  0.10566000000E+00 0. -1.
        994   -1    0    0    0    0 -0.00000000000E+00 -0.00000000000E+00  0.11368683772E-12  0.17120000000E+03  0.17120000000E+03 0.  0.
         13    1    1    2    0    0  0.19256539571E+03  0.11779713255E+03  0.12281229670E+04  0.12486967724E+04  0.10566000000E+00 0. -1.
        994    1    1    2    0    0 -0.20179098651E+03 -0.12516357624E+03  0.21191557811E+03  0.36139061318E+03  0.17120000000E+03 0.  0.
        998    1    1    2    0    0  0.92255908006E+01  0.73664436863E+01  0.59961451136E+02  0.61112614422E+02  0.10000000000E-02 0. -1.
</event>
<event>
 5    1  0.7026671E-009  0.3882577E+03  0.7957747E-01  0.3415972E+00
         13   -1    0    0    0    0  0.00000000000E+00  0.00000000000E+00  0.14999999963E+04  0.15000000000E+04  0.10566000000E+00 0.  1.
        994   -1    0    0    0    0 -0.00000000000E+00 -0.00000000000E+00  0.11368683772E-12  0.17120000000E+03  0.17120000000E+03 0.  0.
         13    1    1    2    0    0 -0.29352237826E+02 -0.23302894197E+03  0.12873201782E+04  0.13085707065E+04  0.10566000000E+00 0.  1.
        994    1    1    2    0    0  0.29770440222E+02  0.23353838870E+03  0.20767651757E+03  0.35758276532E+03  0.17120000000E+03 0.  0.
        998    1    1    2    0    0 -0.41820239604E+00 -0.50944672623E+00  0.50033005311E+01  0.50465281546E+01  0.10000000000E-02 0.  1.
</event>
<event>
 5    1  0.7026671E-009  0.3882996E+03  0.7957747E-01  0.3415798E+00
         13   -1    0    0    0    0  0.00000000000E+00  0.00000000000E+00  0.14999999963E+04  0.15000000000E+04  0.10566000000E+00 0.  1.
        994   -1    0    0    0    0 -0.00000000000E+00 -0.00000000000E+00  0.11368683772E-12  0.17120000000E+03  0.17120000000E+03 0.  0.
         13    1    1    2    0    0 -0.25366115235E+03  0.39697567174E+02  0.12420448617E+04  0.12683041144E+04  0.10566000000E+00 0.  1.
        994    1    1    2    0    0  0.25396480339E+03 -0.39750849089E+02  0.25668971376E+03  0.40159345178E+03  0.17120000000E+03 0.  0.
        998    1    1    2    0    0 -0.30365103824E+00  0.53281915055E-01  0.12654208363E+01  0.13024338019E+01  0.10000000000E-02 0.  1.
</event>
<event>
 5    1  0.7026671E-009  0.3883009E+03  0.7957747E-01  0.3415792E+00
         13   -1    0    0    0    0  0.00000000000E+00  0.00000000000E+00  0.14999999963E+04  0.15000000000E+04  0.10566000000E+00 0.  1.
        994   -1    0    0    0    0 -0.00000000000E+00 -0.00000000000E+00  0.11368683772E-12  0.17120000000E+03  0.17120000000E+03 0.  0.
         13    1    1    2    0    0  0.15886971143E+03 -0.19710689030E+03  0.12520243631E+04  0.12773628022E+04  0.10566000000E+00 0.  1.
        994    1    1    2    0    0 -0.15893833386E+03  0.19718540543E+03  0.24744455291E+03  0.39329597614E+03  0.17120000000E+03 0.  0.
        998    1    1    2    0    0  0.68622430440E-01 -0.78515130353E-01  0.53108025184E+00  0.54122167136E+00  0.10000000000E-02 0.  1.
</event>
<event>
 5    1  0.7026671E-009  0.3883010E+03  0.7957747E-01  0.3415792E+00
         13   -1    0    0    0    0  0.00000000000E+00  0.00000000000E+00  0.14999999963E+04  0.15000000000E+04  0.10566000000E+00 0. -1.
        994   -1    0    0    0    0 -0.00000000000E+00 -0.00000000000E+00  0.11368683772E-12  0.17120000000E+03  0.17120000000E+03 0.  0.
         13    1    1    2    0    0 -0.19745668785E+02  0.22724404912E+03  0.12798974015E+04  0.13000642749E+04  0.10566000000E+00 0. -1.
        994    1    1    2    0    0  0.20054923652E+02 -0.23081701976E+03  0.19995391970E+03  0.35067036741E+03  0.17120000000E+03 0.  0.
        998    1    1    2    0    0 -0.30925486668E+00  0.35729706413E+01  0.20148675063E+02  0.20465357695E+02  0.10000000000E-02 0.  1.
</event>
<event>
 5    1  0.7026671E-009  0.3882939E+03  0.7957747E-01  0.3415822E+00
         13   -1    0    0    0    0  0.00000000000E+00  0.00000000000E+00  0.14999999963E+04  0.15000000000E+04  0.10566000000E+00 0.  1.
        994   -1    0    0    0    0 -0.00000000000E+00 -0.00000000000E+00  0.11368683772E-12  0.17120000000E+03  0.17120000000E+03 0.  0.
         13    1    1    2    0    0  0.53121855725E+00 -0.13707643120E+03  0.81001827804E+03  0.82153505836E+03  0.10566000000E+00 0.  1.
        994    1    1    2    0    0 -0.32961536907E+01  0.22350658705E+03  0.18400745241E+03  0.33635433939E+03  0.17120000000E+03 0.  0.
        998    1    1    2    0    0  0.27649351334E+01 -0.86430155845E+02  0.50597426583E+03  0.51331060225E+03  0.10000000000E-02 0.  1.
</event>
<event>
 5    1  0.7026671E-009  0.3882965E+03  0.7957747E-01  0.3415811E+00
         13   -1    0    0    0    0  0.00000000000E+00  0.00000000000E+00  0.14999999963E+04  0.15000000000E+04  0.10566000000E+00 0.  1.
        994   -1    0    0    0    0 -0.00000000000E+00 -0.00000000000E+00  0.11368683772E-12  0.17120000000E+03  0.17120000000E+03 0.  0.
         13    1    1    2    0    0 -0.71581816678E+02  0.80039191540E+02  0.43730565357E+03  0.45029598540E+03  0.10566000000E+00 0.  1.
        994    1    1    2    0    0  0.18770041513E+03 -0.21479815187E+03  0.33631910790E+03  0.47306413331E+03  0.17120000000E+03 0.  0.
        998    1    1    2    0    0 -0.11611859845E+03  0.13475896033E+03  0.72637523481E+03  0.74783988129E+03  0.10000000000E-02 0.  1.
</event>
<event>
 5    1  0.7026671E-009  0.3883010E+03  0.7957747E-01  0.3415792E+00
         13   -1    0    0    0    0  0.00000000000E+00  0.00000000000E+00  0.14999999963E+04  0.15000000000E+04  0.10566000000E+00 0.  1.
        994   -1    0    0    0    0 -0.00000000000E+00 -0.00000000000E+00  0.11368683772E-12  0.17120000000E+03  0.17120000000E+03 0.  0.
         13    1    1    2    0    0  0.21831863043E+03  0.10391625095E+03  0.12619809168E+04  0.12849348065E+04  0.10566000000E+00 0.  1.
        994    1    1    2    0    0 -0.22036755533E+03 -0.10489071564E+03  0.22616983638E+03  0.37420069022E+03  0.17120000000E+03 0.  0.
        998    1    1    2    0    0  0.20489249087E+01  0.97446469255E+00  0.11849243124E+02  0.12064503236E+02  0.10000000000E-02 0.  1.
</event>
<event>
 5    1  0.7026671E-009  0.3834335E+03  0.7957747E-01  0.3436343E+00
         13   -1    0    0    0    0  0.00000000000E+00  0.00000000000E+00  0.14999999963E+04  0.15000000000E+04  0.10566000000E+00 0.  1.
        994   -1    0    0    0    0 -0.00000000000E+00 -0.00000000000E+00  0.11368683772E-12  0.17120000000E+03  0.17120000000E+03 0.  0.
         13    1    1    2    0    0  0.14692017597E+02  0.11375816013E+02  0.11206545352E+03  0.11359551755E+03  0.10566000000E+00 0.  1.
        994    1    1    2    0    0  0.48485792344E+02  0.19288402661E+02  0.11462891109E+02  0.17934255605E+03  0.17120000000E+03 0.  0.
        998    1    1    2    0    0 -0.63177809941E+02 -0.30664218674E+02  0.13764716516E+04  0.13782619264E+04  0.10000000000E-02 0.  1.
</event>
