<event>
 5    1  0.1147307E-008  0.4192442E+03  0.7957747E-01  0.3296269E+00
         13   -1    0    0    0    0  0.00000000000E+00  0.00000000000E+00  0.14999999963E+04  0.15000000000E+04  0.10566000000E+00 0. -1.
        994   -1    0    0    0    0 -0.00000000000E+00 -0.00000000000E+00  0.11368683772E-12  0.17120000000E+03  0.17120000000E+03 0.  0.
         13    1    1    2    0    0 -0.61204215768E+02  0.13494791976E+03  0.38053659450E+03  0.40836871574E+03  0.10566000000E+00 0. -1.
        994    1    1    2    0    0  0.56146295742E+02  0.19780306215E+01  0.53367539124E+02  0.18791980567E+03  0.17120000000E+03 0.  0.
        998    1    1    2    0    0  0.50579200260E+01 -0.13692595038E+03  0.10660958627E+04  0.10749114786E+04  0.10000000000E+02 0. -1.
</event>
<event>
 5    1  0.1147307E-008  0.3828800E+03  0.7957747E-01  0.3438713E+00
         13   -1    0    0    0    0  0.00000000000E+00  0.00000000000E+00  0.14999999963E+04  0.15000000000E+04  0.10566000000E+00 0. -1.
        994   -1    0    0    0    0 -0.00000000000E+00 -0.00000000000E+00  0.11368683772E-12  0.17120000000E+03  0.17120000000E+03 0.  0.
         13    1    1    2    0    0 -0.18484263595E+02  0.19179124058E+01  0.62643339922E+02  0.65341759919E+02  0.10566000000E+00 0. -1.
        994    1    1    2    0    0  0.14431730021E+02 -0.33220633978E+01  0.34129043086E+01  0.17187320574E+03  0.17120000000E+03 0.  0.
        998    1    1    2    0    0  0.40525335736E+01  0.14041509920E+01  0.14339437520E+04  0.14339850343E+04  0.10000000000E+02 0. -1.
</event>
<event>
 5    1  0.1147307E-008  0.3833058E+03  0.7957747E-01  0.3436889E+00
         13   -1    0    0    0    0  0.00000000000E+00  0.00000000000E+00  0.14999999963E+04  0.15000000000E+04  0.10566000000E+00 0. -1.
        994   -1    0    0    0    0 -0.00000000000E+00 -0.00000000000E+00  0.11368683772E-12  0.17120000000E+03  0.17120000000E+03 0.  0.
         13    1    1    2    0    0 -0.13987034247E+01  0.18854550963E+02  0.81016123275E+02  0.83192991638E+02  0.10566000000E+00 0. -1.
        994    1    1    2    0    0  0.95276234958E+01  0.93312132875E+01  0.30619327090E+01  0.17174592450E+03  0.17120000000E+03 0.  0.
        998    1    1    2    0    0 -0.81289200711E+01 -0.28185764250E+02  0.14159219403E+04  0.14162610839E+04  0.10000000000E+02 0. -1.
</event>
<event>
 5    1  0.1147307E-008  0.3827654E+03  0.7957747E-01  0.3439205E+00
         13   -1    0    0    0    0  0.00000000000E+00  0.00000000000E+00  0.14999999963E+04  0.15000000000E+04  0.10566000000E+00 0. -1.
        994   -1    0    0    0    0 -0.00000000000E+00 -0.00000000000E+00  0.11368683772E-12  0.17120000000E+03  0.17120000000E+03 0.  0.
         13    1    1    2    0    0  0.10525492297E+02 -0.66188252202E+01  0.27196846837E+02  0.29904422371E+02  0.10566000000E+00 0. -1.
        994    1    1    2    0    0 -0.48288494455E+01  0.84412737235E+01  0.30569909052E+01  0.17150323053E+03  0.17120000000E+03 0.  0.
        998    1    1    2    0    0 -0.56966428517E+01 -0.18224485033E+01  0.14697461585E+04  0.14697923471E+04  0.10000000000E+02 0. -1.
</event>
<event>
 5    1  0.1147307E-008  0.3689399E+03  0.7957747E-01  0.3500777E+00
         13   -1    0    0    0    0  0.00000000000E+00  0.00000000000E+00  0.14999999963E+04  0.15000000000E+04  0.10566000000E+00 0. -1.
        994   -1    0    0    0    0 -0.00000000000E+00 -0.00000000000E+00  0.11368683772E-12  0.17120000000E+03  0.17120000000E+03 0.  0.
         13    1    1    2    0    0 -0.90881306764E+00  0.12170796202E+02  0.30401591734E+01  0.12578074305E+02  0.10566000000E+00 0. -1.
        994    1    1    2    0    0  0.67990295046E+01 -0.88508020831E+01  0.10256641868E+02  0.17186972451E+03  0.17120000000E+03 0.  0.
        998    1    1    2    0    0 -0.58902164370E+01 -0.33199941188E+01  0.14867031952E+04  0.14867522012E+04  0.10000000000E+02 0. -1.
</event>
<event>
 5    1  0.1147307E-008  0.3846535E+03  0.7957747E-01  0.3431143E+00
         13   -1    0    0    0    0  0.00000000000E+00  0.00000000000E+00  0.14999999963E+04  0.15000000000E+04  0.10566000000E+00 0. -1.
        994   -1    0    0    0    0 -0.00000000000E+00 -0.00000000000E+00  0.11368683772E-12  0.17120000000E+03  0.17120000000E+03 0.  0.
         13    1    1    2    0    0  0.70136782134E+01 -0.11414964142E+02  0.49493936811E+02  0.51275277020E+02  0.10566000000E+00 0. -1.
        994    1    1    2    0    0 -0.65906679466E+01  0.68273967265E+01  0.20988240568E+01  0.17147564058E+03  0.17120000000E+03 0.  0.
        998    1    1    2    0    0 -0.42301026680E+00  0.45875674151E+01  0.14484072354E+04  0.14484490824E+04  0.10000000000E+02 0. -1.
</event>
<event>
 5    1  0.1147307E-008  0.3837384E+03  0.7957747E-01  0.3435040E+00
         13   -1    0    0    0    0  0.00000000000E+00  0.00000000000E+00  0.14999999963E+04  0.15000000000E+04  0.10566000000E+00 0.  1.
        994   -1    0    0    0    0 -0.00000000000E+00 -0.00000000000E+00  0.11368683772E-12  0.17120000000E+03  0.17120000000E+03 0.  0.
         13    1    1    2    0    0 -0.14896074439E+02  0.56839327353E+01  0.55530796616E+02  0.57774394518E+02  0.10566000000E+00 0.  1.
        994    1    1    2    0    0  0.11741408605E+02 -0.86181181585E+00  0.27155965145E+01  0.17162580767E+03  0.17120000000E+03 0.  0.
        998    1    1    2    0    0  0.31546658345E+01 -0.48221209194E+01  0.14417536031E+04  0.14417997978E+04  0.10000000000E+02 0.  1.
</event>
<event>
 5    1  0.1147307E-008  0.3811092E+03  0.7957747E-01  0.3446343E+00
         13   -1    0    0    0    0  0.00000000000E+00  0.00000000000E+00  0.14999999963E+04  0.15000000000E+04  0.10566000000E+00 0. -1.
        994   -1    0    0    0    0 -0.00000000000E+00 -0.00000000000E+00  0.11368683772E-12  0.17120000000E+03  0.17120000000E+03 0.  0.
         13    1    1    2    0    0  0.23451552747E+02 -0.59336153502E+01  0.83796473072E+02  0.87218364928E+02  0.10566000000E+00 0. -1.
        994    1    1    2    0    0 -0.71442819128E+01  0.22783481729E+01  0.37615775599E+01  0.17140542903E+03  0.17120000000E+03 0.  0.
        998    1    1    2    0    0 -0.16307270834E+02  0.36552671774E+01  0.14124419456E+04  0.14125762060E+04  0.10000000000E+02 0. -1.
</event>
<event>
 5    1  0.1147307E-008  0.3806314E+03  0.7957747E-01  0.3448414E+00
         13   -1    0    0    0    0  0.00000000000E+00  0.00000000000E+00  0.14999999963E+04  0.15000000000E+04  0.10566000000E+00 0.  1.
        994   -1    0    0    0    0 -0.00000000000E+00 -0.00000000000E+00  0.11368683772E-12  0.17120000000E+03  0.17120000000E+03 0.  0.
         13    1    1    2    0    0  0.17083713722E+02 -0.98278543158E+01  0.46945899945E+01  0.20260561054E+02  0.10566000000E+00 0.  1.
        994    1    1    2    0    0  0.75912029229E+01 -0.74652785759E+01  0.17086500819E+02  0.17237965442E+03  0.17120000000E+03 0.  0.
        998    1    1    2    0    0 -0.24674916645E+02  0.17293132892E+02  0.14782189055E+04  0.14785597845E+04  0.10000000000E+02 0.  1.
</event>
<event>
 5    1  0.1147307E-008  0.3767217E+03  0.7957747E-01  0.3465558E+00
         13   -1    0    0    0    0  0.00000000000E+00  0.00000000000E+00  0.14999999963E+04  0.15000000000E+04  0.10566000000E+00 0. -1.
        994   -1    0    0    0    0 -0.00000000000E+00 -0.00000000000E+00  0.11368683772E-12  0.17120000000E+03  0.17120000000E+03 0.  0.
         13    1    1    2    0    0 -0.29942026739E+00  0.42770227254E+02  0.55644728961E+02  0.70183538077E+02  0.10566000000E+00 0. -1.
        994    1    1    2    0    0 -0.94535428094E+00 -0.42082355567E+02  0.20908987721E+02  0.17753434629E+03  0.17120000000E+03 0.  0.
        998    1    1    2    0    0  0.12447745483E+01 -0.68787168672E+00  0.14234462796E+04  0.14234821156E+04  0.10000000000E+02 0. -1.
</event>
<event>
 5    1  0.1147307E-008  0.3836811E+03  0.7957747E-01  0.3435285E+00
         13   -1    0    0    0    0  0.00000000000E+00  0.00000000000E+00  0.14999999963E+04  0.15000000000E+04  0.10566000000E+00 0.  1.
        994   -1    0    0    0    0 -0.00000000000E+00 -0.00000000000E+00  0.11368683772E-12  0.17120000000E+03  0.17120000000E+03 0.  0.
         13    1    1    2    0    0  0.13093297940E+02 -0.13277016056E+02  0.81736473850E+02  0.83836602554E+02  0.10566000000E+00 0.  1.
        994    1    1    2    0    0 -0.57980078908E+01 -0.69598744972E+01  0.25574226405E+01  0.17145855814E+03  0.17120000000E+03 0.  0.
        998    1    1    2    0    0 -0.72952900491E+01  0.20236890554E+02  0.14157060998E+04  0.14159048393E+04  0.10000000000E+02 0.  1.
</event>
<event>
 5    1  0.1147307E-008  0.3856740E+03  0.7957747E-01  0.3426819E+00
         13   -1    0    0    0    0  0.00000000000E+00  0.00000000000E+00  0.14999999963E+04  0.15000000000E+04  0.10566000000E+00 0. -1.
        994   -1    0    0    0    0 -0.00000000000E+00 -0.00000000000E+00  0.11368683772E-12  0.17120000000E+03  0.17120000000E+03 0.  0.
         13    1    1    2    0    0 -0.13556949639E+02  0.75744505189E+00  0.71172919452E+02  0.72456609318E+02  0.10566000000E+00 0. -1.
        994    1    1    2    0    0  0.96035339757E+01 -0.52477040971E+01  0.16890027048E+01  0.17155774245E+03  0.17120000000E+03 0.  0.
        998    1    1    2    0    0  0.39534156628E+01  0.44902590452E+01  0.14271380741E+04  0.14271856482E+04  0.10000000000E+02 0. -1.
</event>
<event>
 5    1  0.1147307E-008  0.3856616E+03  0.7957747E-01  0.3426871E+00
         13   -1    0    0    0    0  0.00000000000E+00  0.00000000000E+00  0.14999999963E+04  0.15000000000E+04  0.10566000000E+00 0. -1.
        994   -1    0    0    0    0 -0.00000000000E+00 -0.00000000000E+00  0.11368683772E-12  0.17120000000E+03  0.17120000000E+03 0.  0.
         13    1    1    2    0    0  0.55246007818E+01  0.10186636360E+02  0.51301800908E+02  0.52594436156E+02  0.10566000000E+00 0. -1.
        994    1    1    2    0    0 -0.73973014609E+01 -0.69936289781E+01  0.16421736823E+01  0.17151025523E+03  0.17120000000E+03 0.  0.
        998    1    1    2    0    0  0.18727006791E+01 -0.31930073814E+01  0.14470560217E+04  0.14470953086E+04  0.10000000000E+02 0. -1.
</event>
<event>
 5    1  0.1147307E-008  0.3858227E+03  0.7957747E-01  0.3426191E+00
         13   -1    0    0    0    0  0.00000000000E+00  0.00000000000E+00  0.14999999963E+04  0.15000000000E+04  0.10566000000E+00 0.  1.
        994   -1    0    0    0    0 -0.00000000000E+00 -0.00000000000E+00  0.11368683772E-12  0.17120000000E+03  0.17120000000E+03 0.  0.
         13    1    1    2    0    0  0.10354638264E+02  0.11046184623E+02  0.87920461709E+02  0.89214659555E+02  0.10566000000E+00 0.  1.
        994    1    1    2    0    0 -0.19083406163E+02 -0.77499814997E+01  0.26149394547E+01  0.17245438966E+03  0.17120000000E+03 0.  0.
        998    1    1    2    0    0  0.87287678996E+01 -0.32962031235E+01  0.14094645951E+04  0.14095309508E+04  0.10000000000E+02 0.  1.
</event>
<event>
 5    1  0.1147307E-008  0.3854144E+03  0.7957747E-01  0.3427916E+00
         13   -1    0    0    0    0  0.00000000000E+00  0.00000000000E+00  0.14999999963E+04  0.15000000000E+04  0.10566000000E+00 0. -1.
        994   -1    0    0    0    0 -0.00000000000E+00 -0.00000000000E+00  0.11368683772E-12  0.17120000000E+03  0.17120000000E+03 0.  0.
         13    1    1    2    0    0 -0.10002517253E+02  0.37872975612E+01  0.40022906929E+02  0.41427505564E+02  0.10566000000E+00 0. -1.
        994    1    1    2    0    0  0.83271061400E+01 -0.10940838876E+01  0.16562170782E+01  0.17141388733E+03  0.17120000000E+03 0.  0.
        998    1    1    2    0    0  0.16754111126E+01 -0.26932136736E+01  0.14583208723E+04  0.14583586071E+04  0.10000000000E+02 0. -1.
</event>
<event>
 5    1  0.1147307E-008  0.3836702E+03  0.7957747E-01  0.3435331E+00
         13   -1    0    0    0    0  0.00000000000E+00  0.00000000000E+00  0.14999999963E+04  0.15000000000E+04  0.10566000000E+00 0. -1.
        994   -1    0    0    0    0 -0.00000000000E+00 -0.00000000000E+00  0.11368683772E-12  0.17120000000E+03  0.17120000000E+03 0.  0.
         13    1    1    2    0    0 -0.17762490172E+02 -0.46269409544E+01  0.71184442704E+02  0.73512928706E+02  0.10566000000E+00 0. -1.
        994    1    1    2    0    0  0.15399202399E+02  0.51207449684E+01  0.31620986776E+01  0.17199650093E+03  0.17120000000E+03 0.  0.
        998    1    1    2    0    0  0.23632877732E+01 -0.49380401394E+00  0.14256534549E+04  0.14256905704E+04  0.10000000000E+02 0. -1.
</event>
<event>
 5    1  0.1147307E-008  0.3812111E+03  0.7957747E-01  0.3445902E+00
         13   -1    0    0    0    0  0.00000000000E+00  0.00000000000E+00  0.14999999963E+04  0.15000000000E+04  0.10566000000E+00 0. -1.
        994   -1    0    0    0    0 -0.00000000000E+00 -0.00000000000E+00  0.11368683772E-12  0.17120000000E+03  0.17120000000E+03 0.  0.
         13    1    1    2    0    0  0.30986209876E+02  0.14365686185E+02  0.20286344105E+03  0.20571850919E+03  0.10566000000E+00 0. -1.
        994    1    1    2    0    0 -0.22548647983E+01  0.16511157523E+02  0.44482324645E+01  0.17206664264E+03  0.17120000000E+03 0.  0.
        998    1    1    2    0    0 -0.28731345078E+02 -0.30876843708E+02  0.12926883228E+04  0.12934148482E+04  0.10000000000E+02 0. -1.
</event>
<event>
 5    1  0.1147307E-008  0.3723680E+03  0.7957747E-01  0.3485078E+00
         13   -1    0    0    0    0  0.00000000000E+00  0.00000000000E+00  0.14999999963E+04  0.15000000000E+04  0.10566000000E+00 0.  1.
        994   -1    0    0    0    0 -0.00000000000E+00 -0.00000000000E+00  0.11368683772E-12  0.17120000000E+03  0.17120000000E+03 0.  0.
         13    1    1    2    0    0 -0.12169069916E+02 -0.33296878092E+02  0.74450241353E+02  0.82459795991E+02  0.10566000000E+00 0.  1.
        994    1    1    2    0    0  0.17797730644E+02  0.20777331234E+02  0.10607818422E+02  0.17369635149E+03  0.17120000000E+03 0.  0.
        998    1    1    2    0    0 -0.56286607288E+01  0.12519546859E+02  0.14149419365E+04  0.14150438525E+04  0.10000000000E+02 0.  1.
</event>
<event>
 5    1  0.1147307E-008  0.3703548E+03  0.7957747E-01  0.3494262E+00
         13   -1    0    0    0    0  0.00000000000E+00  0.00000000000E+00  0.14999999963E+04  0.15000000000E+04  0.10566000000E+00 0.  1.
        994   -1    0    0    0    0 -0.00000000000E+00 -0.00000000000E+00  0.11368683772E-12  0.17120000000E+03  0.17120000000E+03 0.  0.
         13    1    1    2    0    0 -0.31771603001E+02  0.64956156391E+01  0.56247683517E+02  0.64926426398E+02  0.10566000000E+00 0.  1.
        994    1    1    2    0    0  0.11934866307E+02  0.61974419886E+01  0.97085449164E+01  0.17200158478E+03  0.17120000000E+03 0.  0.
        998    1    1    2    0    0  0.19836736694E+02 -0.12693057628E+02  0.14340437678E+04  0.14342719888E+04  0.10000000000E+02 0.  1.
</event>
<event>
 5    1  0.1147307E-008  0.3855292E+03  0.7957747E-01  0.3427431E+00
         13   -1    0    0    0    0  0.00000000000E+00  0.00000000000E+00  0.14999999963E+04  0.15000000000E+04  0.10566000000E+00 0. -1.
        994   -1    0    0    0    0 -0.00000000000E+00 -0.00000000000E+00  0.11368683772E-12  0.17120000000E+03  0.17120000000E+03 0.  0.
         13    1    1    2    0    0  0.48612669865E+01  0.10877570199E+02  0.49847912134E+02  0.51252111745E+02  0.10566000000E+00 0. -1.
        994    1    1    2    0    0 -0.97641858547E+01 -0.12654249634E+02  0.22067733972E+01  0.17195865552E+03  0.17120000000E+03 0.  0.
        998    1    1    2    0    0  0.49029188682E+01  0.17766794351E+01  0.14479453107E+04  0.14479892327E+04  0.10000000000E+02 0. -1.
</event>
<event>
 5    1  0.1147307E-008  0.2368287E+03  0.7957747E-01  0.4484575E+00
         13   -1    0    0    0    0  0.00000000000E+00  0.00000000000E+00  0.14999999963E+04  0.15000000000E+04  0.10566000000E+00 0. -1.
        994   -1    0    0    0    0 -0.00000000000E+00 -0.00000000000E+00  0.11368683772E-12  0.17120000000E+03  0.17120000000E+03 0.  0.
         13    1    1    2    0    0  0.16904508485E+03  0.48339835686E+02  0.27647510628E+03  0.32764535092E+03  0.10566000000E+00 0. -1.
        994    1    1    2    0    0 -0.14305470886E+03  0.13344487134E+03  0.27920289052E+03  0.38149164799E+03  0.17120000000E+03 0.  0.
        998    1    1    2    0    0 -0.25990375984E+02 -0.18178470702E+03  0.94432199948E+03  0.96206300108E+03  0.10000000000E+02 0.  1.
</event>
<event>
 5    1  0.1147307E-008  0.3824465E+03  0.7957747E-01  0.3440575E+00
         13   -1    0    0    0    0  0.00000000000E+00  0.00000000000E+00  0.14999999963E+04  0.15000000000E+04  0.10566000000E+00 0. -1.
        994   -1    0    0    0    0 -0.00000000000E+00 -0.00000000000E+00  0.11368683772E-12  0.17120000000E+03  0.17120000000E+03 0.  0.
         13    1    1    2    0    0  0.16747897940E+02  0.26436580149E+01  0.48303345655E+02  0.51192825460E+02  0.10566000000E+00 0. -1.
        994    1    1    2    0    0 -0.12269343141E+02 -0.19660082369E+01  0.34154058650E+01  0.17168432359E+03  0.17120000000E+03 0.  0.
        998    1    1    2    0    0 -0.44785547990E+01 -0.67764977801E+00  0.14482812448E+04  0.14483228509E+04  0.10000000000E+02 0. -1.
</event>
<event>
 5    1  0.1147307E-008  0.3698401E+03  0.7957747E-01  0.3496626E+00
         13   -1    0    0    0    0  0.00000000000E+00  0.00000000000E+00  0.14999999963E+04  0.15000000000E+04  0.10566000000E+00 0. -1.
        994   -1    0    0    0    0 -0.00000000000E+00 -0.00000000000E+00  0.11368683772E-12  0.17120000000E+03  0.17120000000E+03 0.  0.
         13    1    1    2    0    0  0.65193755255E+02 -0.11492229405E+02  0.21043519317E+03  0.22060208238E+03  0.10566000000E+00 0. -1.
        994    1    1    2    0    0 -0.58223114273E+02 -0.33607094176E+01  0.21213110685E+02  0.18210069047E+03  0.17120000000E+03 0.  0.
        998    1    1    2    0    0 -0.69706409817E+01  0.14852938822E+02  0.12683516924E+04  0.12684972272E+04  0.10000000000E+02 0. -1.
</event>
<event>
 5    1  0.1147307E-008  0.3794472E+03  0.7957747E-01  0.3453569E+00
         13   -1    0    0    0    0  0.00000000000E+00  0.00000000000E+00  0.14999999963E+04  0.15000000000E+04  0.10566000000E+00 0.  1.
        994   -1    0    0    0    0 -0.00000000000E+00 -0.00000000000E+00  0.11368683772E-12  0.17120000000E+03  0.17120000000E+03 0.  0.
         13    1    1    2    0    0  0.12684218874E+02 -0.23008841093E+02  0.77594418980E+02  0.81921921351E+02  0.10566000000E+00 0.  1.
        994    1    1    2    0    0 -0.13557781727E+02  0.81145458011E+01  0.52490224317E+01  0.17200770778E+03  0.17120000000E+03 0.  0.
        998    1    1    2    0    0  0.87356285302E+00  0.14894295292E+02  0.14171565549E+04  0.14172703709E+04  0.10000000000E+02 0.  1.
</event>
<event>
 5    1  0.1147307E-008  0.3773198E+03  0.7957747E-01  0.3462912E+00
         13   -1    0    0    0    0  0.00000000000E+00  0.00000000000E+00  0.14999999963E+04  0.15000000000E+04  0.10566000000E+00 0.  1.
        994   -1    0    0    0    0 -0.00000000000E+00 -0.00000000000E+00  0.11368683772E-12  0.17120000000E+03  0.17120000000E+03 0.  0.
         13    1    1    2    0    0 -0.37665733643E+02 -0.19023092966E+02  0.14150201580E+03  0.14765980224E+03  0.10566000000E+00 0.  1.
        994    1    1    2    0    0  0.50784013365E+02  0.66571939630E+01  0.14391921554E+02  0.17927604874E+03  0.17120000000E+03 0.  0.
        998    1    1    2    0    0 -0.13118279722E+02  0.12365899003E+02  0.13441060589E+04  0.13442641490E+04  0.10000000000E+02 0.  1.
</event>
<event>
 5    1  0.1147307E-008  0.3832441E+03  0.7957747E-01  0.3437154E+00
         13   -1    0    0    0    0  0.00000000000E+00  0.00000000000E+00  0.14999999963E+04  0.15000000000E+04  0.10566000000E+00 0. -1.
        994   -1    0    0    0    0 -0.00000000000E+00 -0.00000000000E+00  0.11368683772E-12  0.17120000000E+03  0.17120000000E+03 0.  0.
         13    1    1    2    0    0 -0.37664809471E+01  0.22042602851E+02  0.10341858353E+03  0.10580868255E+03  0.10566000000E+00 0. -1.
        994    1    1    2    0    0  0.33296991165E+00 -0.75530233994E+01  0.26935224424E+01  0.17138802203E+03  0.17120000000E+03 0.  0.
        998    1    1    2    0    0  0.34335110354E+01 -0.14489579452E+02  0.13938878903E+04  0.13940032954E+04  0.10000000000E+02 0. -1.
</event>
<event>
 5    1  0.1147307E-008  0.3812595E+03  0.7957747E-01  0.3445692E+00
         13   -1    0    0    0    0  0.00000000000E+00  0.00000000000E+00  0.14999999963E+04  0.15000000000E+04  0.10566000000E+00 0. -1.
        994   -1    0    0    0    0 -0.00000000000E+00 -0.00000000000E+00  0.11368683772E-12  0.17120000000E+03  0.17120000000E+03 0.  0.
         13    1    1    2    0    0  0.13895136429E+02  0.22212930447E+01  0.25341753946E+02  0.28986628232E+02  0.10566000000E+00 0. -1.
        994    1    1    2    0    0 -0.31330330903E+02  0.95098099885E+01  0.70757409155E+01  0.17444635918E+03  0.17120000000E+03 0.  0.
        998    1    1    2    0    0  0.17435194474E+02 -0.11731103033E+02  0.14675825014E+04  0.14677670126E+04  0.10000000000E+02 0. -1.
</event>
<event>
 5    1  0.1147307E-008  0.3786881E+03  0.7957747E-01  0.3456891E+00
         13   -1    0    0    0    0  0.00000000000E+00  0.00000000000E+00  0.14999999963E+04  0.15000000000E+04  0.10566000000E+00 0.  1.
        994   -1    0    0    0    0 -0.00000000000E+00 -0.00000000000E+00  0.11368683772E-12  0.17120000000E+03  0.17120000000E+03 0.  0.
         13    1    1    2    0    0 -0.29281544126E+01  0.22667676104E+02  0.50557630244E+02  0.55484076708E+02  0.10566000000E+00 0.  1.
        994    1    1    2    0    0  0.41451137996E+01 -0.25810858705E+02  0.70946646972E+01  0.17332961854E+03  0.17120000000E+03 0.  0.
        998    1    1    2    0    0 -0.12169593870E+01  0.31431826011E+01  0.14423477013E+04  0.14423863048E+04  0.10000000000E+02 0.  1.
</event>
<event>
 5    1  0.1147307E-008  0.3719130E+03  0.7957747E-01  0.3487145E+00
         13   -1    0    0    0    0  0.00000000000E+00  0.00000000000E+00  0.14999999963E+04  0.15000000000E+04  0.10566000000E+00 0.  1.
        994   -1    0    0    0    0 -0.00000000000E+00 -0.00000000000E+00  0.11368683772E-12  0.17120000000E+03  0.17120000000E+03 0.  0.
         13    1    1    2    0    0  0.37285916517E+02 -0.69695510013E+02  0.41449325828E+03  0.42196252915E+03  0.10566000000E+00 0.  1.
        994    1    1    2    0    0 -0.97351616183E+01 -0.21444859736E+02  0.13908483858E+02  0.17337110862E+03  0.17120000000E+03 0.  0.
        998    1    1    2    0    0 -0.27550754898E+02  0.91140369748E+02  0.10715982541E+04  0.10758663622E+04  0.10000000000E+02 0.  1.
</event>
<event>
 5    1  0.1147307E-008  0.3815992E+03  0.7957747E-01  0.3444225E+00
         13   -1    0    0    0    0  0.00000000000E+00  0.00000000000E+00  0.14999999963E+04  0.15000000000E+04  0.10566000000E+00 0. -1.
        994   -1    0    0    0    0 -0.00000000000E+00 -0.00000000000E+00  0.11368683772E-12  0.17120000000E+03  0.17120000000E+03 0.  0.
         13    1    1    2    0    0 -0.13426550788E+02  0.33723922737E+01  0.29527540895E+02  0.32611840351E+02  0.10566000000E+00 0. -1.
        994    1    1    2    0    0 -0.14944754711E+02 -0.10847072271E+02  0.44628197097E+01  0.17225086772E+03  0.17120000000E+03 0.  0.
        998    1    1    2    0    0  0.28371305499E+02  0.74746799977E+01  0.14660096357E+04  0.14663372919E+04  0.10000000000E+02 0. -1.
</event>
<event>
 5    1  0.1147307E-008  0.3775095E+03  0.7957747E-01  0.3462075E+00
         13   -1    0    0    0    0  0.00000000000E+00  0.00000000000E+00  0.14999999963E+04  0.15000000000E+04  0.10566000000E+00 0.  1.
        994   -1    0    0    0    0 -0.00000000000E+00 -0.00000000000E+00  0.11368683772E-12  0.17120000000E+03  0.17120000000E+03 0.  0.
         13    1    1    2    0    0  0.42263088116E+02 -0.18630463935E+02  0.27167507134E+03  0.27557325406E+03  0.10566000000E+00 0.  1.
        994    1    1    2    0    0  0.32929744066E+01 -0.22988737018E+02  0.72156870790E+01  0.17291857000E+03  0.17120000000E+03 0.  0.
        998    1    1    2    0    0 -0.45556062523E+02  0.41619200953E+02  0.12211092379E+04  0.12227081759E+04  0.10000000000E+02 0.  1.
</event>
<event>
 5    1  0.1147307E-008  0.3738319E+03  0.7957747E-01  0.3478464E+00
         13   -1    0    0    0    0  0.00000000000E+00  0.00000000000E+00  0.14999999963E+04  0.15000000000E+04  0.10566000000E+00 0.  1.
        994   -1    0    0    0    0 -0.00000000000E+00 -0.00000000000E+00  0.11368683772E-12  0.17120000000E+03  0.17120000000E+03 0.  0.
         13    1    1    2    0    0 -0.27009264894E+02  0.24883781558E+02  0.87366687753E+02  0.94771579430E+02  0.10566000000E+00 0.  1.
        994    1    1    2    0    0  0.19446902595E+02 -0.24104230861E+02  0.10560194802E+02  0.17429903522E+03  0.17120000000E+03 0.  0.
        998    1    1    2    0    0  0.75623622997E+01 -0.77955069721E+00  0.14020731137E+04  0.14021293853E+04  0.10000000000E+02 0.  1.
</event>
<event>
 5    1  0.1147307E-008  0.3751458E+03  0.7957747E-01  0.3472571E+00
         13   -1    0    0    0    0  0.00000000000E+00  0.00000000000E+00  0.14999999963E+04  0.15000000000E+04  0.10566000000E+00 0. -1.
        994   -1    0    0    0    0 -0.00000000000E+00 -0.00000000000E+00  0.11368683772E-12  0.17120000000E+03  0.17120000000E+03 0.  0.
         13    1    1    2    0    0  0.60969438086E+01  0.39055305921E+02  0.49339939523E+02  0.63221281548E+02  0.10566000000E+00 0. -1.
        994    1    1    2    0    0 -0.15185962147E+02 -0.44674992321E+02  0.21655303897E+02  0.17889902340E+03  0.17120000000E+03 0.  0.
        998    1    1    2    0    0  0.90890183382E+01  0.56196864006E+01  0.14290047529E+04  0.14290796951E+04  0.10000000000E+02 0. -1.
</event>
<event>
 5    1  0.1147307E-008  0.3824281E+03  0.7957747E-01  0.3440654E+00
         13   -1    0    0    0    0  0.00000000000E+00  0.00000000000E+00  0.14999999963E+04  0.15000000000E+04  0.10566000000E+00 0. -1.
        994   -1    0    0    0    0 -0.00000000000E+00 -0.00000000000E+00  0.11368683772E-12  0.17120000000E+03  0.17120000000E+03 0.  0.
         13    1    1    2    0    0 -0.74143944987E+01 -0.12636286799E+02  0.34940593666E+02  0.37888061967E+02  0.10566000000E+00 0. -1.
        994    1    1    2    0    0 -0.16692333860E+01  0.20450843165E+02  0.43099339370E+01  0.17247909687E+03  0.17120000000E+03 0.  0.
        998    1    1    2    0    0  0.90836278846E+01 -0.78145563660E+01  0.14607494687E+04  0.14608328412E+04  0.10000000000E+02 0. -1.
</event>
<event>
 5    1  0.1147307E-008  0.3847650E+03  0.7957747E-01  0.3430669E+00
         13   -1    0    0    0    0  0.00000000000E+00  0.00000000000E+00  0.14999999963E+04  0.15000000000E+04  0.10566000000E+00 0.  1.
        994   -1    0    0    0    0 -0.00000000000E+00 -0.00000000000E+00  0.11368683772E-12  0.17120000000E+03  0.17120000000E+03 0.  0.
         13    1    1    2    0    0 -0.17402064962E+02  0.14778191557E+02  0.13738476857E+03  0.13926885010E+03  0.10566000000E+00 0.  1.
        994    1    1    2    0    0  0.22293222588E+02 -0.98653676841E+01  0.37052623586E+01  0.17296670842E+03  0.17120000000E+03 0.  0.
        998    1    1    2    0    0 -0.48911576264E+01 -0.49128238728E+01  0.13589099654E+04  0.13589644415E+04  0.10000000000E+02 0.  1.
</event>
<event>
 5    1  0.1147307E-008  0.3856932E+03  0.7957747E-01  0.3426738E+00
         13   -1    0    0    0    0  0.00000000000E+00  0.00000000000E+00  0.14999999963E+04  0.15000000000E+04  0.10566000000E+00 0.  1.
        994   -1    0    0    0    0 -0.00000000000E+00 -0.00000000000E+00  0.11368683772E-12  0.17120000000E+03  0.17120000000E+03 0.  0.
         13    1    1    2    0    0 -0.29416822504E+01 -0.15152220303E+02  0.79710065316E+02  0.81190818146E+02  0.10566000000E+00 0.  1.
        994    1    1    2    0    0 -0.19160660209E+02  0.36007589593E+02  0.67644906186E+01  0.17612176396E+03  0.17120000000E+03 0.  0.
        998    1    1    2    0    0  0.22102342460E+02 -0.20855369290E+02  0.14135254403E+04  0.14138874179E+04  0.10000000000E+02 0.  1.
</event>
<event>
 5    1  0.1147307E-008  0.3830986E+03  0.7957747E-01  0.3437777E+00
         13   -1    0    0    0    0  0.00000000000E+00  0.00000000000E+00  0.14999999963E+04  0.15000000000E+04  0.10566000000E+00 0. -1.
        994   -1    0    0    0    0 -0.00000000000E+00 -0.00000000000E+00  0.11368683772E-12  0.17120000000E+03  0.17120000000E+03 0.  0.
         13    1    1    2    0    0 -0.24934680789E+03  0.26832571116E+02  0.12280609356E+04  0.12534063548E+04  0.10566000000E+00 0. -1.
        994    1    1    2    0    0  0.24624718466E+03 -0.25549221748E+02  0.24252817036E+03  0.38654856371E+03  0.17120000000E+03 0.  0.
        998    1    1    2    0    0  0.30996232250E+01 -0.12833493682E+01  0.29410890264E+02  0.31245081467E+02  0.10000000000E+02 0.  0.
</event>
<event>
 5    1  0.1255971E-008  0.3863499E+03  0.7957747E-01  0.3423967E+00
         13   -1    0    0    0    0  0.00000000000E+00  0.00000000000E+00  0.14999999963E+04  0.15000000000E+04  0.10566000000E+00 0.  1.
        994   -1    0    0    0    0 -0.00000000000E+00 -0.00000000000E+00  0.11368683772E-12  0.17120000000E+03  0.17120000000E+03 0.  0.
         13    1    1    2    0    0 -0.21776923746E+00  0.10106791907E+02  0.52407318699E+02  0.53373522306E+02  0.10566000000E+00 0.  1.
        994    1    1    2    0    0  0.45849722752E+01 -0.11187734829E+02  0.14402329314E+01  0.17163246095E+03  0.17120000000E+03 0.  0.
        998    1    1    2    0    0 -0.43672030377E+01  0.10809429221E+01  0.14461524446E+04  0.14461940167E+04  0.10000000000E+02 0.  1.
</event>
<event>
 5    1  0.1147307E-008  0.3751666E+03  0.7957747E-01  0.3472478E+00
         13   -1    0    0    0    0  0.00000000000E+00  0.00000000000E+00  0.14999999963E+04  0.15000000000E+04  0.10566000000E+00 0. -1.
        994   -1    0    0    0    0 -0.00000000000E+00 -0.00000000000E+00  0.11368683772E-12  0.17120000000E+03  0.17120000000E+03 0.  0.
         13    1    1    2    0    0  0.40030662392E+02  0.63959910145E+02  0.36948115255E+03  0.37710695736E+03  0.10566000000E+00 0. -1.
        994    1    1    2    0    0  0.50804513349E+00 -0.75476456523E+02  0.26200402134E+02  0.18892552679E+03  0.17120000000E+03 0.  0.
        998    1    1    2    0    0 -0.40538707526E+02  0.11516546378E+02  0.11043184416E+04  0.11051675159E+04  0.10000000000E+02 0. -1.
</event>
<event>
 5    1  0.1147307E-008  0.3822288E+03  0.7957747E-01  0.3441511E+00
         13   -1    0    0    0    0  0.00000000000E+00  0.00000000000E+00  0.14999999963E+04  0.15000000000E+04  0.10566000000E+00 0.  1.
        994   -1    0    0    0    0 -0.00000000000E+00 -0.00000000000E+00  0.11368683772E-12  0.17120000000E+03  0.17120000000E+03 0.  0.
         13    1    1    2    0    0 -0.35909539456E+01 -0.10637470192E+02  0.19540052050E+02  0.22536093727E+02  0.10566000000E+00 0.  1.
        994    1    1    2    0    0 -0.13190752578E+01  0.12459109523E+02  0.35333640179E+01  0.17169418753E+03  0.17120000000E+03 0.  0.
        998    1    1    2    0    0  0.49100292035E+01 -0.18216393314E+01  0.14769265802E+04  0.14769697187E+04  0.10000000000E+02 0.  1.
</event>
<event>
 5    1  0.1147307E-008  0.3781214E+03  0.7957747E-01  0.3459379E+00
         13   -1    0    0    0    0  0.00000000000E+00  0.00000000000E+00  0.14999999963E+04  0.15000000000E+04  0.10566000000E+00 0. -1.
        994   -1    0    0    0    0 -0.00000000000E+00 -0.00000000000E+00  0.11368683772E-12  0.17120000000E+03  0.17120000000E+03 0.  0.
         13    1    1    2    0    0 -0.44739359741E+02  0.10077438275E+02  0.19754756528E+03  0.20280092895E+03  0.10566000000E+00 0. -1.
        994    1    1    2    0    0  0.31144838929E+02 -0.78583244527E+01  0.85629028217E+01  0.17439758473E+03  0.17120000000E+03 0.  0.
        998    1    1    2    0    0  0.13594520812E+02 -0.22191138225E+01  0.12938895282E+04  0.12940014863E+04  0.10000000000E+02 0. -1.
</event>
<event>
 5    1  0.1147307E-008  0.3813167E+03  0.7957747E-01  0.3445445E+00
         13   -1    0    0    0    0  0.00000000000E+00  0.00000000000E+00  0.14999999963E+04  0.15000000000E+04  0.10566000000E+00 0. -1.
        994   -1    0    0    0    0 -0.00000000000E+00 -0.00000000000E+00  0.11368683772E-12  0.17120000000E+03  0.17120000000E+03 0.  0.
         13    1    1    2    0    0  0.24915510622E+02  0.25647471828E+02  0.11407345264E+03  0.11954638950E+03  0.10566000000E+00 0. -1.
        994    1    1    2    0    0 -0.78926714666E+02 -0.70011761875E+02  0.41451656563E+02  0.20532596748E+03  0.17120000000E+03 0.  0.
        998    1    1    2    0    0  0.54011204045E+02  0.44364290046E+02  0.13444748871E+04  0.13463276430E+04  0.10000000000E+02 0. -1.
</event>
<event>
 5    1  0.1147307E-008  0.3753375E+03  0.7957747E-01  0.3471715E+00
         13   -1    0    0    0    0  0.00000000000E+00  0.00000000000E+00  0.14999999963E+04  0.15000000000E+04  0.10566000000E+00 0. -1.
        994   -1    0    0    0    0 -0.00000000000E+00 -0.00000000000E+00  0.11368683772E-12  0.17120000000E+03  0.17120000000E+03 0.  0.
         13    1    1    2    0    0 -0.75949888366E+01 -0.16557996232E+02  0.22469945476E+02  0.28926816423E+02  0.10566000000E+00 0. -1.
        994    1    1    2    0    0  0.36382335282E+01  0.17790256769E+02  0.76258380888E+01  0.17232911358E+03  0.17120000000E+03 0.  0.
        998    1    1    2    0    0  0.39567553083E+01 -0.12322605371E+01  0.14699042127E+04  0.14699440700E+04  0.10000000000E+02 0. -1.
</event>
<event>
 5    1  0.1147307E-008  0.3927875E+03  0.7957747E-01  0.3397301E+00
         13   -1    0    0    0    0  0.00000000000E+00  0.00000000000E+00  0.14999999963E+04  0.15000000000E+04  0.10566000000E+00 0.  1.
        994   -1    0    0    0    0 -0.00000000000E+00 -0.00000000000E+00  0.11368683772E-12  0.17120000000E+03  0.17120000000E+03 0.  0.
         13    1    1    2    0    0 -0.50456158703E+02  0.39812642142E+02  0.79785410060E+02  0.10245288306E+03  0.10566000000E+00 0.  1.
        994    1    1    2    0    0  0.29567598506E+02 -0.38835534440E+02  0.32653064495E+02  0.18099200048E+03  0.17120000000E+03 0.  0.
        998    1    1    2    0    0  0.20888560198E+02 -0.97710770182E+00  0.13875615217E+04  0.13877551165E+04  0.10000000000E+02 0.  1.
</event>
<event>
 5    1  0.1147307E-008  0.3813716E+03  0.7957747E-01  0.3445208E+00
         13   -1    0    0    0    0  0.00000000000E+00  0.00000000000E+00  0.14999999963E+04  0.15000000000E+04  0.10566000000E+00 0. -1.
        994   -1    0    0    0    0 -0.00000000000E+00 -0.00000000000E+00  0.11368683772E-12  0.17120000000E+03  0.17120000000E+03 0.  0.
         13    1    1    2    0    0 -0.14681210496E+02  0.26257175730E+02  0.15648323694E+03  0.15934864865E+03  0.10566000000E+00 0. -1.
        994    1    1    2    0    0 -0.20743717890E+00  0.83141624970E+01  0.36725751255E+01  0.17144123231E+03  0.17120000000E+03 0.  0.
        998    1    1    2    0    0  0.14888647675E+02 -0.34571338227E+02  0.13398441842E+04  0.13404101190E+04  0.10000000000E+02 0. -1.
</event>
<event>
 5    1  0.1147307E-008  0.3840938E+03  0.7957747E-01  0.3433525E+00
         13   -1    0    0    0    0  0.00000000000E+00  0.00000000000E+00  0.14999999963E+04  0.15000000000E+04  0.10566000000E+00 0. -1.
        994   -1    0    0    0    0 -0.00000000000E+00 -0.00000000000E+00  0.11368683772E-12  0.17120000000E+03  0.17120000000E+03 0.  0.
         13    1    1    2    0    0 -0.14289007255E+02  0.71049876671E+01  0.59747041415E+02  0.61841545097E+02  0.10566000000E+00 0. -1.
        994    1    1    2    0    0  0.12682366795E+02 -0.51675399487E+01  0.26995648969E+01  0.17176808070E+03  0.17120000000E+03 0.  0.
        998    1    1    2    0    0  0.16066404605E+01 -0.19374477184E+01  0.14375533900E+04  0.14375903742E+04  0.10000000000E+02 0. -1.
</event>
<event>
 5    1  0.1147307E-008  0.2204403E+03  0.7957747E-01  0.4703138E+00
         13   -1    0    0    0    0  0.00000000000E+00  0.00000000000E+00  0.14999999963E+04  0.15000000000E+04  0.10566000000E+00 0. -1.
        994   -1    0    0    0    0 -0.00000000000E+00 -0.00000000000E+00  0.11368683772E-12  0.17120000000E+03  0.17120000000E+03 0.  0.
         13    1    1    2    0    0 -0.32037743972E+01  0.14339712548E+03  0.16146730965E+03  0.21597384799E+03  0.10566000000E+00 0. -1.
        994    1    1    2    0    0 -0.57638682723E+01 -0.12247343859E+03  0.13219467942E+03  0.24863193400E+03  0.17120000000E+03 0.  0.
        998    1    1    2    0    0  0.89676426695E+01 -0.20923686891E+02  0.12063380072E+04  0.12065942180E+04  0.10000000000E+02 0. -1.
</event>
<event>
 5    1  0.1147307E-008  0.3853142E+03  0.7957747E-01  0.3428341E+00
         13   -1    0    0    0    0  0.00000000000E+00  0.00000000000E+00  0.14999999963E+04  0.15000000000E+04  0.10566000000E+00 0.  1.
        994   -1    0    0    0    0 -0.00000000000E+00 -0.00000000000E+00  0.11368683772E-12  0.17120000000E+03  0.17120000000E+03 0.  0.
         13    1    1    2    0    0  0.15180921219E+02 -0.40509572564E+01  0.78610519573E+02  0.80165426310E+02  0.10566000000E+00 0.  1.
        994    1    1    2    0    0 -0.18461012817E+02  0.61757853645E+01  0.27201908140E+01  0.17232466091E+03  0.17120000000E+03 0.  0.
        998    1    1    2    0    0  0.32800915983E+01 -0.21248281081E+01  0.14186692859E+04  0.14187099128E+04  0.10000000000E+02 0.  1.
</event>
<event>
 5    1  0.1147307E-008  0.3794468E+03  0.7957747E-01  0.3453571E+00
         13   -1    0    0    0    0  0.00000000000E+00  0.00000000000E+00  0.14999999963E+04  0.15000000000E+04  0.10566000000E+00 0. -1.
        994   -1    0    0    0    0 -0.00000000000E+00 -0.00000000000E+00  0.11368683772E-12  0.17120000000E+03  0.17120000000E+03 0.  0.
         13    1    1    2    0    0 -0.27574953265E+02  0.32075661554E+02  0.18340803083E+03  0.18822258910E+03  0.10566000000E+00 0. -1.
        994    1    1    2    0    0  0.31274754932E+02 -0.23658089622E+02  0.95801015053E+01  0.17589495117E+03  0.17120000000E+03 0.  0.
        998    1    1    2    0    0 -0.36998016666E+01 -0.84175719314E+01  0.13070118639E+04  0.13070824597E+04  0.10000000000E+02 0. -1.
</event>
<event>
 5    1  0.1147307E-008  0.3778554E+03  0.7957747E-01  0.3460550E+00
         13   -1    0    0    0    0  0.00000000000E+00  0.00000000000E+00  0.14999999963E+04  0.15000000000E+04  0.10566000000E+00 0.  1.
        994   -1    0    0    0    0 -0.00000000000E+00 -0.00000000000E+00  0.11368683772E-12  0.17120000000E+03  0.17120000000E+03 0.  0.
         13    1    1    2    0    0  0.29456987033E+02  0.13493553100E+02  0.11366524294E+03  0.11819301451E+03  0.10566000000E+00 0.  1.
        994    1    1    2    0    0  0.14321849419E+02 -0.11831165074E+02  0.63823942248E+01  0.17232314643E+03  0.17120000000E+03 0.  0.
        998    1    1    2    0    0 -0.43778836452E+02 -0.16623880264E+01  0.13799523591E+04  0.13806838391E+04  0.10000000000E+02 0.  1.
</event>
<event>
 5    1  0.1147307E-008  0.3746176E+03  0.7957747E-01  0.3474935E+00
         13   -1    0    0    0    0  0.00000000000E+00  0.00000000000E+00  0.14999999963E+04  0.15000000000E+04  0.10566000000E+00 0. -1.
        994   -1    0    0    0    0 -0.00000000000E+00 -0.00000000000E+00  0.11368683772E-12  0.17120000000E+03  0.17120000000E+03 0.  0.
         13    1    1    2    0    0  0.88872736381E+01 -0.20009956395E+02  0.31617060336E+02  0.38458180612E+02  0.10566000000E+00 0. -1.
        994    1    1    2    0    0 -0.58650138684E+01  0.19258892112E+02  0.82559199730E+01  0.17257723931E+03  0.17120000000E+03 0.  0.
        998    1    1    2    0    0 -0.30222597697E+01  0.75106428323E+00  0.14601270160E+04  0.14601645801E+04  0.10000000000E+02 0. -1.
</event>
<event>
 5    1  0.1147307E-008  0.3855745E+03  0.7957747E-01  0.3427239E+00
         13   -1    0    0    0    0  0.00000000000E+00  0.00000000000E+00  0.14999999963E+04  0.15000000000E+04  0.10566000000E+00 0. -1.
        994   -1    0    0    0    0 -0.00000000000E+00 -0.00000000000E+00  0.11368683772E-12  0.17120000000E+03  0.17120000000E+03 0.  0.
         13    1    1    2    0    0 -0.10299234475E+02  0.45281028219E+01  0.55890367128E+02  0.57011597484E+02  0.10566000000E+00 0. -1.
        994    1    1    2    0    0 -0.20614051787E+02 -0.37284098988E+01  0.27870176468E+01  0.17249941344E+03  0.17120000000E+03 0.  0.
        998    1    1    2    0    0  0.30913286263E+02 -0.79969292318E+00  0.14413226115E+04  0.14416889891E+04  0.10000000000E+02 0. -1.
</event>
<event>
 5    1  0.1147307E-008  0.3800908E+03  0.7957747E-01  0.3450763E+00
         13   -1    0    0    0    0  0.00000000000E+00  0.00000000000E+00  0.14999999963E+04  0.15000000000E+04  0.10566000000E+00 0. -1.
        994   -1    0    0    0    0 -0.00000000000E+00 -0.00000000000E+00  0.11368683772E-12  0.17120000000E+03  0.17120000000E+03 0.  0.
         13    1    1    2    0    0 -0.24201352712E+01  0.38510748806E+02  0.20644371289E+03  0.21001893387E+03  0.10566000000E+00 0. -1.
        994    1    1    2    0    0  0.66675095233E+01 -0.48001125976E+01  0.43129003625E+01  0.17145126968E+03  0.17120000000E+03 0.  0.
        998    1    1    2    0    0 -0.42473742520E+01 -0.33710636208E+02  0.12892433830E+04  0.12897297965E+04  0.10000000000E+02 0. -1.
</event>
<event>
 5    1  0.1147307E-008  0.3850614E+03  0.7957747E-01  0.3429412E+00
         13   -1    0    0    0    0  0.00000000000E+00  0.00000000000E+00  0.14999999963E+04  0.15000000000E+04  0.10566000000E+00 0.  1.
        994   -1    0    0    0    0 -0.00000000000E+00 -0.00000000000E+00  0.11368683772E-12  0.17120000000E+03  0.17120000000E+03 0.  0.
         13    1    1    2    0    0 -0.19699043862E+01  0.13435970711E+02  0.55571176520E+02  0.57206403978E+02  0.10566000000E+00 0.  1.
        994    1    1    2    0    0 -0.45631837872E+01 -0.16165806560E+02  0.25279370475E+01  0.17204065338E+03  0.17120000000E+03 0.  0.
        998    1    1    2    0    0  0.65330881733E+01  0.27298358485E+01  0.14419008827E+04  0.14419529426E+04  0.10000000000E+02 0.  1.
</event>
<event>
 5    1  0.1147307E-008  0.3844945E+03  0.7957747E-01  0.3431819E+00
         13   -1    0    0    0    0  0.00000000000E+00  0.00000000000E+00  0.14999999963E+04  0.15000000000E+04  0.10566000000E+00 0. -1.
        994   -1    0    0    0    0 -0.00000000000E+00 -0.00000000000E+00  0.11368683772E-12  0.17120000000E+03  0.17120000000E+03 0.  0.
         13    1    1    2    0    0 -0.13269585796E+02  0.19176587122E+02  0.13796441857E+03  0.13992146139E+03  0.10566000000E+00 0. -1.
        994    1    1    2    0    0  0.10925453538E+02 -0.16136465722E+02  0.31332576876E+01  0.17233400235E+03  0.17120000000E+03 0.  0.
        998    1    1    2    0    0  0.23441322579E+01 -0.30401214006E+01  0.13589023200E+04  0.13589445363E+04  0.10000000000E+02 0. -1.
</event>
<event>
 5    1  0.1147307E-008  0.4506731E+03  0.7957747E-01  0.3191401E+00
         13   -1    0    0    0    0  0.00000000000E+00  0.00000000000E+00  0.14999999963E+04  0.15000000000E+04  0.10566000000E+00 0. -1.
        994   -1    0    0    0    0 -0.00000000000E+00 -0.00000000000E+00  0.11368683772E-12  0.17120000000E+03  0.17120000000E+03 0.  0.
         13    1    1    2    0    0 -0.69409307859E+02 -0.60979742785E+01  0.13045740252E+01  0.69688954542E+02  0.10566000000E+00 0. -1.
        994    1    1    2    0    0  0.13594773354E+03 -0.15626212426E+03  0.35946120481E+03  0.44879999498E+03  0.17120000000E+03 0.  0.
        998    1    1    2    0    0 -0.66538425681E+02  0.16236009854E+03  0.11392342174E+04  0.11527110505E+04  0.10000000000E+02 0. -1.
</event>
<event>
 5    1  0.1147307E-008  0.3741869E+03  0.7957747E-01  0.3476867E+00
         13   -1    0    0    0    0  0.00000000000E+00  0.00000000000E+00  0.14999999963E+04  0.15000000000E+04  0.10566000000E+00 0. -1.
        994   -1    0    0    0    0 -0.00000000000E+00 -0.00000000000E+00  0.11368683772E-12  0.17120000000E+03  0.17120000000E+03 0.  0.
         13    1    1    2    0    0  0.49421251689E+02 -0.14834387808E+02  0.17227384092E+03  0.17983549874E+03  0.10566000000E+00 0. -1.
        994    1    1    2    0    0 -0.53949068763E+02 -0.23461177507E+02  0.18986696851E+02  0.18201885487E+03  0.17120000000E+03 0.  0.
        998    1    1    2    0    0  0.45278170738E+01  0.38295565315E+02  0.13087394585E+04  0.13093456464E+04  0.10000000000E+02 0. -1.
</event>
<event>
 5    1  0.1147307E-008  0.3716573E+03  0.7957747E-01  0.3488309E+00
         13   -1    0    0    0    0  0.00000000000E+00  0.00000000000E+00  0.14999999963E+04  0.15000000000E+04  0.10566000000E+00 0. -1.
        994   -1    0    0    0    0 -0.00000000000E+00 -0.00000000000E+00  0.11368683772E-12  0.17120000000E+03  0.17120000000E+03 0.  0.
         13    1    1    2    0    0  0.13371419449E+01 -0.36538956051E+02  0.82367444067E+02  0.90118201625E+02  0.10566000000E+00 0. -1.
        994    1    1    2    0    0  0.47246395580E+02  0.44088613147E+01  0.16186629131E+02  0.17839032181E+03  0.17120000000E+03 0.  0.
        998    1    1    2    0    0 -0.48583537525E+02  0.32130094737E+02  0.14014459231E+04  0.14026914766E+04  0.10000000000E+02 0. -1.
</event>
<event>
 5    1  0.1147307E-008  0.3820154E+03  0.7957747E-01  0.3442430E+00
         13   -1    0    0    0    0  0.00000000000E+00  0.00000000000E+00  0.14999999963E+04  0.15000000000E+04  0.10566000000E+00 0.  1.
        994   -1    0    0    0    0 -0.00000000000E+00 -0.00000000000E+00  0.11368683772E-12  0.17120000000E+03  0.17120000000E+03 0.  0.
         13    1    1    2    0    0 -0.16343993913E+02  0.14064901863E+01  0.40745419359E+02  0.43923851316E+02  0.10566000000E+00 0.  1.
        994    1    1    2    0    0  0.19219015512E+02  0.24860573446E+00  0.43469815966E+01  0.17233040536E+03  0.17120000000E+03 0.  0.
        998    1    1    2    0    0 -0.28750215989E+01 -0.16550959207E+01  0.14549075953E+04  0.14549457433E+04  0.10000000000E+02 0.  1.
</event>
<event>
 5    1  0.1147307E-008  0.3819047E+03  0.7957747E-01  0.3442907E+00
         13   -1    0    0    0    0  0.00000000000E+00  0.00000000000E+00  0.14999999963E+04  0.15000000000E+04  0.10566000000E+00 0.  1.
        994   -1    0    0    0    0 -0.00000000000E+00 -0.00000000000E+00  0.11368683772E-12  0.17120000000E+03  0.17120000000E+03 0.  0.
         13    1    1    2    0    0 -0.15046027383E+02  0.78843234555E+01  0.42568692002E+02  0.45832850655E+02  0.10566000000E+00 0.  1.
        994    1    1    2    0    0  0.18322740055E+02 -0.11881417949E+02  0.47605818686E+01  0.17265281357E+03  0.17120000000E+03 0.  0.
        998    1    1    2    0    0 -0.32767126715E+01  0.39970944938E+01  0.14526707224E+04  0.14527143358E+04  0.10000000000E+02 0.  1.
</event>
<event>
 5    1  0.1147307E-008  0.3737474E+03  0.7957747E-01  0.3478844E+00
         13   -1    0    0    0    0  0.00000000000E+00  0.00000000000E+00  0.14999999963E+04  0.15000000000E+04  0.10566000000E+00 0.  1.
        994   -1    0    0    0    0 -0.00000000000E+00 -0.00000000000E+00  0.11368683772E-12  0.17120000000E+03  0.17120000000E+03 0.  0.
         13    1    1    2    0    0  0.27189088587E+02 -0.33989988212E+02  0.14505588176E+03  0.15144565307E+03  0.10566000000E+00 0.  1.
        994    1    1    2    0    0  0.22493019618E+02  0.17254069645E+02  0.10071567233E+02  0.17382323009E+03  0.17120000000E+03 0.  0.
        998    1    1    2    0    0 -0.49682108205E+02  0.16735918567E+02  0.13448725473E+04  0.13459311168E+04  0.10000000000E+02 0.  1.
</event>
<event>
 5    1  0.1147307E-008  0.3707286E+03  0.7957747E-01  0.3492549E+00
         13   -1    0    0    0    0  0.00000000000E+00  0.00000000000E+00  0.14999999963E+04  0.15000000000E+04  0.10566000000E+00 0.  1.
        994   -1    0    0    0    0 -0.00000000000E+00 -0.00000000000E+00  0.11368683772E-12  0.17120000000E+03  0.17120000000E+03 0.  0.
         13    1    1    2    0    0 -0.32404704255E+01 -0.21760450110E+02  0.16335425204E+02  0.27402100616E+02  0.10566000000E+00 0.  1.
        994    1    1    2    0    0  0.86380852377E+01  0.19393229550E+02  0.12905873694E+02  0.17299339711E+03  0.17120000000E+03 0.  0.
        998    1    1    2    0    0 -0.53976148121E+01  0.23672205597E+01  0.14707586974E+04  0.14708045023E+04  0.10000000000E+02 0.  1.
</event>
<event>
 5    1  0.1147307E-008  0.3853467E+03  0.7957747E-01  0.3428203E+00
         13   -1    0    0    0    0  0.00000000000E+00  0.00000000000E+00  0.14999999963E+04  0.15000000000E+04  0.10566000000E+00 0. -1.
        994   -1    0    0    0    0 -0.00000000000E+00 -0.00000000000E+00  0.11368683772E-12  0.17120000000E+03  0.17120000000E+03 0.  0.
         13    1    1    2    0    0  0.88159620910E+01  0.90279320095E+01  0.53855261894E+02  0.55313878382E+02  0.10566000000E+00 0. -1.
        994    1    1    2    0    0 -0.15854735220E+02 -0.33500171412E+00  0.22846519767E+01  0.17194808661E+03  0.17120000000E+03 0.  0.
        998    1    1    2    0    0  0.70387731288E+01 -0.86929302953E+01  0.14438600824E+04  0.14439380350E+04  0.10000000000E+02 0. -1.
</event>
<event>
 5    1  0.1147307E-008  0.3840132E+03  0.7957747E-01  0.3433868E+00
         13   -1    0    0    0    0  0.00000000000E+00  0.00000000000E+00  0.14999999963E+04  0.15000000000E+04  0.10566000000E+00 0.  1.
        994   -1    0    0    0    0 -0.00000000000E+00 -0.00000000000E+00  0.11368683772E-12  0.17120000000E+03  0.17120000000E+03 0.  0.
         13    1    1    2    0    0  0.33452091100E+01  0.20818667519E+02  0.97965465601E+02  0.10020903630E+03  0.10566000000E+00 0.  1.
        994    1    1    2    0    0 -0.65433492858E+01 -0.21822818587E+02  0.38351885664E+01  0.17275184370E+03  0.17120000000E+03 0.  0.
        998    1    1    2    0    0  0.31981401758E+01  0.10041510680E+01  0.13981993421E+04  0.13982391200E+04  0.10000000000E+02 0.  1.
</event>
<event>
 5    1  0.3428182E-008  0.3859167E+03  0.7957747E-01  0.3425794E+00
         13   -1    0    0    0    0  0.00000000000E+00  0.00000000000E+00  0.14999999963E+04  0.15000000000E+04  0.10566000000E+00 0.  1.
        994   -1    0    0    0    0 -0.00000000000E+00 -0.00000000000E+00  0.11368683772E-12  0.17120000000E+03  0.17120000000E+03 0.  0.
         13    1    1    2    0    0 -0.94418894812E+01 -0.72786313858E+01  0.61571041547E+02  0.62714687857E+02  0.10566000000E+00 0.  1.
        994    1    1    2    0    0  0.44858253898E+01  0.54005926280E+01  0.13373173168E+01  0.17134910985E+03  0.17120000000E+03 0.  0.
        998    1    1    2    0    0  0.49560640914E+01  0.18780387578E+01  0.14370916374E+04  0.14371362023E+04  0.10000000000E+02 0.  1.
</event>
<event>
 5    1  0.1147307E-008  0.3765553E+03  0.7957747E-01  0.3466296E+00
         13   -1    0    0    0    0  0.00000000000E+00  0.00000000000E+00  0.14999999963E+04  0.15000000000E+04  0.10566000000E+00 0. -1.
        994   -1    0    0    0    0 -0.00000000000E+00 -0.00000000000E+00  0.11368683772E-12  0.17120000000E+03  0.17120000000E+03 0.  0.
         13    1    1    2    0    0  0.25573840479E+02 -0.27230656028E+02  0.12893935526E+03  0.13424193995E+03  0.10566000000E+00 0. -1.
        994    1    1    2    0    0  0.74961394507E+01  0.10680004083E+02  0.64581276262E+01  0.17181793273E+03  0.17120000000E+03 0.  0.
        998    1    1    2    0    0 -0.33069979930E+02  0.16550651945E+02  0.13646025134E+04  0.13651401273E+04  0.10000000000E+02 0. -1.
</event>
<event>
 5    1  0.1147307E-008  0.3846443E+03  0.7957747E-01  0.3431182E+00
         13   -1    0    0    0    0  0.00000000000E+00  0.00000000000E+00  0.14999999963E+04  0.15000000000E+04  0.10566000000E+00 0.  1.
        994   -1    0    0    0    0 -0.00000000000E+00 -0.00000000000E+00  0.11368683772E-12  0.17120000000E+03  0.17120000000E+03 0.  0.
         13    1    1    2    0    0 -0.20765355677E+01 -0.14557385111E+02  0.64586249454E+02  0.66239144346E+02  0.10566000000E+00 0.  1.
        994    1    1    2    0    0 -0.15905140732E+02 -0.79566406008E+00  0.26422454544E+01  0.17195937905E+03  0.17120000000E+03 0.  0.
        998    1    1    2    0    0  0.17981676300E+02  0.15353049171E+02  0.14327715014E+04  0.14330014766E+04  0.10000000000E+02 0.  1.
</event>
<event>
 5    1  0.1147307E-008  0.3698005E+03  0.7957747E-01  0.3496808E+00
         13   -1    0    0    0    0  0.00000000000E+00  0.00000000000E+00  0.14999999963E+04  0.15000000000E+04  0.10566000000E+00 0. -1.
        994   -1    0    0    0    0 -0.00000000000E+00 -0.00000000000E+00  0.11368683772E-12  0.17120000000E+03  0.17120000000E+03 0.  0.
         13    1    1    2    0    0  0.13528064775E+03 -0.36301175720E+01  0.56356298086E+03  0.57958370920E+03  0.10566000000E+00 0. -1.
        994    1    1    2    0    0 -0.13706773295E+03 -0.15410419606E+01  0.77503785112E+02  0.23260742665E+03  0.17120000000E+03 0.  0.
        998    1    1    2    0    0  0.17870851935E+01  0.51711595326E+01  0.85893323031E+03  0.85900886415E+03  0.10000000000E+02 0.  0.
</event>
<event>
 5    1  0.1147307E-008  0.3794405E+03  0.7957747E-01  0.3453598E+00
         13   -1    0    0    0    0  0.00000000000E+00  0.00000000000E+00  0.14999999963E+04  0.15000000000E+04  0.10566000000E+00 0. -1.
        994   -1    0    0    0    0 -0.00000000000E+00 -0.00000000000E+00  0.11368683772E-12  0.17120000000E+03  0.17120000000E+03 0.  0.
         13    1    1    2    0    0  0.30129910315E+02  0.20019912239E+02  0.12971628288E+03  0.13466600756E+03  0.10566000000E+00 0. -1.
        994    1    1    2    0    0 -0.33889998736E+02 -0.27287359198E+02  0.10782396948E+02  0.17697127470E+03  0.17120000000E+03 0.  0.
        998    1    1    2    0    0  0.37600884208E+01  0.72674469583E+01  0.13595013164E+04  0.13595627177E+04  0.10000000000E+02 0. -1.
</event>
<event>
 5    1  0.1147307E-008  0.3857986E+03  0.7957747E-01  0.3426292E+00
         13   -1    0    0    0    0  0.00000000000E+00  0.00000000000E+00  0.14999999963E+04  0.15000000000E+04  0.10566000000E+00 0. -1.
        994   -1    0    0    0    0 -0.00000000000E+00 -0.00000000000E+00  0.11368683772E-12  0.17120000000E+03  0.17120000000E+03 0.  0.
         13    1    1    2    0    0 -0.10528521255E+02  0.14023816047E+01  0.46196745054E+02  0.47402181929E+02  0.10566000000E+00 0. -1.
        994    1    1    2    0    0  0.76845498859E+01  0.61281772695E+01  0.15510996511E+01  0.17148892901E+03  0.17120000000E+03 0.  0.
        998    1    1    2    0    0  0.28439713694E+01 -0.75305588742E+01  0.14522521516E+04  0.14523088891E+04  0.10000000000E+02 0. -1.
</event>
<event>
 5    1  0.1147307E-008  0.3817219E+03  0.7957747E-01  0.3443695E+00
         13   -1    0    0    0    0  0.00000000000E+00  0.00000000000E+00  0.14999999963E+04  0.15000000000E+04  0.10566000000E+00 0. -1.
        994   -1    0    0    0    0 -0.00000000000E+00 -0.00000000000E+00  0.11368683772E-12  0.17120000000E+03  0.17120000000E+03 0.  0.
         13    1    1    2    0    0  0.73302775330E+01 -0.16889427675E+02  0.20170709486E+01  0.18522026756E+02  0.10566000000E+00 0. -1.
        994    1    1    2    0    0 -0.85321342678E+01  0.16753155552E+02  0.18566299494E+02  0.17322705624E+03  0.17120000000E+03 0.  0.
        998    1    1    2    0    0  0.12018567348E+01  0.13627212321E+00  0.14794166258E+04  0.14794509170E+04  0.10000000000E+02 0. -1.
</event>
<event>
 5    1  0.1147307E-008  0.3715369E+03  0.7957747E-01  0.3488857E+00
         13   -1    0    0    0    0  0.00000000000E+00  0.00000000000E+00  0.14999999963E+04  0.15000000000E+04  0.10566000000E+00 0.  1.
        994   -1    0    0    0    0 -0.00000000000E+00 -0.00000000000E+00  0.11368683772E-12  0.17120000000E+03  0.17120000000E+03 0.  0.
         13    1    1    2    0    0  0.53168297439E+02  0.63514152565E+02  0.43071030401E+03  0.43860265910E+03  0.10566000000E+00 0.  1.
        994    1    1    2    0    0  0.93857306479E+01 -0.65372889933E+02  0.23622367100E+02  0.18501125075E+03  0.17120000000E+03 0.  0.
        998    1    1    2    0    0 -0.62554028087E+02  0.18587373681E+01  0.10456673252E+04  0.10475860901E+04  0.10000000000E+02 0.  1.
</event>
<event>
 5    1  0.1147307E-008  0.3853757E+03  0.7957747E-01  0.3428081E+00
         13   -1    0    0    0    0  0.00000000000E+00  0.00000000000E+00  0.14999999963E+04  0.15000000000E+04  0.10566000000E+00 0. -1.
        994   -1    0    0    0    0 -0.00000000000E+00 -0.00000000000E+00  0.11368683772E-12  0.17120000000E+03  0.17120000000E+03 0.  0.
         13    1    1    2    0    0  0.51627861918E+01 -0.99628892612E+01  0.43420274808E+02  0.44846905714E+02  0.10566000000E+00 0. -1.
        994    1    1    2    0    0  0.94759521682E+00  0.10329373072E+02  0.17972370813E+01  0.17152336268E+03  0.17120000000E+03 0.  0.
        998    1    1    2    0    0 -0.61103814086E+01 -0.36648381093E+00  0.14547824844E+04  0.14548297316E+04  0.10000000000E+02 0. -1.
</event>
<event>
 5    1  0.1147307E-008  0.3812222E+03  0.7957747E-01  0.3445854E+00
         13   -1    0    0    0    0  0.00000000000E+00  0.00000000000E+00  0.14999999963E+04  0.15000000000E+04  0.10566000000E+00 0.  1.
        994   -1    0    0    0    0 -0.00000000000E+00 -0.00000000000E+00  0.11368683772E-12  0.17120000000E+03  0.17120000000E+03 0.  0.
         13    1    1    2    0    0 -0.10890356650E+02  0.48869203757E+02  0.26868329323E+03  0.27330847438E+03  0.10566000000E+00 0.  1.
        994    1    1    2    0    0  0.13476352024E+02 -0.58102205554E+02  0.15453940153E+02  0.18194983545E+03  0.17120000000E+03 0.  0.
        998    1    1    2    0    0 -0.25859953740E+01  0.92330017974E+01  0.12158627629E+04  0.12159416902E+04  0.10000000000E+02 0.  1.
</event>
<event>
 5    1  0.1147307E-008  0.3783092E+03  0.7957747E-01  0.3458554E+00
         13   -1    0    0    0    0  0.00000000000E+00  0.00000000000E+00  0.14999999963E+04  0.15000000000E+04  0.10566000000E+00 0.  1.
        994   -1    0    0    0    0 -0.00000000000E+00 -0.00000000000E+00  0.11368683772E-12  0.17120000000E+03  0.17120000000E+03 0.  0.
         13    1    1    2    0    0 -0.18427627887E+01 -0.22095777255E+02  0.45152003297E+02  0.50302422536E+02  0.10566000000E+00 0.  1.
        994    1    1    2    0    0  0.72035767193E+01  0.28139508832E+02  0.78306559031E+01  0.17382313611E+03  0.17120000000E+03 0.  0.
        998    1    1    2    0    0 -0.53608139305E+01 -0.60437315772E+01  0.14470173371E+04  0.14470744414E+04  0.10000000000E+02 0.  1.
</event>
<event>
 5    1  0.1147307E-008  0.3831495E+03  0.7957747E-01  0.3437558E+00
         13   -1    0    0    0    0  0.00000000000E+00  0.00000000000E+00  0.14999999963E+04  0.15000000000E+04  0.10566000000E+00 0. -1.
        994   -1    0    0    0    0 -0.00000000000E+00 -0.00000000000E+00  0.11368683772E-12  0.17120000000E+03  0.17120000000E+03 0.  0.
         13    1    1    2    0    0 -0.23575537868E+02  0.68542398938E+01  0.10865392397E+03  0.11139332542E+03  0.10566000000E+00 0. -1.
        994    1    1    2    0    0  0.25800930557E+02 -0.74330896258E+01  0.49405357553E+01  0.17336316717E+03  0.17120000000E+03 0.  0.
        998    1    1    2    0    0 -0.22253926890E+01  0.57884973192E+00  0.13864055366E+04  0.13864435074E+04  0.10000000000E+02 0. -1.
</event>
<event>
 5    1  0.1147307E-008  0.3884336E+03  0.7957747E-01  0.3415239E+00
         13   -1    0    0    0    0  0.00000000000E+00  0.00000000000E+00  0.14999999963E+04  0.15000000000E+04  0.10566000000E+00 0.  1.
        994   -1    0    0    0    0 -0.00000000000E+00 -0.00000000000E+00  0.11368683772E-12  0.17120000000E+03  0.17120000000E+03 0.  0.
         13    1    1    2    0    0 -0.51781242835E+02  0.23599095644E+02  0.78362121125E+02  0.96844450621E+02  0.10566000000E+00 0.  1.
        994    1    1    2    0    0 -0.32525857582E+02 -0.60276062633E+02  0.38802256430E+02  0.18843086329E+03  0.17120000000E+03 0.  0.
        998    1    1    2    0    0  0.84307100417E+02  0.36676966989E+02  0.13828356187E+04  0.13859246861E+04  0.10000000000E+02 0.  1.
</event>
<event>
 5    1  0.1147307E-008  0.3824498E+03  0.7957747E-01  0.3440560E+00
         13   -1    0    0    0    0  0.00000000000E+00  0.00000000000E+00  0.14999999963E+04  0.15000000000E+04  0.10566000000E+00 0.  1.
        994   -1    0    0    0    0 -0.00000000000E+00 -0.00000000000E+00  0.11368683772E-12  0.17120000000E+03  0.17120000000E+03 0.  0.
         13    1    1    2    0    0  0.40213586938E+00  0.11810843424E+02  0.22949419769E+02  0.25813654670E+02  0.10566000000E+00 0.  1.
        994    1    1    2    0    0 -0.14586666324E+01 -0.84984850879E+01  0.31481733561E+01  0.17144591845E+03  0.17120000000E+03 0.  0.
        998    1    1    2    0    0  0.10565307630E+01 -0.33123583360E+01  0.14739024032E+04  0.14739404269E+04  0.10000000000E+02 0.  1.
</event>
<event>
 5    1  0.1147307E-008  0.3805531E+03  0.7957747E-01  0.3448754E+00
         13   -1    0    0    0    0  0.00000000000E+00  0.00000000000E+00  0.14999999963E+04  0.15000000000E+04  0.10566000000E+00 0.  1.
        994   -1    0    0    0    0 -0.00000000000E+00 -0.00000000000E+00  0.11368683772E-12  0.17120000000E+03  0.17120000000E+03 0.  0.
         13    1    1    2    0    0 -0.86546370893E+01 -0.54502008053E+02  0.32435670297E+03  0.32901771008E+03  0.10566000000E+00 0.  1.
        994    1    1    2    0    0 -0.59604378443E+01  0.53201624638E+02  0.13477200154E+02  0.17988055650E+03  0.17120000000E+03 0.  0.
        998    1    1    2    0    0  0.14615074934E+02  0.13003834145E+01  0.11621660932E+04  0.11623017334E+04  0.10000000000E+02 0.  1.
</event>
<event>
 5    1  0.1147307E-008  0.3840359E+03  0.7957747E-01  0.3433771E+00
         13   -1    0    0    0    0  0.00000000000E+00  0.00000000000E+00  0.14999999963E+04  0.15000000000E+04  0.10566000000E+00 0. -1.
        994   -1    0    0    0    0 -0.00000000000E+00 -0.00000000000E+00  0.11368683772E-12  0.17120000000E+03  0.17120000000E+03 0.  0.
         13    1    1    2    0    0  0.11664712599E+02  0.10207884679E+01  0.30469741752E+02  0.32642362898E+02  0.10566000000E+00 0. -1.
        994    1    1    2    0    0 -0.18631641434E+02 -0.14693533782E+02  0.39692030280E+01  0.17288213491E+03  0.17120000000E+03 0.  0.
        998    1    1    2    0    0  0.69669288345E+01  0.13672745315E+02  0.14655610515E+04  0.14656755022E+04  0.10000000000E+02 0. -1.
</event>
<event>
 5    1  0.1147307E-008  0.3846303E+03  0.7957747E-01  0.3431242E+00
         13   -1    0    0    0    0  0.00000000000E+00  0.00000000000E+00  0.14999999963E+04  0.15000000000E+04  0.10566000000E+00 0. -1.
        994   -1    0    0    0    0 -0.00000000000E+00 -0.00000000000E+00  0.11368683772E-12  0.17120000000E+03  0.17120000000E+03 0.  0.
         13    1    1    2    0    0  0.21892500016E+01  0.15021782638E+02  0.57757755572E+02  0.59719479753E+02  0.10566000000E+00 0. -1.
        994    1    1    2    0    0 -0.13229660640E+02 -0.24901802058E+02  0.44361950946E+01  0.17356337025E+03  0.17120000000E+03 0.  0.
        998    1    1    2    0    0  0.11040410639E+02  0.98800194197E+01  0.14378060456E+04  0.14379171500E+04  0.10000000000E+02 0. -1.
</event>
<event>
 5    1  0.1147307E-008  0.3811308E+03  0.7957747E-01  0.3446249E+00
         13   -1    0    0    0    0  0.00000000000E+00  0.00000000000E+00  0.14999999963E+04  0.15000000000E+04  0.10566000000E+00 0. -1.
        994   -1    0    0    0    0 -0.00000000000E+00 -0.00000000000E+00  0.11368683772E-12  0.17120000000E+03  0.17120000000E+03 0.  0.
         13    1    1    2    0    0  0.40202265893E+00 -0.18785500336E+02  0.48723850578E+02  0.52221465168E+02  0.10566000000E+00 0. -1.
        994    1    1    2    0    0 -0.38746039925E+00  0.98685837596E+01  0.38883313378E+01  0.17152870953E+03  0.17120000000E+03 0.  0.
        998    1    1    2    0    0 -0.14562259682E-01  0.89169165765E+01  0.14473878144E+04  0.14474498253E+04  0.10000000000E+02 0. -1.
</event>
<event>
 5    1  0.1147307E-008  0.3805789E+03  0.7957747E-01  0.3448642E+00
         13   -1    0    0    0    0  0.00000000000E+00  0.00000000000E+00  0.14999999963E+04  0.15000000000E+04  0.10566000000E+00 0. -1.
        994   -1    0    0    0    0 -0.00000000000E+00 -0.00000000000E+00  0.11368683772E-12  0.17120000000E+03  0.17120000000E+03 0.  0.
         13    1    1    2    0    0 -0.23863826800E+01  0.13190115178E+02  0.22628186829E+02  0.26300569650E+02  0.10566000000E+00 0. -1.
        994    1    1    2    0    0 -0.94056901579E+01  0.17695240922E+01  0.41469041702E+01  0.17151744820E+03  0.17120000000E+03 0.  0.
        998    1    1    2    0    0  0.11792072838E+02 -0.14959639270E+02  0.14732249053E+04  0.14733819821E+04  0.10000000000E+02 0. -1.
</event>
<event>
 5    1  0.1147307E-008  0.3793945E+03  0.7957747E-01  0.3453799E+00
         13   -1    0    0    0    0  0.00000000000E+00  0.00000000000E+00  0.14999999963E+04  0.15000000000E+04  0.10566000000E+00 0. -1.
        994   -1    0    0    0    0 -0.00000000000E+00 -0.00000000000E+00  0.11368683772E-12  0.17120000000E+03  0.17120000000E+03 0.  0.
         13    1    1    2    0    0 -0.94986247742E+01  0.39421091184E+02  0.48558178248E+02  0.63262580895E+02  0.10566000000E+00 0. -1.
        994    1    1    2    0    0 -0.12705314942E+02 -0.51819388671E+01  0.16676158142E+02  0.17255669146E+03  0.17120000000E+03 0.  0.
        998    1    1    2    0    0  0.22203939716E+02 -0.34239152317E+02  0.14347656599E+04  0.14353807276E+04  0.10000000000E+02 0. -1.
</event>
<event>
 5    1  0.1147307E-008  0.3800509E+03  0.7957747E-01  0.3450937E+00
         13   -1    0    0    0    0  0.00000000000E+00  0.00000000000E+00  0.14999999963E+04  0.15000000000E+04  0.10566000000E+00 0.  1.
        994   -1    0    0    0    0 -0.00000000000E+00 -0.00000000000E+00  0.11368683772E-12  0.17120000000E+03  0.17120000000E+03 0.  0.
         13    1    1    2    0    0  0.18164879050E+02 -0.32006897256E+02  0.18271033628E+03  0.18637994111E+03  0.10566000000E+00 0.  1.
        994    1    1    2    0    0 -0.12159151382E+02  0.11293400851E+00  0.46017793067E+01  0.17169296459E+03  0.17120000000E+03 0.  0.
        998    1    1    2    0    0 -0.60057276681E+01  0.31893963248E+02  0.13126878807E+04  0.13131270943E+04  0.10000000000E+02 0.  1.
</event>
<event>
 5    1  0.1147307E-008  0.2672746E+03  0.7957747E-01  0.4161443E+00
         13   -1    0    0    0    0  0.00000000000E+00  0.00000000000E+00  0.14999999963E+04  0.15000000000E+04  0.10566000000E+00 0. -1.
        994   -1    0    0    0    0 -0.00000000000E+00 -0.00000000000E+00  0.11368683772E-12  0.17120000000E+03  0.17120000000E+03 0.  0.
         13    1    1    2    0    0  0.13021801850E+03  0.98330299373E+02  0.56776550546E+03  0.59074805160E+03  0.10566000000E+00 0. -1.
        994    1    1    2    0    0 -0.20351962056E+02 -0.95373666625E+02  0.66850681000E+02  0.20805958809E+03  0.17120000000E+03 0.  0.
        998    1    1    2    0    0 -0.10986605644E+03 -0.29566327485E+01  0.86538380982E+03  0.87239236031E+03  0.10000000000E+02 0. -1.
</event>
<event>
 5    1  0.1147307E-008  0.3860963E+03  0.7957747E-01  0.3425036E+00
         13   -1    0    0    0    0  0.00000000000E+00  0.00000000000E+00  0.14999999963E+04  0.15000000000E+04  0.10566000000E+00 0.  1.
        994   -1    0    0    0    0 -0.00000000000E+00 -0.00000000000E+00  0.11368683772E-12  0.17120000000E+03  0.17120000000E+03 0.  0.
         13    1    1    2    0    0  0.45668693151E+02  0.42474258697E+02  0.87786877008E+02  0.10768583530E+03  0.10566000000E+00 0.  1.
        994    1    1    2    0    0 -0.37343291714E+02 -0.47028307205E+02  0.33208759840E+02  0.18444089797E+03  0.17120000000E+03 0.  0.
        998    1    1    2    0    0 -0.83254014365E+01  0.45540485082E+01  0.13790043594E+04  0.13790732667E+04  0.10000000000E+02 0.  1.
</event>
<event>
 5    1  0.1147307E-008  0.3852002E+03  0.7957747E-01  0.3428824E+00
         13   -1    0    0    0    0  0.00000000000E+00  0.00000000000E+00  0.14999999963E+04  0.15000000000E+04  0.10566000000E+00 0. -1.
        994   -1    0    0    0    0 -0.00000000000E+00 -0.00000000000E+00  0.11368683772E-12  0.17120000000E+03  0.17120000000E+03 0.  0.
         13    1    1    2    0    0 -0.12766588083E+02  0.15343808424E+01  0.53358275750E+02  0.54885852922E+02  0.10566000000E+00 0. -1.
        994    1    1    2    0    0  0.10432132281E+02 -0.41888854003E+01  0.19462378069E+01  0.17157973070E+03  0.17120000000E+03 0.  0.
        998    1    1    2    0    0  0.23344558015E+01  0.26545045579E+01  0.14446954827E+04  0.14447344164E+04  0.10000000000E+02 0. -1.
</event>
<event>
 5    1  0.1147307E-008  0.3765045E+03  0.7957747E-01  0.3466521E+00
         13   -1    0    0    0    0  0.00000000000E+00  0.00000000000E+00  0.14999999963E+04  0.15000000000E+04  0.10566000000E+00 0. -1.
        994   -1    0    0    0    0 -0.00000000000E+00 -0.00000000000E+00  0.11368683772E-12  0.17120000000E+03  0.17120000000E+03 0.  0.
         13    1    1    2    0    0 -0.32439152458E+02  0.28855397668E+02  0.13963847140E+03  0.14623216625E+03  0.10566000000E+00 0. -1.
        994    1    1    2    0    0  0.35504236452E+02 -0.33806397225E+02  0.14080251755E+02  0.17863682932E+03  0.17120000000E+03 0.  0.
        998    1    1    2    0    0 -0.30650839943E+01  0.49509995574E+01  0.13462812731E+04  0.13463310044E+04  0.10000000000E+02 0. -1.
</event>
<event>
 5    1  0.1147307E-008  0.3779561E+03  0.7957747E-01  0.3460107E+00
         13   -1    0    0    0    0  0.00000000000E+00  0.00000000000E+00  0.14999999963E+04  0.15000000000E+04  0.10566000000E+00 0. -1.
        994   -1    0    0    0    0 -0.00000000000E+00 -0.00000000000E+00  0.11368683772E-12  0.17120000000E+03  0.17120000000E+03 0.  0.
         13    1    1    2    0    0 -0.62363915118E+02 -0.24077767425E+02  0.13093712397E+03  0.14701543590E+03  0.10566000000E+00 0. -1.
        994    1    1    2    0    0  0.59519703352E+02  0.26791445014E+02  0.30695593094E+02  0.18577415334E+03  0.17120000000E+03 0.  0.
        998    1    1    2    0    0  0.28442117655E+01 -0.27136775886E+01  0.13383672792E+04  0.13384104108E+04  0.10000000000E+02 0. -1.
</event>
<event>
 5    1  0.1147307E-008  0.3710583E+03  0.7957747E-01  0.3491041E+00
         13   -1    0    0    0    0  0.00000000000E+00  0.00000000000E+00  0.14999999963E+04  0.15000000000E+04  0.10566000000E+00 0. -1.
        994   -1    0    0    0    0 -0.00000000000E+00 -0.00000000000E+00  0.11368683772E-12  0.17120000000E+03  0.17120000000E+03 0.  0.
         13    1    1    2    0    0 -0.77941141369E+02  0.16613572270E+02  0.23479822529E+03  0.24795372565E+03  0.10566000000E+00 0. -1.
        994    1    1    2    0    0  0.11780904341E+03 -0.32603988360E+02  0.62098057323E+02  0.21933444666E+03  0.17120000000E+03 0.  0.
        998    1    1    2    0    0 -0.39867902044E+02  0.15990416090E+02  0.12031037137E+04  0.12039118277E+04  0.10000000000E+02 0. -1.
</event>
<event>
 5    1  0.1165468E-008  0.3864065E+03  0.7957747E-01  0.3423729E+00
         13   -1    0    0    0    0  0.00000000000E+00  0.00000000000E+00  0.14999999963E+04  0.15000000000E+04  0.10566000000E+00 0.  1.
        994   -1    0    0    0    0 -0.00000000000E+00 -0.00000000000E+00  0.11368683772E-12  0.17120000000E+03  0.17120000000E+03 0.  0.
         13    1    1    2    0    0 -0.68872727265E+01  0.83180425570E+01  0.61145556185E+02  0.62091984690E+02  0.10566000000E+00 0.  1.
        994    1    1    2    0    0  0.40463638333E+01 -0.12739608866E+02  0.15185591739E+01  0.17172774009E+03  0.17120000000E+03 0.  0.
        998    1    1    2    0    0  0.28409088932E+01  0.44215663088E+01  0.14373358809E+04  0.14373802752E+04  0.10000000000E+02 0.  1.
</event>
<event>
 5    1  0.1147307E-008  0.3823977E+03  0.7957747E-01  0.3440784E+00
         13   -1    0    0    0    0  0.00000000000E+00  0.00000000000E+00  0.14999999963E+04  0.15000000000E+04  0.10566000000E+00 0. -1.
        994   -1    0    0    0    0 -0.00000000000E+00 -0.00000000000E+00  0.11368683772E-12  0.17120000000E+03  0.17120000000E+03 0.  0.
         13    1    1    2    0    0 -0.86766367756E+02 -0.70394662193E+02  0.63463775089E+03  0.64439808896E+03  0.10566000000E+00 0. -1.
        994    1    1    2    0    0  0.11151177506E+03  0.95847541769E+02  0.78300592403E+02  0.23887664183E+03  0.17120000000E+03 0.  0.
        998    1    1    2    0    0 -0.24745407301E+02 -0.25452879576E+02  0.78706165299E+03  0.78792526922E+03  0.10000000000E+02 0. -1.
</event>
<event>
 5    1  0.1147307E-008  0.3813870E+03  0.7957747E-01  0.3445141E+00
         13   -1    0    0    0    0  0.00000000000E+00  0.00000000000E+00  0.14999999963E+04  0.15000000000E+04  0.10566000000E+00 0. -1.
        994   -1    0    0    0    0 -0.00000000000E+00 -0.00000000000E+00  0.11368683772E-12  0.17120000000E+03  0.17120000000E+03 0.  0.
         13    1    1    2    0    0 -0.76319139635E+01  0.90455985557E+01  0.18602874540E+02  0.22048743029E+02  0.10566000000E+00 0. -1.
        994    1    1    2    0    0  0.15100055279E+02 -0.78645975221E+01  0.43998005928E+01  0.17210073158E+03  0.17120000000E+03 0.  0.
        998    1    1    2    0    0 -0.74681413153E+01 -0.11810010336E+01  0.14769973211E+04  0.14770505254E+04  0.10000000000E+02 0. -1.
</event>
<event>
 5    1  0.1147307E-008  0.3814164E+03  0.7957747E-01  0.3445014E+00
         13   -1    0    0    0    0  0.00000000000E+00  0.00000000000E+00  0.14999999963E+04  0.15000000000E+04  0.10566000000E+00 0. -1.
        994   -1    0    0    0    0 -0.00000000000E+00 -0.00000000000E+00  0.11368683772E-12  0.17120000000E+03  0.17120000000E+03 0.  0.
         13    1    1    2    0    0  0.31379582993E+02  0.16923232886E+01  0.14699018066E+03  0.15031189761E+03  0.10566000000E+00 0. -1.
        994    1    1    2    0    0 -0.14591694644E+02 -0.36446020220E+02  0.85650734873E+01  0.17585229719E+03  0.17120000000E+03 0.  0.
        998    1    1    2    0    0 -0.16787888350E+02  0.34753696932E+02  0.13444447421E+04  0.13450358052E+04  0.10000000000E+02 0. -1.
</event>
<event>
 5    1  0.1147307E-008  0.3807704E+03  0.7957747E-01  0.3447811E+00
         13   -1    0    0    0    0  0.00000000000E+00  0.00000000000E+00  0.14999999963E+04  0.15000000000E+04  0.10566000000E+00 0. -1.
        994   -1    0    0    0    0 -0.00000000000E+00 -0.00000000000E+00  0.11368683772E-12  0.17120000000E+03  0.17120000000E+03 0.  0.
         13    1    1    2    0    0 -0.14583290194E+02  0.36983624341E+02  0.21783551242E+03  0.22143347186E+03  0.10566000000E+00 0. -1.
        994    1    1    2    0    0 -0.51561386444E+02 -0.48029303739E+02  0.20482721058E+02  0.18626425436E+03  0.17120000000E+03 0.  0.
        998    1    1    2    0    0  0.66144676637E+02  0.11045679398E+02  0.12616817628E+04  0.12635022738E+04  0.10000000000E+02 0. -1.
</event>
<event>
 5    1  0.1147307E-008  0.3809825E+03  0.7957747E-01  0.3446892E+00
         13   -1    0    0    0    0  0.00000000000E+00  0.00000000000E+00  0.14999999963E+04  0.15000000000E+04  0.10566000000E+00 0. -1.
        994   -1    0    0    0    0 -0.00000000000E+00 -0.00000000000E+00  0.11368683772E-12  0.17120000000E+03  0.17120000000E+03 0.  0.
         13    1    1    2    0    0  0.59817161887E+01 -0.15513217947E+02  0.36855904296E+02  0.40432780082E+02  0.10566000000E+00 0. -1.
        994    1    1    2    0    0 -0.17666348471E+02  0.32449075781E+01  0.47137642205E+01  0.17220420688E+03  0.17120000000E+03 0.  0.
        998    1    1    2    0    0  0.11684632283E+02  0.12268310369E+02  0.14584303278E+04  0.14585630130E+04  0.10000000000E+02 0. -1.
</event>
<event>
 5    1  0.1147307E-008  0.3816270E+03  0.7957747E-01  0.3444105E+00
         13   -1    0    0    0    0  0.00000000000E+00  0.00000000000E+00  0.14999999963E+04  0.15000000000E+04  0.10566000000E+00 0.  1.
        994   -1    0    0    0    0 -0.00000000000E+00 -0.00000000000E+00  0.11368683772E-12  0.17120000000E+03  0.17120000000E+03 0.  0.
         13    1    1    2    0    0  0.15868163675E+02 -0.30260455439E+02  0.17552360055E+03  0.17881845346E+03  0.10566000000E+00 0.  1.
        994    1    1    2    0    0 -0.20337207133E+02  0.11749028148E+02  0.51505039510E+01  0.17288033245E+03  0.17120000000E+03 0.  0.
        998    1    1    2    0    0  0.44690434586E+01  0.18511427291E+02  0.13193258918E+04  0.13195012141E+04  0.10000000000E+02 0.  1.
</event>
<event>
 5    1  0.1147307E-008  0.3800897E+03  0.7957747E-01  0.3450768E+00
         13   -1    0    0    0    0  0.00000000000E+00  0.00000000000E+00  0.14999999963E+04  0.15000000000E+04  0.10566000000E+00 0. -1.
        994   -1    0    0    0    0 -0.00000000000E+00 -0.00000000000E+00  0.11368683772E-12  0.17120000000E+03  0.17120000000E+03 0.  0.
         13    1    1    2    0    0  0.45765059407E+02 -0.44947172799E+02  0.13301422688E+03  0.14767357489E+03  0.10566000000E+00 0. -1.
        994    1    1    2    0    0 -0.45548174665E+01  0.14121827329E+02  0.17175047924E+02  0.17269798679E+03  0.17120000000E+03 0.  0.
        998    1    1    2    0    0 -0.41210241941E+02  0.30825345470E+02  0.13498107215E+04  0.13508284383E+04  0.10000000000E+02 0. -1.
</event>
<event>
 5    1  0.1147307E-008  0.3799775E+03  0.7957747E-01  0.3451257E+00
         13   -1    0    0    0    0  0.00000000000E+00  0.00000000000E+00  0.14999999963E+04  0.15000000000E+04  0.10566000000E+00 0.  1.
        994   -1    0    0    0    0 -0.00000000000E+00 -0.00000000000E+00  0.11368683772E-12  0.17120000000E+03  0.17120000000E+03 0.  0.
         13    1    1    2    0    0  0.35535804106E+01  0.47167479072E+02  0.20938711679E+03  0.21466339897E+03  0.10566000000E+00 0.  1.
        994    1    1    2    0    0 -0.23185930479E+02 -0.60232286177E+02  0.18198544820E+02  0.18386446830E+03  0.17120000000E+03 0.  0.
        998    1    1    2    0    0  0.19632350068E+02  0.13064807105E+02  0.12724143347E+04  0.12726721327E+04  0.10000000000E+02 0.  1.
</event>
<event>
 5    1  0.1147307E-008  0.3808111E+03  0.7957747E-01  0.3447634E+00
         13   -1    0    0    0    0  0.00000000000E+00  0.00000000000E+00  0.14999999963E+04  0.15000000000E+04  0.10566000000E+00 0. -1.
        994   -1    0    0    0    0 -0.00000000000E+00 -0.00000000000E+00  0.11368683772E-12  0.17120000000E+03  0.17120000000E+03 0.  0.
         13    1    1    2    0    0  0.10652434223E+01 -0.25797675253E+02  0.90834155108E+02  0.94432566894E+02  0.10566000000E+00 0. -1.
        994    1    1    2    0    0  0.14847745848E+02  0.11090969942E+02  0.48702136605E+01  0.17226904583E+03  0.17120000000E+03 0.  0.
        998    1    1    2    0    0 -0.15912989271E+02  0.14706705311E+02  0.14042956275E+04  0.14044983873E+04  0.10000000000E+02 0. -1.
</event>
<event>
 5    1  0.1147307E-008  0.3759118E+03  0.7957747E-01  0.3469155E+00
         13   -1    0    0    0    0  0.00000000000E+00  0.00000000000E+00  0.14999999963E+04  0.15000000000E+04  0.10566000000E+00 0. -1.
        994   -1    0    0    0    0 -0.00000000000E+00 -0.00000000000E+00  0.11368683772E-12  0.17120000000E+03  0.17120000000E+03 0.  0.
         13    1    1    2    0    0 -0.14015150041E+02 -0.14701226190E+02  0.82835788844E+01  0.21935800084E+02  0.10566000000E+00 0. -1.
        994    1    1    2    0    0  0.14525831612E+02  0.15609471187E+02  0.15724299721E+02  0.17323783933E+03  0.17120000000E+03 0.  0.
        998    1    1    2    0    0 -0.51068157065E+00 -0.90824499707E+00  0.14759921177E+04  0.14760263606E+04  0.10000000000E+02 0. -1.
</event>
<event>
 5    1  0.1147307E-008  0.3811308E+03  0.7957747E-01  0.3446249E+00
         13   -1    0    0    0    0  0.00000000000E+00  0.00000000000E+00  0.14999999963E+04  0.15000000000E+04  0.10566000000E+00 0. -1.
        994   -1    0    0    0    0 -0.00000000000E+00 -0.00000000000E+00  0.11368683772E-12  0.17120000000E+03  0.17120000000E+03 0.  0.
         13    1    1    2    0    0 -0.10049158708E+02 -0.56877359753E+02  0.30943995251E+03  0.31478423565E+03  0.10566000000E+00 0. -1.
        994    1    1    2    0    0  0.77191097808E+01  0.76084382679E+02  0.23292997398E+02  0.18894555213E+03  0.17120000000E+03 0.  0.
        998    1    1    2    0    0  0.23300489271E+01 -0.19207022926E+02  0.11672670464E+04  0.11674702122E+04  0.10000000000E+02 0. -1.
</event>
<event>
 5    1  0.1147307E-008  0.3844713E+03  0.7957747E-01  0.3431918E+00
         13   -1    0    0    0    0  0.00000000000E+00  0.00000000000E+00  0.14999999963E+04  0.15000000000E+04  0.10566000000E+00 0. -1.
        994   -1    0    0    0    0 -0.00000000000E+00 -0.00000000000E+00  0.11368683772E-12  0.17120000000E+03  0.17120000000E+03 0.  0.
         13    1    1    2    0    0  0.12140502623E+02  0.14376796971E+01  0.35232259943E+02  0.37293190151E+02  0.10566000000E+00 0. -1.
        994    1    1    2    0    0 -0.31063572258E+02 -0.10425665107E+02  0.54377713733E+01  0.17439222853E+03  0.17120000000E+03 0.  0.
        998    1    1    2    0    0  0.18923069635E+02  0.89879854097E+01  0.14593299650E+04  0.14595145813E+04  0.10000000000E+02 0. -1.
</event>
<event>
 5    1  0.1147307E-008  0.3859476E+03  0.7957747E-01  0.3425663E+00
         13   -1    0    0    0    0  0.00000000000E+00  0.00000000000E+00  0.14999999963E+04  0.15000000000E+04  0.10566000000E+00 0.  1.
        994   -1    0    0    0    0 -0.00000000000E+00 -0.00000000000E+00  0.11368683772E-12  0.17120000000E+03  0.17120000000E+03 0.  0.
         13    1    1    2    0    0 -0.11115633975E+02  0.29905000359E+01  0.65105217428E+02  0.66115058115E+02  0.10566000000E+00 0.  1.
        994    1    1    2    0    0 -0.10988086772E+02 -0.10925071679E+02  0.19479783124E+01  0.17191081950E+03  0.17120000000E+03 0.  0.
        998    1    1    2    0    0  0.22103720747E+02  0.79345716435E+01  0.14329468005E+04  0.14331741224E+04  0.10000000000E+02 0.  1.
</event>
<event>
 5    1  0.1147307E-008  0.3699197E+03  0.7957747E-01  0.3496260E+00
         13   -1    0    0    0    0  0.00000000000E+00  0.00000000000E+00  0.14999999963E+04  0.15000000000E+04  0.10566000000E+00 0. -1.
        994   -1    0    0    0    0 -0.00000000000E+00 -0.00000000000E+00  0.11368683772E-12  0.17120000000E+03  0.17120000000E+03 0.  0.
         13    1    1    2    0    0  0.49372408221E+02  0.24309207241E+02  0.11958929325E+03  0.13164415094E+03  0.10566000000E+00 0. -1.
        994    1    1    2    0    0 -0.58162290197E+02 -0.31868637200E+02  0.26431355463E+02  0.18548994202E+03  0.17120000000E+03 0.  0.
        998    1    1    2    0    0  0.87898819759E+01  0.75594299589E+01  0.13539793476E+04  0.13540659070E+04  0.10000000000E+02 0. -1.
</event>
<event>
 5    1  0.1147307E-008  0.3810127E+03  0.7957747E-01  0.3446761E+00
         13   -1    0    0    0    0  0.00000000000E+00  0.00000000000E+00  0.14999999963E+04  0.15000000000E+04  0.10566000000E+00 0.  1.
        994   -1    0    0    0    0 -0.00000000000E+00 -0.00000000000E+00  0.11368683772E-12  0.17120000000E+03  0.17120000000E+03 0.  0.
         13    1    1    2    0    0 -0.18320880861E+02 -0.27467280179E+02  0.14079496842E+03  0.14461445451E+03  0.10566000000E+00 0.  1.
        994    1    1    2    0    0  0.15259465616E+02  0.24172747440E+02  0.63502381408E+01  0.17368632224E+03  0.17120000000E+03 0.  0.
        998    1    1    2    0    0  0.30614152452E+01  0.32945327393E+01  0.13528547897E+04  0.13528992232E+04  0.10000000000E+02 0.  1.
</event>
<event>
 5    1  0.1147307E-008  0.3765619E+03  0.7957747E-01  0.3466267E+00
         13   -1    0    0    0    0  0.00000000000E+00  0.00000000000E+00  0.14999999963E+04  0.15000000000E+04  0.10566000000E+00 0.  1.
        994   -1    0    0    0    0 -0.00000000000E+00 -0.00000000000E+00  0.11368683772E-12  0.17120000000E+03  0.17120000000E+03 0.  0.
         13    1    1    2    0    0 -0.43327456317E+02 -0.16731860630E+02  0.19488201529E+03  0.20034029720E+03  0.10566000000E+00 0.  1.
        994    1    1    2    0    0  0.14425921222E+02  0.60168983424E+01  0.67053596004E+01  0.17204276246E+03  0.17120000000E+03 0.  0.
        998    1    1    2    0    0  0.28901535095E+02  0.10714962288E+02  0.12984126214E+04  0.12988169403E+04  0.10000000000E+02 0.  1.
</event>
<event>
 5    1  0.1147307E-008  0.3712793E+03  0.7957747E-01  0.3490032E+00
         13   -1    0    0    0    0  0.00000000000E+00  0.00000000000E+00  0.14999999963E+04  0.15000000000E+04  0.10566000000E+00 0. -1.
        994   -1    0    0    0    0 -0.00000000000E+00 -0.00000000000E+00  0.11368683772E-12  0.17120000000E+03  0.17120000000E+03 0.  0.
         13    1    1    2    0    0  0.71027361927E+02 -0.12365612926E+02  0.21134144180E+03  0.22330027029E+03  0.10566000000E+00 0. -1.
        994    1    1    2    0    0 -0.38391920403E+02  0.12509188347E+03  0.74429594688E+02  0.22797176015E+03  0.17120000000E+03 0.  0.
        998    1    1    2    0    0 -0.32635441525E+02 -0.11272627054E+03  0.12142289598E+04  0.12199279696E+04  0.10000000000E+02 0. -1.
</event>
<event>
 5    1  0.1147307E-008  0.3712612E+03  0.7957747E-01  0.3490115E+00
         13   -1    0    0    0    0  0.00000000000E+00  0.00000000000E+00  0.14999999963E+04  0.15000000000E+04  0.10566000000E+00 0.  1.
        994   -1    0    0    0    0 -0.00000000000E+00 -0.00000000000E+00  0.11368683772E-12  0.17120000000E+03  0.17120000000E+03 0.  0.
         13    1    1    2    0    0  0.37359059861E+02  0.55026073569E+02  0.33582421739E+03  0.34234702318E+03  0.10566000000E+00 0.  1.
        994    1    1    2    0    0 -0.16019092095E+02  0.85298944537E+01  0.97460470751E+01  0.17243490321E+03  0.17120000000E+03 0.  0.
        998    1    1    2    0    0 -0.21339967767E+02 -0.63555968022E+02  0.11544297318E+04  0.11564180736E+04  0.10000000000E+02 0.  1.
</event>
<event>
 5    1  0.1147307E-008  0.3760993E+03  0.7957747E-01  0.3468321E+00
         13   -1    0    0    0    0  0.00000000000E+00  0.00000000000E+00  0.14999999963E+04  0.15000000000E+04  0.10566000000E+00 0. -1.
        994   -1    0    0    0    0 -0.00000000000E+00 -0.00000000000E+00  0.11368683772E-12  0.17120000000E+03  0.17120000000E+03 0.  0.
         13    1    1    2    0    0  0.10301664039E+03 -0.75622544715E+01  0.39996744485E+03  0.41309028552E+03  0.10566000000E+00 0. -1.
        994    1    1    2    0    0 -0.14897640325E+03  0.21933007693E+02  0.87236443484E+02  0.24412018070E+03  0.17120000000E+03 0.  0.
        998    1    1    2    0    0  0.45959762856E+02 -0.14370753221E+02  0.10127961079E+04  0.10139895338E+04  0.10000000000E+02 0. -1.
</event>
<event>
 5    1  0.1147307E-008  0.3833563E+03  0.7957747E-01  0.3436673E+00
         13   -1    0    0    0    0  0.00000000000E+00  0.00000000000E+00  0.14999999963E+04  0.15000000000E+04  0.10566000000E+00 0. -1.
        994   -1    0    0    0    0 -0.00000000000E+00 -0.00000000000E+00  0.11368683772E-12  0.17120000000E+03  0.17120000000E+03 0.  0.
         13    1    1    2    0    0 -0.23072033097E+02 -0.11090460793E+02  0.12251313009E+03  0.12515907973E+03  0.10566000000E+00 0. -1.
        994    1    1    2    0    0  0.25033664574E+02  0.10900832722E+02  0.49171497639E+01  0.17343336149E+03  0.17120000000E+03 0.  0.
        998    1    1    2    0    0 -0.19616314764E+01  0.18962807133E+00  0.13725697164E+04  0.13726075588E+04  0.10000000000E+02 0. -1.
</event>
<event>
 5    1  0.1147307E-008  0.3854086E+03  0.7957747E-01  0.3427941E+00
         13   -1    0    0    0    0  0.00000000000E+00  0.00000000000E+00  0.14999999963E+04  0.15000000000E+04  0.10566000000E+00 0. -1.
        994   -1    0    0    0    0 -0.00000000000E+00 -0.00000000000E+00  0.11368683772E-12  0.17120000000E+03  0.17120000000E+03 0.  0.
         13    1    1    2    0    0 -0.37440321821E+01 -0.11401833245E+02  0.47055460551E+02  0.48561786520E+02  0.10566000000E+00 0. -1.
        994    1    1    2    0    0  0.21798226248E+02  0.15047863591E+02  0.37350719453E+01  0.17327721036E+03  0.17120000000E+03 0.  0.
        998    1    1    2    0    0 -0.18054194066E+02 -0.36460303454E+01  0.14492094638E+04  0.14493610031E+04  0.10000000000E+02 0. -1.
</event>
<event>
 5    1  0.1147307E-008  0.3818859E+03  0.7957747E-01  0.3442988E+00
         13   -1    0    0    0    0  0.00000000000E+00  0.00000000000E+00  0.14999999963E+04  0.15000000000E+04  0.10566000000E+00 0.  1.
        994   -1    0    0    0    0 -0.00000000000E+00 -0.00000000000E+00  0.11368683772E-12  0.17120000000E+03  0.17120000000E+03 0.  0.
         13    1    1    2    0    0  0.93672603857E+01  0.24190757620E+02  0.13132184851E+03  0.13385954348E+03  0.10566000000E+00 0.  1.
        994    1    1    2    0    0  0.86584262026E+01  0.15038721869E+02  0.41852525654E+01  0.17212811461E+03  0.17120000000E+03 0.  0.
        998    1    1    2    0    0 -0.18025686588E+02 -0.39229479489E+02  0.13644928952E+04  0.13652123419E+04  0.10000000000E+02 0.  1.
</event>
<event>
 5    1  0.1147307E-008  0.3835862E+03  0.7957747E-01  0.3435691E+00
         13   -1    0    0    0    0  0.00000000000E+00  0.00000000000E+00  0.14999999963E+04  0.15000000000E+04  0.10566000000E+00 0. -1.
        994   -1    0    0    0    0 -0.00000000000E+00 -0.00000000000E+00  0.11368683772E-12  0.17120000000E+03  0.17120000000E+03 0.  0.
         13    1    1    2    0    0 -0.17334679191E+02 -0.36991610204E+00  0.61675105065E+02  0.64066041624E+02  0.10566000000E+00 0. -1.
        994    1    1    2    0    0  0.17849252338E+02  0.88631851232E+00  0.33895781846E+01  0.17216361581E+03  0.17120000000E+03 0.  0.
        998    1    1    2    0    0 -0.51457314723E+00 -0.51640241028E+00  0.14349353130E+04  0.14349703426E+04  0.10000000000E+02 0. -1.
</event>
<event>
 5    1  0.1147307E-008  0.3841916E+03  0.7957747E-01  0.3433108E+00
         13   -1    0    0    0    0  0.00000000000E+00  0.00000000000E+00  0.14999999963E+04  0.15000000000E+04  0.10566000000E+00 0.  1.
        994   -1    0    0    0    0 -0.00000000000E+00 -0.00000000000E+00  0.11368683772E-12  0.17120000000E+03  0.17120000000E+03 0.  0.
         13    1    1    2    0    0 -0.10773442723E+02 -0.61172638714E+01  0.37173466799E+02  0.39183743865E+02  0.10566000000E+00 0.  1.
        994    1    1    2    0    0  0.94780721318E+01  0.18115935282E+01  0.23391173211E+01  0.17148768817E+03  0.17120000000E+03 0.  0.
        998    1    1    2    0    0  0.12953705916E+01  0.43056703432E+01  0.14604874122E+04  0.14605285680E+04  0.10000000000E+02 0.  1.
</event>
<event>
 5    1  0.1147307E-008  0.3708138E+03  0.7957747E-01  0.3492159E+00
         13   -1    0    0    0    0  0.00000000000E+00  0.00000000000E+00  0.14999999963E+04  0.15000000000E+04  0.10566000000E+00 0.  1.
        994   -1    0    0    0    0 -0.00000000000E+00 -0.00000000000E+00  0.11368683772E-12  0.17120000000E+03  0.17120000000E+03 0.  0.
         13    1    1    2    0    0  0.13315060742E+02  0.12405095101E+01  0.26224216606E+01  0.13627837900E+02  0.10566000000E+00 0.  1.
        994    1    1    2    0    0 -0.11450505443E+02 -0.11491800677E+01  0.11834205167E+02  0.17199396240E+03  0.17120000000E+03 0.  0.
        998    1    1    2    0    0 -0.18645552988E+01 -0.91329442350E-01  0.14855433695E+04  0.14855781997E+04  0.10000000000E+02 0.  1.
</event>
<event>
 5    1  0.1147307E-008  0.3810556E+03  0.7957747E-01  0.3446575E+00
         13   -1    0    0    0    0  0.00000000000E+00  0.00000000000E+00  0.14999999963E+04  0.15000000000E+04  0.10566000000E+00 0.  1.
        994   -1    0    0    0    0 -0.00000000000E+00 -0.00000000000E+00  0.11368683772E-12  0.17120000000E+03  0.17120000000E+03 0.  0.
         13    1    1    2    0    0  0.31742140045E+02 -0.10378703502E+02  0.13976233713E+03  0.14369691363E+03  0.10566000000E+00 0.  1.
        994    1    1    2    0    0 -0.33237786123E+02  0.95569417366E+01  0.75960247932E+01  0.17482341135E+03  0.17120000000E+03 0.  0.
        998    1    1    2    0    0  0.14956460783E+01  0.82176176527E+00  0.13526416344E+04  0.13526796750E+04  0.10000000000E+02 0.  1.
</event>
<event>
 5    1  0.1147307E-008  0.3714599E+03  0.7957747E-01  0.3489208E+00
         13   -1    0    0    0    0  0.00000000000E+00  0.00000000000E+00  0.14999999963E+04  0.15000000000E+04  0.10566000000E+00 0.  1.
        994   -1    0    0    0    0 -0.00000000000E+00 -0.00000000000E+00  0.11368683772E-12  0.17120000000E+03  0.17120000000E+03 0.  0.
         13    1    1    2    0    0 -0.16743542251E+02  0.52221377375E+02  0.15064753256E+03  0.16031877211E+03  0.10566000000E+00 0.  1.
        994    1    1    2    0    0  0.84649014682E+01 -0.64195336468E+02  0.23073267287E+02  0.18448444770E+03  0.17120000000E+03 0.  0.
        998    1    1    2    0    0  0.82786407827E+01  0.11973959093E+02  0.13262791964E+04  0.13263967802E+04  0.10000000000E+02 0.  1.
</event>
<event>
 5    1  0.1147307E-008  0.3816350E+03  0.7957747E-01  0.3444070E+00
         13   -1    0    0    0    0  0.00000000000E+00  0.00000000000E+00  0.14999999963E+04  0.15000000000E+04  0.10566000000E+00 0.  1.
        994   -1    0    0    0    0 -0.00000000000E+00 -0.00000000000E+00  0.11368683772E-12  0.17120000000E+03  0.17120000000E+03 0.  0.
         13    1    1    2    0    0 -0.17239539124E+02 -0.15964204501E+02  0.87871120904E+01  0.25085494564E+02  0.10566000000E+00 0.  1.
        994    1    1    2    0    0 -0.39909275800E+02  0.45797165042E+02  0.30806220251E+02  0.18425144186E+03  0.17120000000E+03 0.  0.
        998    1    1    2    0    0  0.57148814924E+02 -0.29832960540E+02  0.14604066639E+04  0.14618630636E+04  0.10000000000E+02 0.  1.
</event>
<event>
 5    1  0.1147307E-008  0.3828429E+03  0.7957747E-01  0.3438873E+00
         13   -1    0    0    0    0  0.00000000000E+00  0.00000000000E+00  0.14999999963E+04  0.15000000000E+04  0.10566000000E+00 0.  1.
        994   -1    0    0    0    0 -0.00000000000E+00 -0.00000000000E+00  0.11368683772E-12  0.17120000000E+03  0.17120000000E+03 0.  0.
         13    1    1    2    0    0 -0.15638052027E+02  0.81730539974E+01  0.57166051960E+02  0.59827386234E+02  0.10566000000E+00 0.  1.
        994    1    1    2    0    0  0.13362028572E+02  0.40418828978E+01  0.33505811899E+01  0.17180089353E+03  0.17120000000E+03 0.  0.
        998    1    1    2    0    0  0.22760234554E+01 -0.12214936895E+02  0.14394833631E+04  0.14395717202E+04  0.10000000000E+02 0.  1.
</event>
<event>
 5    1  0.1147307E-008  0.3951874E+03  0.7957747E-01  0.3387583E+00
         13   -1    0    0    0    0  0.00000000000E+00  0.00000000000E+00  0.14999999963E+04  0.15000000000E+04  0.10566000000E+00 0. -1.
        994   -1    0    0    0    0 -0.00000000000E+00 -0.00000000000E+00  0.11368683772E-12  0.17120000000E+03  0.17120000000E+03 0.  0.
         13    1    1    2    0    0 -0.29409347462E+02 -0.12117556657E+03  0.41217099884E+03  0.43061975234E+03  0.10566000000E+00 0. -1.
        994    1    1    2    0    0 -0.28993888357E+02  0.31989768052E+02  0.32123361365E+02  0.17945846641E+03  0.17120000000E+03 0.  0.
        998    1    1    2    0    0  0.58403235820E+02  0.89185798517E+02  0.10557056361E+04  0.10611217813E+04  0.10000000000E+02 0. -1.
</event>
<event>
 5    1  0.1147307E-008  0.3889775E+03  0.7957747E-01  0.3412976E+00
         13   -1    0    0    0    0  0.00000000000E+00  0.00000000000E+00  0.14999999963E+04  0.15000000000E+04  0.10566000000E+00 0.  1.
        994   -1    0    0    0    0 -0.00000000000E+00 -0.00000000000E+00  0.11368683772E-12  0.17120000000E+03  0.17120000000E+03 0.  0.
         13    1    1    2    0    0 -0.62408695815E+01  0.13134138665E+02 -0.48561886519E+01  0.15331268176E+02  0.10566000000E+00 0.  1.
        994    1    1    2    0    0  0.18632330800E+02 -0.17978097119E+02  0.23864661270E+02  0.17478368855E+03  0.17120000000E+03 0.  0.
        998    1    1    2    0    0 -0.12391461218E+02  0.48439584541E+01  0.14809915237E+04  0.14810850433E+04  0.10000000000E+02 0.  1.
</event>
<event>
 5    1  0.1147307E-008  0.3831743E+03  0.7957747E-01  0.3437452E+00
         13   -1    0    0    0    0  0.00000000000E+00  0.00000000000E+00  0.14999999963E+04  0.15000000000E+04  0.10566000000E+00 0. -1.
        994   -1    0    0    0    0 -0.00000000000E+00 -0.00000000000E+00  0.11368683772E-12  0.17120000000E+03  0.17120000000E+03 0.  0.
         13    1    1    2    0    0  0.15484491478E+02  0.22857695900E+02  0.14312632946E+03  0.14576488290E+03  0.10566000000E+00 0. -1.
        994    1    1    2    0    0 -0.13923512886E+02 -0.17305363231E+02  0.41730537051E+01  0.17268524600E+03  0.17120000000E+03 0.  0.
        998    1    1    2    0    0 -0.15609785927E+01 -0.55523326694E+01  0.13527006131E+04  0.13527498711E+04  0.10000000000E+02 0. -1.
</event>
<event>
 5    1  0.1147307E-008  0.3814766E+03  0.7957747E-01  0.3444754E+00
         13   -1    0    0    0    0  0.00000000000E+00  0.00000000000E+00  0.14999999963E+04  0.15000000000E+04  0.10566000000E+00 0. -1.
        994   -1    0    0    0    0 -0.00000000000E+00 -0.00000000000E+00  0.11368683772E-12  0.17120000000E+03  0.17120000000E+03 0.  0.
         13    1    1    2    0    0  0.99279770856E+01  0.23647492672E+01  0.13912076331E+02  0.17254384949E+02  0.10566000000E+00 0. -1.
        994    1    1    2    0    0 -0.78968778113E+01 -0.12401577182E+01  0.36022196029E+01  0.17142437008E+03  0.17120000000E+03 0.  0.
        998    1    1    2    0    0 -0.20310992743E+01 -0.11245915490E+01  0.14824857003E+04  0.14825212450E+04  0.10000000000E+02 0. -1.
</event>
<event>
 5    1  0.1147307E-008  0.3765507E+03  0.7957747E-01  0.3466316E+00
         13   -1    0    0    0    0  0.00000000000E+00  0.00000000000E+00  0.14999999963E+04  0.15000000000E+04  0.10566000000E+00 0.  1.
        994   -1    0    0    0    0 -0.00000000000E+00 -0.00000000000E+00  0.11368683772E-12  0.17120000000E+03  0.17120000000E+03 0.  0.
         13    1    1    2    0    0 -0.69472229864E+01  0.13089606672E+02  0.15938732603E+02  0.21763641035E+02  0.10566000000E+00 0.  1.
        994    1    1    2    0    0  0.87456797058E+01 -0.12039534164E+02  0.66337109467E+01  0.17197349626E+03  0.17120000000E+03 0.  0.
        998    1    1    2    0    0 -0.17984567194E+01 -0.10500725080E+01  0.14774275527E+04  0.14774628627E+04  0.10000000000E+02 0.  1.
</event>
<event>
 5    1  0.1147307E-008  0.3808799E+03  0.7957747E-01  0.3447336E+00
         13   -1    0    0    0    0  0.00000000000E+00  0.00000000000E+00  0.14999999963E+04  0.15000000000E+04  0.10566000000E+00 0.  1.
        994   -1    0    0    0    0 -0.00000000000E+00 -0.00000000000E+00  0.11368683772E-12  0.17120000000E+03  0.17120000000E+03 0.  0.
         13    1    1    2    0    0 -0.69602178811E+01 -0.17069070511E+02  0.42092052230E+02  0.45951603084E+02  0.10566000000E+00 0.  1.
        994    1    1    2    0    0  0.17128801586E+02  0.23902140002E+02  0.65772556483E+01  0.17383155189E+03  0.17120000000E+03 0.  0.
        998    1    1    2    0    0 -0.10168583705E+02 -0.68330694914E+01  0.14513306884E+04  0.14514168450E+04  0.10000000000E+02 0.  1.
</event>
<event>
 5    1  0.1147307E-008  0.3738705E+03  0.7957747E-01  0.3478290E+00
         13   -1    0    0    0    0  0.00000000000E+00  0.00000000000E+00  0.14999999963E+04  0.15000000000E+04  0.10566000000E+00 0. -1.
        994   -1    0    0    0    0 -0.00000000000E+00 -0.00000000000E+00  0.11368683772E-12  0.17120000000E+03  0.17120000000E+03 0.  0.
         13    1    1    2    0    0  0.12408152484E+02  0.42624078113E+01  0.85890510932E+01  0.15681623996E+02  0.10566000000E+00 0. -1.
        994    1    1    2    0    0 -0.70368183529E+01 -0.63477582211E+01  0.75664165305E+01  0.17162896465E+03  0.17120000000E+03 0.  0.
        998    1    1    2    0    0 -0.53713341315E+01  0.20853504098E+01  0.14838445287E+04  0.14838894114E+04  0.10000000000E+02 0. -1.
</event>
<event>
 5    1  0.1147307E-008  0.3769588E+03  0.7957747E-01  0.3464508E+00
         13   -1    0    0    0    0  0.00000000000E+00  0.00000000000E+00  0.14999999963E+04  0.15000000000E+04  0.10566000000E+00 0.  1.
        994   -1    0    0    0    0 -0.00000000000E+00 -0.00000000000E+00  0.11368683772E-12  0.17120000000E+03  0.17120000000E+03 0.  0.
         13    1    1    2    0    0  0.13474575432E+02  0.46163870922E+02  0.21746013529E+03  0.22271414137E+03  0.10566000000E+00 0.  1.
        994    1    1    2    0    0  0.32022694605E+01 -0.18438026778E+02  0.68597758978E+01  0.17235635145E+03  0.17120000000E+03 0.  0.
        998    1    1    2    0    0 -0.16676844893E+02 -0.27725844144E+02  0.12756800851E+04  0.12761295072E+04  0.10000000000E+02 0.  1.
</event>
<event>
 5    1  0.1147307E-008  0.3807110E+03  0.7957747E-01  0.3448069E+00
         13   -1    0    0    0    0  0.00000000000E+00  0.00000000000E+00  0.14999999963E+04  0.15000000000E+04  0.10566000000E+00 0.  1.
        994   -1    0    0    0    0 -0.00000000000E+00 -0.00000000000E+00  0.11368683772E-12  0.17120000000E+03  0.17120000000E+03 0.  0.
         13    1    1    2    0    0 -0.26819165494E+02 -0.18942531410E+02  0.12663576999E+03  0.13082322630E+03  0.10566000000E+00 0.  1.
        994    1    1    2    0    0  0.28820880398E+02  0.25552683434E+02  0.87384182181E+01  0.17569684895E+03  0.17120000000E+03 0.  0.
        998    1    1    2    0    0 -0.20017149040E+01 -0.66101520239E+01  0.13646258081E+04  0.13646799248E+04  0.10000000000E+02 0.  1.
</event>
<event>
 5    1  0.1147307E-008  0.3759867E+03  0.7957747E-01  0.3468821E+00
         13   -1    0    0    0    0  0.00000000000E+00  0.00000000000E+00  0.14999999963E+04  0.15000000000E+04  0.10566000000E+00 0.  1.
        994   -1    0    0    0    0 -0.00000000000E+00 -0.00000000000E+00  0.11368683772E-12  0.17120000000E+03  0.17120000000E+03 0.  0.
         13    1    1    2    0    0  0.68666722048E+02 -0.66903114357E+02  0.39168003643E+03  0.40324236823E+03  0.10566000000E+00 0.  1.
        994    1    1    2    0    0 -0.82000117064E+02  0.10280508589E+03  0.67211099577E+02  0.22609660942E+03  0.17120000000E+03 0.  0.
        998    1    1    2    0    0  0.13333395016E+02 -0.35901971531E+02  0.10411088603E+04  0.10418610224E+04  0.10000000000E+02 0.  1.
</event>
<event>
 5    1  0.1147307E-008  0.4027744E+03  0.7957747E-01  0.3357618E+00
         13   -1    0    0    0    0  0.00000000000E+00  0.00000000000E+00  0.14999999963E+04  0.15000000000E+04  0.10566000000E+00 0. -1.
        994   -1    0    0    0    0 -0.00000000000E+00 -0.00000000000E+00  0.11368683772E-12  0.17120000000E+03  0.17120000000E+03 0.  0.
         13    1    1    2    0    0 -0.11822247973E+03  0.14035230716E+02  0.24843332528E+03  0.27548624410E+03  0.10566000000E+00 0. -1.
        994    1    1    2    0    0  0.70169438589E+02  0.69112992303E+02  0.69004216477E+02  0.20921610289E+03  0.17120000000E+03 0.  0.
        998    1    1    2    0    0  0.48053041140E+02 -0.83148223019E+02  0.11825624545E+04  0.11864976530E+04  0.10000000000E+02 0. -1.
</event>
<event>
 5    1  0.1147307E-008  0.3788054E+03  0.7957747E-01  0.3456377E+00
         13   -1    0    0    0    0  0.00000000000E+00  0.00000000000E+00  0.14999999963E+04  0.15000000000E+04  0.10566000000E+00 0. -1.
        994   -1    0    0    0    0 -0.00000000000E+00 -0.00000000000E+00  0.11368683772E-12  0.17120000000E+03  0.17120000000E+03 0.  0.
         13    1    1    2    0    0 -0.18175272575E+02 -0.14654254340E+02  0.57276092593E+02  0.61851836272E+02  0.10566000000E+00 0. -1.
        994    1    1    2    0    0 -0.48185793723E+01  0.18705238543E+02  0.59905813523E+01  0.17239034695E+03  0.17120000000E+03 0.  0.
        998    1    1    2    0    0  0.22993851948E+02 -0.40509842029E+01  0.14367333223E+04  0.14369578168E+04  0.10000000000E+02 0. -1.
</event>
<event>
 5    1  0.1147307E-008  0.3692561E+03  0.7957747E-01  0.3499317E+00
         13   -1    0    0    0    0  0.00000000000E+00  0.00000000000E+00  0.14999999963E+04  0.15000000000E+04  0.10566000000E+00 0. -1.
        994   -1    0    0    0    0 -0.00000000000E+00 -0.00000000000E+00  0.11368683772E-12  0.17120000000E+03  0.17120000000E+03 0.  0.
         13    1    1    2    0    0 -0.27775970362E+02 -0.95724629974E+01  0.35663071643E+02  0.46206086400E+02  0.10566000000E+00 0. -1.
        994    1    1    2    0    0  0.29858834906E+02  0.10372653790E+02  0.14037850330E+02  0.17465864768E+03  0.17120000000E+03 0.  0.
        998    1    1    2    0    0 -0.20828645449E+01 -0.80019079283E+00  0.14502990743E+04  0.14503352659E+04  0.10000000000E+02 0. -1.
</event>
<event>
 5    1  0.1147307E-008  0.3732545E+03  0.7957747E-01  0.3481066E+00
         13   -1    0    0    0    0  0.00000000000E+00  0.00000000000E+00  0.14999999963E+04  0.15000000000E+04  0.10566000000E+00 0. -1.
        994   -1    0    0    0    0 -0.00000000000E+00 -0.00000000000E+00  0.11368683772E-12  0.17120000000E+03  0.17120000000E+03 0.  0.
         13    1    1    2    0    0 -0.17564442220E+01  0.65892035249E+02  0.23412558077E+03  0.24322755629E+03  0.10566000000E+00 0. -1.
        994    1    1    2    0    0 -0.38552452623E+01 -0.70220935869E+02  0.24682950626E+02  0.18672046166E+03  0.17120000000E+03 0.  0.
        998    1    1    2    0    0  0.56116894842E+01  0.43289006199E+01  0.12411914649E+04  0.12412519820E+04  0.10000000000E+02 0. -1.
</event>
<event>
 5    1  0.1147307E-008  0.3721380E+03  0.7957747E-01  0.3486123E+00
         13   -1    0    0    0    0  0.00000000000E+00  0.00000000000E+00  0.14999999963E+04  0.15000000000E+04  0.10566000000E+00 0.  1.
        994   -1    0    0    0    0 -0.00000000000E+00 -0.00000000000E+00  0.11368683772E-12  0.17120000000E+03  0.17120000000E+03 0.  0.
         13    1    1    2    0    0 -0.33341786296E+01  0.13350679849E+02  0.78095290007E+01  0.15822683300E+02  0.10566000000E+00 0.  1.
        994    1    1    2    0    0  0.73086617975E+01 -0.14307542530E+02  0.90422906265E+01  0.17218979450E+03  0.17120000000E+03 0.  0.
        998    1    1    2    0    0 -0.39744831679E+01  0.95686268160E+00  0.14831481767E+04  0.14831875222E+04  0.10000000000E+02 0.  1.
</event>
<event>
 5    1  0.1485895E-008  0.3862846E+03  0.7957747E-01  0.3424242E+00
         13   -1    0    0    0    0  0.00000000000E+00  0.00000000000E+00  0.14999999963E+04  0.15000000000E+04  0.10566000000E+00 0. -1.
        994   -1    0    0    0    0 -0.00000000000E+00 -0.00000000000E+00  0.11368683772E-12  0.17120000000E+03  0.17120000000E+03 0.  0.
         13    1    1    2    0    0  0.11328126098E+02 -0.12229623050E+01  0.64635533272E+02  0.65632197914E+02  0.10566000000E+00 0. -1.
        994    1    1    2    0    0 -0.10686462212E+02  0.38181999895E+01  0.14155555774E+01  0.17158153433E+03  0.17120000000E+03 0.  0.
        998    1    1    2    0    0 -0.64166388662E+00 -0.25952376845E+01  0.14339489074E+04  0.14339862678E+04  0.10000000000E+02 0. -1.
</event>
<event>
 5    1  0.1147307E-008  0.3769048E+03  0.7957747E-01  0.3464747E+00
         13   -1    0    0    0    0  0.00000000000E+00  0.00000000000E+00  0.14999999963E+04  0.15000000000E+04  0.10566000000E+00 0.  1.
        994   -1    0    0    0    0 -0.00000000000E+00 -0.00000000000E+00  0.11368683772E-12  0.17120000000E+03  0.17120000000E+03 0.  0.
         13    1    1    2    0    0 -0.13060443457E+02 -0.54550218692E+02  0.22277770849E+03  0.22973075568E+03  0.10566000000E+00 0.  1.
        994    1    1    2    0    0  0.16110262726E+02  0.61386808851E+02  0.19431229668E+02  0.18361615820E+03  0.17120000000E+03 0.  0.
        998    1    1    2    0    0 -0.30498192692E+01 -0.68365901585E+01  0.12577910581E+04  0.12578530861E+04  0.10000000000E+02 0.  1.
</event>
<event>
 5    1  0.1147307E-008  0.3747616E+03  0.7957747E-01  0.3474290E+00
         13   -1    0    0    0    0  0.00000000000E+00  0.00000000000E+00  0.14999999963E+04  0.15000000000E+04  0.10566000000E+00 0. -1.
        994   -1    0    0    0    0 -0.00000000000E+00 -0.00000000000E+00  0.11368683772E-12  0.17120000000E+03  0.17120000000E+03 0.  0.
         13    1    1    2    0    0 -0.68890569035E+02 -0.26187411956E+02  0.33215269782E+03  0.34023097578E+03  0.10566000000E+00 0. -1.
        994    1    1    2    0    0  0.56164410315E+02  0.36099463713E+02  0.22120180849E+02  0.18508472294E+03  0.17120000000E+03 0.  0.
        998    1    1    2    0    0  0.12726158720E+02 -0.99120517571E+01  0.11457271176E+04  0.11458843013E+04  0.10000000000E+02 0. -1.
</event>
<event>
 5    1  0.1147307E-008  0.3823533E+03  0.7957747E-01  0.3440975E+00
         13   -1    0    0    0    0  0.00000000000E+00  0.00000000000E+00  0.14999999963E+04  0.15000000000E+04  0.10566000000E+00 0.  1.
        994   -1    0    0    0    0 -0.00000000000E+00 -0.00000000000E+00  0.11368683772E-12  0.17120000000E+03  0.17120000000E+03 0.  0.
         13    1    1    2    0    0  0.26004884886E+02 -0.21111445720E+02  0.18975054585E+03  0.19268427023E+03  0.10566000000E+00 0.  1.
        994    1    1    2    0    0 -0.14154176263E+02  0.13056537072E+02  0.41809053472E+01  0.17233030446E+03  0.17120000000E+03 0.  0.
        998    1    1    2    0    0 -0.11850708623E+02  0.80549086482E+01  0.13060685451E+04  0.13061854253E+04  0.10000000000E+02 0.  1.
</event>
<event>
 5    1  0.1147307E-008  0.3842334E+03  0.7957747E-01  0.3432930E+00
         13   -1    0    0    0    0  0.00000000000E+00  0.00000000000E+00  0.14999999963E+04  0.15000000000E+04  0.10566000000E+00 0.  1.
        994   -1    0    0    0    0 -0.00000000000E+00 -0.00000000000E+00  0.11368683772E-12  0.17120000000E+03  0.17120000000E+03 0.  0.
         13    1    1    2    0    0  0.24195554551E+01 -0.14868852163E+02  0.69579577654E+02  0.71191753763E+02  0.10566000000E+00 0.  1.
        994    1    1    2    0    0  0.14772715762E+02 -0.22871359289E+02  0.44590858930E+01  0.17340892611E+03  0.17120000000E+03 0.  0.
        998    1    1    2    0    0 -0.17192271217E+02  0.37740211452E+02  0.14259613327E+04  0.14265993201E+04  0.10000000000E+02 0.  1.
</event>
<event>
 5    1  0.1147307E-008  0.3807694E+03  0.7957747E-01  0.3447815E+00
         13   -1    0    0    0    0  0.00000000000E+00  0.00000000000E+00  0.14999999963E+04  0.15000000000E+04  0.10566000000E+00 0.  1.
        994   -1    0    0    0    0 -0.00000000000E+00 -0.00000000000E+00  0.11368683772E-12  0.17120000000E+03  0.17120000000E+03 0.  0.
         13    1    1    2    0    0 -0.46721568180E+01  0.18527710560E+02  0.47499969769E+02  0.51199251948E+02  0.10566000000E+00 0.  1.
        994    1    1    2    0    0  0.35253766250E+01 -0.11307130185E+02  0.42131711123E+01  0.17166091659E+03  0.17120000000E+03 0.  0.
        998    1    1    2    0    0  0.11467801930E+01 -0.72205803757E+01  0.14482868554E+04  0.14483398315E+04  0.10000000000E+02 0.  1.
</event>
<event>
 5    1  0.1147307E-008  0.3850315E+03  0.7957747E-01  0.3429539E+00
         13   -1    0    0    0    0  0.00000000000E+00  0.00000000000E+00  0.14999999963E+04  0.15000000000E+04  0.10566000000E+00 0.  1.
        994   -1    0    0    0    0 -0.00000000000E+00 -0.00000000000E+00  0.11368683772E-12  0.17120000000E+03  0.17120000000E+03 0.  0.
         13    1    1    2    0    0 -0.80959500085E+00  0.11502044164E+02  0.39756634426E+02  0.41395091604E+02  0.10566000000E+00 0.  1.
        994    1    1    2    0    0  0.22178589482E+01 -0.14126200676E+02  0.22871376974E+01  0.17181134841E+03  0.17120000000E+03 0.  0.
        998    1    1    2    0    0 -0.14082639473E+01  0.26241565123E+01  0.14579562242E+04  0.14579935600E+04  0.10000000000E+02 0.  1.
</event>
<event>
 5    1  0.1147307E-008  0.3734063E+03  0.7957747E-01  0.3480381E+00
         13   -1    0    0    0    0  0.00000000000E+00  0.00000000000E+00  0.14999999963E+04  0.15000000000E+04  0.10566000000E+00 0. -1.
        994   -1    0    0    0    0 -0.00000000000E+00 -0.00000000000E+00  0.11368683772E-12  0.17120000000E+03  0.17120000000E+03 0.  0.
         13    1    1    2    0    0  0.25386089558E+02 -0.55513041482E+02  0.20843213863E+03  0.21718682947E+03  0.10566000000E+00 0. -1.
        994    1    1    2    0    0 -0.27143402755E+02  0.58335351272E+02  0.21782247209E+02  0.18418383158E+03  0.17120000000E+03 0.  0.
        998    1    1    2    0    0  0.17573131969E+01 -0.28223097899E+01  0.12697856104E+04  0.12698293390E+04  0.10000000000E+02 0. -1.
</event>
<event>
 5    1  0.1774843E-008  0.3854948E+03  0.7957747E-01  0.3427576E+00
         13   -1    0    0    0    0  0.00000000000E+00  0.00000000000E+00  0.14999999963E+04  0.15000000000E+04  0.10566000000E+00 0. -1.
        994   -1    0    0    0    0 -0.00000000000E+00 -0.00000000000E+00  0.11368683772E-12  0.17120000000E+03  0.17120000000E+03 0.  0.
         13    1    1    2    0    0 -0.45536516423E+01 -0.10495133286E+02  0.47855950126E+02  0.49204539348E+02  0.10566000000E+00 0. -1.
        994    1    1    2    0    0  0.49904327593E+01  0.46731160669E+01  0.15381662371E+01  0.17134336400E+03  0.17120000000E+03 0.  0.
        998    1    1    2    0    0 -0.43678111702E+00  0.58220172195E+01  0.14506058799E+04  0.14506520966E+04  0.10000000000E+02 0. -1.
</event>
<event>
 5    1  0.1147307E-008  0.3721716E+03  0.7957747E-01  0.3485970E+00
         13   -1    0    0    0    0  0.00000000000E+00  0.00000000000E+00  0.14999999963E+04  0.15000000000E+04  0.10566000000E+00 0. -1.
        994   -1    0    0    0    0 -0.00000000000E+00 -0.00000000000E+00  0.11368683772E-12  0.17120000000E+03  0.17120000000E+03 0.  0.
         13    1    1    2    0    0 -0.43520024799E+01  0.25693453163E+02  0.38028900975E+02  0.46100997109E+02  0.10566000000E+00 0. -1.
        994    1    1    2    0    0  0.47468629696E+01 -0.21330716574E+02  0.97789750517E+01  0.17286584547E+03  0.17120000000E+03 0.  0.
        998    1    1    2    0    0 -0.39486048969E+00 -0.43627365891E+01  0.14521921203E+04  0.14522331574E+04  0.10000000000E+02 0. -1.
</event>
<event>
 5    1  0.1147307E-008  0.3755704E+03  0.7957747E-01  0.3470676E+00
         13   -1    0    0    0    0  0.00000000000E+00  0.00000000000E+00  0.14999999963E+04  0.15000000000E+04  0.10566000000E+00 0. -1.
        994   -1    0    0    0    0 -0.00000000000E+00 -0.00000000000E+00  0.11368683772E-12  0.17120000000E+03  0.17120000000E+03 0.  0.
         13    1    1    2    0    0 -0.35180108899E+01 -0.26732215826E+02  0.77710650939E+02  0.82255359685E+02  0.10566000000E+00 0. -1.
        994    1    1    2    0    0 -0.35100411279E+02 -0.68252942150E+02  0.26640332390E+02  0.18949841766E+03  0.17120000000E+03 0.  0.
        998    1    1    2    0    0  0.38618422169E+02  0.94985157977E+02  0.13956490129E+04  0.13994462227E+04  0.10000000000E+02 0. -1.
</event>
<event>
 5    1  0.1147307E-008  0.3836419E+03  0.7957747E-01  0.3435453E+00
         13   -1    0    0    0    0  0.00000000000E+00  0.00000000000E+00  0.14999999963E+04  0.15000000000E+04  0.10566000000E+00 0.  1.
        994   -1    0    0    0    0 -0.00000000000E+00 -0.00000000000E+00  0.11368683772E-12  0.17120000000E+03  0.17120000000E+03 0.  0.
         13    1    1    2    0    0  0.11608351434E+02  0.18939285962E+02  0.10484207612E+03  0.10716959674E+03  0.10566000000E+00 0.  1.
        994    1    1    2    0    0 -0.95039913230E+01 -0.12961631352E+02  0.31597015978E+01  0.17198184047E+03  0.17120000000E+03 0.  0.
        998    1    1    2    0    0 -0.21043601109E+01 -0.59776546098E+01  0.13919982186E+04  0.13920485628E+04  0.10000000000E+02 0.  1.
</event>
<event>
 5    1  0.1147307E-008  0.3813431E+03  0.7957747E-01  0.3445331E+00
         13   -1    0    0    0    0  0.00000000000E+00  0.00000000000E+00  0.14999999963E+04  0.15000000000E+04  0.10566000000E+00 0.  1.
        994   -1    0    0    0    0 -0.00000000000E+00 -0.00000000000E+00  0.11368683772E-12  0.17120000000E+03  0.17120000000E+03 0.  0.
         13    1    1    2    0    0  0.13699386092E+02  0.78486536088E+01  0.35742991667E+02  0.39074891684E+02  0.10566000000E+00 0.  1.
        994    1    1    2    0    0 -0.63244734272E+01  0.55050294524E+01  0.36907245942E+01  0.17144493507E+03  0.17120000000E+03 0.  0.
        998    1    1    2    0    0 -0.73749126647E+01 -0.13353683061E+02  0.14605662800E+04  0.14606801732E+04  0.10000000000E+02 0.  1.
</event>
<event>
 5    1  0.1147307E-008  0.3851841E+03  0.7957747E-01  0.3428892E+00
         13   -1    0    0    0    0  0.00000000000E+00  0.00000000000E+00  0.14999999963E+04  0.15000000000E+04  0.10566000000E+00 0. -1.
        994   -1    0    0    0    0 -0.00000000000E+00 -0.00000000000E+00  0.11368683772E-12  0.17120000000E+03  0.17120000000E+03 0.  0.
         13    1    1    2    0    0  0.59030310512E+01  0.10103679651E+02  0.44415325316E+02  0.45931061440E+02  0.10566000000E+00 0. -1.
        994    1    1    2    0    0 -0.85905302934E+01 -0.44844319866E+01  0.18474649497E+01  0.17148399479E+03  0.17120000000E+03 0.  0.
        998    1    1    2    0    0  0.26874992422E+01 -0.56192476649E+01  0.14537372060E+04  0.14537849438E+04  0.10000000000E+02 0. -1.
</event>
<event>
 5    1  0.1147307E-008  0.3742398E+03  0.7957747E-01  0.3476630E+00
         13   -1    0    0    0    0  0.00000000000E+00  0.00000000000E+00  0.14999999963E+04  0.15000000000E+04  0.10566000000E+00 0.  1.
        994   -1    0    0    0    0 -0.00000000000E+00 -0.00000000000E+00  0.11368683772E-12  0.17120000000E+03  0.17120000000E+03 0.  0.
         13    1    1    2    0    0  0.30239679407E+01 -0.15557239509E+02  0.14473792555E+02  0.21463315639E+02  0.10566000000E+00 0.  1.
        994    1    1    2    0    0  0.36937293725E+00  0.17295217712E+02  0.80901493650E+01  0.17226186899E+03  0.17120000000E+03 0.  0.
        998    1    1    2    0    0 -0.33933408779E+01 -0.17379782037E+01  0.14774360544E+04  0.14774748154E+04  0.10000000000E+02 0.  1.
</event>
<event>
 5    1  0.1147307E-008  0.3835302E+03  0.7957747E-01  0.3435930E+00
         13   -1    0    0    0    0  0.00000000000E+00  0.00000000000E+00  0.14999999963E+04  0.15000000000E+04  0.10566000000E+00 0.  1.
        994   -1    0    0    0    0 -0.00000000000E+00 -0.00000000000E+00  0.11368683772E-12  0.17120000000E+03  0.17120000000E+03 0.  0.
         13    1    1    2    0    0 -0.10691518250E+02  0.43678877389E+01  0.27337640843E+02  0.29677344502E+02  0.10566000000E+00 0.  1.
        994    1    1    2    0    0  0.82803928355E+01 -0.45997815343E+01  0.26581528901E+01  0.17148244421E+03  0.17120000000E+03 0.  0.
        998    1    1    2    0    0  0.24111254145E+01  0.23189379541E+00  0.14700042025E+04  0.14700402113E+04  0.10000000000E+02 0.  1.
</event>
<event>
 5    1  0.1147307E-008  0.3805632E+03  0.7957747E-01  0.3448710E+00
         13   -1    0    0    0    0  0.00000000000E+00  0.00000000000E+00  0.14999999963E+04  0.15000000000E+04  0.10566000000E+00 0.  1.
        994   -1    0    0    0    0 -0.00000000000E+00 -0.00000000000E+00  0.11368683772E-12  0.17120000000E+03  0.17120000000E+03 0.  0.
         13    1    1    2    0    0  0.13436828826E+02  0.37209850949E+02  0.19687714606E+03  0.20081270673E+03  0.10566000000E+00 0.  1.
        994    1    1    2    0    0 -0.20089255255E+02 -0.20904222895E+02  0.66589227238E+01  0.17376520355E+03  0.17120000000E+03 0.  0.
        998    1    1    2    0    0  0.66524264294E+01 -0.16305628055E+02  0.12964639275E+04  0.12966220897E+04  0.10000000000E+02 0.  1.
</event>
<event>
 5    1  0.1147307E-008  0.3735767E+03  0.7957747E-01  0.3479613E+00
         13   -1    0    0    0    0  0.00000000000E+00  0.00000000000E+00  0.14999999963E+04  0.15000000000E+04  0.10566000000E+00 0. -1.
        994   -1    0    0    0    0 -0.00000000000E+00 -0.00000000000E+00  0.11368683772E-12  0.17120000000E+03  0.17120000000E+03 0.  0.
         13    1    1    2    0    0  0.14121243023E+01  0.51293144660E+02  0.10450940021E+03  0.11642682973E+03  0.10566000000E+00 0. -1.
        994    1    1    2    0    0 -0.26358679574E+02 -0.15199755778E+03  0.93626934048E+02  0.24874380463E+03  0.17120000000E+03 0.  0.
        998    1    1    2    0    0  0.24946555272E+02  0.10070441312E+03  0.13018636620E+04  0.13060293656E+04  0.10000000000E+02 0. -1.
</event>
<event>
 5    1  0.1147307E-008  0.3789145E+03  0.7957747E-01  0.3455899E+00
         13   -1    0    0    0    0  0.00000000000E+00  0.00000000000E+00  0.14999999963E+04  0.15000000000E+04  0.10566000000E+00 0. -1.
        994   -1    0    0    0    0 -0.00000000000E+00 -0.00000000000E+00  0.11368683772E-12  0.17120000000E+03  0.17120000000E+03 0.  0.
         13    1    1    2    0    0 -0.21840032823E+03  0.53482332901E+01  0.13000754310E+04  0.13183032445E+04  0.10566000000E+00 0. -1.
        994    1    1    2    0    0  0.21265256900E+03 -0.17493514876E+02  0.18328530298E+03  0.32928723093E+03  0.17120000000E+03 0.  0.
        998    1    1    2    0    0  0.57477592317E+01  0.12145281586E+02  0.16639262288E+02  0.23609524571E+02  0.10000000000E+02 0.  1.
</event>
<event>
 5    1  0.1147307E-008  0.3715541E+03  0.7957747E-01  0.3488779E+00
         13   -1    0    0    0    0  0.00000000000E+00  0.00000000000E+00  0.14999999963E+04  0.15000000000E+04  0.10566000000E+00 0. -1.
        994   -1    0    0    0    0 -0.00000000000E+00 -0.00000000000E+00  0.11368683772E-12  0.17120000000E+03  0.17120000000E+03 0.  0.
         13    1    1    2    0    0 -0.11863484332E+02 -0.47948274762E+02  0.94975671060E+02  0.10705217686E+03  0.10566000000E+00 0. -1.
        994    1    1    2    0    0  0.29249350515E+00  0.47063801968E+02  0.19590137842E+02  0.17862894645E+03  0.17120000000E+03 0.  0.
        998    1    1    2    0    0  0.11570990827E+02  0.88447279370E+00  0.13854341874E+04  0.13855188767E+04  0.10000000000E+02 0. -1.
</event>
<event>
 5    1  0.1147307E-008  0.3840738E+03  0.7957747E-01  0.3433610E+00
         13   -1    0    0    0    0  0.00000000000E+00  0.00000000000E+00  0.14999999963E+04  0.15000000000E+04  0.10566000000E+00 0.  1.
        994   -1    0    0    0    0 -0.00000000000E+00 -0.00000000000E+00  0.11368683772E-12  0.17120000000E+03  0.17120000000E+03 0.  0.
         13    1    1    2    0    0 -0.12815556070E+02 -0.64706023213E+01  0.48023652138E+02  0.50123741885E+02  0.10566000000E+00 0.  1.
        994    1    1    2    0    0  0.10353836357E+02  0.83926787187E+01  0.26768346169E+01  0.17173888443E+03  0.17120000000E+03 0.  0.
        998    1    1    2    0    0  0.24617197128E+01 -0.19220763974E+01  0.14492995095E+04  0.14493373737E+04  0.10000000000E+02 0.  1.
</event>
<event>
 5    1  0.1147307E-008  0.3795064E+03  0.7957747E-01  0.3453311E+00
         13   -1    0    0    0    0  0.00000000000E+00  0.00000000000E+00  0.14999999963E+04  0.15000000000E+04  0.10566000000E+00 0.  1.
        994   -1    0    0    0    0 -0.00000000000E+00 -0.00000000000E+00  0.11368683772E-12  0.17120000000E+03  0.17120000000E+03 0.  0.
         13    1    1    2    0    0  0.30487184209E+02  0.27490015556E+02  0.17109573032E+03  0.17595149745E+03  0.10566000000E+00 0.  1.
        994    1    1    2    0    0 -0.28709477484E+02 -0.28788808728E+02  0.99374519699E+01  0.17624194324E+03  0.17120000000E+03 0.  0.
        998    1    1    2    0    0 -0.17777067245E+01  0.12987931721E+01  0.13189668140E+04  0.13190065593E+04  0.10000000000E+02 0.  1.
</event>
<event>
 5    1  0.1147307E-008  0.3848021E+03  0.7957747E-01  0.3430512E+00
         13   -1    0    0    0    0  0.00000000000E+00  0.00000000000E+00  0.14999999963E+04  0.15000000000E+04  0.10566000000E+00 0.  1.
        994   -1    0    0    0    0 -0.00000000000E+00 -0.00000000000E+00  0.11368683772E-12  0.17120000000E+03  0.17120000000E+03 0.  0.
         13    1    1    2    0    0 -0.14961669615E+02  0.65539558556E+00  0.62133403123E+02  0.63912847290E+02  0.10566000000E+00 0.  1.
        994    1    1    2    0    0  0.17312813310E+02  0.81340613870E+01  0.29334115198E+01  0.17229028226E+03  0.17120000000E+03 0.  0.
        998    1    1    2    0    0 -0.23511436950E+01 -0.87894569726E+01  0.14349331816E+04  0.14349968704E+04  0.10000000000E+02 0.  1.
</event>
<event>
 5    1  0.1147307E-008  0.3744699E+03  0.7957747E-01  0.3475597E+00
         13   -1    0    0    0    0  0.00000000000E+00  0.00000000000E+00  0.14999999963E+04  0.15000000000E+04  0.10566000000E+00 0. -1.
        994   -1    0    0    0    0 -0.00000000000E+00 -0.00000000000E+00  0.11368683772E-12  0.17120000000E+03  0.17120000000E+03 0.  0.
         13    1    1    2    0    0  0.52423840579E+02 -0.36804505720E+02  0.14802430080E+03  0.16128867131E+03  0.10566000000E+00 0. -1.
        994    1    1    2    0    0 -0.28060090650E+02  0.34470426684E+02  0.20371847132E+02  0.17804502565E+03  0.17120000000E+03 0.  0.
        998    1    1    2    0    0 -0.24363749928E+02  0.23340790357E+01  0.13316038484E+04  0.13318663030E+04  0.10000000000E+02 0. -1.
</event>
<event>
 5    1  0.1147307E-008  0.3847556E+03  0.7957747E-01  0.3430710E+00
         13   -1    0    0    0    0  0.00000000000E+00  0.00000000000E+00  0.14999999963E+04  0.15000000000E+04  0.10566000000E+00 0. -1.
        994   -1    0    0    0    0 -0.00000000000E+00 -0.00000000000E+00  0.11368683772E-12  0.17120000000E+03  0.17120000000E+03 0.  0.
         13    1    1    2    0    0  0.15731535869E+02  0.23983592760E+00  0.71923798678E+02  0.73624606772E+02  0.10566000000E+00 0. -1.
        994    1    1    2    0    0 -0.72749823031E+01 -0.64490417313E+01  0.20626796096E+01  0.17148822162E+03  0.17120000000E+03 0.  0.
        998    1    1    2    0    0 -0.84565535655E+01  0.62092058037E+01  0.14260135180E+04  0.14260871716E+04  0.10000000000E+02 0. -1.
</event>
<event>
 5    1  0.1147307E-008  0.3745458E+03  0.7957747E-01  0.3475257E+00
         13   -1    0    0    0    0  0.00000000000E+00  0.00000000000E+00  0.14999999963E+04  0.15000000000E+04  0.10566000000E+00 0.  1.
        994   -1    0    0    0    0 -0.00000000000E+00 -0.00000000000E+00  0.11368683772E-12  0.17120000000E+03  0.17120000000E+03 0.  0.
         13    1    1    2    0    0  0.29938647701E+02  0.26655704462E+02  0.11203798048E+03  0.11899314871E+03  0.10566000000E+00 0.  1.
        994    1    1    2    0    0 -0.21758770357E+02 -0.17554991607E+02  0.95777120242E+01  0.17373196132E+03  0.17120000000E+03 0.  0.
        998    1    1    2    0    0 -0.81798773436E+01 -0.91007128556E+01  0.13783843038E+04  0.13784748900E+04  0.10000000000E+02 0.  1.
</event>
<event>
 5    1  0.1147307E-008  0.3835933E+03  0.7957747E-01  0.3435660E+00
         13   -1    0    0    0    0  0.00000000000E+00  0.00000000000E+00  0.14999999963E+04  0.15000000000E+04  0.10566000000E+00 0. -1.
        994   -1    0    0    0    0 -0.00000000000E+00 -0.00000000000E+00  0.11368683772E-12  0.17120000000E+03  0.17120000000E+03 0.  0.
         13    1    1    2    0    0  0.21509948149E+02 -0.23747816099E+01  0.10116810527E+03  0.10345682261E+03  0.10566000000E+00 0. -1.
        994    1    1    2    0    0 -0.11592140557E+02  0.11843952748E+01  0.27788597268E+01  0.17161859624E+03  0.17120000000E+03 0.  0.
        998    1    1    2    0    0 -0.99178075914E+01  0.11903863351E+01  0.13960530313E+04  0.13961245811E+04  0.10000000000E+02 0. -1.
</event>
<event>
 5    1  0.1147307E-008  0.3907595E+03  0.7957747E-01  0.3405607E+00
         13   -1    0    0    0    0  0.00000000000E+00  0.00000000000E+00  0.14999999963E+04  0.15000000000E+04  0.10566000000E+00 0. -1.
        994   -1    0    0    0    0 -0.00000000000E+00 -0.00000000000E+00  0.11368683772E-12  0.17120000000E+03  0.17120000000E+03 0.  0.
         13    1    1    2    0    0  0.24096627273E+00 -0.14254801559E+02 -0.55937456909E+01  0.15315305649E+02  0.10566000000E+00 0. -1.
        994    1    1    2    0    0 -0.77466682987E+00  0.96914406966E+01  0.22724995684E+02  0.17297511255E+03  0.17120000000E+03 0.  0.
        998    1    1    2    0    0  0.53370055714E+00  0.45633608621E+01  0.14828687463E+04  0.14829095818E+04  0.10000000000E+02 0. -1.
</event>
<event>
 5    1  0.1147307E-008  0.3906337E+03  0.7957747E-01  0.3406125E+00
         13   -1    0    0    0    0  0.00000000000E+00  0.00000000000E+00  0.14999999963E+04  0.15000000000E+04  0.10566000000E+00 0.  1.
        994   -1    0    0    0    0 -0.00000000000E+00 -0.00000000000E+00  0.11368683772E-12  0.17120000000E+03  0.17120000000E+03 0.  0.
         13    1    1    2    0    0  0.13988527477E+02 -0.64005542094E+00 -0.57980194861E+01  0.15156410060E+02  0.10566000000E+00 0.  1.
        994    1    1    2    0    0 -0.19621507710E+02 -0.73810677430E+00  0.23750922746E+02  0.17395141476E+03  0.17120000000E+03 0.  0.
        998    1    1    2    0    0  0.56329802329E+01  0.13781621952E+01  0.14820470930E+04  0.14820921752E+04  0.10000000000E+02 0.  1.
</event>
<event>
 5    1  0.1147307E-008  0.3729529E+03  0.7957747E-01  0.3482429E+00
         13   -1    0    0    0    0  0.00000000000E+00  0.00000000000E+00  0.14999999963E+04  0.15000000000E+04  0.10566000000E+00 0. -1.
        994   -1    0    0    0    0 -0.00000000000E+00 -0.00000000000E+00  0.11368683772E-12  0.17120000000E+03  0.17120000000E+03 0.  0.
         13    1    1    2    0    0  0.10651459233E+03  0.21082291869E+02  0.35310721335E+03  0.36942460218E+03  0.10566000000E+00 0. -1.
        994    1    1    2    0    0 -0.10528043847E+03 -0.22105232846E+02  0.54599723935E+02  0.20943538836E+03  0.17120000000E+03 0.  0.
        998    1    1    2    0    0 -0.12341538601E+01  0.10229409769E+01  0.10922930590E+04  0.10923400095E+04  0.10000000000E+02 0.  0.
</event>
<event>
 5    1  0.1147307E-008  0.3753559E+03  0.7957747E-01  0.3471633E+00
         13   -1    0    0    0    0  0.00000000000E+00  0.00000000000E+00  0.14999999963E+04  0.15000000000E+04  0.10566000000E+00 0. -1.
        994   -1    0    0    0    0 -0.00000000000E+00 -0.00000000000E+00  0.11368683772E-12  0.17120000000E+03  0.17120000000E+03 0.  0.
         13    1    1    2    0    0 -0.58045681568E+01  0.17675243351E+02  0.24071876146E+02  0.30423241514E+02  0.10566000000E+00 0. -1.
        994    1    1    2    0    0  0.51461854559E+01 -0.90713627522E+01  0.68654720845E+01  0.17165473356E+03  0.17120000000E+03 0.  0.
        998    1    1    2    0    0  0.65838270088E+00 -0.86038805989E+01  0.14690626480E+04  0.14691220249E+04  0.10000000000E+02 0. -1.
</event>
<event>
 5    1  0.1147307E-008  0.3833278E+03  0.7957747E-01  0.3436795E+00
         13   -1    0    0    0    0  0.00000000000E+00  0.00000000000E+00  0.14999999963E+04  0.15000000000E+04  0.10566000000E+00 0. -1.
        994   -1    0    0    0    0 -0.00000000000E+00 -0.00000000000E+00  0.11368683772E-12  0.17120000000E+03  0.17120000000E+03 0.  0.
         13    1    1    2    0    0  0.22730748725E+02  0.75402590439E+01  0.13069241446E+03  0.13286858472E+03  0.10566000000E+00 0. -1.
        994    1    1    2    0    0  0.31130733065E+01 -0.55291628484E+01  0.25957617456E+01  0.17133721384E+03  0.17120000000E+03 0.  0.
        998    1    1    2    0    0 -0.25843822032E+02 -0.20110961955E+01  0.13667118201E+04  0.13669942014E+04  0.10000000000E+02 0. -1.
</event>
<event>
 5    1  0.1147307E-008  0.3857190E+03  0.7957747E-01  0.3426629E+00
         13   -1    0    0    0    0  0.00000000000E+00  0.00000000000E+00  0.14999999963E+04  0.15000000000E+04  0.10566000000E+00 0.  1.
        994   -1    0    0    0    0 -0.00000000000E+00 -0.00000000000E+00  0.11368683772E-12  0.17120000000E+03  0.17120000000E+03 0.  0.
         13    1    1    2    0    0 -0.24307836508E+01 -0.12165260935E+02  0.60271648959E+02  0.61535234744E+02  0.10566000000E+00 0.  1.
        994    1    1    2    0    0  0.24513239005E+01  0.94515953790E+01  0.15864727004E+01  0.17148556365E+03  0.17120000000E+03 0.  0.
        998    1    1    2    0    0 -0.20540249617E-01  0.27136655565E+01  0.14381418746E+04  0.14381792016E+04  0.10000000000E+02 0.  0.
</event>
<event>
 5    1  0.1147307E-008  0.3697657E+03  0.7957747E-01  0.3496968E+00
         13   -1    0    0    0    0  0.00000000000E+00  0.00000000000E+00  0.14999999963E+04  0.15000000000E+04  0.10566000000E+00 0. -1.
        994   -1    0    0    0    0 -0.00000000000E+00 -0.00000000000E+00  0.11368683772E-12  0.17120000000E+03  0.17120000000E+03 0.  0.
         13    1    1    2    0    0 -0.15703542393E+02 -0.20470802143E+02  0.29854257995E+02  0.39458115370E+02  0.10566000000E+00 0. -1.
        994    1    1    2    0    0  0.28026594923E+02  0.29164778202E+02  0.15074439836E+02  0.17655807273E+03  0.17120000000E+03 0.  0.
        998    1    1    2    0    0 -0.12323052530E+02 -0.86939760593E+01  0.14550712984E+04  0.14551838119E+04  0.10000000000E+02 0. -1.
</event>
<event>
 5    1  0.1147307E-008  0.3790872E+03  0.7957747E-01  0.3455143E+00
         13   -1    0    0    0    0  0.00000000000E+00  0.00000000000E+00  0.14999999963E+04  0.15000000000E+04  0.10566000000E+00 0. -1.
        994   -1    0    0    0    0 -0.00000000000E+00 -0.00000000000E+00  0.11368683772E-12  0.17120000000E+03  0.17120000000E+03 0.  0.
         13    1    1    2    0    0 -0.21057962484E+02 -0.35174777959E+02  0.53297237228E+02  0.67240682988E+02  0.10566000000E+00 0. -1.
        994    1    1    2    0    0 -0.31986584389E+02 -0.32321182848E+01  0.19568443603E+02  0.17528819742E+03  0.17120000000E+03 0.  0.
        998    1    1    2    0    0  0.53044546874E+02  0.38406896244E+02  0.14271343154E+04  0.14286711196E+04  0.10000000000E+02 0. -1.
</event>
<event>
 5    1  0.1147307E-008  0.3766456E+03  0.7957747E-01  0.3465895E+00
         13   -1    0    0    0    0  0.00000000000E+00  0.00000000000E+00  0.14999999963E+04  0.15000000000E+04  0.10566000000E+00 0.  1.
        994   -1    0    0    0    0 -0.00000000000E+00 -0.00000000000E+00  0.11368683772E-12  0.17120000000E+03  0.17120000000E+03 0.  0.
         13    1    1    2    0    0  0.85516185144E+01 -0.34551860027E+02  0.38196606322E+02  0.52210660876E+02  0.10566000000E+00 0.  1.
        994    1    1    2    0    0 -0.13974956551E+02  0.21179902871E+02  0.16804953199E+02  0.17388425503E+03  0.17120000000E+03 0.  0.
        998    1    1    2    0    0  0.54233380371E+01  0.13371957156E+02  0.14449984368E+04  0.14451050841E+04  0.10000000000E+02 0.  1.
</event>
<event>
 5    1  0.1147307E-008  0.3758193E+03  0.7957747E-01  0.3469567E+00
         13   -1    0    0    0    0  0.00000000000E+00  0.00000000000E+00  0.14999999963E+04  0.15000000000E+04  0.10566000000E+00 0.  1.
        994   -1    0    0    0    0 -0.00000000000E+00 -0.00000000000E+00  0.11368683772E-12  0.17120000000E+03  0.17120000000E+03 0.  0.
         13    1    1    2    0    0 -0.57784047524E+02 -0.73757609582E+01  0.32494189811E+03  0.33012216876E+03  0.10566000000E+00 0.  1.
        994    1    1    2    0    0  0.19202761823E+02 -0.40203850953E+02  0.13017586884E+02  0.17738092699E+03  0.17120000000E+03 0.  0.
        998    1    1    2    0    0  0.38581285701E+02  0.47579611911E+02  0.11620405113E+04  0.11636969042E+04  0.10000000000E+02 0.  1.
</event>
<event>
 5    1  0.1147307E-008  0.3814371E+03  0.7957747E-01  0.3444925E+00
         13   -1    0    0    0    0  0.00000000000E+00  0.00000000000E+00  0.14999999963E+04  0.15000000000E+04  0.10566000000E+00 0. -1.
        994   -1    0    0    0    0 -0.00000000000E+00 -0.00000000000E+00  0.11368683772E-12  0.17120000000E+03  0.17120000000E+03 0.  0.
         13    1    1    2    0    0  0.13260865001E+01  0.30305614101E+02  0.12862162181E+03  0.13215037462E+03  0.10566000000E+00 0. -1.
        994    1    1    2    0    0  0.33652906417E+00 -0.24418003017E+02  0.53961331543E+01  0.17301708117E+03  0.17120000000E+03 0.  0.
        998    1    1    2    0    0 -0.16626155643E+01 -0.58876110836E+01  0.13659822413E+04  0.13660325442E+04  0.10000000000E+02 0. -1.
</event>
<event>
 5    1  0.1147307E-008  0.3745182E+03  0.7957747E-01  0.3475380E+00
         13   -1    0    0    0    0  0.00000000000E+00  0.00000000000E+00  0.14999999963E+04  0.15000000000E+04  0.10566000000E+00 0. -1.
        994   -1    0    0    0    0 -0.00000000000E+00 -0.00000000000E+00  0.11368683772E-12  0.17120000000E+03  0.17120000000E+03 0.  0.
         13    1    1    2    0    0 -0.20644527282E+02 -0.11034477513E+01  0.25982879146E+02  0.33204446636E+02  0.10566000000E+00 0. -1.
        994    1    1    2    0    0  0.42757320139E+02 -0.42133937090E+01  0.13237365769E+02  0.17700454504E+03  0.17120000000E+03 0.  0.
        998    1    1    2    0    0 -0.22112792857E+02  0.53168414603E+01  0.14607797514E+04  0.14609910083E+04  0.10000000000E+02 0. -1.
</event>
<event>
 5    1  0.1147307E-008  0.3718459E+03  0.7957747E-01  0.3487450E+00
         13   -1    0    0    0    0  0.00000000000E+00  0.00000000000E+00  0.14999999963E+04  0.15000000000E+04  0.10566000000E+00 0.  1.
        994   -1    0    0    0    0 -0.00000000000E+00 -0.00000000000E+00  0.11368683772E-12  0.17120000000E+03  0.17120000000E+03 0.  0.
         13    1    1    2    0    0  0.53912922145E+02  0.62166636269E+01  0.11257924360E+03  0.12497738729E+03  0.10566000000E+00 0.  1.
        994    1    1    2    0    0 -0.50354245938E+02 -0.66296596142E+01  0.21050641339E+02  0.17981121203E+03  0.17120000000E+03 0.  0.
        998    1    1    2    0    0 -0.35586762068E+01  0.41299598731E+00  0.13663701113E+04  0.13664114007E+04  0.10000000000E+02 0.  1.
</event>
<event>
 5    1  0.1147307E-008  0.3878694E+03  0.7957747E-01  0.3417593E+00
         13   -1    0    0    0    0  0.00000000000E+00  0.00000000000E+00  0.14999999963E+04  0.15000000000E+04  0.10566000000E+00 0. -1.
        994   -1    0    0    0    0 -0.00000000000E+00 -0.00000000000E+00  0.11368683772E-12  0.17120000000E+03  0.17120000000E+03 0.  0.
         13    1    1    2    0    0 -0.15079780487E+02  0.73338100052E+01 -0.26188947787E+01  0.16972163169E+02  0.10566000000E+00 0. -1.
        994    1    1    2    0    0  0.19386982555E+02 -0.67201133728E+01  0.22291401700E+02  0.17386017832E+03  0.17120000000E+03 0.  0.
        998    1    1    2    0    0 -0.43072020673E+01 -0.61369663237E+00  0.14803274894E+04  0.14803676585E+04  0.10000000000E+02 0. -1.
</event>
<event>
 5    1  0.1147307E-008  0.3736528E+03  0.7957747E-01  0.3479270E+00
         13   -1    0    0    0    0  0.00000000000E+00  0.00000000000E+00  0.14999999963E+04  0.15000000000E+04  0.10566000000E+00 0. -1.
        994   -1    0    0    0    0 -0.00000000000E+00 -0.00000000000E+00  0.11368683772E-12  0.17120000000E+03  0.17120000000E+03 0.  0.
         13    1    1    2    0    0 -0.59735576787E+02 -0.26605956788E+02  0.14453774677E+03  0.15864232562E+03  0.10566000000E+00 0. -1.
        994    1    1    2    0    0  0.62140858280E+02  0.30090287379E+02  0.29962740574E+02  0.18701368261E+03  0.17120000000E+03 0.  0.
        998    1    1    2    0    0 -0.24052814933E+01 -0.34843305912E+01  0.13254995089E+04  0.13255439918E+04  0.10000000000E+02 0. -1.
</event>
<event>
 5    1  0.1147307E-008  0.3821348E+03  0.7957747E-01  0.3441915E+00
         13   -1    0    0    0    0  0.00000000000E+00  0.00000000000E+00  0.14999999963E+04  0.15000000000E+04  0.10566000000E+00 0. -1.
        994   -1    0    0    0    0 -0.00000000000E+00 -0.00000000000E+00  0.11368683772E-12  0.17120000000E+03  0.17120000000E+03 0.  0.
         13    1    1    2    0    0  0.33487242444E+02  0.11476977803E+02  0.17788974126E+03  0.18137774846E+03  0.10566000000E+00 0. -1.
        994    1    1    2    0    0 -0.40131721842E+02 -0.13114996125E+01  0.84298528213E+01  0.17604765704E+03  0.17120000000E+03 0.  0.
        998    1    1    2    0    0  0.66444793975E+01 -0.10165478190E+02  0.13136804022E+04  0.13137745945E+04  0.10000000000E+02 0. -1.
</event>
<event>
 5    1  0.1147307E-008  0.3818647E+03  0.7957747E-01  0.3443079E+00
         13   -1    0    0    0    0  0.00000000000E+00  0.00000000000E+00  0.14999999963E+04  0.15000000000E+04  0.10566000000E+00 0. -1.
        994   -1    0    0    0    0 -0.00000000000E+00 -0.00000000000E+00  0.11368683772E-12  0.17120000000E+03  0.17120000000E+03 0.  0.
         13    1    1    2    0    0 -0.18822922498E+02  0.16166253102E+02  0.10050492203E+03  0.10352246456E+03  0.10566000000E+00 0. -1.
        994    1    1    2    0    0  0.47210634670E+01 -0.39572994852E+01  0.33209208319E+01  0.17134298111E+03  0.17120000000E+03 0.  0.
        998    1    1    2    0    0  0.14101859031E+02 -0.12208953617E+02  0.13961741534E+04  0.13963345543E+04  0.10000000000E+02 0. -1.
</event>
<event>
 5    1  0.1147307E-008  0.3856462E+03  0.7957747E-01  0.3426936E+00
         13   -1    0    0    0    0  0.00000000000E+00  0.00000000000E+00  0.14999999963E+04  0.15000000000E+04  0.10566000000E+00 0.  1.
        994   -1    0    0    0    0 -0.00000000000E+00 -0.00000000000E+00  0.11368683772E-12  0.17120000000E+03  0.17120000000E+03 0.  0.
         13    1    1    2    0    0 -0.37463927081E+01 -0.13566568056E+02  0.74164366451E+02  0.75488089407E+02  0.10566000000E+00 0.  1.
        994    1    1    2    0    0  0.18708976816E+01  0.12726845694E+02  0.18529061487E+01  0.17169259192E+03  0.17120000000E+03 0.  0.
        998    1    1    2    0    0  0.18754950265E+01  0.83972236242E+00  0.14239827237E+04  0.14240193187E+04  0.10000000000E+02 0.  1.
</event>
<event>
 5    1  0.1147307E-008  0.3811016E+03  0.7957747E-01  0.3446376E+00
         13   -1    0    0    0    0  0.00000000000E+00  0.00000000000E+00  0.14999999963E+04  0.15000000000E+04  0.10566000000E+00 0. -1.
        994   -1    0    0    0    0 -0.00000000000E+00 -0.00000000000E+00  0.11368683772E-12  0.17120000000E+03  0.17120000000E+03 0.  0.
         13    1    1    2    0    0 -0.18075011518E+02  0.15573357156E+01  0.43251291552E+02  0.46902203795E+02  0.10566000000E+00 0. -1.
        994    1    1    2    0    0  0.20609679921E+02 -0.24693893609E+01  0.50144899619E+01  0.17252664113E+03  0.17120000000E+03 0.  0.
        998    1    1    2    0    0 -0.25346684026E+01  0.91205364522E+00  0.14517342148E+04  0.14517711551E+04  0.10000000000E+02 0. -1.
</event>
<event>
 5    1  0.1147307E-008  0.3811029E+03  0.7957747E-01  0.3446370E+00
         13   -1    0    0    0    0  0.00000000000E+00  0.00000000000E+00  0.14999999963E+04  0.15000000000E+04  0.10566000000E+00 0.  1.
        994   -1    0    0    0    0 -0.00000000000E+00 -0.00000000000E+00  0.11368683772E-12  0.17120000000E+03  0.17120000000E+03 0.  0.
         13    1    1    2    0    0  0.16400784912E+02  0.82199097896E+01  0.42621459849E+02  0.46402076100E+02  0.10566000000E+00 0.  1.
        994    1    1    2    0    0 -0.17223823109E+02 -0.35340193236E+02  0.87426240974E+01  0.17587342840E+03  0.17120000000E+03 0.  0.
        998    1    1    2    0    0  0.82303819618E+00  0.27120283447E+02  0.14486359123E+04  0.14489244955E+04  0.10000000000E+02 0.  1.
</event>
<event>
 5    1  0.1147307E-008  0.3843887E+03  0.7957747E-01  0.3432269E+00
         13   -1    0    0    0    0  0.00000000000E+00  0.00000000000E+00  0.14999999963E+04  0.15000000000E+04  0.10566000000E+00 0. -1.
        994   -1    0    0    0    0 -0.00000000000E+00 -0.00000000000E+00  0.11368683772E-12  0.17120000000E+03  0.17120000000E+03 0.  0.
         13    1    1    2    0    0  0.27605105764E+01 -0.17130065217E+02  0.69621021476E+02  0.71750660961E+02  0.10566000000E+00 0. -1.
        994    1    1    2    0    0 -0.13806290216E+02  0.27673336853E+02  0.50918898806E+01  0.17404538076E+03  0.17120000000E+03 0.  0.
        998    1    1    2    0    0  0.11045779639E+02 -0.10543271636E+02  0.14252870849E+04  0.14254039583E+04  0.10000000000E+02 0. -1.
</event>
<event>
 5    1  0.1147307E-008  0.3849433E+03  0.7957747E-01  0.3429913E+00
         13   -1    0    0    0    0  0.00000000000E+00  0.00000000000E+00  0.14999999963E+04  0.15000000000E+04  0.10566000000E+00 0.  1.
        994   -1    0    0    0    0 -0.00000000000E+00 -0.00000000000E+00  0.11368683772E-12  0.17120000000E+03  0.17120000000E+03 0.  0.
         13    1    1    2    0    0 -0.60450872538E+01 -0.12780608703E+02  0.60101759612E+02  0.61742365611E+02  0.10566000000E+00 0.  1.
        994    1    1    2    0    0 -0.34677275459E+01  0.12488549978E+02  0.22110379493E+01  0.17170415750E+03  0.17120000000E+03 0.  0.
        998    1    1    2    0    0  0.95128147997E+01  0.29205872451E+00  0.14376871987E+04  0.14377534769E+04  0.10000000000E+02 0.  1.
</event>
<event>
 5    1  0.1147307E-008  0.3828222E+03  0.7957747E-01  0.3438961E+00
         13   -1    0    0    0    0  0.00000000000E+00  0.00000000000E+00  0.14999999963E+04  0.15000000000E+04  0.10566000000E+00 0. -1.
        994   -1    0    0    0    0 -0.00000000000E+00 -0.00000000000E+00  0.11368683772E-12  0.17120000000E+03  0.17120000000E+03 0.  0.
         13    1    1    2    0    0 -0.16711180676E+02 -0.41028049258E+01  0.51724016185E+02  0.54511297748E+02  0.10566000000E+00 0. -1.
        994    1    1    2    0    0  0.20296858042E+02 -0.50353300519E+00  0.40817063415E+01  0.17244801048E+03  0.17120000000E+03 0.  0.
        998    1    1    2    0    0 -0.35856773669E+01  0.46063379310E+01  0.14441942738E+04  0.14442406918E+04  0.10000000000E+02 0. -1.
</event>
<event>
 5    1  0.1147307E-008  0.3830478E+03  0.7957747E-01  0.3437994E+00
         13   -1    0    0    0    0  0.00000000000E+00  0.00000000000E+00  0.14999999963E+04  0.15000000000E+04  0.10566000000E+00 0. -1.
        994   -1    0    0    0    0 -0.00000000000E+00 -0.00000000000E+00  0.11368683772E-12  0.17120000000E+03  0.17120000000E+03 0.  0.
         13    1    1    2    0    0  0.14673987806E+02  0.10364551173E+02  0.56505749179E+02  0.59293007121E+02  0.10566000000E+00 0. -1.
        994    1    1    2    0    0 -0.23229845931E+02 -0.16802379693E+02  0.53275584714E+01  0.17366568050E+03  0.17120000000E+03 0.  0.
        998    1    1    2    0    0  0.85558581251E+01  0.64378285196E+01  0.14381666886E+04  0.14382413124E+04  0.10000000000E+02 0. -1.
</event>
<event>
 5    1  0.1147307E-008  0.3824827E+03  0.7957747E-01  0.3440419E+00
         13   -1    0    0    0    0  0.00000000000E+00  0.00000000000E+00  0.14999999963E+04  0.15000000000E+04  0.10566000000E+00 0.  1.
        994   -1    0    0    0    0 -0.00000000000E+00 -0.00000000000E+00  0.11368683772E-12  0.17120000000E+03  0.17120000000E+03 0.  0.
         13    1    1    2    0    0 -0.10707380358E+02 -0.12600929822E+02  0.45907286314E+02  0.48794687490E+02  0.10566000000E+00 0.  1.
        994    1    1    2    0    0  0.24018418274E+01  0.15985036874E+02  0.37519471219E+01  0.17200234695E+03  0.17120000000E+03 0.  0.
        998    1    1    2    0    0  0.83055385304E+01 -0.33841070522E+01  0.14503407628E+04  0.14504029656E+04  0.10000000000E+02 0.  1.
</event>
<event>
 5    1  0.1147307E-008  0.3860761E+03  0.7957747E-01  0.3425121E+00
         13   -1    0    0    0    0  0.00000000000E+00  0.00000000000E+00  0.14999999963E+04  0.15000000000E+04  0.10566000000E+00 0.  1.
        994   -1    0    0    0    0 -0.00000000000E+00 -0.00000000000E+00  0.11368683772E-12  0.17120000000E+03  0.17120000000E+03 0.  0.
         13    1    1    2    0    0 -0.59670248136E+02  0.93706486333E+01  0.92900112010E+02  0.11080969968E+03  0.10566000000E+00 0.  1.
        994    1    1    2    0    0  0.16892876160E+02  0.70868599690E+01  0.20950461406E+02  0.17344726773E+03  0.17120000000E+03 0.  0.
        998    1    1    2    0    0  0.42777371976E+02 -0.16457508602E+02  0.13861494229E+04  0.13869430326E+04  0.10000000000E+02 0.  1.
</event>
<event>
 5    1  0.1147307E-008  0.3772312E+03  0.7957747E-01  0.3463304E+00
         13   -1    0    0    0    0  0.00000000000E+00  0.00000000000E+00  0.14999999963E+04  0.15000000000E+04  0.10566000000E+00 0.  1.
        994   -1    0    0    0    0 -0.00000000000E+00 -0.00000000000E+00  0.11368683772E-12  0.17120000000E+03  0.17120000000E+03 0.  0.
         13    1    1    2    0    0 -0.30572393437E+01  0.11485680425E+02  0.10136894682E+02  0.15621631319E+02  0.10566000000E+00 0.  1.
        994    1    1    2    0    0  0.12901372644E+02 -0.11492554286E+02  0.65451927652E+01  0.17219408750E+03  0.17120000000E+03 0.  0.
        998    1    1    2    0    0 -0.98441333003E+01  0.68738608899E-02  0.14833179088E+04  0.14833842812E+04  0.10000000000E+02 0.  1.
</event>
<event>
 5    1  0.1147307E-008  0.3812669E+03  0.7957747E-01  0.3445661E+00
         13   -1    0    0    0    0  0.00000000000E+00  0.00000000000E+00  0.14999999963E+04  0.15000000000E+04  0.10566000000E+00 0.  1.
        994   -1    0    0    0    0 -0.00000000000E+00 -0.00000000000E+00  0.11368683772E-12  0.17120000000E+03  0.17120000000E+03 0.  0.
         13    1    1    2    0    0  0.46387700556E+02 -0.38393042571E+01  0.24701558649E+03  0.25136282572E+03  0.10566000000E+00 0.  1.
        994    1    1    2    0    0 -0.52330735208E+02  0.30626029570E+01  0.12697283772E+02  0.17949525453E+03  0.17120000000E+03 0.  0.
        998    1    1    2    0    0  0.59430346514E+01  0.77670130012E+00  0.12402871260E+04  0.12403419198E+04  0.10000000000E+02 0.  1.
</event>
<event>
 5    1  0.1147307E-008  0.3938596E+03  0.7957747E-01  0.3392945E+00
         13   -1    0    0    0    0  0.00000000000E+00  0.00000000000E+00  0.14999999963E+04  0.15000000000E+04  0.10566000000E+00 0. -1.
        994   -1    0    0    0    0 -0.00000000000E+00 -0.00000000000E+00  0.11368683772E-12  0.17120000000E+03  0.17120000000E+03 0.  0.
         13    1    1    2    0    0  0.53530787457E+02  0.76030862115E+02  0.15639368939E+03  0.18194843897E+03  0.10566000000E+00 0. -1.
        994    1    1    2    0    0 -0.52264962880E+02 -0.71512373848E+02  0.54795881673E+02  0.20039379882E+03  0.17120000000E+03 0.  0.
        998    1    1    2    0    0 -0.12658245769E+01 -0.45184882670E+01  0.12888104252E+04  0.12888577622E+04  0.10000000000E+02 0. -1.
</event>
<event>
 5    1  0.1147307E-008  0.3790227E+03  0.7957747E-01  0.3455425E+00
         13   -1    0    0    0    0  0.00000000000E+00  0.00000000000E+00  0.14999999963E+04  0.15000000000E+04  0.10566000000E+00 0. -1.
        994   -1    0    0    0    0 -0.00000000000E+00 -0.00000000000E+00  0.11368683772E-12  0.17120000000E+03  0.17120000000E+03 0.  0.
         13    1    1    2    0    0 -0.10887389082E+03  0.75870384171E+02  0.77943642736E+03  0.79065225906E+03  0.10566000000E+00 0. -1.
        994    1    1    2    0    0  0.11471939854E+03 -0.75201485206E+02  0.70563359168E+02  0.23044398763E+03  0.17120000000E+03 0.  0.
        998    1    1    2    0    0 -0.58455077197E+01 -0.66889896504E+00  0.65000020975E+03  0.65010375331E+03  0.10000000000E+02 0.  0.
</event>
<event>
 5    1  0.1147307E-008  0.3690347E+03  0.7957747E-01  0.3500339E+00
         13   -1    0    0    0    0  0.00000000000E+00  0.00000000000E+00  0.14999999963E+04  0.15000000000E+04  0.10566000000E+00 0.  1.
        994   -1    0    0    0    0 -0.00000000000E+00 -0.00000000000E+00  0.11368683772E-12  0.17120000000E+03  0.17120000000E+03 0.  0.
         13    1    1    2    0    0  0.42497471335E+02  0.53752155792E+01  0.77141953910E+02  0.88237295003E+02  0.10566000000E+00 0.  1.
        994    1    1    2    0    0 -0.63037950160E+02  0.72713487888E+02  0.43431367740E+02  0.20113865413E+03  0.17120000000E+03 0.  0.
        998    1    1    2    0    0  0.20540478826E+02 -0.78088703467E+02  0.13794266746E+04  0.13818240509E+04  0.10000000000E+02 0.  1.
</event>
<event>
 5    1  0.1147307E-008  0.2691104E+03  0.7957747E-01  0.4144636E+00
         13   -1    0    0    0    0  0.00000000000E+00  0.00000000000E+00  0.14999999963E+04  0.15000000000E+04  0.10566000000E+00 0. -1.
        994   -1    0    0    0    0 -0.00000000000E+00 -0.00000000000E+00  0.11368683772E-12  0.17120000000E+03  0.17120000000E+03 0.  0.
         13    1    1    2    0    0 -0.93962519720E+02 -0.17817569756E+03  0.62060681323E+03  0.65247862962E+03  0.10566000000E+00 0. -1.
        994    1    1    2    0    0  0.34827301379E+01  0.73757553144E+02  0.72534625847E+02  0.20005753673E+03  0.17120000000E+03 0.  0.
        998    1    1    2    0    0  0.90479789582E+02  0.10441814442E+03  0.80685855720E+03  0.81866383365E+03  0.10000000000E+02 0. -1.
</event>
<event>
 5    1  0.1147307E-008  0.3824389E+03  0.7957747E-01  0.3440607E+00
         13   -1    0    0    0    0  0.00000000000E+00  0.00000000000E+00  0.14999999963E+04  0.15000000000E+04  0.10566000000E+00 0.  1.
        994   -1    0    0    0    0 -0.00000000000E+00 -0.00000000000E+00  0.11368683772E-12  0.17120000000E+03  0.17120000000E+03 0.  0.
         13    1    1    2    0    0 -0.10235094956E+02  0.14286287760E+02  0.54367738935E+02  0.57137705482E+02  0.10566000000E+00 0.  1.
        994    1    1    2    0    0 -0.33602051918E+01 -0.53926233127E+01  0.30409479509E+01  0.17134485323E+03  0.17120000000E+03 0.  0.
        998    1    1    2    0    0  0.13595300148E+02 -0.88936644475E+01  0.14425913094E+04  0.14427174413E+04  0.10000000000E+02 0.  1.
</event>
<event>
 5    1  0.1147307E-008  0.3839850E+03  0.7957747E-01  0.3433988E+00
         13   -1    0    0    0    0  0.00000000000E+00  0.00000000000E+00  0.14999999963E+04  0.15000000000E+04  0.10566000000E+00 0. -1.
        994   -1    0    0    0    0 -0.00000000000E+00 -0.00000000000E+00  0.11368683772E-12  0.17120000000E+03  0.17120000000E+03 0.  0.
         13    1    1    2    0    0  0.11912498624E+02  0.44071188793E+01  0.36682700760E+02  0.38819608697E+02  0.10566000000E+00 0. -1.
        994    1    1    2    0    0 -0.14218277808E+02  0.34102345545E+01  0.28406090186E+01  0.17184672875E+03  0.17120000000E+03 0.  0.
        998    1    1    2    0    0  0.23057791839E+01 -0.78173534337E+01  0.14604766865E+04  0.14605336626E+04  0.10000000000E+02 0. -1.
</event>
<event>
 5    1  0.1147307E-008  0.3771226E+03  0.7957747E-01  0.3463784E+00
         13   -1    0    0    0    0  0.00000000000E+00  0.00000000000E+00  0.14999999963E+04  0.15000000000E+04  0.10566000000E+00 0. -1.
        994   -1    0    0    0    0 -0.00000000000E+00 -0.00000000000E+00  0.11368683772E-12  0.17120000000E+03  0.17120000000E+03 0.  0.
         13    1    1    2    0    0  0.14508166128E+02  0.16737550859E+02  0.40048683522E+02  0.45766152438E+02  0.10566000000E+00 0. -1.
        994    1    1    2    0    0 -0.12915886393E+02 -0.25055945749E+02  0.82792516694E+01  0.17370263828E+03  0.17120000000E+03 0.  0.
        998    1    1    2    0    0 -0.15922797346E+01  0.83183948904E+01  0.14516720611E+04  0.14517312093E+04  0.10000000000E+02 0. -1.
</event>
<event>
 5    1  0.1147307E-008  0.3784319E+03  0.7957747E-01  0.3458015E+00
         13   -1    0    0    0    0  0.00000000000E+00  0.00000000000E+00  0.14999999963E+04  0.15000000000E+04  0.10566000000E+00 0.  1.
        994   -1    0    0    0    0 -0.00000000000E+00 -0.00000000000E+00  0.11368683772E-12  0.17120000000E+03  0.17120000000E+03 0.  0.
         13    1    1    2    0    0 -0.45060382733E+02  0.11862243150E+02  0.25165379562E+03  0.25593123084E+03  0.10566000000E+00 0.  1.
        994    1    1    2    0    0 -0.33524112529E+00 -0.55927098114E+02  0.15510644507E+02  0.18077049755E+03  0.17120000000E+03 0.  0.
        998    1    1    2    0    0  0.45395623858E+02  0.44064854964E+02  0.12328355562E+04  0.12344982716E+04  0.10000000000E+02 0.  1.
</event>
<event>
 5    1  0.1147307E-008  0.3768777E+03  0.7957747E-01  0.3464867E+00
         13   -1    0    0    0    0  0.00000000000E+00  0.00000000000E+00  0.14999999963E+04  0.15000000000E+04  0.10566000000E+00 0.  1.
        994   -1    0    0    0    0 -0.00000000000E+00 -0.00000000000E+00  0.11368683772E-12  0.17120000000E+03  0.17120000000E+03 0.  0.
         13    1    1    2    0    0 -0.87784893533E+01 -0.23800571641E+02  0.59165537473E+02  0.64374692809E+02  0.10566000000E+00 0.  1.
        994    1    1    2    0    0 -0.20328445449E+02 -0.17090885429E+01  0.71246237463E+01  0.17255830012E+03  0.17120000000E+03 0.  0.
        998    1    1    2    0    0  0.29106934802E+02  0.25509660184E+02  0.14337098351E+04  0.14342670071E+04  0.10000000000E+02 0.  1.
</event>
<event>
 5    1  0.1147307E-008  0.3720015E+03  0.7957747E-01  0.3486743E+00
         13   -1    0    0    0    0  0.00000000000E+00  0.00000000000E+00  0.14999999963E+04  0.15000000000E+04  0.10566000000E+00 0. -1.
        994   -1    0    0    0    0 -0.00000000000E+00 -0.00000000000E+00  0.11368683772E-12  0.17120000000E+03  0.17120000000E+03 0.  0.
         13    1    1    2    0    0  0.63284632300E+02  0.79015428765E+02  0.45487786556E+03  0.46600672356E+03  0.10566000000E+00 0. -1.
        994    1    1    2    0    0 -0.96107951562E+02 -0.47998997348E+02  0.48962116797E+02  0.20796002256E+03  0.17120000000E+03 0.  0.
        998    1    1    2    0    0  0.32823319262E+02 -0.31016431418E+02  0.99616001393E+03  0.99723325388E+03  0.10000000000E+02 0. -1.
</event>
<event>
 5    1  0.1147307E-008  0.3737224E+03  0.7957747E-01  0.3478957E+00
         13   -1    0    0    0    0  0.00000000000E+00  0.00000000000E+00  0.14999999963E+04  0.15000000000E+04  0.10566000000E+00 0. -1.
        994   -1    0    0    0    0 -0.00000000000E+00 -0.00000000000E+00  0.11368683772E-12  0.17120000000E+03  0.17120000000E+03 0.  0.
         13    1    1    2    0    0 -0.22012692815E+02 -0.11672932148E+02  0.40633980103E+02  0.47664950361E+02  0.10566000000E+00 0. -1.
        994    1    1    2    0    0 -0.90700893807E+00  0.14024140514E+02  0.80108100545E+01  0.17196253156E+03  0.17120000000E+03 0.  0.
        998    1    1    2    0    0  0.22919701753E+02 -0.23512083663E+01  0.14513552061E+04  0.14515725181E+04  0.10000000000E+02 0. -1.
</event>
<event>
 5    1  0.1147307E-008  0.3728619E+03  0.7957747E-01  0.3482841E+00
         13   -1    0    0    0    0  0.00000000000E+00  0.00000000000E+00  0.14999999963E+04  0.15000000000E+04  0.10566000000E+00 0. -1.
        994   -1    0    0    0    0 -0.00000000000E+00 -0.00000000000E+00  0.11368683772E-12  0.17120000000E+03  0.17120000000E+03 0.  0.
         13    1    1    2    0    0  0.10100449077E+03  0.42934538036E+02  0.53035115365E+03  0.54158807138E+03  0.10566000000E+00 0. -1.
        994    1    1    2    0    0 -0.98869158549E+02 -0.28349788061E+02  0.44917646172E+02  0.20470919846E+03  0.17120000000E+03 0.  0.
        998    1    1    2    0    0 -0.21353322211E+01 -0.14584749975E+02  0.92473119645E+03  0.92490273017E+03  0.10000000000E+02 0. -1.
</event>
<event>
 5    1  0.1147307E-008  0.3848186E+03  0.7957747E-01  0.3430442E+00
         13   -1    0    0    0    0  0.00000000000E+00  0.00000000000E+00  0.14999999963E+04  0.15000000000E+04  0.10566000000E+00 0. -1.
        994   -1    0    0    0    0 -0.00000000000E+00 -0.00000000000E+00  0.11368683772E-12  0.17120000000E+03  0.17120000000E+03 0.  0.
         13    1    1    2    0    0 -0.50117320695E+01  0.18753749703E+02  0.10732598627E+03  0.10906740612E+03  0.10566000000E+00 0. -1.
        994    1    1    2    0    0  0.64099081531E+01 -0.13585477897E+02  0.24631082427E+01  0.17187541719E+03  0.17120000000E+03 0.  0.
        998    1    1    2    0    0 -0.13981760835E+01 -0.51682718065E+01  0.13902109018E+04  0.13902571767E+04  0.10000000000E+02 0. -1.
</event>
<event>
 5    1  0.1147307E-008  0.3788892E+03  0.7957747E-01  0.3456009E+00
         13   -1    0    0    0    0  0.00000000000E+00  0.00000000000E+00  0.14999999963E+04  0.15000000000E+04  0.10566000000E+00 0. -1.
        994   -1    0    0    0    0 -0.00000000000E+00 -0.00000000000E+00  0.11368683772E-12  0.17120000000E+03  0.17120000000E+03 0.  0.
         13    1    1    2    0    0  0.96764450970E+01  0.25565182043E+02  0.75553411691E+02  0.80346383271E+02  0.10566000000E+00 0. -1.
        994    1    1    2    0    0 -0.60785693950E+01 -0.23556209814E+02  0.66832018526E+01  0.17304897923E+03  0.17120000000E+03 0.  0.
        998    1    1    2    0    0 -0.35978757019E+01 -0.20089722289E+01  0.14177633827E+04  0.14178046375E+04  0.10000000000E+02 0. -1.
</event>
<event>
 5    1  0.1147307E-008  0.3737174E+03  0.7957747E-01  0.3478979E+00
         13   -1    0    0    0    0  0.00000000000E+00  0.00000000000E+00  0.14999999963E+04  0.15000000000E+04  0.10566000000E+00 0.  1.
        994   -1    0    0    0    0 -0.00000000000E+00 -0.00000000000E+00  0.11368683772E-12  0.17120000000E+03  0.17120000000E+03 0.  0.
         13    1    1    2    0    0 -0.31520171608E+02 -0.22948422640E+01  0.59854204028E+02  0.67685481627E+02  0.10566000000E+00 0.  1.
        994    1    1    2    0    0  0.45196948430E+02  0.20809313806E+02  0.15838658445E+02  0.17898629777E+03  0.17120000000E+03 0.  0.
        998    1    1    2    0    0 -0.13676776822E+02 -0.18514471542E+02  0.14243071338E+04  0.14245282206E+04  0.10000000000E+02 0.  1.
</event>
<event>
 5    1  0.1147307E-008  0.3687248E+03  0.7957747E-01  0.3501772E+00
         13   -1    0    0    0    0  0.00000000000E+00  0.00000000000E+00  0.14999999963E+04  0.15000000000E+04  0.10566000000E+00 0. -1.
        994   -1    0    0    0    0 -0.00000000000E+00 -0.00000000000E+00  0.11368683772E-12  0.17120000000E+03  0.17120000000E+03 0.  0.
         13    1    1    2    0    0 -0.92474470212E+01  0.45459445412E+02  0.10709276713E+03  0.11670881882E+03  0.10566000000E+00 0. -1.
        994    1    1    2    0    0  0.89774423702E+01 -0.22042488246E+02  0.11906906614E+02  0.17325611154E+03  0.17120000000E+03 0.  0.
        998    1    1    2    0    0  0.27000465101E+00 -0.23416957166E+02  0.13810003225E+04  0.13812350696E+04  0.10000000000E+02 0. -1.
</event>
<event>
 5    1  0.1147307E-008  0.3765120E+03  0.7957747E-01  0.3466488E+00
         13   -1    0    0    0    0  0.00000000000E+00  0.00000000000E+00  0.14999999963E+04  0.15000000000E+04  0.10566000000E+00 0.  1.
        994   -1    0    0    0    0 -0.00000000000E+00 -0.00000000000E+00  0.11368683772E-12  0.17120000000E+03  0.17120000000E+03 0.  0.
         13    1    1    2    0    0 -0.65067238752E+02  0.12583109963E+03  0.62166544949E+03  0.63760109273E+03  0.10566000000E+00 0.  1.
        994    1    1    2    0    0  0.68208739856E+02 -0.15609217839E+03  0.11134403055E+03  0.26594009379E+03  0.17120000000E+03 0.  0.
        998    1    1    2    0    0 -0.31415011037E+01  0.30261078757E+02  0.76699051624E+03  0.76765881348E+03  0.10000000000E+02 0.  1.
</event>
<event>
 5    1  0.1147307E-008  0.3840913E+03  0.7957747E-01  0.3433535E+00
         13   -1    0    0    0    0  0.00000000000E+00  0.00000000000E+00  0.14999999963E+04  0.15000000000E+04  0.10566000000E+00 0. -1.
        994   -1    0    0    0    0 -0.00000000000E+00 -0.00000000000E+00  0.11368683772E-12  0.17120000000E+03  0.17120000000E+03 0.  0.
         13    1    1    2    0    0 -0.18307277894E+02  0.54526576325E+01  0.87533668385E+02  0.89593761859E+02  0.10566000000E+00 0. -1.
        994    1    1    2    0    0  0.11530911768E+02 -0.21168312115E+01  0.25354526087E+01  0.17161967084E+03  0.17120000000E+03 0.  0.
        998    1    1    2    0    0  0.67763661261E+01 -0.33358264210E+01  0.14099308753E+04  0.14099865673E+04  0.10000000000E+02 0. -1.
</event>
<event>
 5    1  0.1147307E-008  0.3855374E+03  0.7957747E-01  0.3427396E+00
         13   -1    0    0    0    0  0.00000000000E+00  0.00000000000E+00  0.14999999963E+04  0.15000000000E+04  0.10566000000E+00 0.  1.
        994   -1    0    0    0    0 -0.00000000000E+00 -0.00000000000E+00  0.11368683772E-12  0.17120000000E+03  0.17120000000E+03 0.  0.
         13    1    1    2    0    0 -0.72193015455E+01 -0.91615977220E+01  0.48701572569E+02  0.50079012793E+02  0.10566000000E+00 0.  1.
        994    1    1    2    0    0  0.70805869797E+01  0.10572193623E+02  0.18952930203E+01  0.17168266693E+03  0.17120000000E+03 0.  0.
        998    1    1    2    0    0  0.13871456582E+00 -0.14105959009E+01  0.14494031307E+04  0.14494383203E+04  0.10000000000E+02 0.  1.
</event>
<event>
 5    1  0.1147307E-008  0.3696206E+03  0.7957747E-01  0.3497636E+00
         13   -1    0    0    0    0  0.00000000000E+00  0.00000000000E+00  0.14999999963E+04  0.15000000000E+04  0.10566000000E+00 0. -1.
        994   -1    0    0    0    0 -0.00000000000E+00 -0.00000000000E+00  0.11368683772E-12  0.17120000000E+03  0.17120000000E+03 0.  0.
         13    1    1    2    0    0 -0.13686094413E+03  0.21267366500E+02  0.51931079057E+03  0.53746341947E+03  0.10566000000E+00 0. -1.
        994    1    1    2    0    0  0.14080360136E+03 -0.33024625419E+02  0.87785380352E+02  0.24069065840E+03  0.17120000000E+03 0.  0.
        998    1    1    2    0    0 -0.39426572224E+01  0.11757258919E+02  0.89290382536E+03  0.89304592212E+03  0.10000000000E+02 0.  0.
</event>
<event>
 5    1  0.1147307E-008  0.3786184E+03  0.7957747E-01  0.3457196E+00
         13   -1    0    0    0    0  0.00000000000E+00  0.00000000000E+00  0.14999999963E+04  0.15000000000E+04  0.10566000000E+00 0.  1.
        994   -1    0    0    0    0 -0.00000000000E+00 -0.00000000000E+00  0.11368683772E-12  0.17120000000E+03  0.17120000000E+03 0.  0.
         13    1    1    2    0    0 -0.73614060888E+01  0.18357794937E+02  0.39460251039E+02  0.44139795091E+02  0.10566000000E+00 0.  1.
        994    1    1    2    0    0  0.39051840682E+01 -0.51135071948E+01  0.49712201384E+01  0.17139297374E+03  0.17120000000E+03 0.  0.
        998    1    1    2    0    0  0.34562220206E+01 -0.13244287743E+02  0.14555685251E+04  0.14556672312E+04  0.10000000000E+02 0.  1.
</event>
<event>
 5    1  0.1147307E-008  0.3763658E+03  0.7957747E-01  0.3467137E+00
         13   -1    0    0    0    0  0.00000000000E+00  0.00000000000E+00  0.14999999963E+04  0.15000000000E+04  0.10566000000E+00 0.  1.
        994   -1    0    0    0    0 -0.00000000000E+00 -0.00000000000E+00  0.11368683772E-12  0.17120000000E+03  0.17120000000E+03 0.  0.
         13    1    1    2    0    0  0.39195902525E+02  0.36362883320E+02  0.22501895262E+03  0.23128363163E+03  0.10566000000E+00 0.  1.
        994    1    1    2    0    0 -0.35312091184E+02 -0.18833599913E+02  0.11417635976E+02  0.17618584132E+03  0.17120000000E+03 0.  0.
        998    1    1    2    0    0 -0.38838113409E+01 -0.17529283407E+02  0.12635634077E+04  0.12637305270E+04  0.10000000000E+02 0.  1.
</event>
<event>
 5    1  0.1147307E-008  0.3800517E+03  0.7957747E-01  0.3450933E+00
         13   -1    0    0    0    0  0.00000000000E+00  0.00000000000E+00  0.14999999963E+04  0.15000000000E+04  0.10566000000E+00 0.  1.
        994   -1    0    0    0    0 -0.00000000000E+00 -0.00000000000E+00  0.11368683772E-12  0.17120000000E+03  0.17120000000E+03 0.  0.
         13    1    1    2    0    0 -0.13941760642E+02  0.12368721859E+02  0.40242683413E+02  0.44349100358E+02  0.10566000000E+00 0.  1.
        994    1    1    2    0    0  0.91756573292E+01 -0.13495503513E+02  0.49976766095E+01  0.17204865031E+03  0.17120000000E+03 0.  0.
        998    1    1    2    0    0  0.47661033127E+01  0.11267816540E+01  0.14547596363E+04  0.14548022493E+04  0.10000000000E+02 0.  1.
</event>
<event>
 5    1  0.1147307E-008  0.3687577E+03  0.7957747E-01  0.3501620E+00
         13   -1    0    0    0    0  0.00000000000E+00  0.00000000000E+00  0.14999999963E+04  0.15000000000E+04  0.10566000000E+00 0.  1.
        994   -1    0    0    0    0 -0.00000000000E+00 -0.00000000000E+00  0.11368683772E-12  0.17120000000E+03  0.17120000000E+03 0.  0.
         13    1    1    2    0    0 -0.60437273796E+02 -0.44970120632E+02  0.36143240170E+03  0.36919963161E+03  0.10566000000E+00 0.  1.
        994    1    1    2    0    0  0.60892529512E+01  0.66904790282E+00  0.10414084431E+02  0.17162581327E+03  0.17120000000E+03 0.  0.
        998    1    1    2    0    0  0.54348020844E+02  0.44301072729E+02  0.11281535101E+04  0.11303745551E+04  0.10000000000E+02 0.  1.
</event>
<event>
 5    1  0.1147307E-008  0.3741095E+03  0.7957747E-01  0.3477215E+00
         13   -1    0    0    0    0  0.00000000000E+00  0.00000000000E+00  0.14999999963E+04  0.15000000000E+04  0.10566000000E+00 0.  1.
        994   -1    0    0    0    0 -0.00000000000E+00 -0.00000000000E+00  0.11368683772E-12  0.17120000000E+03  0.17120000000E+03 0.  0.
         13    1    1    2    0    0 -0.49407457783E+01  0.43131052571E+02  0.13210151477E+03  0.13905222053E+03  0.10566000000E+00 0.  1.
        994    1    1    2    0    0 -0.16392357977E+01 -0.22306370195E+02  0.88441854154E+01  0.17288123340E+03  0.17120000000E+03 0.  0.
        998    1    1    2    0    0  0.65799815760E+01 -0.20824682376E+02  0.13590542961E+04  0.13592665461E+04  0.10000000000E+02 0.  1.
</event>
<event>
 5    1  0.1147307E-008  0.3749185E+03  0.7957747E-01  0.3473587E+00
         13   -1    0    0    0    0  0.00000000000E+00  0.00000000000E+00  0.14999999963E+04  0.15000000000E+04  0.10566000000E+00 0.  1.
        994   -1    0    0    0    0 -0.00000000000E+00 -0.00000000000E+00  0.11368683772E-12  0.17120000000E+03  0.17120000000E+03 0.  0.
         13    1    1    2    0    0  0.19929881110E+02  0.25562185154E+02  0.33156997686E+02  0.46368341899E+02  0.10566000000E+00 0.  1.
        994    1    1    2    0    0 -0.21137942595E+02 -0.15679713469E+02  0.16031430200E+02  0.17395146675E+03  0.17120000000E+03 0.  0.
        998    1    1    2    0    0  0.12080614845E+01 -0.98824716850E+01  0.14508115684E+04  0.14508801913E+04  0.10000000000E+02 0.  1.
</event>
<event>
 5    1  0.1147307E-008  0.3839536E+03  0.7957747E-01  0.3434122E+00
         13   -1    0    0    0    0  0.00000000000E+00  0.00000000000E+00  0.14999999963E+04  0.15000000000E+04  0.10566000000E+00 0.  1.
        994   -1    0    0    0    0 -0.00000000000E+00 -0.00000000000E+00  0.11368683772E-12  0.17120000000E+03  0.17120000000E+03 0.  0.
         13    1    1    2    0    0  0.18406466723E+02  0.81224020545E+01  0.89047611468E+02  0.91292166721E+02  0.10566000000E+00 0.  1.
        994    1    1    2    0    0 -0.19813499821E+02 -0.60600552809E+01  0.35684449480E+01  0.17248615262E+03  0.17120000000E+03 0.  0.
        998    1    1    2    0    0  0.14070330981E+01 -0.20623467736E+01  0.14073839399E+04  0.14074216807E+04  0.10000000000E+02 0.  1.
</event>
<event>
 5    1  0.1147307E-008  0.3797097E+03  0.7957747E-01  0.3452424E+00
         13   -1    0    0    0    0  0.00000000000E+00  0.00000000000E+00  0.14999999963E+04  0.15000000000E+04  0.10566000000E+00 0. -1.
        994   -1    0    0    0    0 -0.00000000000E+00 -0.00000000000E+00  0.11368683772E-12  0.17120000000E+03  0.17120000000E+03 0.  0.
         13    1    1    2    0    0  0.21308088328E+02  0.97741973350E+01  0.62804779313E+02  0.67037459904E+02  0.10566000000E+00 0. -1.
        994    1    1    2    0    0 -0.10746782403E+02 -0.10950025853E+02  0.50678203805E+01  0.17196080717E+03  0.17120000000E+03 0.  0.
        998    1    1    2    0    0 -0.10561305925E+02  0.11758285183E+01  0.14321273966E+04  0.14322017329E+04  0.10000000000E+02 0. -1.
</event>
<event>
 5    1  0.1147307E-008  0.3847282E+03  0.7957747E-01  0.3430826E+00
         13   -1    0    0    0    0  0.00000000000E+00  0.00000000000E+00  0.14999999963E+04  0.15000000000E+04  0.10566000000E+00 0.  1.
        994   -1    0    0    0    0 -0.00000000000E+00 -0.00000000000E+00  0.11368683772E-12  0.17120000000E+03  0.17120000000E+03 0.  0.
         13    1    1    2    0    0 -0.11011139974E+02 -0.37042217904E+01  0.37818582459E+02  0.39562896834E+02  0.10566000000E+00 0.  1.
        994    1    1    2    0    0  0.70355259557E+01  0.63687894188E+01  0.20616154173E+01  0.17147521792E+03  0.17120000000E+03 0.  0.
        998    1    1    2    0    0  0.39756140182E+01 -0.26645676284E+01  0.14601197984E+04  0.14601618852E+04  0.10000000000E+02 0.  1.
</event>
<event>
 5    1  0.1147307E-008  0.3790731E+03  0.7957747E-01  0.3455204E+00
         13   -1    0    0    0    0  0.00000000000E+00  0.00000000000E+00  0.14999999963E+04  0.15000000000E+04  0.10566000000E+00 0. -1.
        994   -1    0    0    0    0 -0.00000000000E+00 -0.00000000000E+00  0.11368683772E-12  0.17120000000E+03  0.17120000000E+03 0.  0.
         13    1    1    2    0    0  0.15511288508E+01  0.53288202726E+02  0.25850808576E+03  0.26394787387E+03  0.10566000000E+00 0. -1.
        994    1    1    2    0    0  0.20650911513E+02 -0.53603173416E+02  0.15747142582E+02  0.18126547616E+03  0.17120000000E+03 0.  0.
        998    1    1    2    0    0 -0.22202040364E+02  0.31497068999E+00  0.12257447679E+04  0.12259866500E+04  0.10000000000E+02 0. -1.
</event>
<event>
 5    1  0.1147307E-008  0.3775677E+03  0.7957747E-01  0.3461818E+00
         13   -1    0    0    0    0  0.00000000000E+00  0.00000000000E+00  0.14999999963E+04  0.15000000000E+04  0.10566000000E+00 0.  1.
        994   -1    0    0    0    0 -0.00000000000E+00 -0.00000000000E+00  0.11368683772E-12  0.17120000000E+03  0.17120000000E+03 0.  0.
         13    1    1    2    0    0 -0.18529306823E+02 -0.80354096139E+01  0.35189182540E+02  0.40573300961E+02  0.10566000000E+00 0.  1.
        994    1    1    2    0    0  0.20014577399E+02  0.37915927360E+01  0.67656941767E+01  0.17254035499E+03  0.17120000000E+03 0.  0.
        998    1    1    2    0    0 -0.14852705764E+01  0.42438168779E+01  0.14580451196E+04  0.14580863440E+04  0.10000000000E+02 0.  1.
</event>
<event>
 5    1  0.1147307E-008  0.3734681E+03  0.7957747E-01  0.3480102E+00
         13   -1    0    0    0    0  0.00000000000E+00  0.00000000000E+00  0.14999999963E+04  0.15000000000E+04  0.10566000000E+00 0.  1.
        994   -1    0    0    0    0 -0.00000000000E+00 -0.00000000000E+00  0.11368683772E-12  0.17120000000E+03  0.17120000000E+03 0.  0.
         13    1    1    2    0    0 -0.38915699004E+01 -0.69463835888E+02  0.32132705579E+03  0.32877265208E+03  0.10566000000E+00 0.  1.
        994    1    1    2    0    0 -0.59649167668E+01  0.40433562454E+02  0.13196726951E+02  0.17650509003E+03  0.17120000000E+03 0.  0.
        998    1    1    2    0    0  0.98564866671E+01  0.29030273434E+02  0.11654762135E+04  0.11659222579E+04  0.10000000000E+02 0.  1.
</event>
<event>
 5    1  0.1147307E-008  0.3845483E+03  0.7957747E-01  0.3431590E+00
         13   -1    0    0    0    0  0.00000000000E+00  0.00000000000E+00  0.14999999963E+04  0.15000000000E+04  0.10566000000E+00 0. -1.
        994   -1    0    0    0    0 -0.00000000000E+00 -0.00000000000E+00  0.11368683772E-12  0.17120000000E+03  0.17120000000E+03 0.  0.
         13    1    1    2    0    0 -0.59078062284E+00 -0.15082600676E+02  0.68239181283E+02  0.69888703601E+02  0.10566000000E+00 0. -1.
        994    1    1    2    0    0 -0.17397698538E+02 -0.65249283313E+01  0.29924903206E+01  0.17223138391E+03  0.17120000000E+03 0.  0.
        998    1    1    2    0    0  0.17988479161E+02  0.21607529007E+02  0.14287683247E+04  0.14290799125E+04  0.10000000000E+02 0. -1.
</event>
<event>
 5    1  0.1147307E-008  0.3844959E+03  0.7957747E-01  0.3431813E+00
         13   -1    0    0    0    0  0.00000000000E+00  0.00000000000E+00  0.14999999963E+04  0.15000000000E+04  0.10566000000E+00 0.  1.
        994   -1    0    0    0    0 -0.00000000000E+00 -0.00000000000E+00  0.11368683772E-12  0.17120000000E+03  0.17120000000E+03 0.  0.
         13    1    1    2    0    0  0.33406623131E+01 -0.13400177788E+02  0.48626402807E+02  0.50549609330E+02  0.10566000000E+00 0.  1.
        994    1    1    2    0    0 -0.10751697146E+02  0.14141716248E+02  0.29208761166E+01  0.17214400555E+03  0.17120000000E+03 0.  0.
        998    1    1    2    0    0  0.74110348330E+01 -0.74153846004E+00  0.14484527174E+04  0.14485063851E+04  0.10000000000E+02 0.  1.
</event>
<event>
 5    1  0.1147307E-008  0.3811393E+03  0.7957747E-01  0.3446213E+00
         13   -1    0    0    0    0  0.00000000000E+00  0.00000000000E+00  0.14999999963E+04  0.15000000000E+04  0.10566000000E+00 0.  1.
        994   -1    0    0    0    0 -0.00000000000E+00 -0.00000000000E+00  0.11368683772E-12  0.17120000000E+03  0.17120000000E+03 0.  0.
         13    1    1    2    0    0  0.32437600199E+01  0.11767558130E+02  0.18809666926E+02  0.22423472909E+02  0.10566000000E+00 0.  1.
        994    1    1    2    0    0 -0.12833928889E+02 -0.18362918228E+02  0.52324616730E+01  0.17273889299E+03  0.17120000000E+03 0.  0.
        998    1    1    2    0    0  0.95901688687E+01  0.65953600978E+01  0.14759578677E+04  0.14760376341E+04  0.10000000000E+02 0.  1.
</event>
<event>
 5    1  0.1147307E-008  0.3809263E+03  0.7957747E-01  0.3447135E+00
         13   -1    0    0    0    0  0.00000000000E+00  0.00000000000E+00  0.14999999963E+04  0.15000000000E+04  0.10566000000E+00 0. -1.
        994   -1    0    0    0    0 -0.00000000000E+00 -0.00000000000E+00  0.11368683772E-12  0.17120000000E+03  0.17120000000E+03 0.  0.
         13    1    1    2    0    0 -0.10729252747E+02 -0.37408370304E+02  0.17201061294E+03  0.17635805953E+03  0.10566000000E+00 0. -1.
        994    1    1    2    0    0  0.20394360258E+02  0.44129635714E+02  0.11583130214E+02  0.17834506885E+03  0.17120000000E+03 0.  0.
        998    1    1    2    0    0 -0.96651075116E+01 -0.67212654097E+01  0.13164062531E+04  0.13164968716E+04  0.10000000000E+02 0. -1.
</event>
<event>
 5    1  0.1147307E-008  0.3818336E+03  0.7957747E-01  0.3443213E+00
         13   -1    0    0    0    0  0.00000000000E+00  0.00000000000E+00  0.14999999963E+04  0.15000000000E+04  0.10566000000E+00 0.  1.
        994   -1    0    0    0    0 -0.00000000000E+00 -0.00000000000E+00  0.11368683772E-12  0.17120000000E+03  0.17120000000E+03 0.  0.
         13    1    1    2    0    0  0.21940654308E+03  0.46326916316E+02  0.10858672029E+04  0.11087799637E+04  0.10566000000E+00 0.  1.
        994    1    1    2    0    0 -0.22099680152E+03 -0.64095795565E+02  0.20559856398E+03  0.35288534512E+03  0.17120000000E+03 0.  0.
        998    1    1    2    0    0  0.15902584438E+01  0.17768879249E+02  0.20853422938E+03  0.20953469120E+03  0.10000000000E+02 0. -1.
</event>
<event>
 5    1  0.1147307E-008  0.3857490E+03  0.7957747E-01  0.3426502E+00
         13   -1    0    0    0    0  0.00000000000E+00  0.00000000000E+00  0.14999999963E+04  0.15000000000E+04  0.10566000000E+00 0. -1.
        994   -1    0    0    0    0 -0.00000000000E+00 -0.00000000000E+00  0.11368683772E-12  0.17120000000E+03  0.17120000000E+03 0.  0.
         13    1    1    2    0    0  0.11342994170E+02 -0.75128803389E+01  0.71080128396E+02  0.72370592816E+02  0.10566000000E+00 0. -1.
        994    1    1    2    0    0 -0.13554391507E+02  0.60038155971E+01  0.19800643460E+01  0.17185205261E+03  0.17120000000E+03 0.  0.
        998    1    1    2    0    0  0.22113973376E+01  0.15090647418E+01  0.14269398035E+04  0.14269773546E+04  0.10000000000E+02 0. -1.
</event>
<event>
 5    1  0.1147307E-008  0.3771939E+03  0.7957747E-01  0.3463468E+00
         13   -1    0    0    0    0  0.00000000000E+00  0.00000000000E+00  0.14999999963E+04  0.15000000000E+04  0.10566000000E+00 0.  1.
        994   -1    0    0    0    0 -0.00000000000E+00 -0.00000000000E+00  0.11368683772E-12  0.17120000000E+03  0.17120000000E+03 0.  0.
         13    1    1    2    0    0  0.19692448574E+01  0.11217957316E+02  0.95005052210E+01  0.14832102182E+02  0.10566000000E+00 0.  1.
        994    1    1    2    0    0  0.73006131451E+01  0.64124789431E+01  0.58750351567E+01  0.17157614892E+03  0.17120000000E+03 0.  0.
        998    1    1    2    0    0 -0.92698580024E+01 -0.17630436259E+02  0.14846244559E+04  0.14847917489E+04  0.10000000000E+02 0.  1.
</event>
<event>
 5    1  0.1147307E-008  0.3818790E+03  0.7957747E-01  0.3443018E+00
         13   -1    0    0    0    0  0.00000000000E+00  0.00000000000E+00  0.14999999963E+04  0.15000000000E+04  0.10566000000E+00 0. -1.
        994   -1    0    0    0    0 -0.00000000000E+00 -0.00000000000E+00  0.11368683772E-12  0.17120000000E+03  0.17120000000E+03 0.  0.
         13    1    1    2    0    0  0.19706512609E+02 -0.30098043665E+02  0.15842791722E+03  0.16246124150E+03  0.10566000000E+00 0. -1.
        994    1    1    2    0    0 -0.47836962561E+01  0.64888083788E+02  0.17381938560E+02  0.18396988600E+03  0.17120000000E+03 0.  0.
        998    1    1    2    0    0 -0.14922816352E+02 -0.34790040123E+02  0.13241901405E+04  0.13247688725E+04  0.10000000000E+02 0. -1.
</event>
<event>
 5    1  0.1147307E-008  0.3749289E+03  0.7957747E-01  0.3473541E+00
         13   -1    0    0    0    0  0.00000000000E+00  0.00000000000E+00  0.14999999963E+04  0.15000000000E+04  0.10566000000E+00 0.  1.
        994   -1    0    0    0    0 -0.00000000000E+00 -0.00000000000E+00  0.11368683772E-12  0.17120000000E+03  0.17120000000E+03 0.  0.
         13    1    1    2    0    0  0.43769859103E+02 -0.44681900618E+02  0.36696870610E+03  0.37226108476E+03  0.10566000000E+00 0.  1.
        994    1    1    2    0    0  0.11402154650E+01  0.13937392953E+02  0.73803685647E+01  0.17192865047E+03  0.17120000000E+03 0.  0.
        998    1    1    2    0    0 -0.44910074568E+02  0.30744507665E+02  0.11256509216E+04  0.11270102648E+04  0.10000000000E+02 0.  1.
</event>
<event>
 5    1  0.1147307E-008  0.3807535E+03  0.7957747E-01  0.3447884E+00
         13   -1    0    0    0    0  0.00000000000E+00  0.00000000000E+00  0.14999999963E+04  0.15000000000E+04  0.10566000000E+00 0. -1.
        994   -1    0    0    0    0 -0.00000000000E+00 -0.00000000000E+00  0.11368683772E-12  0.17120000000E+03  0.17120000000E+03 0.  0.
         13    1    1    2    0    0  0.21438419959E+02  0.84182182732E+01  0.71077083563E+02  0.74715695949E+02  0.10566000000E+00 0. -1.
        994    1    1    2    0    0 -0.34014303757E+01 -0.16807273171E+02  0.47344151322E+01  0.17212178493E+03  0.17120000000E+03 0.  0.
        998    1    1    2    0    0 -0.18036989583E+02  0.83890548983E+01  0.14241884976E+04  0.14243625191E+04  0.10000000000E+02 0. -1.
</event>
<event>
 5    1  0.1147307E-008  0.3840312E+03  0.7957747E-01  0.3433791E+00
         13   -1    0    0    0    0  0.00000000000E+00  0.00000000000E+00  0.14999999963E+04  0.15000000000E+04  0.10566000000E+00 0.  1.
        994   -1    0    0    0    0 -0.00000000000E+00 -0.00000000000E+00  0.11368683772E-12  0.17120000000E+03  0.17120000000E+03 0.  0.
         13    1    1    2    0    0  0.11518671178E+02  0.27850233182E+01  0.31869394002E+02  0.34001552592E+02  0.10566000000E+00 0.  1.
        994    1    1    2    0    0 -0.13559709453E+02 -0.49405796758E+01  0.27992896074E+01  0.17183000632E+03  0.17120000000E+03 0.  0.
        998    1    1    2    0    0  0.20410382746E+01  0.21555563576E+01  0.14653313127E+04  0.14653684411E+04  0.10000000000E+02 0.  1.
</event>
<event>
 5    1  0.1147307E-008  0.3803136E+03  0.7957747E-01  0.3449794E+00
         13   -1    0    0    0    0  0.00000000000E+00  0.00000000000E+00  0.14999999963E+04  0.15000000000E+04  0.10566000000E+00 0.  1.
        994   -1    0    0    0    0 -0.00000000000E+00 -0.00000000000E+00  0.11368683772E-12  0.17120000000E+03  0.17120000000E+03 0.  0.
         13    1    1    2    0    0  0.27140428138E+02 -0.90476255082E+01  0.98211316591E+02  0.10229338316E+03  0.10566000000E+00 0.  1.
        994    1    1    2    0    0 -0.22488886565E+02  0.83331283917E+01  0.58981213307E+01  0.17297230669E+03  0.17120000000E+03 0.  0.
        998    1    1    2    0    0 -0.46515415733E+01  0.71449711653E+00  0.13958905584E+04  0.13959343102E+04  0.10000000000E+02 0.  1.
</event>
<event>
 5    1  0.1147307E-008  0.3732334E+03  0.7957747E-01  0.3481161E+00
         13   -1    0    0    0    0  0.00000000000E+00  0.00000000000E+00  0.14999999963E+04  0.15000000000E+04  0.10566000000E+00 0. -1.
        994   -1    0    0    0    0 -0.00000000000E+00 -0.00000000000E+00  0.11368683772E-12  0.17120000000E+03  0.17120000000E+03 0.  0.
         13    1    1    2    0    0  0.24351185457E+02  0.76709276196E+02  0.21446757776E+03  0.22907126918E+03  0.10566000000E+00 0. -1.
        994    1    1    2    0    0 -0.44810209510E+02 -0.71601257064E+02  0.38336803461E+02  0.19471477959E+03  0.17120000000E+03 0.  0.
        998    1    1    2    0    0  0.20459024054E+02 -0.51080191317E+01  0.12471956151E+04  0.12474139512E+04  0.10000000000E+02 0. -1.
</event>
<event>
 5    1  0.1147307E-008  0.3751167E+03  0.7957747E-01  0.3472701E+00
         13   -1    0    0    0    0  0.00000000000E+00  0.00000000000E+00  0.14999999963E+04  0.15000000000E+04  0.10566000000E+00 0. -1.
        994   -1    0    0    0    0 -0.00000000000E+00 -0.00000000000E+00  0.11368683772E-12  0.17120000000E+03  0.17120000000E+03 0.  0.
         13    1    1    2    0    0 -0.75764690085E+02 -0.69361152834E+02  0.46992769163E+03  0.48102318479E+03  0.10566000000E+00 0. -1.
        994    1    1    2    0    0  0.85197815874E+02  0.76926993182E+02  0.52796880006E+02  0.21277542304E+03  0.17120000000E+03 0.  0.
        998    1    1    2    0    0 -0.94331257894E+01 -0.75658403481E+01  0.97727542465E+03  0.97740139217E+03  0.10000000000E+02 0. -1.
</event>
<event>
 5    1  0.1147307E-008  0.3796554E+03  0.7957747E-01  0.3452660E+00
         13   -1    0    0    0    0  0.00000000000E+00  0.00000000000E+00  0.14999999963E+04  0.15000000000E+04  0.10566000000E+00 0.  1.
        994   -1    0    0    0    0 -0.00000000000E+00 -0.00000000000E+00  0.11368683772E-12  0.17120000000E+03  0.17120000000E+03 0.  0.
         13    1    1    2    0    0 -0.40481308056E+02 -0.13937056570E+02  0.22078560434E+03  0.22489835948E+03  0.10566000000E+00 0.  1.
        994    1    1    2    0    0  0.14728320057E+02  0.15867206475E+02  0.58773428376E+01  0.17266347272E+03  0.17120000000E+03 0.  0.
        998    1    1    2    0    0  0.25752988000E+02 -0.19301499046E+01  0.12733370491E+04  0.12736381678E+04  0.10000000000E+02 0.  1.
</event>
<event>
 5    1  0.1147307E-008  0.3764910E+03  0.7957747E-01  0.3466581E+00
         13   -1    0    0    0    0  0.00000000000E+00  0.00000000000E+00  0.14999999963E+04  0.15000000000E+04  0.10566000000E+00 0. -1.
        994   -1    0    0    0    0 -0.00000000000E+00 -0.00000000000E+00  0.11368683772E-12  0.17120000000E+03  0.17120000000E+03 0.  0.
         13    1    1    2    0    0  0.82086173460E+02 -0.31847775342E+02  0.46012369928E+03  0.46847225155E+03  0.10566000000E+00 0. -1.
        994    1    1    2    0    0 -0.80002241312E+02  0.30743670528E+02  0.31177735117E+02  0.19397686218E+03  0.17120000000E+03 0.  0.
        998    1    1    2    0    0 -0.20839321479E+01  0.11041048143E+01  0.10086985619E+04  0.10087508863E+04  0.10000000000E+02 0.  0.
</event>
<event>
 5    1  0.1147307E-008  0.3827083E+03  0.7957747E-01  0.3439450E+00
         13   -1    0    0    0    0  0.00000000000E+00  0.00000000000E+00  0.14999999963E+04  0.15000000000E+04  0.10566000000E+00 0. -1.
        994   -1    0    0    0    0 -0.00000000000E+00 -0.00000000000E+00  0.11368683772E-12  0.17120000000E+03  0.17120000000E+03 0.  0.
         13    1    1    2    0    0 -0.14502645116E+02 -0.70006653906E+00  0.37200431346E+02  0.39933695858E+02  0.10566000000E+00 0. -1.
        994    1    1    2    0    0  0.91135716168E+01 -0.76156837955E+00  0.30494024249E+01  0.17147121050E+03  0.17120000000E+03 0.  0.
        998    1    1    2    0    0  0.53890734991E+01  0.14616349186E+01  0.14597501625E+04  0.14597950936E+04  0.10000000000E+02 0. -1.
</event>
<event>
 5    1  0.1147307E-008  0.3854997E+03  0.7957747E-01  0.3427556E+00
         13   -1    0    0    0    0  0.00000000000E+00  0.00000000000E+00  0.14999999963E+04  0.15000000000E+04  0.10566000000E+00 0.  1.
        994   -1    0    0    0    0 -0.00000000000E+00 -0.00000000000E+00  0.11368683772E-12  0.17120000000E+03  0.17120000000E+03 0.  0.
         13    1    1    2    0    0  0.71339065652E+01 -0.13810040384E+02  0.85503430936E+02  0.86904877333E+02  0.10566000000E+00 0.  1.
        994    1    1    2    0    0 -0.83785108034E+01  0.10911076474E+02  0.20038831209E+01  0.17176351935E+03  0.17120000000E+03 0.  0.
        998    1    1    2    0    0  0.12446042382E+01  0.28989639095E+01  0.14124926822E+04  0.14125316033E+04  0.10000000000E+02 0.  1.
</event>
<event>
 5    1  0.1147307E-008  0.3837412E+03  0.7957747E-01  0.3435028E+00
         13   -1    0    0    0    0  0.00000000000E+00  0.00000000000E+00  0.14999999963E+04  0.15000000000E+04  0.10566000000E+00 0. -1.
        994   -1    0    0    0    0 -0.00000000000E+00 -0.00000000000E+00  0.11368683772E-12  0.17120000000E+03  0.17120000000E+03 0.  0.
         13    1    1    2    0    0 -0.68053447691E+01  0.11496445915E+02  0.41362332101E+02  0.43466477509E+02  0.10566000000E+00 0. -1.
        994    1    1    2    0    0 -0.93925786773E+01 -0.32746498019E+00  0.25481073801E+01  0.17147670576E+03  0.17120000000E+03 0.  0.
        998    1    1    2    0    0  0.16197923446E+02 -0.11168980935E+02  0.14560895568E+04  0.14562568167E+04  0.10000000000E+02 0. -1.
</event>
<event>
 5    1  0.1147307E-008  0.3839993E+03  0.7957747E-01  0.3433927E+00
         13   -1    0    0    0    0  0.00000000000E+00  0.00000000000E+00  0.14999999963E+04  0.15000000000E+04  0.10566000000E+00 0.  1.
        994   -1    0    0    0    0 -0.00000000000E+00 -0.00000000000E+00  0.11368683772E-12  0.17120000000E+03  0.17120000000E+03 0.  0.
         13    1    1    2    0    0 -0.89405931032E+01 -0.64442028372E+01  0.26997055126E+02  0.29160145829E+02  0.10566000000E+00 0.  1.
        994    1    1    2    0    0  0.99892608534E+01  0.14532682884E+02  0.31544905787E+01  0.17213475830E+03  0.17120000000E+03 0.  0.
        998    1    1    2    0    0 -0.10486677502E+01 -0.80884800470E+01  0.14698484506E+04  0.14699050959E+04  0.10000000000E+02 0.  1.
</event>
<event>
 5    1  0.1147307E-008  0.3785655E+03  0.7957747E-01  0.3457428E+00
         13   -1    0    0    0    0  0.00000000000E+00  0.00000000000E+00  0.14999999963E+04  0.15000000000E+04  0.10566000000E+00 0.  1.
        994   -1    0    0    0    0 -0.00000000000E+00 -0.00000000000E+00  0.11368683772E-12  0.17120000000E+03  0.17120000000E+03 0.  0.
         13    1    1    2    0    0 -0.22432070815E+02  0.18961814100E+02  0.94677394870E+02  0.99129049518E+02  0.10566000000E+00 0.  1.
        994    1    1    2    0    0 -0.32874323593E+02 -0.42186118113E+02  0.14527398023E+02  0.17994686718E+03  0.17120000000E+03 0.  0.
        998    1    1    2    0    0  0.55306394408E+02  0.23224304013E+02  0.13907952034E+04  0.13921240833E+04  0.10000000000E+02 0.  1.
</event>
<event>
 5    1  0.1147307E-008  0.3799507E+03  0.7957747E-01  0.3451373E+00
         13   -1    0    0    0    0  0.00000000000E+00  0.00000000000E+00  0.14999999963E+04  0.15000000000E+04  0.10566000000E+00 0.  1.
        994   -1    0    0    0    0 -0.00000000000E+00 -0.00000000000E+00  0.11368683772E-12  0.17120000000E+03  0.17120000000E+03 0.  0.
         13    1    1    2    0    0  0.12445596904E+02  0.75066159492E+01  0.23616866794E+02  0.27731024620E+02  0.10566000000E+00 0.  1.
        994    1    1    2    0    0 -0.70868045226E+01 -0.10185717912E+02  0.46730145485E+01  0.17171269235E+03  0.17120000000E+03 0.  0.
        998    1    1    2    0    0 -0.53587923813E+01  0.26791019630E+01  0.14717101149E+04  0.14717562830E+04  0.10000000000E+02 0.  1.
</event>
<event>
 5    1  0.1147307E-008  0.3844917E+03  0.7957747E-01  0.3431831E+00
         13   -1    0    0    0    0  0.00000000000E+00  0.00000000000E+00  0.14999999963E+04  0.15000000000E+04  0.10566000000E+00 0.  1.
        994   -1    0    0    0    0 -0.00000000000E+00 -0.00000000000E+00  0.11368683772E-12  0.17120000000E+03  0.17120000000E+03 0.  0.
         13    1    1    2    0    0 -0.72891621072E+01  0.12978915832E+02  0.59592664194E+02  0.61423781471E+02  0.10566000000E+00 0.  1.
        994    1    1    2    0    0  0.54623128043E+01 -0.48092617740E+01  0.20572045215E+01  0.17136696867E+03  0.17120000000E+03 0.  0.
        998    1    1    2    0    0  0.18268493029E+01 -0.81696540578E+01  0.14383501276E+04  0.14384092499E+04  0.10000000000E+02 0.  1.
</event>
<event>
 5    1  0.1147307E-008  0.3756307E+03  0.7957747E-01  0.3470407E+00
         13   -1    0    0    0    0  0.00000000000E+00  0.00000000000E+00  0.14999999963E+04  0.15000000000E+04  0.10566000000E+00 0. -1.
        994   -1    0    0    0    0 -0.00000000000E+00 -0.00000000000E+00  0.11368683772E-12  0.17120000000E+03  0.17120000000E+03 0.  0.
         13    1    1    2    0    0 -0.41787563357E+02  0.84794683993E+02  0.51975986039E+03  0.52828653448E+03  0.10566000000E+00 0. -1.
        994    1    1    2    0    0  0.41686762032E+02 -0.71763889510E+02  0.30089086462E+02  0.19262044308E+03  0.17120000000E+03 0.  0.
        998    1    1    2    0    0  0.10080132489E+00 -0.13030794483E+02  0.95015104943E+03  0.95029302244E+03  0.10000000000E+02 0.  0.
</event>
<event>
 5    1  0.1147307E-008  0.3767260E+03  0.7957747E-01  0.3465539E+00
         13   -1    0    0    0    0  0.00000000000E+00  0.00000000000E+00  0.14999999963E+04  0.15000000000E+04  0.10566000000E+00 0. -1.
        994   -1    0    0    0    0 -0.00000000000E+00 -0.00000000000E+00  0.11368683772E-12  0.17120000000E+03  0.17120000000E+03 0.  0.
         13    1    1    2    0    0 -0.12279563560E+02 -0.22847114996E+02  0.16988907180E+02  0.31006652126E+02  0.10566000000E+00 0. -1.
        994    1    1    2    0    0  0.14419359305E+02  0.14468575192E+02  0.16035743349E+02  0.17315843224E+03  0.17120000000E+03 0.  0.
        998    1    1    2    0    0 -0.21397957454E+01  0.83785398032E+01  0.14669753457E+04  0.14670349156E+04  0.10000000000E+02 0. -1.
</event>
<event>
 5    1  0.1147307E-008  0.3749191E+03  0.7957747E-01  0.3473585E+00
         13   -1    0    0    0    0  0.00000000000E+00  0.00000000000E+00  0.14999999963E+04  0.15000000000E+04  0.10566000000E+00 0.  1.
        994   -1    0    0    0    0 -0.00000000000E+00 -0.00000000000E+00  0.11368683772E-12  0.17120000000E+03  0.17120000000E+03 0.  0.
         13    1    1    2    0    0  0.70126607033E+01 -0.22759987343E+02  0.38526419618E+02  0.45293383696E+02  0.10566000000E+00 0.  1.
        994    1    1    2    0    0 -0.64299991320E+01  0.23891625879E+02  0.88044575854E+01  0.17320252062E+03  0.17120000000E+03 0.  0.
        998    1    1    2    0    0 -0.58266157137E+00 -0.11316385362E+01  0.14526691191E+04  0.14527040957E+04  0.10000000000E+02 0.  1.
</event>
<event>
 5    1  0.1147307E-008  0.3820163E+03  0.7957747E-01  0.3442426E+00
         13   -1    0    0    0    0  0.00000000000E+00  0.00000000000E+00  0.14999999963E+04  0.15000000000E+04  0.10566000000E+00 0. -1.
        994   -1    0    0    0    0 -0.00000000000E+00 -0.00000000000E+00  0.11368683772E-12  0.17120000000E+03  0.17120000000E+03 0.  0.
         13    1    1    2    0    0  0.80543149007E+01 -0.36985160093E+02  0.18385457774E+03  0.18771065760E+03  0.10566000000E+00 0. -1.
        994    1    1    2    0    0 -0.26703417593E+02  0.46011826333E+02  0.12574745994E+02  0.17971567798E+03  0.17120000000E+03 0.  0.
        998    1    1    2    0    0  0.18649102692E+02 -0.90266662401E+01  0.13035706725E+04  0.13037736644E+04  0.10000000000E+02 0. -1.
</event>
<event>
 5    1  0.1147307E-008  0.3716704E+03  0.7957747E-01  0.3488249E+00
         13   -1    0    0    0    0  0.00000000000E+00  0.00000000000E+00  0.14999999963E+04  0.15000000000E+04  0.10566000000E+00 0.  1.
        994   -1    0    0    0    0 -0.00000000000E+00 -0.00000000000E+00  0.11368683772E-12  0.17120000000E+03  0.17120000000E+03 0.  0.
         13    1    1    2    0    0  0.30554759809E+02 -0.22995722205E+02  0.88934894332E+02  0.96808177241E+02  0.10566000000E+00 0.  1.
        994    1    1    2    0    0 -0.63663988186E+01  0.60484585558E+01  0.86637491690E+01  0.17164386221E+03  0.17120000000E+03 0.  0.
        998    1    1    2    0    0 -0.24188360990E+02  0.16947263650E+02  0.14024013528E+04  0.14027479605E+04  0.10000000000E+02 0.  1.
</event>
<event>
 5    1  0.1147307E-008  0.3801965E+03  0.7957747E-01  0.3450304E+00
         13   -1    0    0    0    0  0.00000000000E+00  0.00000000000E+00  0.14999999963E+04  0.15000000000E+04  0.10566000000E+00 0. -1.
        994   -1    0    0    0    0 -0.00000000000E+00 -0.00000000000E+00  0.11368683772E-12  0.17120000000E+03  0.17120000000E+03 0.  0.
         13    1    1    2    0    0 -0.15023057604E+02 -0.70983513595E+01  0.32287380784E+02  0.36312049980E+02  0.10566000000E+00 0. -1.
        994    1    1    2    0    0  0.12828060333E+02  0.71807477327E+01  0.47563468008E+01  0.17189585540E+03  0.17120000000E+03 0.  0.
        998    1    1    2    0    0  0.21949972702E+01 -0.82396373239E-01  0.14629562687E+04  0.14629920946E+04  0.10000000000E+02 0. -1.
</event>
<event>
 5    1  0.1147307E-008  0.3793872E+03  0.7957747E-01  0.3453831E+00
         13   -1    0    0    0    0  0.00000000000E+00  0.00000000000E+00  0.14999999963E+04  0.15000000000E+04  0.10566000000E+00 0.  1.
        994   -1    0    0    0    0 -0.00000000000E+00 -0.00000000000E+00  0.11368683772E-12  0.17120000000E+03  0.17120000000E+03 0.  0.
         13    1    1    2    0    0 -0.11548248022E+02 -0.41983488888E+02  0.20402061381E+03  0.20861542943E+03  0.10566000000E+00 0.  1.
        994    1    1    2    0    0  0.86651257866E+01  0.29070205279E+02  0.75312037557E+01  0.17402965342E+03  0.17120000000E+03 0.  0.
        998    1    1    2    0    0  0.28831222354E+01  0.12913283608E+02  0.12884481787E+04  0.12885549172E+04  0.10000000000E+02 0.  1.
</event>
<event>
 5    1  0.1147307E-008  0.3831148E+03  0.7957747E-01  0.3437707E+00
         13   -1    0    0    0    0  0.00000000000E+00  0.00000000000E+00  0.14999999963E+04  0.15000000000E+04  0.10566000000E+00 0.  1.
        994   -1    0    0    0    0 -0.00000000000E+00 -0.00000000000E+00  0.11368683772E-12  0.17120000000E+03  0.17120000000E+03 0.  0.
         13    1    1    2    0    0 -0.18509212013E+02 -0.36981490872E+01  0.70791141122E+02  0.73264343724E+02  0.10566000000E+00 0.  1.
        994    1    1    2    0    0  0.63989096309E+01  0.32043764274E+00  0.27048452866E+01  0.17134119444E+03  0.17120000000E+03 0.  0.
        998    1    1    2    0    0  0.12110302382E+02  0.33777114444E+01  0.14265040099E+04  0.14265944618E+04  0.10000000000E+02 0.  1.
</event>
<event>
 5    1  0.1147307E-008  0.3843358E+03  0.7957747E-01  0.3432494E+00
         13   -1    0    0    0    0  0.00000000000E+00  0.00000000000E+00  0.14999999963E+04  0.15000000000E+04  0.10566000000E+00 0. -1.
        994   -1    0    0    0    0 -0.00000000000E+00 -0.00000000000E+00  0.11368683772E-12  0.17120000000E+03  0.17120000000E+03 0.  0.
         13    1    1    2    0    0  0.15639435857E+02 -0.16744803272E+02  0.10863846715E+03  0.11102841123E+03  0.10566000000E+00 0. -1.
        994    1    1    2    0    0 -0.24460192564E+02  0.35723856964E+02  0.81626994516E+01  0.17677829233E+03  0.17120000000E+03 0.  0.
        998    1    1    2    0    0  0.88207567066E+01 -0.18979053692E+02  0.13831988297E+04  0.13833932964E+04  0.10000000000E+02 0. -1.
</event>
<event>
 5    1  0.1147307E-008  0.3817694E+03  0.7957747E-01  0.3443490E+00
         13   -1    0    0    0    0  0.00000000000E+00  0.00000000000E+00  0.14999999963E+04  0.15000000000E+04  0.10566000000E+00 0.  1.
        994   -1    0    0    0    0 -0.00000000000E+00 -0.00000000000E+00  0.11368683772E-12  0.17120000000E+03  0.17120000000E+03 0.  0.
         13    1    1    2    0    0 -0.20843636946E+02 -0.96374571283E+01  0.79525900271E+02  0.82775103497E+02  0.10566000000E+00 0.  1.
        994    1    1    2    0    0  0.18466342049E+02 -0.12925441841E+01  0.43823364438E+01  0.17225365404E+03  0.17120000000E+03 0.  0.
        998    1    1    2    0    0  0.23772948974E+01  0.10930001312E+02  0.14160917596E+04  0.14161712425E+04  0.10000000000E+02 0.  1.
</event>
<event>
 5    1  0.1147307E-008  0.3790033E+03  0.7957747E-01  0.3455510E+00
         13   -1    0    0    0    0  0.00000000000E+00  0.00000000000E+00  0.14999999963E+04  0.15000000000E+04  0.10566000000E+00 0.  1.
        994   -1    0    0    0    0 -0.00000000000E+00 -0.00000000000E+00  0.11368683772E-12  0.17120000000E+03  0.17120000000E+03 0.  0.
         13    1    1    2    0    0  0.11602197242E+02 -0.41732708879E+01  0.14383707162E+02  0.18945431283E+02  0.10566000000E+00 0.  1.
        994    1    1    2    0    0 -0.92363999026E+01 -0.13526428524E+00  0.49233499735E+01  0.17151970369E+03  0.17120000000E+03 0.  0.
        998    1    1    2    0    0 -0.23657973393E+01  0.43085351731E+01  0.14806929391E+04  0.14807348650E+04  0.10000000000E+02 0.  1.
</event>
<event>
 5    1  0.1147307E-008  0.3832536E+03  0.7957747E-01  0.3437113E+00
         13   -1    0    0    0    0  0.00000000000E+00  0.00000000000E+00  0.14999999963E+04  0.15000000000E+04  0.10566000000E+00 0. -1.
        994   -1    0    0    0    0 -0.00000000000E+00 -0.00000000000E+00  0.11368683772E-12  0.17120000000E+03  0.17120000000E+03 0.  0.
         13    1    1    2    0    0 -0.14313203441E+01 -0.10265054877E+02  0.19732398133E+02  0.22288982249E+02  0.10566000000E+00 0. -1.
        994    1    1    2    0    0 -0.37639816985E+01  0.21405205709E+02  0.40634725653E+01  0.17262184740E+03  0.17120000000E+03 0.  0.
        998    1    1    2    0    0  0.51953020427E+01 -0.11140150832E+02  0.14762041256E+04  0.14762891704E+04  0.10000000000E+02 0. -1.
</event>
<event>
 5    1  0.1147307E-008  0.4297595E+03  0.7957747E-01  0.3259521E+00
         13   -1    0    0    0    0  0.00000000000E+00  0.00000000000E+00  0.14999999963E+04  0.15000000000E+04  0.10566000000E+00 0.  1.
        994   -1    0    0    0    0 -0.00000000000E+00 -0.00000000000E+00  0.11368683772E-12  0.17120000000E+03  0.17120000000E+03 0.  0.
         13    1    1    2    0    0  0.84859982643E+02  0.11509071913E+03  0.21777876876E+03  0.26052772131E+03  0.10566000000E+00 0.  1.
        994    1    1    2    0    0 -0.69810334956E+02 -0.55461240194E+02  0.83465289911E+02  0.21029818509E+03  0.17120000000E+03 0.  0.
        998    1    1    2    0    0 -0.15049647686E+02 -0.59629478931E+02  0.11987559376E+04  0.12003740936E+04  0.10000000000E+02 0. -1.
</event>
<event>
 5    1  0.1147307E-008  0.3720779E+03  0.7957747E-01  0.3486395E+00
         13   -1    0    0    0    0  0.00000000000E+00  0.00000000000E+00  0.14999999963E+04  0.15000000000E+04  0.10566000000E+00 0.  1.
        994   -1    0    0    0    0 -0.00000000000E+00 -0.00000000000E+00  0.11368683772E-12  0.17120000000E+03  0.17120000000E+03 0.  0.
         13    1    1    2    0    0 -0.43525885447E+02 -0.37415845421E+02  0.27635631035E+03  0.28225390985E+03  0.10566000000E+00 0.  1.
        994    1    1    2    0    0 -0.14797908036E+02 -0.49834369366E+01  0.90244327664E+01  0.17214730063E+03  0.17120000000E+03 0.  0.
        998    1    1    2    0    0  0.58323793482E+02  0.42399282357E+02  0.12146192532E+04  0.12167987895E+04  0.10000000000E+02 0.  1.
</event>
<event>
 5    1  0.1147307E-008  0.3797938E+03  0.7957747E-01  0.3452057E+00
         13   -1    0    0    0    0  0.00000000000E+00  0.00000000000E+00  0.14999999963E+04  0.15000000000E+04  0.10566000000E+00 0.  1.
        994   -1    0    0    0    0 -0.00000000000E+00 -0.00000000000E+00  0.11368683772E-12  0.17120000000E+03  0.17120000000E+03 0.  0.
         13    1    1    2    0    0 -0.56072129986E+02  0.80319904065E+00  0.85195763404E+02  0.10199538301E+03  0.10566000000E+00 0.  1.
        994    1    1    2    0    0  0.61136883043E+02  0.48055939359E+01  0.29960047207E+02  0.18430370759E+03  0.17120000000E+03 0.  0.
        998    1    1    2    0    0 -0.50647530570E+01 -0.56087929766E+01  0.13848441857E+04  0.13849009094E+04  0.10000000000E+02 0.  1.
</event>
<event>
 5    1  0.1147307E-008  0.3970996E+03  0.7957747E-01  0.3379923E+00
         13   -1    0    0    0    0  0.00000000000E+00  0.00000000000E+00  0.14999999963E+04  0.15000000000E+04  0.10566000000E+00 0.  1.
        994   -1    0    0    0    0 -0.00000000000E+00 -0.00000000000E+00  0.11368683772E-12  0.17120000000E+03  0.17120000000E+03 0.  0.
         13    1    1    2    0    0 -0.83959114678E+02 -0.67937596510E+02  0.19051590104E+03  0.21899993076E+03  0.10566000000E+00 0.  1.
        994    1    1    2    0    0  0.79837341764E+02  0.66984606165E+02  0.69448071553E+02  0.21211650866E+03  0.17120000000E+03 0.  0.
        998    1    1    2    0    0  0.41217729147E+01  0.95299034515E+00  0.12400360237E+04  0.12400835606E+04  0.10000000000E+02 0.  0.
</event>
<event>
 5    1  0.1147307E-008  0.3744744E+03  0.7957747E-01  0.3475577E+00
         13   -1    0    0    0    0  0.00000000000E+00  0.00000000000E+00  0.14999999963E+04  0.15000000000E+04  0.10566000000E+00 0.  1.
        994   -1    0    0    0    0 -0.00000000000E+00 -0.00000000000E+00  0.11368683772E-12  0.17120000000E+03  0.17120000000E+03 0.  0.
         13    1    1    2    0    0  0.70595121697E+00 -0.21239044823E+02  0.32146408457E+02  0.38535673509E+02  0.10566000000E+00 0.  1.
        994    1    1    2    0    0  0.47689706946E-01 -0.15915276234E+02  0.78119093745E+01  0.17211555485E+03  0.17120000000E+03 0.  0.
        998    1    1    2    0    0 -0.75364092391E+00  0.37154321058E+02  0.14600416784E+04  0.14605487716E+04  0.10000000000E+02 0.  1.
</event>
<event>
 5    1  0.1147307E-008  0.3782419E+03  0.7957747E-01  0.3458849E+00
         13   -1    0    0    0    0  0.00000000000E+00  0.00000000000E+00  0.14999999963E+04  0.15000000000E+04  0.10566000000E+00 0. -1.
        994   -1    0    0    0    0 -0.00000000000E+00 -0.00000000000E+00  0.11368683772E-12  0.17120000000E+03  0.17120000000E+03 0.  0.
         13    1    1    2    0    0  0.73849622296E+01 -0.15289832217E+02  0.29943758675E+02  0.34423196888E+02  0.10566000000E+00 0. -1.
        994    1    1    2    0    0  0.49385146365E+01 -0.30167591050E+02  0.81717721673E+01  0.17409965634E+03  0.17120000000E+03 0.  0.
        998    1    1    2    0    0 -0.12323476866E+02  0.45457423267E+02  0.14618844654E+04  0.14626771468E+04  0.10000000000E+02 0. -1.
</event>
<event>
 5    1  0.1147307E-008  0.3857617E+03  0.7957747E-01  0.3426448E+00
         13   -1    0    0    0    0  0.00000000000E+00  0.00000000000E+00  0.14999999963E+04  0.15000000000E+04  0.10566000000E+00 0.  1.
        994   -1    0    0    0    0 -0.00000000000E+00 -0.00000000000E+00  0.11368683772E-12  0.17120000000E+03  0.17120000000E+03 0.  0.
         13    1    1    2    0    0  0.98259501674E+01 -0.37050472120E+01  0.43468358816E+02  0.44718967494E+02  0.10566000000E+00 0.  1.
        994    1    1    2    0    0 -0.76299921021E+01  0.96764954250E+01  0.17507329930E+01  0.17165184651E+03  0.17120000000E+03 0.  0.
        998    1    1    2    0    0 -0.21959580653E+01 -0.59714482131E+01  0.14547809045E+04  0.14548291860E+04  0.10000000000E+02 0.  1.
</event>
<event>
 5    1  0.1147307E-008  0.3847788E+03  0.7957747E-01  0.3430611E+00
         13   -1    0    0    0    0  0.00000000000E+00  0.00000000000E+00  0.14999999963E+04  0.15000000000E+04  0.10566000000E+00 0. -1.
        994   -1    0    0    0    0 -0.00000000000E+00 -0.00000000000E+00  0.11368683772E-12  0.17120000000E+03  0.17120000000E+03 0.  0.
         13    1    1    2    0    0 -0.15139555958E+02 -0.56145547142E+01  0.72160002448E+02  0.73944617766E+02  0.10566000000E+00 0. -1.
        994    1    1    2    0    0  0.14276851566E+02  0.81136323260E+01  0.26279764026E+01  0.17200583066E+03  0.17120000000E+03 0.  0.
        998    1    1    2    0    0  0.86270439148E+00 -0.24990776118E+01  0.14252120174E+04  0.14252495516E+04  0.10000000000E+02 0. -1.
</event>
<event>
 5    1  0.1147307E-008  0.3693299E+03  0.7957747E-01  0.3498976E+00
         13   -1    0    0    0    0  0.00000000000E+00  0.00000000000E+00  0.14999999963E+04  0.15000000000E+04  0.10566000000E+00 0. -1.
        994   -1    0    0    0    0 -0.00000000000E+00 -0.00000000000E+00  0.11368683772E-12  0.17120000000E+03  0.17120000000E+03 0.  0.
         13    1    1    2    0    0 -0.73431713627E+02  0.13269707122E+02  0.34407297710E+03  0.35207176318E+03  0.10566000000E+00 0. -1.
        994    1    1    2    0    0  0.11807735607E+02 -0.54147912650E+02  0.20340789822E+02  0.18109281265E+03  0.17120000000E+03 0.  0.
        998    1    1    2    0    0  0.61623978020E+02  0.40878205528E+02  0.11355862294E+04  0.11380354242E+04  0.10000000000E+02 0. -1.
</event>
<event>
 5    1  0.1147307E-008  0.3784960E+03  0.7957747E-01  0.3457733E+00
         13   -1    0    0    0    0  0.00000000000E+00  0.00000000000E+00  0.14999999963E+04  0.15000000000E+04  0.10566000000E+00 0. -1.
        994   -1    0    0    0    0 -0.00000000000E+00 -0.00000000000E+00  0.11368683772E-12  0.17120000000E+03  0.17120000000E+03 0.  0.
         13    1    1    2    0    0  0.26022481684E+02  0.27834489314E+01  0.60216626166E+02  0.65657980259E+02  0.10566000000E+00 0. -1.
        994    1    1    2    0    0 -0.50163722108E+02  0.59899441150E+01  0.13517270331E+02  0.17900959484E+03  0.17120000000E+03 0.  0.
        998    1    1    2    0    0  0.24141240425E+02 -0.87733930464E+01  0.14262660998E+04  0.14265324249E+04  0.10000000000E+02 0. -1.
</event>
<event>
 5    1  0.1147307E-008  0.3741274E+03  0.7957747E-01  0.3477135E+00
         13   -1    0    0    0    0  0.00000000000E+00  0.00000000000E+00  0.14999999963E+04  0.15000000000E+04  0.10566000000E+00 0. -1.
        994   -1    0    0    0    0 -0.00000000000E+00 -0.00000000000E+00  0.11368683772E-12  0.17120000000E+03  0.17120000000E+03 0.  0.
         13    1    1    2    0    0  0.44460129365E+02  0.19297829232E+02  0.14846972425E+03  0.15618059899E+03  0.10566000000E+00 0. -1.
        994    1    1    2    0    0 -0.45223584592E+02 -0.13501326720E+02  0.14759674101E+02  0.17819861505E+03  0.17120000000E+03 0.  0.
        998    1    1    2    0    0  0.76345522696E+00 -0.57965025118E+01  0.13367705979E+04  0.13368207860E+04  0.10000000000E+02 0. -1.
</event>
<event>
 5    1  0.1147307E-008  0.3802347E+03  0.7957747E-01  0.3450137E+00
         13   -1    0    0    0    0  0.00000000000E+00  0.00000000000E+00  0.14999999963E+04  0.15000000000E+04  0.10566000000E+00 0.  1.
        994   -1    0    0    0    0 -0.00000000000E+00 -0.00000000000E+00  0.11368683772E-12  0.17120000000E+03  0.17120000000E+03 0.  0.
         13    1    1    2    0    0  0.10626659493E+02 -0.10070785990E+02  0.24998613429E+02  0.28970475658E+02  0.10566000000E+00 0.  1.
        994    1    1    2    0    0 -0.90895407032E+01  0.65851847765E+01  0.44356732166E+01  0.17162488050E+03  0.17120000000E+03 0.  0.
        998    1    1    2    0    0 -0.15371187897E+01  0.34856012138E+01  0.14705657096E+04  0.14706046438E+04  0.10000000000E+02 0.  1.
</event>
<event>
 5    1  0.1147307E-008  0.3763818E+03  0.7957747E-01  0.3467066E+00
         13   -1    0    0    0    0  0.00000000000E+00  0.00000000000E+00  0.14999999963E+04  0.15000000000E+04  0.10566000000E+00 0. -1.
        994   -1    0    0    0    0 -0.00000000000E+00 -0.00000000000E+00  0.11368683772E-12  0.17120000000E+03  0.17120000000E+03 0.  0.
         13    1    1    2    0    0  0.33266716586E+02  0.19123358143E+02  0.17546969840E+03  0.17961626730E+03  0.10566000000E+00 0. -1.
        994    1    1    2    0    0  0.46842690703E+02 -0.97119886008E+01  0.13753608125E+02  0.17828954577E+03  0.17120000000E+03 0.  0.
        998    1    1    2    0    0 -0.80109407289E+02 -0.94113695417E+01  0.13107766898E+04  0.13132941869E+04  0.10000000000E+02 0. -1.
</event>
<event>
 5    1  0.1147307E-008  0.3766179E+03  0.7957747E-01  0.3466018E+00
         13   -1    0    0    0    0  0.00000000000E+00  0.00000000000E+00  0.14999999963E+04  0.15000000000E+04  0.10566000000E+00 0. -1.
        994   -1    0    0    0    0 -0.00000000000E+00 -0.00000000000E+00  0.11368683772E-12  0.17120000000E+03  0.17120000000E+03 0.  0.
         13    1    1    2    0    0 -0.10217892789E+02 -0.10221686011E+02  0.13898998318E+02  0.20051970383E+02  0.10566000000E+00 0. -1.
        994    1    1    2    0    0  0.25738137661E+02  0.44124022341E+02  0.14723337960E+02  0.17926404480E+03  0.17120000000E+03 0.  0.
        998    1    1    2    0    0 -0.15520244872E+02 -0.33902336331E+02  0.14713776600E+04  0.14718839848E+04  0.10000000000E+02 0. -1.
</event>
<event>
 5    1  0.1147307E-008  0.3841312E+03  0.7957747E-01  0.3433365E+00
         13   -1    0    0    0    0  0.00000000000E+00  0.00000000000E+00  0.14999999963E+04  0.15000000000E+04  0.10566000000E+00 0. -1.
        994   -1    0    0    0    0 -0.00000000000E+00 -0.00000000000E+00  0.11368683772E-12  0.17120000000E+03  0.17120000000E+03 0.  0.
         13    1    1    2    0    0 -0.16064167296E+02 -0.24057596122E+01  0.63667581320E+02  0.65707056131E+02  0.10566000000E+00 0. -1.
        994    1    1    2    0    0  0.10672319008E+02 -0.99495696571E+00  0.24410892157E+01  0.17155257867E+03  0.17120000000E+03 0.  0.
        998    1    1    2    0    0  0.53918482882E+01  0.34007165779E+01  0.14338913257E+04  0.14339403652E+04  0.10000000000E+02 0. -1.
</event>
<event>
 5    1  0.1147307E-008  0.3774806E+03  0.7957747E-01  0.3462202E+00
         13   -1    0    0    0    0  0.00000000000E+00  0.00000000000E+00  0.14999999963E+04  0.15000000000E+04  0.10566000000E+00 0. -1.
        994   -1    0    0    0    0 -0.00000000000E+00 -0.00000000000E+00  0.11368683772E-12  0.17120000000E+03  0.17120000000E+03 0.  0.
         13    1    1    2    0    0 -0.50353838990E+02 -0.65841073987E+01  0.27362121344E+03  0.27829380011E+03  0.10566000000E+00 0. -1.
        994    1    1    2    0    0  0.10077307917E+02  0.72505392098E+01  0.59300582294E+01  0.17175193753E+03  0.17120000000E+03 0.  0.
        998    1    1    2    0    0  0.40276531073E+02 -0.66643181112E+00  0.12204487246E+04  0.12211542624E+04  0.10000000000E+02 0. -1.
</event>
<event>
 5    1  0.1147307E-008  0.3810015E+03  0.7957747E-01  0.3446809E+00
         13   -1    0    0    0    0  0.00000000000E+00  0.00000000000E+00  0.14999999963E+04  0.15000000000E+04  0.10566000000E+00 0.  1.
        994   -1    0    0    0    0 -0.00000000000E+00 -0.00000000000E+00  0.11368683772E-12  0.17120000000E+03  0.17120000000E+03 0.  0.
         13    1    1    2    0    0  0.26624114269E+01 -0.15974648336E+02  0.33645258417E+02  0.37340224986E+02  0.10566000000E+00 0.  1.
        994    1    1    2    0    0  0.30797403424E+01  0.21473158028E+02  0.51979650478E+01  0.17264715508E+03  0.17120000000E+03 0.  0.
        998    1    1    2    0    0 -0.57421517694E+01 -0.54985096927E+01  0.14611567728E+04  0.14612126199E+04  0.10000000000E+02 0.  1.
</event>
<event>
 5    1  0.1147307E-008  0.3844871E+03  0.7957747E-01  0.3431850E+00
         13   -1    0    0    0    0  0.00000000000E+00  0.00000000000E+00  0.14999999963E+04  0.15000000000E+04  0.10566000000E+00 0.  1.
        994   -1    0    0    0    0 -0.00000000000E+00 -0.00000000000E+00  0.11368683772E-12  0.17120000000E+03  0.17120000000E+03 0.  0.
         13    1    1    2    0    0 -0.11004318104E+02  0.67962377499E+01  0.49762008482E+02  0.51415489073E+02  0.10566000000E+00 0.  1.
        994    1    1    2    0    0 -0.91566867404E+01  0.12229898619E+02  0.26542593705E+01  0.17190084475E+03  0.17120000000E+03 0.  0.
        998    1    1    2    0    0  0.20161004845E+02 -0.19026136368E+02  0.14475837284E+04  0.14478836662E+04  0.10000000000E+02 0.  1.
</event>
<event>
 5    1  0.1147307E-008  0.3812747E+03  0.7957747E-01  0.3445627E+00
         13   -1    0    0    0    0  0.00000000000E+00  0.00000000000E+00  0.14999999963E+04  0.15000000000E+04  0.10566000000E+00 0. -1.
        994   -1    0    0    0    0 -0.00000000000E+00 -0.00000000000E+00  0.11368683772E-12  0.17120000000E+03  0.17120000000E+03 0.  0.
         13    1    1    2    0    0 -0.14197725761E+02  0.31916152970E+02  0.15859377959E+03  0.16239524108E+03  0.10566000000E+00 0. -1.
        994    1    1    2    0    0  0.40518555769E+01 -0.35053284769E+02  0.76471303676E+01  0.17496590785E+03  0.17120000000E+03 0.  0.
        998    1    1    2    0    0  0.10145870184E+02  0.31371317991E+01  0.13337590863E+04  0.13338388511E+04  0.10000000000E+02 0. -1.
</event>
<event>
 5    1  0.1147307E-008  0.3810335E+03  0.7957747E-01  0.3446671E+00
         13   -1    0    0    0    0  0.00000000000E+00  0.00000000000E+00  0.14999999963E+04  0.15000000000E+04  0.10566000000E+00 0. -1.
        994   -1    0    0    0    0 -0.00000000000E+00 -0.00000000000E+00  0.11368683772E-12  0.17120000000E+03  0.17120000000E+03 0.  0.
         13    1    1    2    0    0  0.10787019610E+02  0.83335319852E+01  0.24337030830E+02  0.27894619214E+02  0.10566000000E+00 0. -1.
        994    1    1    2    0    0 -0.80841934601E+01 -0.37188534911E+01  0.38761947798E+01  0.17147492219E+03  0.17120000000E+03 0.  0.
        998    1    1    2    0    0 -0.27028261502E+01 -0.46146784941E+01  0.14717867707E+04  0.14718304586E+04  0.10000000000E+02 0. -1.
</event>
<event>
 5    1  0.1147307E-008  0.3856378E+03  0.7957747E-01  0.3426972E+00
         13   -1    0    0    0    0  0.00000000000E+00  0.00000000000E+00  0.14999999963E+04  0.15000000000E+04  0.10566000000E+00 0. -1.
        994   -1    0    0    0    0 -0.00000000000E+00 -0.00000000000E+00  0.11368683772E-12  0.17120000000E+03  0.17120000000E+03 0.  0.
         13    1    1    2    0    0 -0.10745228631E+02 -0.44061018511E+01  0.50076956750E+02  0.51406093348E+02  0.10566000000E+00 0. -1.
        994    1    1    2    0    0  0.12693586159E+02  0.28923885441E+01  0.18702505401E+01  0.17170448706E+03  0.17120000000E+03 0.  0.
        998    1    1    2    0    0 -0.19483575282E+01  0.15137133070E+01  0.14480527890E+04  0.14480894196E+04  0.10000000000E+02 0. -1.
</event>
<event>
 5    1  0.1147307E-008  0.3763917E+03  0.7957747E-01  0.3467022E+00
         13   -1    0    0    0    0  0.00000000000E+00  0.00000000000E+00  0.14999999963E+04  0.15000000000E+04  0.10566000000E+00 0.  1.
        994   -1    0    0    0    0 -0.00000000000E+00 -0.00000000000E+00  0.11368683772E-12  0.17120000000E+03  0.17120000000E+03 0.  0.
         13    1    1    2    0    0  0.12877272333E+02  0.35649317060E+01  0.12217853187E+02  0.18105799660E+02  0.10566000000E+00 0.  1.
        994    1    1    2    0    0 -0.12989095037E+02 -0.23193632089E+01  0.65550056424E+01  0.17183277957E+03  0.17120000000E+03 0.  0.
        998    1    1    2    0    0  0.11182270333E+00 -0.12455684971E+01  0.14812271374E+04  0.14812614208E+04  0.10000000000E+02 0.  1.
</event>
<event>
 5    1  0.1147307E-008  0.3839772E+03  0.7957747E-01  0.3434022E+00
         13   -1    0    0    0    0  0.00000000000E+00  0.00000000000E+00  0.14999999963E+04  0.15000000000E+04  0.10566000000E+00 0.  1.
        994   -1    0    0    0    0 -0.00000000000E+00 -0.00000000000E+00  0.11368683772E-12  0.17120000000E+03  0.17120000000E+03 0.  0.
         13    1    1    2    0    0  0.82870806002E+01  0.97830082577E+01  0.37512664114E+02  0.39643335990E+02  0.10566000000E+00 0.  1.
        994    1    1    2    0    0 -0.80697623451E+01 -0.75357398658E+01  0.25411521137E+01  0.17157449080E+03  0.17120000000E+03 0.  0.
        998    1    1    2    0    0 -0.21731825512E+00 -0.22472683919E+01  0.14599461801E+04  0.14599821732E+04  0.10000000000E+02 0.  1.
</event>
<event>
 5    1  0.1147307E-008  0.3807549E+03  0.7957747E-01  0.3447878E+00
         13   -1    0    0    0    0  0.00000000000E+00  0.00000000000E+00  0.14999999963E+04  0.15000000000E+04  0.10566000000E+00 0. -1.
        994   -1    0    0    0    0 -0.00000000000E+00 -0.00000000000E+00  0.11368683772E-12  0.17120000000E+03  0.17120000000E+03 0.  0.
         13    1    1    2    0    0  0.94859092419E+01 -0.23129690012E+02  0.81089592281E+02  0.84855749213E+02  0.10566000000E+00 0. -1.
        994    1    1    2    0    0 -0.69598220466E+01  0.16389088305E+02  0.48104882128E+01  0.17219065635E+03  0.17120000000E+03 0.  0.
        998    1    1    2    0    0 -0.25260871953E+01  0.67406017070E+01  0.14140999158E+04  0.14141535944E+04  0.10000000000E+02 0. -1.
</event>
<event>
 5    1  0.1147307E-008  0.3831490E+03  0.7957747E-01  0.3437560E+00
         13   -1    0    0    0    0  0.00000000000E+00  0.00000000000E+00  0.14999999963E+04  0.15000000000E+04  0.10566000000E+00 0.  1.
        994   -1    0    0    0    0 -0.00000000000E+00 -0.00000000000E+00  0.11368683772E-12  0.17120000000E+03  0.17120000000E+03 0.  0.
         13    1    1    2    0    0  0.11624651302E+02 -0.51203476429E+01  0.25831659431E+02  0.28786042987E+02  0.10566000000E+00 0.  1.
        994    1    1    2    0    0 -0.53718146250E+02  0.24674312206E+02  0.14200496201E+02  0.18167431027E+03  0.17120000000E+03 0.  0.
        998    1    1    2    0    0  0.42093494948E+02 -0.19553964563E+02  0.14599678406E+04  0.14607396467E+04  0.10000000000E+02 0.  1.
</event>
<event>
 5    1  0.1147307E-008  0.3733055E+03  0.7957747E-01  0.3480836E+00
         13   -1    0    0    0    0  0.00000000000E+00  0.00000000000E+00  0.14999999963E+04  0.15000000000E+04  0.10566000000E+00 0. -1.
        994   -1    0    0    0    0 -0.00000000000E+00 -0.00000000000E+00  0.11368683772E-12  0.17120000000E+03  0.17120000000E+03 0.  0.
         13    1    1    2    0    0 -0.21155507387E+02 -0.29326843890E+02  0.81479846924E+02  0.89143681123E+02  0.10566000000E+00 0. -1.
        994    1    1    2    0    0 -0.13504144675E+01  0.38642226146E+02  0.12679884249E+02  0.17596949942E+03  0.17120000000E+03 0.  0.
        998    1    1    2    0    0  0.22505921854E+02 -0.93153822564E+01  0.14058402651E+04  0.14060868195E+04  0.10000000000E+02 0. -1.
</event>
<event>
 5    1  0.1147307E-008  0.3718329E+03  0.7957747E-01  0.3487509E+00
         13   -1    0    0    0    0  0.00000000000E+00  0.00000000000E+00  0.14999999963E+04  0.15000000000E+04  0.10566000000E+00 0. -1.
        994   -1    0    0    0    0 -0.00000000000E+00 -0.00000000000E+00  0.11368683772E-12  0.17120000000E+03  0.17120000000E+03 0.  0.
         13    1    1    2    0    0 -0.91529945556E+01 -0.69804286551E+02  0.24589596620E+03  0.25577578675E+03  0.10566000000E+00 0. -1.
        994    1    1    2    0    0  0.10456753696E+02  0.70497160897E+02  0.25973230542E+02  0.18725181467E+03  0.17120000000E+03 0.  0.
        998    1    1    2    0    0 -0.13037591402E+01 -0.69287434598E+00  0.12281307995E+04  0.12281723986E+04  0.10000000000E+02 0.  0.
</event>
<event>
 5    1  0.1147307E-008  0.3849623E+03  0.7957747E-01  0.3429832E+00
         13   -1    0    0    0    0  0.00000000000E+00  0.00000000000E+00  0.14999999963E+04  0.15000000000E+04  0.10566000000E+00 0.  1.
        994   -1    0    0    0    0 -0.00000000000E+00 -0.00000000000E+00  0.11368683772E-12  0.17120000000E+03  0.17120000000E+03 0.  0.
         13    1    1    2    0    0  0.66966075059E+00 -0.23148619514E+02  0.11045597601E+03  0.11285761308E+03  0.10566000000E+00 0.  1.
        994    1    1    2    0    0  0.26225715690E+02  0.66892697510E+02  0.18816674145E+02  0.18661706345E+03  0.17120000000E+03 0.  0.
        998    1    1    2    0    0 -0.26895376441E+02 -0.43744077995E+02  0.13707273461E+04  0.13717253235E+04  0.10000000000E+02 0.  1.
</event>
<event>
 5    1  0.1147307E-008  0.3853615E+03  0.7957747E-01  0.3428141E+00
         13   -1    0    0    0    0  0.00000000000E+00  0.00000000000E+00  0.14999999963E+04  0.15000000000E+04  0.10566000000E+00 0. -1.
        994   -1    0    0    0    0 -0.00000000000E+00 -0.00000000000E+00  0.11368683772E-12  0.17120000000E+03  0.17120000000E+03 0.  0.
         13    1    1    2    0    0  0.40284603596E+01 -0.96670821516E+01  0.35824078001E+02  0.37323674777E+02  0.10566000000E+00 0. -1.
        994    1    1    2    0    0 -0.12480020814E+02  0.14243844290E+02  0.26297166362E+01  0.17226431270E+03  0.17120000000E+03 0.  0.
        998    1    1    2    0    0  0.84515604541E+01 -0.45767621382E+01  0.14615462016E+04  0.14616120125E+04  0.10000000000E+02 0. -1.
</event>
<event>
 5    1  0.1147307E-008  0.3723559E+03  0.7957747E-01  0.3485133E+00
         13   -1    0    0    0    0  0.00000000000E+00  0.00000000000E+00  0.14999999963E+04  0.15000000000E+04  0.10566000000E+00 0.  1.
        994   -1    0    0    0    0 -0.00000000000E+00 -0.00000000000E+00  0.11368683772E-12  0.17120000000E+03  0.17120000000E+03 0.  0.
         13    1    1    2    0    0 -0.63654469842E+02  0.18363142221E+01  0.33785034377E+03  0.34379954847E+03  0.10566000000E+00 0.  1.
        994    1    1    2    0    0 -0.20413260999E+01 -0.67425445480E+01  0.82130609385E+01  0.17154160804E+03  0.17120000000E+03 0.  0.
        998    1    1    2    0    0  0.65695795942E+02  0.49062303259E+01  0.11539365916E+04  0.11558588435E+04  0.10000000000E+02 0.  1.
</event>
<event>
 5    1  0.1147307E-008  0.3460777E+03  0.7957747E-01  0.3613617E+00
         13   -1    0    0    0    0  0.00000000000E+00  0.00000000000E+00  0.14999999963E+04  0.15000000000E+04  0.10566000000E+00 0.  1.
        994   -1    0    0    0    0 -0.00000000000E+00 -0.00000000000E+00  0.11368683772E-12  0.17120000000E+03  0.17120000000E+03 0.  0.
         13    1    1    2    0    0 -0.47519454726E+02 -0.28598650785E+03  0.71092804626E+03  0.76776629216E+03  0.10566000000E+00 0.  1.
        994    1    1    2    0    0  0.41172464848E+02  0.28207437570E+03  0.42726149868E+03  0.54140830576E+03  0.17120000000E+03 0.  0.
        998    1    1    2    0    0  0.63469898777E+01  0.39121321497E+01  0.36181045133E+03  0.36202540208E+03  0.10000000000E+02 0.  0.
</event>
<event>
 5    1  0.2142309E-008  0.3861010E+03  0.7957747E-01  0.3425016E+00
         13   -1    0    0    0    0  0.00000000000E+00  0.00000000000E+00  0.14999999963E+04  0.15000000000E+04  0.10566000000E+00 0. -1.
        994   -1    0    0    0    0 -0.00000000000E+00 -0.00000000000E+00  0.11368683772E-12  0.17120000000E+03  0.17120000000E+03 0.  0.
         13    1    1    2    0    0 -0.92902327378E-02 -0.11058157446E+02  0.53407894404E+02  0.54540785483E+02  0.10566000000E+00 0. -1.
        994    1    1    2    0    0  0.56742782559E+00  0.17217591879E+02  0.20575859108E+01  0.17207684651E+03  0.17120000000E+03 0.  0.
        998    1    1    2    0    0 -0.55813759285E+00 -0.61594344331E+01  0.14445345160E+04  0.14445823680E+04  0.10000000000E+02 0. -1.
</event>
<event>
 5    1  0.1147307E-008  0.3785275E+03  0.7957747E-01  0.3457595E+00
         13   -1    0    0    0    0  0.00000000000E+00  0.00000000000E+00  0.14999999963E+04  0.15000000000E+04  0.10566000000E+00 0. -1.
        994   -1    0    0    0    0 -0.00000000000E+00 -0.00000000000E+00  0.11368683772E-12  0.17120000000E+03  0.17120000000E+03 0.  0.
         13    1    1    2    0    0 -0.14148684587E+02  0.37660329966E+02  0.18428382261E+03  0.18862402861E+03  0.10566000000E+00 0. -1.
        994    1    1    2    0    0  0.11572454633E+03  0.18055396699E+02  0.52436996481E+02  0.21395617910E+03  0.17120000000E+03 0.  0.
        998    1    1    2    0    0 -0.10157586174E+03 -0.55715726665E+02  0.12632791772E+04  0.12686197923E+04  0.10000000000E+02 0. -1.
</event>
<event>
 5    1  0.1147307E-008  0.3694726E+03  0.7957747E-01  0.3498318E+00
         13   -1    0    0    0    0  0.00000000000E+00  0.00000000000E+00  0.14999999963E+04  0.15000000000E+04  0.10566000000E+00 0.  1.
        994   -1    0    0    0    0 -0.00000000000E+00 -0.00000000000E+00  0.11368683772E-12  0.17120000000E+03  0.17120000000E+03 0.  0.
         13    1    1    2    0    0 -0.97933750496E+01  0.24314342227E+02  0.31925173376E+02  0.41307690469E+02  0.10566000000E+00 0.  1.
        994    1    1    2    0    0  0.10213444980E+02 -0.17960342005E+02  0.11025073858E+02  0.17279433034E+03  0.17120000000E+03 0.  0.
        998    1    1    2    0    0 -0.42006993032E+00 -0.63540002216E+01  0.14570497490E+04  0.14570979792E+04  0.10000000000E+02 0.  1.
</event>
<event>
 5    1  0.1147307E-008  0.3983804E+03  0.7957747E-01  0.3374833E+00
         13   -1    0    0    0    0  0.00000000000E+00  0.00000000000E+00  0.14999999963E+04  0.15000000000E+04  0.10566000000E+00 0.  1.
        994   -1    0    0    0    0 -0.00000000000E+00 -0.00000000000E+00  0.11368683772E-12  0.17120000000E+03  0.17120000000E+03 0.  0.
         13    1    1    2    0    0 -0.16746199983E+02 -0.85671747065E+02  0.12825925453E+03  0.15514680466E+03  0.10566000000E+00 0.  1.
        994    1    1    2    0    0  0.21894238769E+02  0.71779146806E+02  0.49065950146E+02  0.19325762875E+03  0.17120000000E+03 0.  0.
        998    1    1    2    0    0 -0.51480387859E+01  0.13892600259E+02  0.13226747916E+04  0.13227955666E+04  0.10000000000E+02 0.  1.
</event>
<event>
 5    1  0.1147307E-008  0.3708153E+03  0.7957747E-01  0.3492152E+00
         13   -1    0    0    0    0  0.00000000000E+00  0.00000000000E+00  0.14999999963E+04  0.15000000000E+04  0.10566000000E+00 0. -1.
        994   -1    0    0    0    0 -0.00000000000E+00 -0.00000000000E+00  0.11368683772E-12  0.17120000000E+03  0.17120000000E+03 0.  0.
         13    1    1    2    0    0 -0.73741094234E+01 -0.69079164163E+01 -0.85545559225E+00  0.10140994394E+02  0.10566000000E+00 0. -1.
        994    1    1    2    0    0  0.76716988713E+01  0.65741674511E+01  0.11728527797E+02  0.17189843805E+03  0.17120000000E+03 0.  0.
        998    1    1    2    0    0 -0.29758944797E+00  0.33374896515E+00  0.14891269241E+04  0.14891605676E+04  0.10000000000E+02 0. -1.
</event>
<event>
 5    1  0.1147307E-008  0.3845496E+03  0.7957747E-01  0.3431585E+00
         13   -1    0    0    0    0  0.00000000000E+00  0.00000000000E+00  0.14999999963E+04  0.15000000000E+04  0.10566000000E+00 0. -1.
        994   -1    0    0    0    0 -0.00000000000E+00 -0.00000000000E+00  0.11368683772E-12  0.17120000000E+03  0.17120000000E+03 0.  0.
         13    1    1    2    0    0  0.43849477134E+01 -0.93192089511E+01  0.22904863685E+02  0.25114126829E+02  0.10566000000E+00 0. -1.
        994    1    1    2    0    0 -0.25700745991E+02  0.57303249119E+02  0.14953747754E+02  0.18296788045E+03  0.17120000000E+03 0.  0.
        998    1    1    2    0    0  0.21315798278E+02 -0.47984040168E+02  0.14621413848E+04  0.14631179927E+04  0.10000000000E+02 0. -1.
</event>
<event>
 5    1  0.1147307E-008  0.3852958E+03  0.7957747E-01  0.3428419E+00
         13   -1    0    0    0    0  0.00000000000E+00  0.00000000000E+00  0.14999999963E+04  0.15000000000E+04  0.10566000000E+00 0. -1.
        994   -1    0    0    0    0 -0.00000000000E+00 -0.00000000000E+00  0.11368683772E-12  0.17120000000E+03  0.17120000000E+03 0.  0.
         13    1    1    2    0    0  0.35889096849E+01 -0.11605961756E+02  0.50263997846E+02  0.51711306931E+02  0.10566000000E+00 0. -1.
        994    1    1    2    0    0  0.89691759620E+00  0.73064355586E+01  0.16614056973E+01  0.17136624151E+03  0.17120000000E+03 0.  0.
        998    1    1    2    0    0 -0.44858272811E+01  0.42995261975E+01  0.14480745927E+04  0.14481224516E+04  0.10000000000E+02 0. -1.
</event>
<event>
 5    1  0.1147307E-008  0.3798901E+03  0.7957747E-01  0.3451637E+00
         13   -1    0    0    0    0  0.00000000000E+00  0.00000000000E+00  0.14999999963E+04  0.15000000000E+04  0.10566000000E+00 0. -1.
        994   -1    0    0    0    0 -0.00000000000E+00 -0.00000000000E+00  0.11368683772E-12  0.17120000000E+03  0.17120000000E+03 0.  0.
         13    1    1    2    0    0  0.43578265546E+02  0.69604728505E+02  0.38239971252E+03  0.39111818515E+03  0.10566000000E+00 0. -1.
        994    1    1    2    0    0 -0.11814201004E+03 -0.80650487482E+02  0.75963438644E+02  0.23567333255E+03  0.17120000000E+03 0.  0.
        998    1    1    2    0    0  0.74563744490E+02  0.11045758977E+02  0.10416368451E+04  0.10444084823E+04  0.10000000000E+02 0. -1.
</event>
<event>
 5    1  0.1147307E-008  0.3767707E+03  0.7957747E-01  0.3465341E+00
         13   -1    0    0    0    0  0.00000000000E+00  0.00000000000E+00  0.14999999963E+04  0.15000000000E+04  0.10566000000E+00 0. -1.
        994   -1    0    0    0    0 -0.00000000000E+00 -0.00000000000E+00  0.11368683772E-12  0.17120000000E+03  0.17120000000E+03 0.  0.
         13    1    1    2    0    0  0.20027324049E+02 -0.22729002792E+02  0.75766089942E+02  0.81597872678E+02  0.10566000000E+00 0. -1.
        994    1    1    2    0    0 -0.26342846655E+02  0.92564076897E+01  0.84110845525E+01  0.17366580837E+03  0.17120000000E+03 0.  0.
        998    1    1    2    0    0  0.63155226060E+01  0.13472595102E+02  0.14158228218E+04  0.14159363190E+04  0.10000000000E+02 0. -1.
</event>
<event>
 5    1  0.1147307E-008  0.3853396E+03  0.7957747E-01  0.3428233E+00
         13   -1    0    0    0    0  0.00000000000E+00  0.00000000000E+00  0.14999999963E+04  0.15000000000E+04  0.10566000000E+00 0.  1.
        994   -1    0    0    0    0 -0.00000000000E+00 -0.00000000000E+00  0.11368683772E-12  0.17120000000E+03  0.17120000000E+03 0.  0.
         13    1    1    2    0    0 -0.63338992090E+01 -0.92161785538E+01  0.41470347546E+02  0.42951799915E+02  0.10566000000E+00 0.  1.
        994    1    1    2    0    0  0.72723239012E+01  0.11522819911E+02  0.20717842189E+01  0.17175387729E+03  0.17120000000E+03 0.  0.
        998    1    1    2    0    0 -0.93842469221E+00 -0.23066413577E+01  0.14564578645E+04  0.14564943228E+04  0.10000000000E+02 0.  1.
</event>
<event>
 5    1  0.1147307E-008  0.3804596E+03  0.7957747E-01  0.3449160E+00
         13   -1    0    0    0    0  0.00000000000E+00  0.00000000000E+00  0.14999999963E+04  0.15000000000E+04  0.10566000000E+00 0. -1.
        994   -1    0    0    0    0 -0.00000000000E+00 -0.00000000000E+00  0.11368683772E-12  0.17120000000E+03  0.17120000000E+03 0.  0.
         13    1    1    2    0    0  0.16479817026E+01 -0.12863311281E+02 -0.25814623847E+01  0.13223302646E+02  0.10566000000E+00 0. -1.
        994    1    1    2    0    0 -0.49972451576E+01  0.12042119128E+02  0.17197259384E+02  0.17255483425E+03  0.17120000000E+03 0.  0.
        998    1    1    2    0    0  0.33492634550E+01  0.82119215274E+00  0.14853841993E+04  0.14854218631E+04  0.10000000000E+02 0. -1.
</event>
<event>
 5    1  0.1147307E-008  0.3716181E+03  0.7957747E-01  0.3488487E+00
         13   -1    0    0    0    0  0.00000000000E+00  0.00000000000E+00  0.14999999963E+04  0.15000000000E+04  0.10566000000E+00 0. -1.
        994   -1    0    0    0    0 -0.00000000000E+00 -0.00000000000E+00  0.11368683772E-12  0.17120000000E+03  0.17120000000E+03 0.  0.
         13    1    1    2    0    0 -0.11817560212E+02  0.10323716511E+02  0.11720019590E+02  0.19585808005E+02  0.10566000000E+00 0. -1.
        994    1    1    2    0    0 -0.27013029265E+02  0.43421762939E+01  0.11003921132E+02  0.17372128403E+03  0.17120000000E+03 0.  0.
        998    1    1    2    0    0  0.38830589477E+02 -0.14665892805E+02  0.14772760556E+04  0.14778929080E+04  0.10000000000E+02 0. -1.
</event>
<event>
 5    1  0.1147307E-008  0.3836201E+03  0.7957747E-01  0.3435546E+00
         13   -1    0    0    0    0  0.00000000000E+00  0.00000000000E+00  0.14999999963E+04  0.15000000000E+04  0.10566000000E+00 0. -1.
        994   -1    0    0    0    0 -0.00000000000E+00 -0.00000000000E+00  0.11368683772E-12  0.17120000000E+03  0.17120000000E+03 0.  0.
         13    1    1    2    0    0 -0.14361243385E+02  0.93729069405E+00  0.44226680716E+02  0.46509507379E+02  0.10566000000E+00 0. -1.
        994    1    1    2    0    0  0.85647038156E+01 -0.50790439086E+01  0.26444133600E+01  0.17150971914E+03  0.17120000000E+03 0.  0.
        998    1    1    2    0    0  0.57965395697E+01  0.41417532145E+01  0.14531289022E+04  0.14531807735E+04  0.10000000000E+02 0. -1.
</event>
<event>
 5    1  0.1147307E-008  0.3695191E+03  0.7957747E-01  0.3498104E+00
         13   -1    0    0    0    0  0.00000000000E+00  0.00000000000E+00  0.14999999963E+04  0.15000000000E+04  0.10566000000E+00 0. -1.
        994   -1    0    0    0    0 -0.00000000000E+00 -0.00000000000E+00  0.11368683772E-12  0.17120000000E+03  0.17120000000E+03 0.  0.
         13    1    1    2    0    0  0.21379912983E+02  0.16621120959E+02  0.34068979363E+02  0.43520901415E+02  0.10566000000E+00 0. -1.
        994    1    1    2    0    0 -0.22474475075E+02 -0.12621245965E+02  0.11825128427E+02  0.17353291198E+03  0.17120000000E+03 0.  0.
        998    1    1    2    0    0  0.10945620928E+01 -0.39998749939E+01  0.14541058885E+04  0.14541461866E+04  0.10000000000E+02 0. -1.
</event>
<event>
 5    1  0.1147307E-008  0.3860246E+03  0.7957747E-01  0.3425338E+00
         13   -1    0    0    0    0  0.00000000000E+00  0.00000000000E+00  0.14999999963E+04  0.15000000000E+04  0.10566000000E+00 0.  1.
        994   -1    0    0    0    0 -0.00000000000E+00 -0.00000000000E+00  0.11368683772E-12  0.17120000000E+03  0.17120000000E+03 0.  0.
         13    1    1    2    0    0 -0.10785045187E+02  0.27445652804E+01  0.59661885827E+02  0.60691034122E+02  0.10566000000E+00 0.  1.
        994    1    1    2    0    0  0.66274265389E+00  0.83113581180E+01  0.13501894103E+01  0.17140822884E+03  0.17120000000E+03 0.  0.
        998    1    1    2    0    0  0.10122302533E+02 -0.11055923398E+02  0.14389879210E+04  0.14391007370E+04  0.10000000000E+02 0.  1.
</event>
<event>
 5    1  0.1147307E-008  0.3839119E+03  0.7957747E-01  0.3434300E+00
         13   -1    0    0    0    0  0.00000000000E+00  0.00000000000E+00  0.14999999963E+04  0.15000000000E+04  0.10566000000E+00 0. -1.
        994   -1    0    0    0    0 -0.00000000000E+00 -0.00000000000E+00  0.11368683772E-12  0.17120000000E+03  0.17120000000E+03 0.  0.
         13    1    1    2    0    0 -0.18405568813E+02  0.52055315402E+01  0.94172820243E+02  0.96095753072E+02  0.10566000000E+00 0. -1.
        994    1    1    2    0    0 -0.64474103865E+01 -0.45904118961E+01  0.23780687292E+01  0.17139934712E+03  0.17120000000E+03 0.  0.
        998    1    1    2    0    0  0.24852979199E+02 -0.61511964409E+00  0.14034491073E+04  0.14037048998E+04  0.10000000000E+02 0. -1.
</event>
<event>
 5    1  0.1147307E-008  0.3754116E+03  0.7957747E-01  0.3471384E+00
         13   -1    0    0    0    0  0.00000000000E+00  0.00000000000E+00  0.14999999963E+04  0.15000000000E+04  0.10566000000E+00 0.  1.
        994   -1    0    0    0    0 -0.00000000000E+00 -0.00000000000E+00  0.11368683772E-12  0.17120000000E+03  0.17120000000E+03 0.  0.
         13    1    1    2    0    0  0.57991498373E+02 -0.32554724695E+02  0.29400904927E+03  0.30143681958E+03  0.10566000000E+00 0.  1.
        994    1    1    2    0    0 -0.49670733440E+02  0.28995504696E+02  0.17780192655E+02  0.18147588353E+03  0.17120000000E+03 0.  0.
        998    1    1    2    0    0 -0.83207649324E+01  0.35592199987E+01  0.11882107544E+04  0.11882872969E+04  0.10000000000E+02 0.  1.
</event>
<event>
 5    1  0.1147307E-008  0.3811126E+03  0.7957747E-01  0.3446328E+00
         13   -1    0    0    0    0  0.00000000000E+00  0.00000000000E+00  0.14999999963E+04  0.15000000000E+04  0.10566000000E+00 0.  1.
        994   -1    0    0    0    0 -0.00000000000E+00 -0.00000000000E+00  0.11368683772E-12  0.17120000000E+03  0.17120000000E+03 0.  0.
         13    1    1    2    0    0 -0.86324498994E+01  0.13387000864E+02  0.32899353692E+02  0.36552833280E+02  0.10566000000E+00 0.  1.
        994    1    1    2    0    0  0.11500591874E+02 -0.18726650604E+02  0.51827598980E+01  0.17268251810E+03  0.17120000000E+03 0.  0.
        998    1    1    2    0    0 -0.28681419751E+01  0.53396497399E+01  0.14619178827E+04  0.14619646486E+04  0.10000000000E+02 0.  1.
</event>
<event>
 5    1  0.1147307E-008  0.3798677E+03  0.7957747E-01  0.3451735E+00
         13   -1    0    0    0    0  0.00000000000E+00  0.00000000000E+00  0.14999999963E+04  0.15000000000E+04  0.10566000000E+00 0.  1.
        994   -1    0    0    0    0 -0.00000000000E+00 -0.00000000000E+00  0.11368683772E-12  0.17120000000E+03  0.17120000000E+03 0.  0.
         13    1    1    2    0    0 -0.15304307767E+02 -0.10186822959E+02  0.42190953651E+02  0.46022613271E+02  0.10566000000E+00 0.  1.
        994    1    1    2    0    0 -0.57884876114E+01 -0.14937927606E+02  0.50587249332E+01  0.17202232113E+03  0.17120000000E+03 0.  0.
        998    1    1    2    0    0  0.21092795378E+02  0.25124750566E+02  0.14527503177E+04  0.14531550656E+04  0.10000000000E+02 0.  1.
</event>
<event>
 5    1  0.1514660E-008  0.3857847E+03  0.7957747E-01  0.3426351E+00
         13   -1    0    0    0    0  0.00000000000E+00  0.00000000000E+00  0.14999999963E+04  0.15000000000E+04  0.10566000000E+00 0.  1.
        994   -1    0    0    0    0 -0.00000000000E+00 -0.00000000000E+00  0.11368683772E-12  0.17120000000E+03  0.17120000000E+03 0.  0.
         13    1    1    2    0    0 -0.12719523818E+02 -0.16369431654E+01  0.64149869195E+02  0.65419284243E+02  0.10566000000E+00 0.  1.
        994    1    1    2    0    0  0.14178300606E+02  0.16065389200E+01  0.19092432616E+01  0.17180422109E+03  0.17120000000E+03 0.  0.
        998    1    1    2    0    0 -0.14587767877E+01  0.30404245417E-01  0.14339408838E+04  0.14339764947E+04  0.10000000000E+02 0.  1.
</event>
<event>
 5    1  0.1147307E-008  0.3696448E+03  0.7957747E-01  0.3497525E+00
         13   -1    0    0    0    0  0.00000000000E+00  0.00000000000E+00  0.14999999963E+04  0.15000000000E+04  0.10566000000E+00 0.  1.
        994   -1    0    0    0    0 -0.00000000000E+00 -0.00000000000E+00  0.11368683772E-12  0.17120000000E+03  0.17120000000E+03 0.  0.
         13    1    1    2    0    0  0.13532946624E+03 -0.67291099793E+02  0.53635937569E+03  0.55724639756E+03  0.10566000000E+00 0.  1.
        994    1    1    2    0    0 -0.15054628142E+03  0.97894964403E+02  0.13102923717E+03  0.28058101842E+03  0.17120000000E+03 0.  0.
        998    1    1    2    0    0  0.15216815174E+02 -0.30603864610E+02  0.83261138342E+03  0.83337258402E+03  0.10000000000E+02 0.  1.
</event>
<event>
 5    1  0.1147307E-008  0.3827776E+03  0.7957747E-01  0.3439153E+00
         13   -1    0    0    0    0  0.00000000000E+00  0.00000000000E+00  0.14999999963E+04  0.15000000000E+04  0.10566000000E+00 0. -1.
        994   -1    0    0    0    0 -0.00000000000E+00 -0.00000000000E+00  0.11368683772E-12  0.17120000000E+03  0.17120000000E+03 0.  0.
         13    1    1    2    0    0  0.82973284791E+01  0.22704089833E+02  0.98336946294E+02  0.10126444354E+03  0.10566000000E+00 0. -1.
        994    1    1    2    0    0 -0.95416873811E+01 -0.25437074681E+02  0.51863246322E+01  0.17341979855E+03  0.17120000000E+03 0.  0.
        998    1    1    2    0    0  0.12443589020E+01  0.27329848479E+01  0.13964767254E+04  0.13965157579E+04  0.10000000000E+02 0. -1.
</event>
<event>
 5    1  0.1147307E-008  0.4023085E+03  0.7957747E-01  0.3359426E+00
         13   -1    0    0    0    0  0.00000000000E+00  0.00000000000E+00  0.14999999963E+04  0.15000000000E+04  0.10566000000E+00 0. -1.
        994   -1    0    0    0    0 -0.00000000000E+00 -0.00000000000E+00  0.11368683772E-12  0.17120000000E+03  0.17120000000E+03 0.  0.
         13    1    1    2    0    0 -0.19223572635E+02 -0.88572319227E+02  0.13996686735E+03  0.16674932263E+03  0.10566000000E+00 0. -1.
        994    1    1    2    0    0  0.52824744878E+02  0.34927273685E+02  0.45191267790E+02  0.18804802260E+03  0.17120000000E+03 0.  0.
        998    1    1    2    0    0 -0.33601172243E+02  0.53645045542E+02  0.13148418611E+04  0.13164026548E+04  0.10000000000E+02 0. -1.
</event>
<event>
 5    1  0.1147307E-008  0.3740126E+03  0.7957747E-01  0.3477651E+00
         13   -1    0    0    0    0  0.00000000000E+00  0.00000000000E+00  0.14999999963E+04  0.15000000000E+04  0.10566000000E+00 0. -1.
        994   -1    0    0    0    0 -0.00000000000E+00 -0.00000000000E+00  0.11368683772E-12  0.17120000000E+03  0.17120000000E+03 0.  0.
         13    1    1    2    0    0  0.42801987859E+02  0.62412129003E+02  0.33748528849E+03  0.34586647007E+03  0.10566000000E+00 0. -1.
        994    1    1    2    0    0  0.64516699659E+02 -0.20628885318E+02  0.29528585071E+02  0.18646536617E+03  0.17120000000E+03 0.  0.
        998    1    1    2    0    0 -0.10731868752E+03 -0.41783243685E+02  0.11329861227E+04  0.11388681638E+04  0.10000000000E+02 0. -1.
</event>
<event>
 5    1  0.1147307E-008  0.3828046E+03  0.7957747E-01  0.3439037E+00
         13   -1    0    0    0    0  0.00000000000E+00  0.00000000000E+00  0.14999999963E+04  0.15000000000E+04  0.10566000000E+00 0. -1.
        994   -1    0    0    0    0 -0.00000000000E+00 -0.00000000000E+00  0.11368683772E-12  0.17120000000E+03  0.17120000000E+03 0.  0.
         13    1    1    2    0    0  0.72554718385E+01  0.19524380556E+02  0.76155026331E+02  0.78952153278E+02  0.10566000000E+00 0. -1.
        994    1    1    2    0    0 -0.34822661547E+01 -0.19629456999E+02  0.40415794851E+01  0.17240422305E+03  0.17120000000E+03 0.  0.
        998    1    1    2    0    0 -0.37732056838E+01  0.10507644312E+00  0.14198033905E+04  0.14198436237E+04  0.10000000000E+02 0. -1.
</event>
<event>
 5    1  0.1147307E-008  0.3839602E+03  0.7957747E-01  0.3434094E+00
         13   -1    0    0    0    0  0.00000000000E+00  0.00000000000E+00  0.14999999963E+04  0.15000000000E+04  0.10566000000E+00 0. -1.
        994   -1    0    0    0    0 -0.00000000000E+00 -0.00000000000E+00  0.11368683772E-12  0.17120000000E+03  0.17120000000E+03 0.  0.
         13    1    1    2    0    0  0.10032169707E+02 -0.25738277675E+01  0.24178436092E+02  0.26303554024E+02  0.10566000000E+00 0. -1.
        994    1    1    2    0    0 -0.91129487965E+01 -0.15447216083E+00  0.24213987256E+01  0.17145953712E+03  0.17120000000E+03 0.  0.
        998    1    1    2    0    0 -0.91922091008E+00  0.27282999283E+01  0.14734001615E+04  0.14734369089E+04  0.10000000000E+02 0. -1.
</event>
<event>
 5    1  0.1147307E-008  0.3793093E+03  0.7957747E-01  0.3454171E+00
         13   -1    0    0    0    0  0.00000000000E+00  0.00000000000E+00  0.14999999963E+04  0.15000000000E+04  0.10566000000E+00 0. -1.
        994   -1    0    0    0    0 -0.00000000000E+00 -0.00000000000E+00  0.11368683772E-12  0.17120000000E+03  0.17120000000E+03 0.  0.
         13    1    1    2    0    0  0.80415929307E+02 -0.26083654800E+02  0.47289696152E+03  0.48039424030E+03  0.10566000000E+00 0. -1.
        994    1    1    2    0    0 -0.97563726715E+02  0.11279582451E+02  0.37511091105E+02  0.20090403606E+03  0.17120000000E+03 0.  0.
        998    1    1    2    0    0  0.17147797408E+02  0.14804072349E+02  0.98959194365E+03  0.98990172363E+03  0.10000000000E+02 0. -1.
</event>
<event>
 5    1  0.1147307E-008  0.3708249E+03  0.7957747E-01  0.3492109E+00
         13   -1    0    0    0    0  0.00000000000E+00  0.00000000000E+00  0.14999999963E+04  0.15000000000E+04  0.10566000000E+00 0. -1.
        994   -1    0    0    0    0 -0.00000000000E+00 -0.00000000000E+00  0.11368683772E-12  0.17120000000E+03  0.17120000000E+03 0.  0.
         13    1    1    2    0    0 -0.26609859787E+01 -0.59034601506E+02  0.16999969914E+03  0.17997798169E+03  0.10566000000E+00 0. -1.
        994    1    1    2    0    0 -0.28162111758E+01  0.63135440232E+02  0.22737842137E+02  0.18390341031E+03  0.17120000000E+03 0.  0.
        998    1    1    2    0    0  0.54771971545E+01 -0.41008387259E+01  0.13072624550E+04  0.13073186080E+04  0.10000000000E+02 0. -1.
</event>
<event>
 5    1  0.1147307E-008  0.3116805E+03  0.7957747E-01  0.3816005E+00
         13   -1    0    0    0    0  0.00000000000E+00  0.00000000000E+00  0.14999999963E+04  0.15000000000E+04  0.10566000000E+00 0.  1.
        994   -1    0    0    0    0 -0.00000000000E+00 -0.00000000000E+00  0.11368683772E-12  0.17120000000E+03  0.17120000000E+03 0.  0.
         13    1    1    2    0    0 -0.17585373864E+03 -0.12949108642E+03  0.68521610646E+03  0.71917564097E+03  0.10566000000E+00 0.  1.
        994    1    1    2    0    0  0.14273060138E+03  0.15015802538E+03  0.19772965692E+03  0.33365538267E+03  0.17120000000E+03 0.  0.
        998    1    1    2    0    0  0.33123137258E+02 -0.20666938957E+02  0.61705423290E+03  0.61836897636E+03  0.10000000000E+02 0.  1.
</event>
<event>
 5    1  0.1147307E-008  0.3783168E+03  0.7957747E-01  0.3458520E+00
         13   -1    0    0    0    0  0.00000000000E+00  0.00000000000E+00  0.14999999963E+04  0.15000000000E+04  0.10566000000E+00 0.  1.
        994   -1    0    0    0    0 -0.00000000000E+00 -0.00000000000E+00  0.11368683772E-12  0.17120000000E+03  0.17120000000E+03 0.  0.
         13    1    1    2    0    0  0.74416152492E+02  0.63424299703E+02  0.31983217348E+03  0.33444436891E+03  0.10566000000E+00 0.  1.
        994    1    1    2    0    0 -0.29761129279E+02 -0.42375701381E+02  0.25126072839E+02  0.18061612447E+03  0.17120000000E+03 0.  0.
        998    1    1    2    0    0 -0.44655023214E+02 -0.21048598322E+02  0.11550417500E+04  0.11561395066E+04  0.10000000000E+02 0.  1.
</event>
<event>
 5    1  0.1147307E-008  0.3690861E+03  0.7957747E-01  0.3500102E+00
         13   -1    0    0    0    0  0.00000000000E+00  0.00000000000E+00  0.14999999963E+04  0.15000000000E+04  0.10566000000E+00 0.  1.
        994   -1    0    0    0    0 -0.00000000000E+00 -0.00000000000E+00  0.11368683772E-12  0.17120000000E+03  0.17120000000E+03 0.  0.
         13    1    1    2    0    0 -0.42791066588E+02 -0.90854656881E+01  0.90103141288E+02  0.10016091204E+03  0.10566000000E+00 0.  1.
        994    1    1    2    0    0  0.41723578169E+02  0.49571422368E+01  0.15896075394E+02  0.17699591930E+03  0.17120000000E+03 0.  0.
        998    1    1    2    0    0  0.10674884185E+01  0.41283234514E+01  0.13940007796E+04  0.13940431687E+04  0.10000000000E+02 0.  1.
</event>
<event>
 5    1  0.1147307E-008  0.3694913E+03  0.7957747E-01  0.3498232E+00
         13   -1    0    0    0    0  0.00000000000E+00  0.00000000000E+00  0.14999999963E+04  0.15000000000E+04  0.10566000000E+00 0.  1.
        994   -1    0    0    0    0 -0.00000000000E+00 -0.00000000000E+00  0.11368683772E-12  0.17120000000E+03  0.17120000000E+03 0.  0.
         13    1    1    2    0    0  0.33928151550E+02  0.12286859158E+02  0.55884427711E+02  0.66521927213E+02  0.10566000000E+00 0.  1.
        994    1    1    2    0    0 -0.22647356282E+02 -0.28050993907E+02  0.15219557106E+02  0.17561559135E+03  0.17120000000E+03 0.  0.
        998    1    1    2    0    0 -0.11280795268E+02  0.15764134749E+02  0.14288960115E+04  0.14290624814E+04  0.10000000000E+02 0.  1.
</event>
<event>
 5    1  0.1889539E-008  0.3861785E+03  0.7957747E-01  0.3424689E+00
         13   -1    0    0    0    0  0.00000000000E+00  0.00000000000E+00  0.14999999963E+04  0.15000000000E+04  0.10566000000E+00 0. -1.
        994   -1    0    0    0    0 -0.00000000000E+00 -0.00000000000E+00  0.11368683772E-12  0.17120000000E+03  0.17120000000E+03 0.  0.
         13    1    1    2    0    0  0.19749886911E+01  0.11913572703E+02  0.58292435566E+02  0.59530269638E+02  0.10566000000E+00 0. -1.
        994    1    1    2    0    0 -0.78130143422E+01 -0.34240466281E+02  0.50975523082E+01  0.17483957722E+03  0.17120000000E+03 0.  0.
        998    1    1    2    0    0  0.58380256511E+01  0.22326893579E+02  0.14366100084E+04  0.14368301531E+04  0.10000000000E+02 0. -1.
</event>
<event>
 5    1  0.1147307E-008  0.3808354E+03  0.7957747E-01  0.3447529E+00
         13   -1    0    0    0    0  0.00000000000E+00  0.00000000000E+00  0.14999999963E+04  0.15000000000E+04  0.10566000000E+00 0. -1.
        994   -1    0    0    0    0 -0.00000000000E+00 -0.00000000000E+00  0.11368683772E-12  0.17120000000E+03  0.17120000000E+03 0.  0.
         13    1    1    2    0    0  0.20043073335E+02 -0.22625492597E+01  0.63488013589E+02  0.66615185592E+02  0.10566000000E+00 0. -1.
        994    1    1    2    0    0  0.25596050366E+02 -0.26156454993E+01  0.59220993791E+01  0.17322387438E+03  0.17120000000E+03 0.  0.
        998    1    1    2    0    0 -0.45639123701E+02  0.48781947590E+01  0.14305898833E+04  0.14313609400E+04  0.10000000000E+02 0. -1.
</event>
<event>
 5    1  0.1147307E-008  0.3739589E+03  0.7957747E-01  0.3477892E+00
         13   -1    0    0    0    0  0.00000000000E+00  0.00000000000E+00  0.14999999963E+04  0.15000000000E+04  0.10566000000E+00 0.  1.
        994   -1    0    0    0    0 -0.00000000000E+00 -0.00000000000E+00  0.11368683772E-12  0.17120000000E+03  0.17120000000E+03 0.  0.
         13    1    1    2    0    0 -0.10603019817E+02  0.40393310241E+02  0.13723594104E+03  0.14344949710E+03  0.10566000000E+00 0.  1.
        994    1    1    2    0    0 -0.36912648890E+01  0.46751071101E+01  0.73353886817E+01  0.17146057853E+03  0.17120000000E+03 0.  0.
        998    1    1    2    0    0  0.14294284706E+02 -0.45068417351E+02  0.13554286666E+04  0.13562899244E+04  0.10000000000E+02 0.  1.
</event>
<event>
 5    1  0.1147307E-008  0.2826665E+03  0.7957747E-01  0.4028103E+00
         13   -1    0    0    0    0  0.00000000000E+00  0.00000000000E+00  0.14999999963E+04  0.15000000000E+04  0.10566000000E+00 0.  1.
        994   -1    0    0    0    0 -0.00000000000E+00 -0.00000000000E+00  0.11368683772E-12  0.17120000000E+03  0.17120000000E+03 0.  0.
         13    1    1    2    0    0  0.17889965643E+03  0.34296333422E+02  0.70486863457E+03  0.72802550005E+03  0.10566000000E+00 0.  1.
        994    1    1    2    0    0 -0.65913486696E+02 -0.14348106724E+03  0.14521373555E+03  0.27445923810E+03  0.17120000000E+03 0.  0.
        998    1    1    2    0    0 -0.11298616973E+03  0.10918473382E+03  0.64991762615E+03  0.66871526185E+03  0.10000000000E+02 0. -1.
</event>
<event>
 5    1  0.1147307E-008  0.3838259E+03  0.7957747E-01  0.3434667E+00
         13   -1    0    0    0    0  0.00000000000E+00  0.00000000000E+00  0.14999999963E+04  0.15000000000E+04  0.10566000000E+00 0.  1.
        994   -1    0    0    0    0 -0.00000000000E+00 -0.00000000000E+00  0.11368683772E-12  0.17120000000E+03  0.17120000000E+03 0.  0.
         13    1    1    2    0    0 -0.48871848409E+01  0.19318968467E+02  0.92959643205E+02  0.95071623248E+02  0.10566000000E+00 0.  1.
        994    1    1    2    0    0  0.75932236633E+01 -0.46560195257E+01  0.24761429474E+01  0.17144942942E+03  0.17120000000E+03 0.  0.
        998    1    1    2    0    0 -0.27060388225E+01 -0.14662948941E+02  0.14045642101E+04  0.14046789473E+04  0.10000000000E+02 0.  1.
</event>
<event>
 5    1  0.1147307E-008  0.3826806E+03  0.7957747E-01  0.3439569E+00
         13   -1    0    0    0    0  0.00000000000E+00  0.00000000000E+00  0.14999999963E+04  0.15000000000E+04  0.10566000000E+00 0. -1.
        994   -1    0    0    0    0 -0.00000000000E+00 -0.00000000000E+00  0.11368683772E-12  0.17120000000E+03  0.17120000000E+03 0.  0.
         13    1    1    2    0    0 -0.26830130630E+01 -0.20826728429E+02  0.73168355984E+02  0.76122077334E+02  0.10566000000E+00 0. -1.
        994    1    1    2    0    0 -0.30908715951E+01  0.26965396409E+02  0.52309628579E+01  0.17341709565E+03  0.17120000000E+03 0.  0.
        998    1    1    2    0    0  0.57738846581E+01 -0.61386679803E+01  0.14216006774E+04  0.14216608270E+04  0.10000000000E+02 0. -1.
</event>
<event>
 5    1  0.1147307E-008  0.3698334E+03  0.7957747E-01  0.3496657E+00
         13   -1    0    0    0    0  0.00000000000E+00  0.00000000000E+00  0.14999999963E+04  0.15000000000E+04  0.10566000000E+00 0.  1.
        994   -1    0    0    0    0 -0.00000000000E+00 -0.00000000000E+00  0.11368683772E-12  0.17120000000E+03  0.17120000000E+03 0.  0.
         13    1    1    2    0    0  0.13890111819E+02  0.56247228501E+01  0.65581455802E+01  0.16358274694E+02  0.10566000000E+00 0.  1.
        994    1    1    2    0    0 -0.63011088082E+02 -0.32368106337E+02  0.26923130999E+02  0.18722282583E+03  0.17120000000E+03 0.  0.
        998    1    1    2    0    0  0.49120976263E+02  0.26743383487E+02  0.14665187197E+04  0.14676188995E+04  0.10000000000E+02 0.  1.
</event>
<event>
 5    1  0.1147307E-008  0.3811549E+03  0.7957747E-01  0.3446145E+00
         13   -1    0    0    0    0  0.00000000000E+00  0.00000000000E+00  0.14999999963E+04  0.15000000000E+04  0.10566000000E+00 0. -1.
        994   -1    0    0    0    0 -0.00000000000E+00 -0.00000000000E+00  0.11368683772E-12  0.17120000000E+03  0.17120000000E+03 0.  0.
         13    1    1    2    0    0  0.39425428267E+02  0.60043073393E+01  0.20226788081E+03  0.20616188511E+03  0.10566000000E+00 0. -1.
        994    1    1    2    0    0 -0.33554660424E+02 -0.15256394751E+02  0.80891805137E+01  0.17530986184E+03  0.17120000000E+03 0.  0.
        998    1    1    2    0    0 -0.58707678439E+01  0.92520874118E+01  0.12896429350E+04  0.12897282530E+04  0.10000000000E+02 0. -1.
</event>
<event>
 5    1  0.1147307E-008  0.3789038E+03  0.7957747E-01  0.3455946E+00
         13   -1    0    0    0    0  0.00000000000E+00  0.00000000000E+00  0.14999999963E+04  0.15000000000E+04  0.10566000000E+00 0. -1.
        994   -1    0    0    0    0 -0.00000000000E+00 -0.00000000000E+00  0.11368683772E-12  0.17120000000E+03  0.17120000000E+03 0.  0.
         13    1    1    2    0    0 -0.34216314085E+02  0.28813270054E+02  0.21845752825E+03  0.22299027668E+03  0.10566000000E+00 0. -1.
        994    1    1    2    0    0 -0.26595331839E+02 -0.79108170654E+02  0.28423827031E+02  0.19256886634E+03  0.17120000000E+03 0.  0.
        998    1    1    2    0    0  0.60811645924E+02  0.50294900600E+02  0.12531186410E+04  0.12556408570E+04  0.10000000000E+02 0. -1.
</event>
<event>
 5    1  0.1147307E-008  0.3760632E+03  0.7957747E-01  0.3468481E+00
         13   -1    0    0    0    0  0.00000000000E+00  0.00000000000E+00  0.14999999963E+04  0.15000000000E+04  0.10566000000E+00 0. -1.
        994   -1    0    0    0    0 -0.00000000000E+00 -0.00000000000E+00  0.11368683772E-12  0.17120000000E+03  0.17120000000E+03 0.  0.
         13    1    1    2    0    0  0.43846611390E+02  0.24252191912E+02  0.89336291768E+02  0.10242889404E+03  0.10566000000E+00 0. -1.
        994    1    1    2    0    0 -0.11458296997E+02 -0.41072223576E+01  0.14710852472E+02  0.17226146123E+03  0.17120000000E+03 0.  0.
        998    1    1    2    0    0 -0.32388314393E+02 -0.20144969554E+02  0.13959528520E+04  0.13965096447E+04  0.10000000000E+02 0. -1.
</event>
<event>
 5    1  0.1147307E-008  0.3703196E+03  0.7957747E-01  0.3494424E+00
         13   -1    0    0    0    0  0.00000000000E+00  0.00000000000E+00  0.14999999963E+04  0.15000000000E+04  0.10566000000E+00 0. -1.
        994   -1    0    0    0    0 -0.00000000000E+00 -0.00000000000E+00  0.11368683772E-12  0.17120000000E+03  0.17120000000E+03 0.  0.
         13    1    1    2    0    0 -0.18278057868E+02 -0.47122242312E+02  0.10506743071E+03  0.11659232084E+03  0.10566000000E+00 0. -1.
        994    1    1    2    0    0  0.19545717366E+02  0.43466495033E+02  0.19100054470E+02  0.17873338619E+03  0.17120000000E+03 0.  0.
        998    1    1    2    0    0 -0.12676594977E+01  0.36557472788E+01  0.13758325111E+04  0.13758742930E+04  0.10000000000E+02 0.  0.
</event>
<event>
 5    1  0.1147307E-008  0.3754487E+03  0.7957747E-01  0.3471218E+00
         13   -1    0    0    0    0  0.00000000000E+00  0.00000000000E+00  0.14999999963E+04  0.15000000000E+04  0.10566000000E+00 0.  1.
        994   -1    0    0    0    0 -0.00000000000E+00 -0.00000000000E+00  0.11368683772E-12  0.17120000000E+03  0.17120000000E+03 0.  0.
         13    1    1    2    0    0 -0.18172617538E+02 -0.34692787782E+02  0.11195087108E+03  0.11860371939E+03  0.10566000000E+00 0.  1.
        994    1    1    2    0    0  0.19606938624E+02  0.26844138633E+02  0.10208218890E+02  0.17469598608E+03  0.17120000000E+03 0.  0.
        998    1    1    2    0    0 -0.14343210856E+01  0.78486491494E+01  0.13778409063E+04  0.13779002945E+04  0.10000000000E+02 0.  1.
</event>
<event>
 5    1  0.1147307E-008  0.3860000E+03  0.7957747E-01  0.3425442E+00
         13   -1    0    0    0    0  0.00000000000E+00  0.00000000000E+00  0.14999999963E+04  0.15000000000E+04  0.10566000000E+00 0.  1.
        994   -1    0    0    0    0 -0.00000000000E+00 -0.00000000000E+00  0.11368683772E-12  0.17120000000E+03  0.17120000000E+03 0.  0.
         13    1    1    2    0    0  0.83787025836E+01 -0.85120719960E+01  0.52955742133E+02  0.54286092285E+02  0.10566000000E+00 0.  1.
        994    1    1    2    0    0 -0.59854641468E+02 -0.48365641127E+01  0.13045341268E+02  0.18189445123E+03  0.17120000000E+03 0.  0.
        998    1    1    2    0    0  0.51475938885E+02  0.13348636109E+02  0.14339989129E+04  0.14350194565E+04  0.10000000000E+02 0.  1.
</event>
<event>
 5    1  0.1147307E-008  0.3829025E+03  0.7957747E-01  0.3438617E+00
         13   -1    0    0    0    0  0.00000000000E+00  0.00000000000E+00  0.14999999963E+04  0.15000000000E+04  0.10566000000E+00 0. -1.
        994   -1    0    0    0    0 -0.00000000000E+00 -0.00000000000E+00  0.11368683772E-12  0.17120000000E+03  0.17120000000E+03 0.  0.
         13    1    1    2    0    0 -0.25029567639E+02 -0.11003280493E+02  0.12629733226E+03  0.12922298069E+03  0.10566000000E+00 0. -1.
        994    1    1    2    0    0  0.26786637825E+02  0.14262076006E+02  0.57304442168E+01  0.17396323971E+03  0.17120000000E+03 0.  0.
        998    1    1    2    0    0 -0.17570701868E+01 -0.32587955130E+01  0.13679722198E+04  0.13680137796E+04  0.10000000000E+02 0.  1.
</event>
<event>
 5    1  0.1147307E-008  0.2357278E+03  0.7957747E-01  0.4498111E+00
         13   -1    0    0    0    0  0.00000000000E+00  0.00000000000E+00  0.14999999963E+04  0.15000000000E+04  0.10566000000E+00 0.  1.
        994   -1    0    0    0    0 -0.00000000000E+00 -0.00000000000E+00  0.11368683772E-12  0.17120000000E+03  0.17120000000E+03 0.  0.
         13    1    1    2    0    0  0.16049551939E+03 -0.12997681313E+01  0.21601492970E+03  0.26911514666E+03  0.10566000000E+00 0.  1.
        994    1    1    2    0    0 -0.14827836721E+03 -0.59738661568E+02  0.17771355692E+03  0.29401824804E+03  0.17120000000E+03 0.  0.
        998    1    1    2    0    0 -0.12217152186E+02  0.61038429700E+02  0.11062715097E+04  0.11080666053E+04  0.10000000000E+02 0.  1.
</event>
<event>
 5    1  0.1147307E-008  0.3832145E+03  0.7957747E-01  0.3437280E+00
         13   -1    0    0    0    0  0.00000000000E+00  0.00000000000E+00  0.14999999963E+04  0.15000000000E+04  0.10566000000E+00 0.  1.
        994   -1    0    0    0    0 -0.00000000000E+00 -0.00000000000E+00  0.11368683772E-12  0.17120000000E+03  0.17120000000E+03 0.  0.
         13    1    1    2    0    0  0.92668331171E+01 -0.25825447757E+02  0.15951310788E+03  0.16185570950E+03  0.10566000000E+00 0.  1.
        994    1    1    2    0    0 -0.24033304462E+02  0.75345393315E+00  0.44340021668E+01  0.17293717874E+03  0.17120000000E+03 0.  0.
        998    1    1    2    0    0  0.14766471345E+02  0.25071993823E+02  0.13360528862E+04  0.13364071118E+04  0.10000000000E+02 0.  1.
</event>
<event>
 5    1  0.1147307E-008  0.3746098E+03  0.7957747E-01  0.3474970E+00
         13   -1    0    0    0    0  0.00000000000E+00  0.00000000000E+00  0.14999999963E+04  0.15000000000E+04  0.10566000000E+00 0. -1.
        994   -1    0    0    0    0 -0.00000000000E+00 -0.00000000000E+00  0.11368683772E-12  0.17120000000E+03  0.17120000000E+03 0.  0.
         13    1    1    2    0    0 -0.80871838431E+00  0.25391972152E+02  0.43710531022E+02  0.50557175172E+02  0.10566000000E+00 0. -1.
        994    1    1    2    0    0 -0.78211114875E+00 -0.20630892610E+02  0.83314020438E+01  0.17264152944E+03  0.17120000000E+03 0.  0.
        998    1    1    2    0    0  0.15908295331E+01 -0.47610795423E+01  0.14479580632E+04  0.14480012954E+04  0.10000000000E+02 0. -1.
</event>
<event>
 5    1  0.1147307E-008  0.3784384E+03  0.7957747E-01  0.3457986E+00
         13   -1    0    0    0    0  0.00000000000E+00  0.00000000000E+00  0.14999999963E+04  0.15000000000E+04  0.10566000000E+00 0.  1.
        994   -1    0    0    0    0 -0.00000000000E+00 -0.00000000000E+00  0.11368683772E-12  0.17120000000E+03  0.17120000000E+03 0.  0.
         13    1    1    2    0    0 -0.10802063158E+02 -0.18931826323E+01  0.98564657714E+01  0.14745500686E+02  0.10566000000E+00 0.  1.
        994    1    1    2    0    0  0.14743030009E+02  0.12319396239E+01  0.56593048453E+01  0.17193121398E+03  0.17120000000E+03 0.  0.
        998    1    1    2    0    0 -0.39409668516E+01  0.66124300836E+00  0.14844842257E+04  0.14845232853E+04  0.10000000000E+02 0.  1.
</event>
<event>
 5    1  0.1147307E-008  0.3704290E+03  0.7957747E-01  0.3493922E+00
         13   -1    0    0    0    0  0.00000000000E+00  0.00000000000E+00  0.14999999963E+04  0.15000000000E+04  0.10566000000E+00 0. -1.
        994   -1    0    0    0    0 -0.00000000000E+00 -0.00000000000E+00  0.11368683772E-12  0.17120000000E+03  0.17120000000E+03 0.  0.
         13    1    1    2    0    0  0.23906811613E+02  0.46572198304E+01  0.21615239368E+02  0.32564629202E+02  0.10566000000E+00 0. -1.
        994    1    1    2    0    0 -0.21737255072E+02 -0.62937627248E+01  0.12960923131E+02  0.17317489782E+03  0.17120000000E+03 0.  0.
        998    1    1    2    0    0 -0.21695565414E+01  0.16365428944E+01  0.14654238338E+04  0.14654604730E+04  0.10000000000E+02 0. -1.
</event>
<event>
 5    1  0.1147307E-008  0.3844872E+03  0.7957747E-01  0.3431850E+00
         13   -1    0    0    0    0  0.00000000000E+00  0.00000000000E+00  0.14999999963E+04  0.15000000000E+04  0.10566000000E+00 0. -1.
        994   -1    0    0    0    0 -0.00000000000E+00 -0.00000000000E+00  0.11368683772E-12  0.17120000000E+03  0.17120000000E+03 0.  0.
         13    1    1    2    0    0  0.35692926943E+01  0.13119412637E+02  0.50500624018E+02  0.52298977318E+02  0.10566000000E+00 0. -1.
        994    1    1    2    0    0  0.52402222319E+01 -0.39114193832E+01  0.20257971234E+01  0.17133681153E+03  0.17120000000E+03 0.  0.
        998    1    1    2    0    0 -0.88095149262E+01 -0.92079932533E+01  0.14474735751E+04  0.14475642112E+04  0.10000000000E+02 0. -1.
</event>
<event>
 5    1  0.1147307E-008  0.3833597E+03  0.7957747E-01  0.3436659E+00
         13   -1    0    0    0    0  0.00000000000E+00  0.00000000000E+00  0.14999999963E+04  0.15000000000E+04  0.10566000000E+00 0. -1.
        994   -1    0    0    0    0 -0.00000000000E+00 -0.00000000000E+00  0.11368683772E-12  0.17120000000E+03  0.17120000000E+03 0.  0.
         13    1    1    2    0    0 -0.66352542974E+00  0.11077010824E+02  0.24202732767E+02  0.26625624354E+02  0.10566000000E+00 0. -1.
        994    1    1    2    0    0  0.10331083383E+01 -0.91763207934E+01  0.27286770932E+01  0.17147057431E+03  0.17120000000E+03 0.  0.
        998    1    1    2    0    0 -0.36958290854E+00 -0.19006900304E+01  0.14730685864E+04  0.14731038013E+04  0.10000000000E+02 0. -1.
</event>
<event>
 5    1  0.1147307E-008  0.3691661E+03  0.7957747E-01  0.3499732E+00
         13   -1    0    0    0    0  0.00000000000E+00  0.00000000000E+00  0.14999999963E+04  0.15000000000E+04  0.10566000000E+00 0.  1.
        994   -1    0    0    0    0 -0.00000000000E+00 -0.00000000000E+00  0.11368683772E-12  0.17120000000E+03  0.17120000000E+03 0.  0.
         13    1    1    2    0    0 -0.75574613871E+01 -0.13943769573E+02  0.85145410438E+01  0.18001458434E+02  0.10566000000E+00 0.  1.
        994    1    1    2    0    0  0.13791525331E+02  0.10529735142E+02  0.10750297289E+02  0.17241255866E+03  0.17120000000E+03 0.  0.
        998    1    1    2    0    0 -0.62340639441E+01  0.34140344311E+01  0.14807351579E+04  0.14807859829E+04  0.10000000000E+02 0.  1.
</event>
<event>
 5    1  0.1147307E-008  0.3749635E+03  0.7957747E-01  0.3473386E+00
         13   -1    0    0    0    0  0.00000000000E+00  0.00000000000E+00  0.14999999963E+04  0.15000000000E+04  0.10566000000E+00 0. -1.
        994   -1    0    0    0    0 -0.00000000000E+00 -0.00000000000E+00  0.11368683772E-12  0.17120000000E+03  0.17120000000E+03 0.  0.
         13    1    1    2    0    0 -0.14158128539E+03 -0.22226805873E+02  0.71750219416E+03  0.73167527023E+03  0.10566000000E+00 0. -1.
        994    1    1    2    0    0  0.14431673228E+03  0.15236811155E+02  0.82039453533E+02  0.23895478980E+03  0.17120000000E+03 0.  0.
        998    1    1    2    0    0 -0.27354468873E+01  0.69899947180E+01  0.70045834859E+03  0.70056993998E+03  0.10000000000E+02 0. -1.
</event>
<event>
 5    1  0.1147307E-008  0.4036989E+03  0.7957747E-01  0.3354043E+00
         13   -1    0    0    0    0  0.00000000000E+00  0.00000000000E+00  0.14999999963E+04  0.15000000000E+04  0.10566000000E+00 0. -1.
        994   -1    0    0    0    0 -0.00000000000E+00 -0.00000000000E+00  0.11368683772E-12  0.17120000000E+03  0.17120000000E+03 0.  0.
         13    1    1    2    0    0  0.31487215371E+02 -0.15693612050E+02  0.80777005103E+01  0.36097016505E+02  0.10566000000E+00 0. -1.
        994    1    1    2    0    0 -0.27956552190E+02  0.32657429135E+02  0.37387975245E+02  0.18043108707E+03  0.17120000000E+03 0.  0.
        998    1    1    2    0    0 -0.35306631803E+01 -0.16963817085E+02  0.14545343205E+04  0.14546718964E+04  0.10000000000E+02 0. -1.
</event>
<event>
 5    1  0.3210883E-008  0.3864287E+03  0.7957747E-01  0.3423635E+00
         13   -1    0    0    0    0  0.00000000000E+00  0.00000000000E+00  0.14999999963E+04  0.15000000000E+04  0.10566000000E+00 0. -1.
        994   -1    0    0    0    0 -0.00000000000E+00 -0.00000000000E+00  0.11368683772E-12  0.17120000000E+03  0.17120000000E+03 0.  0.
         13    1    1    2    0    0  0.78815561255E+01 -0.67619449214E+01  0.57225192411E+02  0.58159922942E+02  0.10566000000E+00 0. -1.
        994    1    1    2    0    0 -0.10173119979E+02  0.70301889366E+01  0.14231818384E+01  0.17165191922E+03  0.17120000000E+03 0.  0.
        998    1    1    2    0    0  0.22915638536E+01 -0.26824401520E+00  0.14413516220E+04  0.14413881578E+04  0.10000000000E+02 0. -1.
</event>
<event>
 5    1  0.1147307E-008  0.3850322E+03  0.7957747E-01  0.3429536E+00
         13   -1    0    0    0    0  0.00000000000E+00  0.00000000000E+00  0.14999999963E+04  0.15000000000E+04  0.10566000000E+00 0. -1.
        994   -1    0    0    0    0 -0.00000000000E+00 -0.00000000000E+00  0.11368683772E-12  0.17120000000E+03  0.17120000000E+03 0.  0.
         13    1    1    2    0    0 -0.84942608390E+01 -0.12289041698E+02  0.67330066381E+02  0.68967543207E+02  0.10566000000E+00 0. -1.
        994    1    1    2    0    0  0.90989580061E+01  0.10748517625E+02  0.22665719643E+01  0.17179318676E+03  0.17120000000E+03 0.  0.
        998    1    1    2    0    0 -0.60469716709E+00  0.15405240724E+01  0.14304033579E+04  0.14304392700E+04  0.10000000000E+02 0. -1.
</event>
<event>
 5    1  0.1147307E-008  0.3726475E+03  0.7957747E-01  0.3483811E+00
         13   -1    0    0    0    0  0.00000000000E+00  0.00000000000E+00  0.14999999963E+04  0.15000000000E+04  0.10566000000E+00 0. -1.
        994   -1    0    0    0    0 -0.00000000000E+00 -0.00000000000E+00  0.11368683772E-12  0.17120000000E+03  0.17120000000E+03 0.  0.
         13    1    1    2    0    0  0.22240539129E+02 -0.13239306247E+02  0.21429054866E+02  0.33602624408E+02  0.10566000000E+00 0. -1.
        994    1    1    2    0    0 -0.23767823505E+02  0.17302510631E+02  0.15401480845E+02  0.17438730436E+03  0.17120000000E+03 0.  0.
        998    1    1    2    0    0  0.15272843763E+01 -0.40632043840E+01  0.14631694606E+04  0.14632100712E+04  0.10000000000E+02 0. -1.
</event>
<event>
 5    1  0.1147307E-008  0.3800912E+03  0.7957747E-01  0.3450762E+00
         13   -1    0    0    0    0  0.00000000000E+00  0.00000000000E+00  0.14999999963E+04  0.15000000000E+04  0.10566000000E+00 0.  1.
        994   -1    0    0    0    0 -0.00000000000E+00 -0.00000000000E+00  0.11368683772E-12  0.17120000000E+03  0.17120000000E+03 0.  0.
         13    1    1    2    0    0  0.68499035068E+01  0.20157519961E+02  0.53507209784E+02  0.57587146586E+02  0.10566000000E+00 0.  1.
        994    1    1    2    0    0  0.20480359739E+02 -0.23957754538E+02  0.74141676953E+01  0.17423498219E+03  0.17120000000E+03 0.  0.
        998    1    1    2    0    0 -0.27330263245E+02  0.38002345768E+01  0.14390786188E+04  0.14393778712E+04  0.10000000000E+02 0.  1.
</event>
<event>
 5    1  0.1147307E-008  0.3826062E+03  0.7957747E-01  0.3439889E+00
         13   -1    0    0    0    0  0.00000000000E+00  0.00000000000E+00  0.14999999963E+04  0.15000000000E+04  0.10566000000E+00 0.  1.
        994   -1    0    0    0    0 -0.00000000000E+00 -0.00000000000E+00  0.11368683772E-12  0.17120000000E+03  0.17120000000E+03 0.  0.
         13    1    1    2    0    0 -0.22033695136E+02  0.31879496309E+02  0.23423316592E+03  0.23741729757E+03  0.10566000000E+00 0.  1.
        994    1    1    2    0    0  0.16837292391E+02 -0.31511637031E+02  0.70656003402E+01  0.17503096981E+03  0.17120000000E+03 0.  0.
        998    1    1    2    0    0  0.51964027449E+01 -0.36785927822E+00  0.12587012300E+04  0.12587517326E+04  0.10000000000E+02 0.  1.
</event>
<event>
 5    1  0.1147307E-008  0.3816558E+03  0.7957747E-01  0.3443980E+00
         13   -1    0    0    0    0  0.00000000000E+00  0.00000000000E+00  0.14999999963E+04  0.15000000000E+04  0.10566000000E+00 0. -1.
        994   -1    0    0    0    0 -0.00000000000E+00 -0.00000000000E+00  0.11368683772E-12  0.17120000000E+03  0.17120000000E+03 0.  0.
         13    1    1    2    0    0 -0.56974344153E+01 -0.12485304669E+02  0.27461942140E+02  0.30700374944E+02  0.10566000000E+00 0. -1.
        994    1    1    2    0    0 -0.97951998080E+01  0.12551854559E+02  0.41428635754E+01  0.17198865751E+03  0.17120000000E+03 0.  0.
        998    1    1    2    0    0  0.15492634223E+02 -0.66549890695E-01  0.14683951906E+04  0.14685109675E+04  0.10000000000E+02 0. -1.
</event>
<event>
 5    1  0.1147307E-008  0.3772796E+03  0.7957747E-01  0.3463090E+00
         13   -1    0    0    0    0  0.00000000000E+00  0.00000000000E+00  0.14999999963E+04  0.15000000000E+04  0.10566000000E+00 0. -1.
        994   -1    0    0    0    0 -0.00000000000E+00 -0.00000000000E+00  0.11368683772E-12  0.17120000000E+03  0.17120000000E+03 0.  0.
         13    1    1    2    0    0  0.75237088972E+01 -0.24670227997E+02  0.57779497676E+02  0.63274859626E+02  0.10566000000E+00 0. -1.
        994    1    1    2    0    0 -0.14281201222E+02  0.15369671415E+02  0.69989612239E+01  0.17262272436E+03  0.17120000000E+03 0.  0.
        998    1    1    2    0    0  0.67574923249E+01  0.93005565819E+01  0.14352215374E+04  0.14353024160E+04  0.10000000000E+02 0. -1.
</event>
<event>
 5    1  0.1147307E-008  0.3813598E+03  0.7957747E-01  0.3445259E+00
         13   -1    0    0    0    0  0.00000000000E+00  0.00000000000E+00  0.14999999963E+04  0.15000000000E+04  0.10566000000E+00 0.  1.
        994   -1    0    0    0    0 -0.00000000000E+00 -0.00000000000E+00  0.11368683772E-12  0.17120000000E+03  0.17120000000E+03 0.  0.
         13    1    1    2    0    0 -0.21115562411E+01 -0.38034120195E+02  0.21963937972E+03  0.22291819409E+03  0.10566000000E+00 0.  1.
        994    1    1    2    0    0  0.29397252627E+02  0.16164350449E+02  0.72029143607E+01  0.17460471547E+03  0.17120000000E+03 0.  0.
        998    1    1    2    0    0 -0.27285696386E+02  0.21869769745E+02  0.12731577022E+04  0.12736770904E+04  0.10000000000E+02 0.  1.
</event>
<event>
 5    1  0.1147307E-008  0.3706205E+03  0.7957747E-01  0.3493044E+00
         13   -1    0    0    0    0  0.00000000000E+00  0.00000000000E+00  0.14999999963E+04  0.15000000000E+04  0.10566000000E+00 0.  1.
        994   -1    0    0    0    0 -0.00000000000E+00 -0.00000000000E+00  0.11368683772E-12  0.17120000000E+03  0.17120000000E+03 0.  0.
         13    1    1    2    0    0  0.53748949461E+02  0.10828000833E+02  0.25596476724E+03  0.26177121385E+03  0.10566000000E+00 0.  1.
        994    1    1    2    0    0  0.39061850421E+02 -0.18003769658E+02  0.15355112715E+02  0.17718686003E+03  0.17120000000E+03 0.  0.
        998    1    1    2    0    0 -0.92810799882E+02  0.71757688254E+01  0.12286801163E+04  0.12322419261E+04  0.10000000000E+02 0.  1.
</event>
<event>
 5    1  0.1147307E-008  0.3842344E+03  0.7957747E-01  0.3432926E+00
         13   -1    0    0    0    0  0.00000000000E+00  0.00000000000E+00  0.14999999963E+04  0.15000000000E+04  0.10566000000E+00 0. -1.
        994   -1    0    0    0    0 -0.00000000000E+00 -0.00000000000E+00  0.11368683772E-12  0.17120000000E+03  0.17120000000E+03 0.  0.
         13    1    1    2    0    0  0.76713218442E+01 -0.12750017957E+02  0.53861353064E+02  0.55879053809E+02  0.10566000000E+00 0. -1.
        994    1    1    2    0    0 -0.33487852672E+01  0.12886642168E+02  0.25954006224E+01  0.17173658904E+03  0.17120000000E+03 0.  0.
        998    1    1    2    0    0 -0.43225365770E+01 -0.13662421138E+00  0.14435432426E+04  0.14435843572E+04  0.10000000000E+02 0. -1.
</event>
<event>
 5    1  0.1147307E-008  0.3714084E+03  0.7957747E-01  0.3489443E+00
         13   -1    0    0    0    0  0.00000000000E+00  0.00000000000E+00  0.14999999963E+04  0.15000000000E+04  0.10566000000E+00 0. -1.
        994   -1    0    0    0    0 -0.00000000000E+00 -0.00000000000E+00  0.11368683772E-12  0.17120000000E+03  0.17120000000E+03 0.  0.
         13    1    1    2    0    0 -0.74298175743E+01 -0.70492386992E+02  0.24365538566E+03  0.25375645201E+03  0.10566000000E+00 0. -1.
        994    1    1    2    0    0  0.10602050356E+02  0.70709358819E+02  0.26336505681E+02  0.18739068394E+03  0.17120000000E+03 0.  0.
        998    1    1    2    0    0 -0.31722327821E+01 -0.21697182699E+00  0.12300081049E+04  0.12300528640E+04  0.10000000000E+02 0. -1.
</event>
<event>
 5    1  0.1147307E-008  0.3862859E+03  0.7957747E-01  0.3424237E+00
         13   -1    0    0    0    0  0.00000000000E+00  0.00000000000E+00  0.14999999963E+04  0.15000000000E+04  0.10566000000E+00 0. -1.
        994   -1    0    0    0    0 -0.00000000000E+00 -0.00000000000E+00  0.11368683772E-12  0.17120000000E+03  0.17120000000E+03 0.  0.
         13    1    1    2    0    0  0.39359331688E+02 -0.20531478870E+02  0.41594339822E+02  0.60834191741E+02  0.10566000000E+00 0. -1.
        994    1    1    2    0    0 -0.35027342246E+02  0.18752127959E+02  0.25701564803E+02  0.17761916406E+03  0.17120000000E+03 0.  0.
        998    1    1    2    0    0 -0.43319894424E+01  0.17793509115E+01  0.14327040917E+04  0.14327466442E+04  0.10000000000E+02 0. -1.
</event>
<event>
 5    1  0.1147307E-008  0.3930755E+03  0.7957747E-01  0.3396129E+00
         13   -1    0    0    0    0  0.00000000000E+00  0.00000000000E+00  0.14999999963E+04  0.15000000000E+04  0.10566000000E+00 0.  1.
        994   -1    0    0    0    0 -0.00000000000E+00 -0.00000000000E+00  0.11368683772E-12  0.17120000000E+03  0.17120000000E+03 0.  0.
         13    1    1    2    0    0 -0.46063851887E+02  0.35772181076E+02  0.57953623314E+02  0.82220198302E+02  0.10566000000E+00 0.  1.
        994    1    1    2    0    0  0.73111834650E+02 -0.30950421077E+02  0.48126532306E+02  0.19475336208E+03  0.17120000000E+03 0.  0.
        998    1    1    2    0    0 -0.27047982763E+02 -0.48217599989E+01  0.13939198407E+04  0.13942264396E+04  0.10000000000E+02 0.  1.
</event>
<event>
 5    1  0.1147307E-008  0.3797924E+03  0.7957747E-01  0.3452063E+00
         13   -1    0    0    0    0  0.00000000000E+00  0.00000000000E+00  0.14999999963E+04  0.15000000000E+04  0.10566000000E+00 0. -1.
        994   -1    0    0    0    0 -0.00000000000E+00 -0.00000000000E+00  0.11368683772E-12  0.17120000000E+03  0.17120000000E+03 0.  0.
         13    1    1    2    0    0 -0.21236591881E+02  0.15089129441E+02  0.89812378048E+02  0.93514432451E+02  0.10566000000E+00 0. -1.
        994    1    1    2    0    0 -0.14697355203E+02 -0.17181114973E+01  0.49707719277E+01  0.17191018798E+03  0.17120000000E+03 0.  0.
        998    1    1    2    0    0  0.35933947083E+02 -0.13371017944E+02  0.14052168463E+04  0.14057753796E+04  0.10000000000E+02 0. -1.
</event>
<event>
 5    1  0.1147307E-008  0.3801540E+03  0.7957747E-01  0.3450488E+00
         13   -1    0    0    0    0  0.00000000000E+00  0.00000000000E+00  0.14999999963E+04  0.15000000000E+04  0.10566000000E+00 0. -1.
        994   -1    0    0    0    0 -0.00000000000E+00 -0.00000000000E+00  0.11368683772E-12  0.17120000000E+03  0.17120000000E+03 0.  0.
         13    1    1    2    0    0  0.10641101276E+02 -0.14942871846E+01  0.12447290476E+02  0.16444212806E+02  0.10566000000E+00 0. -1.
        994    1    1    2    0    0 -0.82182520774E+01  0.27829295779E+01  0.43069972693E+01  0.17147383063E+03  0.17120000000E+03 0.  0.
        998    1    1    2    0    0 -0.24228491991E+01 -0.12886423932E+01  0.14832457085E+04  0.14832819566E+04  0.10000000000E+02 0. -1.
</event>
<event>
 5    1  0.1147307E-008  0.3844122E+03  0.7957747E-01  0.3432169E+00
         13   -1    0    0    0    0  0.00000000000E+00  0.00000000000E+00  0.14999999963E+04  0.15000000000E+04  0.10566000000E+00 0. -1.
        994   -1    0    0    0    0 -0.00000000000E+00 -0.00000000000E+00  0.11368683772E-12  0.17120000000E+03  0.17120000000E+03 0.  0.
         13    1    1    2    0    0  0.19450221700E+02  0.17397885705E+01  0.99192900909E+02  0.10109688790E+03  0.10566000000E+00 0. -1.
        994    1    1    2    0    0 -0.13227941639E+02  0.10866192360E+02  0.28884257464E+01  0.17207799272E+03  0.17120000000E+03 0.  0.
        998    1    1    2    0    0 -0.62222800618E+01 -0.12605980931E+02  0.13979186696E+04  0.13980251194E+04  0.10000000000E+02 0. -1.
</event>
<event>
 5    1  0.1147307E-008  0.3842068E+03  0.7957747E-01  0.3433043E+00
         13   -1    0    0    0    0  0.00000000000E+00  0.00000000000E+00  0.14999999963E+04  0.15000000000E+04  0.10566000000E+00 0. -1.
        994   -1    0    0    0    0 -0.00000000000E+00 -0.00000000000E+00  0.11368683772E-12  0.17120000000E+03  0.17120000000E+03 0.  0.
         13    1    1    2    0    0  0.11675529297E+02 -0.14438737975E+02  0.89671435431E+02  0.91573864366E+02  0.10566000000E+00 0. -1.
        994    1    1    2    0    0 -0.14537328716E+02 -0.66505925780E+01  0.28675270444E+01  0.17196868034E+03  0.17120000000E+03 0.  0.
        998    1    1    2    0    0  0.28617994190E+01  0.21089330553E+02  0.14074610338E+04  0.14076574553E+04  0.10000000000E+02 0. -1.
</event>
<event>
 5    1  0.1147307E-008  0.3832831E+03  0.7957747E-01  0.3436987E+00
         13   -1    0    0    0    0  0.00000000000E+00  0.00000000000E+00  0.14999999963E+04  0.15000000000E+04  0.10566000000E+00 0.  1.
        994   -1    0    0    0    0 -0.00000000000E+00 -0.00000000000E+00  0.11368683772E-12  0.17120000000E+03  0.17120000000E+03 0.  0.
         13    1    1    2    0    0 -0.21340935613E+02  0.12122420725E+02  0.11824894698E+03  0.12076925620E+03  0.10566000000E+00 0.  1.
        994    1    1    2    0    0  0.89205512163E+01 -0.20707790972E+02  0.41680330679E+01  0.17272869287E+03  0.17120000000E+03 0.  0.
        998    1    1    2    0    0  0.12420384397E+02  0.85853702478E+01  0.13775830162E+04  0.13777020509E+04  0.10000000000E+02 0.  1.
</event>
<event>
 5    1  0.1147307E-008  0.3845695E+03  0.7957747E-01  0.3431500E+00
         13   -1    0    0    0    0  0.00000000000E+00  0.00000000000E+00  0.14999999963E+04  0.15000000000E+04  0.10566000000E+00 0.  1.
        994   -1    0    0    0    0 -0.00000000000E+00 -0.00000000000E+00  0.11368683772E-12  0.17120000000E+03  0.17120000000E+03 0.  0.
         13    1    1    2    0    0  0.17829174140E+02 -0.10468194596E+02  0.12343431172E+03  0.12515391733E+03  0.10566000000E+00 0.  1.
        994    1    1    2    0    0 -0.98126758441E+01 -0.60902327866E+01  0.22834040096E+01  0.17160429329E+03  0.17120000000E+03 0.  0.
        998    1    1    2    0    0 -0.80164982957E+01  0.16558427382E+02  0.13742822806E+04  0.13744417894E+04  0.10000000000E+02 0.  1.
</event>
<event>
 5    1  0.1147307E-008  0.3844085E+03  0.7957747E-01  0.3432185E+00
         13   -1    0    0    0    0  0.00000000000E+00  0.00000000000E+00  0.14999999963E+04  0.15000000000E+04  0.10566000000E+00 0.  1.
        994   -1    0    0    0    0 -0.00000000000E+00 -0.00000000000E+00  0.11368683772E-12  0.17120000000E+03  0.17120000000E+03 0.  0.
         13    1    1    2    0    0 -0.20582973504E+01 -0.14168265259E+02  0.51528575216E+02  0.53480665257E+02  0.10566000000E+00 0.  1.
        994    1    1    2    0    0  0.66286927561E+00  0.14810240246E+02  0.26485839435E+01  0.17186109975E+03  0.17120000000E+03 0.  0.
        998    1    1    2    0    0  0.13954280748E+01 -0.64197498654E+00  0.14458228371E+04  0.14458582350E+04  0.10000000000E+02 0.  1.
</event>
<event>
 5    1  0.1147307E-008  0.3817152E+03  0.7957747E-01  0.3443724E+00
         13   -1    0    0    0    0  0.00000000000E+00  0.00000000000E+00  0.14999999963E+04  0.15000000000E+04  0.10566000000E+00 0. -1.
        994   -1    0    0    0    0 -0.00000000000E+00 -0.00000000000E+00  0.11368683772E-12  0.17120000000E+03  0.17120000000E+03 0.  0.
         13    1    1    2    0    0 -0.15862466582E+02 -0.14181825051E+02  0.69217446111E+02  0.72414142390E+02  0.10566000000E+00 0. -1.
        994    1    1    2    0    0  0.18473800664E+02 -0.50305317868E+01  0.44893264495E+01  0.17232580078E+03  0.17120000000E+03 0.  0.
        998    1    1    2    0    0 -0.26113340825E+01  0.19212356837E+02  0.14262932237E+04  0.14264600568E+04  0.10000000000E+02 0. -1.
</event>
<event>
 5    1  0.1147307E-008  0.3814909E+03  0.7957747E-01  0.3444692E+00
         13   -1    0    0    0    0  0.00000000000E+00  0.00000000000E+00  0.14999999963E+04  0.15000000000E+04  0.10566000000E+00 0. -1.
        994   -1    0    0    0    0 -0.00000000000E+00 -0.00000000000E+00  0.11368683772E-12  0.17120000000E+03  0.17120000000E+03 0.  0.
         13    1    1    2    0    0  0.66491701310E+02 -0.98609742938E+01  0.36884810885E+03  0.37492309042E+03  0.10566000000E+00 0. -1.
        994    1    1    2    0    0 -0.95272288548E+02  0.43742228840E+01  0.34256153540E+02  0.19894438129E+03  0.17120000000E+03 0.  0.
        998    1    1    2    0    0  0.28780587238E+02  0.54867514098E+01  0.10968957339E+04  0.10973325283E+04  0.10000000000E+02 0. -1.
</event>
<event>
 5    1  0.1147307E-008  0.3746201E+03  0.7957747E-01  0.3474923E+00
         13   -1    0    0    0    0  0.00000000000E+00  0.00000000000E+00  0.14999999963E+04  0.15000000000E+04  0.10566000000E+00 0. -1.
        994   -1    0    0    0    0 -0.00000000000E+00 -0.00000000000E+00  0.11368683772E-12  0.17120000000E+03  0.17120000000E+03 0.  0.
         13    1    1    2    0    0 -0.44808892618E+02  0.27147020141E+02  0.17370421344E+03  0.18143307993E+03  0.10566000000E+00 0. -1.
        994    1    1    2    0    0  0.43982937021E+02 -0.32099282735E+02  0.17032821187E+02  0.18045614342E+03  0.17120000000E+03 0.  0.
        998    1    1    2    0    0  0.82595559717E+00  0.49522625938E+01  0.13092629617E+04  0.13093107767E+04  0.10000000000E+02 0. -1.
</event>
<event>
 5    1  0.1147307E-008  0.3853926E+03  0.7957747E-01  0.3428009E+00
         13   -1    0    0    0    0  0.00000000000E+00  0.00000000000E+00  0.14999999963E+04  0.15000000000E+04  0.10566000000E+00 0.  1.
        994   -1    0    0    0    0 -0.00000000000E+00 -0.00000000000E+00  0.11368683772E-12  0.17120000000E+03  0.17120000000E+03 0.  0.
         13    1    1    2    0    0 -0.19391947347E+03  0.96626563252E+02  0.11756129743E+04  0.11954109467E+04  0.10566000000E+00 0.  1.
        994    1    1    2    0    0  0.20084319011E+03 -0.96046362471E+02  0.18596231149E+03  0.33682979686E+03  0.17120000000E+03 0.  0.
        998    1    1    2    0    0 -0.69237166418E+01 -0.58020078093E+00  0.13842471046E+03  0.13895925644E+03  0.10000000000E+02 0. -1.
</event>
<event>
 5    1  0.1147307E-008  0.3858391E+03  0.7957747E-01  0.3426121E+00
         13   -1    0    0    0    0  0.00000000000E+00  0.00000000000E+00  0.14999999963E+04  0.15000000000E+04  0.10566000000E+00 0. -1.
        994   -1    0    0    0    0 -0.00000000000E+00 -0.00000000000E+00  0.11368683772E-12  0.17120000000E+03  0.17120000000E+03 0.  0.
         13    1    1    2    0    0  0.54255128977E+01  0.10203014524E+02  0.53947655834E+02  0.55171536408E+02  0.10566000000E+00 0. -1.
        994    1    1    2    0    0 -0.52943206856E+01 -0.10830687817E+02  0.16908964061E+01  0.17163226026E+03  0.17120000000E+03 0.  0.
        998    1    1    2    0    0 -0.13119221214E+00  0.62767329365E+00  0.14443614440E+04  0.14443962033E+04  0.10000000000E+02 0. -1.
</event>
<event>
 5    1  0.1147307E-008  0.3850787E+03  0.7957747E-01  0.3429338E+00
         13   -1    0    0    0    0  0.00000000000E+00  0.00000000000E+00  0.14999999963E+04  0.15000000000E+04  0.10566000000E+00 0.  1.
        994   -1    0    0    0    0 -0.00000000000E+00 -0.00000000000E+00  0.11368683772E-12  0.17120000000E+03  0.17120000000E+03 0.  0.
         13    1    1    2    0    0 -0.14838683366E+02  0.14783160524E+01  0.67554381223E+02  0.69180759817E+02  0.10566000000E+00 0.  1.
        994    1    1    2    0    0  0.14940934625E+02 -0.32516041778E+01  0.23601270411E+01  0.17189768660E+03  0.17120000000E+03 0.  0.
        998    1    1    2    0    0 -0.10225125923E+00  0.17732881254E+01  0.14300854880E+04  0.14301215536E+04  0.10000000000E+02 0.  1.
</event>
<event>
 5    1  0.1147307E-008  0.3738644E+03  0.7957747E-01  0.3478317E+00
         13   -1    0    0    0    0  0.00000000000E+00  0.00000000000E+00  0.14999999963E+04  0.15000000000E+04  0.10566000000E+00 0. -1.
        994   -1    0    0    0    0 -0.00000000000E+00 -0.00000000000E+00  0.11368683772E-12  0.17120000000E+03  0.17120000000E+03 0.  0.
         13    1    1    2    0    0  0.13263927159E+02  0.15886324504E+02  0.28714976587E+02  0.35395877081E+02  0.10566000000E+00 0. -1.
        994    1    1    2    0    0  0.85487813047E+01  0.15912476917E+02  0.83772089723E+01  0.17235401421E+03  0.17120000000E+03 0.  0.
        998    1    1    2    0    0 -0.21812708464E+02 -0.31798801421E+02  0.14629078107E+04  0.14634501087E+04  0.10000000000E+02 0. -1.
</event>
<event>
 5    1  0.1147307E-008  0.3838336E+03  0.7957747E-01  0.3434634E+00
         13   -1    0    0    0    0  0.00000000000E+00  0.00000000000E+00  0.14999999963E+04  0.15000000000E+04  0.10566000000E+00 0.  1.
        994   -1    0    0    0    0 -0.00000000000E+00 -0.00000000000E+00  0.11368683772E-12  0.17120000000E+03  0.17120000000E+03 0.  0.
         13    1    1    2    0    0  0.95454482336E+01 -0.84881301226E+01  0.36820340708E+02  0.38973229130E+02  0.10566000000E+00 0.  1.
        994    1    1    2    0    0  0.80588638463E+00  0.90366165198E+01  0.24820830500E+01  0.17145818915E+03  0.17120000000E+03 0.  0.
        998    1    1    2    0    0 -0.10351334618E+02 -0.54848639723E+00  0.14606975725E+04  0.14607685817E+04  0.10000000000E+02 0.  1.
</event>
<event>
 5    1  0.1147307E-008  0.3790179E+03  0.7957747E-01  0.3455446E+00
         13   -1    0    0    0    0  0.00000000000E+00  0.00000000000E+00  0.14999999963E+04  0.15000000000E+04  0.10566000000E+00 0. -1.
        994   -1    0    0    0    0 -0.00000000000E+00 -0.00000000000E+00  0.11368683772E-12  0.17120000000E+03  0.17120000000E+03 0.  0.
         13    1    1    2    0    0 -0.20222492074E+02  0.26264148438E+02  0.13198159314E+03  0.13608051577E+03  0.10566000000E+00 0. -1.
        994    1    1    2    0    0 -0.11663607520E+02 -0.77376197641E+01  0.52870491704E+01  0.17185256294E+03  0.17120000000E+03 0.  0.
        998    1    1    2    0    0  0.31886099595E+02 -0.18526528674E+02  0.13627313540E+04  0.13632669213E+04  0.10000000000E+02 0. -1.
</event>
<event>
 5    1  0.1147307E-008  0.3745388E+03  0.7957747E-01  0.3475288E+00
         13   -1    0    0    0    0  0.00000000000E+00  0.00000000000E+00  0.14999999963E+04  0.15000000000E+04  0.10566000000E+00 0.  1.
        994   -1    0    0    0    0 -0.00000000000E+00 -0.00000000000E+00  0.11368683772E-12  0.17120000000E+03  0.17120000000E+03 0.  0.
         13    1    1    2    0    0 -0.76714101088E+02  0.36177023485E+02  0.35710910606E+03  0.36704326057E+03  0.10566000000E+00 0.  1.
        994    1    1    2    0    0  0.85016055340E+02 -0.43902184679E+02  0.38753700223E+02  0.19991603429E+03  0.17120000000E+03 0.  0.
        998    1    1    2    0    0 -0.83019542515E+01  0.77251611944E+01  0.11041371900E+04  0.11042407051E+04  0.10000000000E+02 0.  1.
</event>
<event>
 5    1  0.1147307E-008  0.3845937E+03  0.7957747E-01  0.3431397E+00
         13   -1    0    0    0    0  0.00000000000E+00  0.00000000000E+00  0.14999999963E+04  0.15000000000E+04  0.10566000000E+00 0. -1.
        994   -1    0    0    0    0 -0.00000000000E+00 -0.00000000000E+00  0.11368683772E-12  0.17120000000E+03  0.17120000000E+03 0.  0.
         13    1    1    2    0    0  0.36377191286E+01  0.10597427524E+02  0.31913833281E+02  0.33823695678E+02  0.10566000000E+00 0. -1.
        994    1    1    2    0    0 -0.38773962871E+01 -0.21671899964E+02  0.34297601026E+01  0.17264387827E+03  0.17120000000E+03 0.  0.
        998    1    1    2    0    0  0.23967715852E+00  0.11074472440E+02  0.14646564029E+04  0.14647324261E+04  0.10000000000E+02 0. -1.
</event>
<event>
 5    1  0.1147307E-008  0.3856733E+03  0.7957747E-01  0.3426822E+00
         13   -1    0    0    0    0  0.00000000000E+00  0.00000000000E+00  0.14999999963E+04  0.15000000000E+04  0.10566000000E+00 0. -1.
        994   -1    0    0    0    0 -0.00000000000E+00 -0.00000000000E+00  0.11368683772E-12  0.17120000000E+03  0.17120000000E+03 0.  0.
         13    1    1    2    0    0 -0.11711318768E+01  0.12948120896E+02  0.63800109938E+02  0.65111370564E+02  0.10566000000E+00 0. -1.
        994    1    1    2    0    0  0.12092820206E+02 -0.11897198086E+02  0.22411223807E+01  0.17205302163E+03  0.17120000000E+03 0.  0.
        998    1    1    2    0    0 -0.10921688329E+02 -0.10509228100E+01  0.14339587640E+04  0.14340356078E+04  0.10000000000E+02 0. -1.
</event>
<event>
 5    1  0.1147307E-008  0.3784643E+03  0.7957747E-01  0.3457873E+00
         13   -1    0    0    0    0  0.00000000000E+00  0.00000000000E+00  0.14999999963E+04  0.15000000000E+04  0.10566000000E+00 0.  1.
        994   -1    0    0    0    0 -0.00000000000E+00 -0.00000000000E+00  0.11368683772E-12  0.17120000000E+03  0.17120000000E+03 0.  0.
         13    1    1    2    0    0  0.47458883145E+02 -0.74758164441E+00  0.21859334106E+03  0.22368720211E+03  0.10566000000E+00 0.  1.
        994    1    1    2    0    0 -0.33807371445E+02 -0.18804360757E+02  0.99552059757E+01  0.17579843137E+03  0.17120000000E+03 0.  0.
        998    1    1    2    0    0 -0.13651511700E+02  0.19551942402E+02  0.12714514492E+04  0.12717143665E+04  0.10000000000E+02 0.  1.
</event>
<event>
 5    1  0.1147307E-008  0.3721094E+03  0.7957747E-01  0.3486252E+00
         13   -1    0    0    0    0  0.00000000000E+00  0.00000000000E+00  0.14999999963E+04  0.15000000000E+04  0.10566000000E+00 0. -1.
        994   -1    0    0    0    0 -0.00000000000E+00 -0.00000000000E+00  0.11368683772E-12  0.17120000000E+03  0.17120000000E+03 0.  0.
         13    1    1    2    0    0  0.40393019966E+02  0.10413599320E+03  0.58667138777E+03  0.59720953570E+03  0.10566000000E+00 0. -1.
        994    1    1    2    0    0 -0.29548460071E+02 -0.84913911448E+02  0.36450864069E+02  0.19677802047E+03  0.17120000000E+03 0.  0.
        998    1    1    2    0    0 -0.10844559895E+02 -0.19222081753E+02  0.87687774444E+03  0.87721244383E+03  0.10000000000E+02 0. -1.
</event>
<event>
 5    1  0.1147307E-008  0.3738794E+03  0.7957747E-01  0.3478250E+00
         13   -1    0    0    0    0  0.00000000000E+00  0.00000000000E+00  0.14999999963E+04  0.15000000000E+04  0.10566000000E+00 0. -1.
        994   -1    0    0    0    0 -0.00000000000E+00 -0.00000000000E+00  0.11368683772E-12  0.17120000000E+03  0.17120000000E+03 0.  0.
         13    1    1    2    0    0  0.91128561141E+01 -0.12134368054E+03  0.70864099947E+03  0.71901280257E+03  0.10566000000E+00 0. -1.
        994    1    1    2    0    0 -0.27445530871E+02  0.10012257728E+03  0.44971838432E+02  0.20520646651E+03  0.17120000000E+03 0.  0.
        998    1    1    2    0    0  0.18332674757E+02  0.21221103254E+02  0.74638715837E+03  0.74698073092E+03  0.10000000000E+02 0. -1.
</event>
<event>
 5    1  0.1147307E-008  0.3839191E+03  0.7957747E-01  0.3434269E+00
         13   -1    0    0    0    0  0.00000000000E+00  0.00000000000E+00  0.14999999963E+04  0.15000000000E+04  0.10566000000E+00 0. -1.
        994   -1    0    0    0    0 -0.00000000000E+00 -0.00000000000E+00  0.11368683772E-12  0.17120000000E+03  0.17120000000E+03 0.  0.
         13    1    1    2    0    0 -0.10843391421E+02 -0.83321812746E+00  0.26208218101E+02  0.28375257709E+02  0.10566000000E+00 0. -1.
        994    1    1    2    0    0  0.11962678049E+02 -0.12776615412E+01  0.26455478112E+01  0.17164258507E+03  0.17120000000E+03 0.  0.
        998    1    1    2    0    0 -0.11192866276E+01  0.21108796686E+01  0.14711462304E+04  0.14711821572E+04  0.10000000000E+02 0. -1.
</event>
<event>
 5    1  0.1147307E-008  0.3841286E+03  0.7957747E-01  0.3433376E+00
         13   -1    0    0    0    0  0.00000000000E+00  0.00000000000E+00  0.14999999963E+04  0.15000000000E+04  0.10566000000E+00 0. -1.
        994   -1    0    0    0    0 -0.00000000000E+00 -0.00000000000E+00  0.11368683772E-12  0.17120000000E+03  0.17120000000E+03 0.  0.
         13    1    1    2    0    0  0.12136669622E+02  0.63488967754E+01  0.43381962963E+02  0.45493000718E+02  0.10566000000E+00 0. -1.
        994    1    1    2    0    0 -0.93611288496E+01 -0.19115036284E+02  0.35588611781E+01  0.17255468941E+03  0.17120000000E+03 0.  0.
        998    1    1    2    0    0 -0.27755407725E+01  0.12766139509E+02  0.14530591721E+04  0.14531523099E+04  0.10000000000E+02 0. -1.
</event>
<event>
 5    1  0.1147307E-008  0.3786137E+03  0.7957747E-01  0.3457217E+00
         13   -1    0    0    0    0  0.00000000000E+00  0.00000000000E+00  0.14999999963E+04  0.15000000000E+04  0.10566000000E+00 0. -1.
        994   -1    0    0    0    0 -0.00000000000E+00 -0.00000000000E+00  0.11368683772E-12  0.17120000000E+03  0.17120000000E+03 0.  0.
         13    1    1    2    0    0  0.11057961184E+02 -0.19108301322E+02  0.46442740333E+02  0.51423194948E+02  0.10566000000E+00 0. -1.
        994    1    1    2    0    0  0.57681586964E+01  0.35004800087E+02  0.90729796790E+01  0.17507246112E+03  0.17120000000E+03 0.  0.
        998    1    1    2    0    0 -0.16826119880E+02 -0.15896498765E+02  0.14444842763E+04  0.14447043439E+04  0.10000000000E+02 0. -1.
</event>
<event>
 5    1  0.1147307E-008  0.3787826E+03  0.7957747E-01  0.3456476E+00
         13   -1    0    0    0    0  0.00000000000E+00  0.00000000000E+00  0.14999999963E+04  0.15000000000E+04  0.10566000000E+00 0.  1.
        994   -1    0    0    0    0 -0.00000000000E+00 -0.00000000000E+00  0.11368683772E-12  0.17120000000E+03  0.17120000000E+03 0.  0.
         13    1    1    2    0    0  0.39805626126E+01  0.30275373007E+02  0.93007590117E+02  0.97892114457E+02  0.10566000000E+00 0.  1.
        994    1    1    2    0    0  0.39089109420E+01 -0.27328898610E+02  0.73112505087E+01  0.17356567249E+03  0.17120000000E+03 0.  0.
        998    1    1    2    0    0 -0.78894735546E+01 -0.29464743965E+01  0.13996811557E+04  0.13997422130E+04  0.10000000000E+02 0.  1.
</event>
<event>
 5    1  0.1147307E-008  0.3840218E+03  0.7957747E-01  0.3433831E+00
         13   -1    0    0    0    0  0.00000000000E+00  0.00000000000E+00  0.14999999963E+04  0.15000000000E+04  0.10566000000E+00 0. -1.
        994   -1    0    0    0    0 -0.00000000000E+00 -0.00000000000E+00  0.11368683772E-12  0.17120000000E+03  0.17120000000E+03 0.  0.
         13    1    1    2    0    0 -0.17265649916E+02 -0.35627060749E+01  0.71960432560E+02  0.74088531905E+02  0.10566000000E+00 0. -1.
        994    1    1    2    0    0  0.13838217624E+02  0.14209909139E+01  0.27552466717E+01  0.17178634074E+03  0.17120000000E+03 0.  0.
        998    1    1    2    0    0  0.34274322923E+01  0.21417151610E+01  0.14252843170E+04  0.14253251274E+04  0.10000000000E+02 0. -1.
</event>
<event>
 5    1  0.1147307E-008  0.3756608E+03  0.7957747E-01  0.3470272E+00
         13   -1    0    0    0    0  0.00000000000E+00  0.00000000000E+00  0.14999999963E+04  0.15000000000E+04  0.10566000000E+00 0.  1.
        994   -1    0    0    0    0 -0.00000000000E+00 -0.00000000000E+00  0.11368683772E-12  0.17120000000E+03  0.17120000000E+03 0.  0.
         13    1    1    2    0    0 -0.23081888276E+02  0.63126784885E+01  0.41574583364E+02  0.47969580173E+02  0.10566000000E+00 0.  1.
        994    1    1    2    0    0  0.24431203526E+02 -0.31533044345E+01  0.84006242193E+01  0.17316707979E+03  0.17120000000E+03 0.  0.
        998    1    1    2    0    0 -0.13493152500E+01 -0.31593740540E+01  0.14500247887E+04  0.14500633400E+04  0.10000000000E+02 0.  1.
</event>
<event>
 5    1  0.1147307E-008  0.3716133E+03  0.7957747E-01  0.3488509E+00
         13   -1    0    0    0    0  0.00000000000E+00  0.00000000000E+00  0.14999999963E+04  0.15000000000E+04  0.10566000000E+00 0. -1.
        994   -1    0    0    0    0 -0.00000000000E+00 -0.00000000000E+00  0.11368683772E-12  0.17120000000E+03  0.17120000000E+03 0.  0.
         13    1    1    2    0    0 -0.99824807911E+01  0.15659294962E+02  0.16777116488E+02  0.25026910379E+02  0.10566000000E+00 0. -1.
        994    1    1    2    0    0  0.45563148459E+01 -0.13757150795E+02  0.91507130926E+01  0.17205578965E+03  0.17120000000E+03 0.  0.
        998    1    1    2    0    0  0.54261659452E+01 -0.19021441669E+01  0.14740721667E+04  0.14741173000E+04  0.10000000000E+02 0.  0.
</event>
<event>
 5    1  0.1147307E-008  0.3851653E+03  0.7957747E-01  0.3428971E+00
         13   -1    0    0    0    0  0.00000000000E+00  0.00000000000E+00  0.14999999963E+04  0.15000000000E+04  0.10566000000E+00 0.  1.
        994   -1    0    0    0    0 -0.00000000000E+00 -0.00000000000E+00  0.11368683772E-12  0.17120000000E+03  0.17120000000E+03 0.  0.
         13    1    1    2    0    0  0.10734490036E+02 -0.58966627457E+01  0.48672156344E+02  0.50189539499E+02  0.10566000000E+00 0.  1.
        994    1    1    2    0    0 -0.60457598653E+01  0.44753679783E+01  0.17340905573E+01  0.17137393968E+03  0.17120000000E+03 0.  0.
        998    1    1    2    0    0 -0.46887301706E+01  0.14212947674E+01  0.14495937494E+04  0.14496365208E+04  0.10000000000E+02 0.  0.
</event>
<event>
 5    1  0.1147307E-008  0.3821530E+03  0.7957747E-01  0.3441837E+00
         13   -1    0    0    0    0  0.00000000000E+00  0.00000000000E+00  0.14999999963E+04  0.15000000000E+04  0.10566000000E+00 0.  1.
        994   -1    0    0    0    0 -0.00000000000E+00 -0.00000000000E+00  0.11368683772E-12  0.17120000000E+03  0.17120000000E+03 0.  0.
         13    1    1    2    0    0 -0.23573903323E+02  0.12044034646E+02  0.15712183502E+03  0.15933634204E+03  0.10566000000E+00 0.  1.
        994    1    1    2    0    0 -0.16204529685E+02  0.22094658373E+02  0.55462681743E+01  0.17346746612E+03  0.17120000000E+03 0.  0.
        998    1    1    2    0    0  0.39778433008E+02 -0.34138693019E+02  0.13373318931E+04  0.13383961918E+04  0.10000000000E+02 0.  1.
</event>
<event>
 5    1  0.1147307E-008  0.3753849E+03  0.7957747E-01  0.3471503E+00
         13   -1    0    0    0    0  0.00000000000E+00  0.00000000000E+00  0.14999999963E+04  0.15000000000E+04  0.10566000000E+00 0. -1.
        994   -1    0    0    0    0 -0.00000000000E+00 -0.00000000000E+00  0.11368683772E-12  0.17120000000E+03  0.17120000000E+03 0.  0.
         13    1    1    2    0    0 -0.17325441451E+02 -0.96758400247E+01  0.28774656717E+02  0.34954038892E+02  0.10566000000E+00 0. -1.
        994    1    1    2    0    0  0.56193262109E+00 -0.26257327758E+01  0.65056962352E+01  0.17134460693E+03  0.17120000000E+03 0.  0.
        998    1    1    2    0    0  0.16763508830E+02  0.12301572801E+02  0.14647196433E+04  0.14649013542E+04  0.10000000000E+02 0. -1.
</event>
<event>
 5    1  0.1147307E-008  0.3832750E+03  0.7957747E-01  0.3437021E+00
         13   -1    0    0    0    0  0.00000000000E+00  0.00000000000E+00  0.14999999963E+04  0.15000000000E+04  0.10566000000E+00 0. -1.
        994   -1    0    0    0    0 -0.00000000000E+00 -0.00000000000E+00  0.11368683772E-12  0.17120000000E+03  0.17120000000E+03 0.  0.
         13    1    1    2    0    0  0.23801763084E+02  0.62760354192E+01  0.10432359992E+03  0.10718832591E+03  0.10566000000E+00 0. -1.
        994    1    1    2    0    0 -0.35185634671E+02 -0.16716244203E+02  0.75237163726E+01  0.17573704224E+03  0.17120000000E+03 0.  0.
        998    1    1    2    0    0  0.11383871587E+02  0.10440208784E+02  0.13881526800E+04  0.13882746318E+04  0.10000000000E+02 0. -1.
</event>
<event>
 5    1  0.1147307E-008  0.3791724E+03  0.7957747E-01  0.3454770E+00
         13   -1    0    0    0    0  0.00000000000E+00  0.00000000000E+00  0.14999999963E+04  0.15000000000E+04  0.10566000000E+00 0.  1.
        994   -1    0    0    0    0 -0.00000000000E+00 -0.00000000000E+00  0.11368683772E-12  0.17120000000E+03  0.17120000000E+03 0.  0.
         13    1    1    2    0    0  0.24860686963E+02 -0.16938641215E+02  0.10489259188E+03  0.10912120929E+03  0.10566000000E+00 0.  1.
        994    1    1    2    0    0  0.97293101474E+00  0.96785983957E+01  0.48687581670E+01  0.17154523213E+03  0.17120000000E+03 0.  0.
        998    1    1    2    0    0 -0.25833617978E+02  0.72600428191E+01  0.13902386462E+04  0.13905335586E+04  0.10000000000E+02 0.  1.
</event>
<event>
 5    1  0.1147307E-008  0.3702680E+03  0.7957747E-01  0.3494660E+00
         13   -1    0    0    0    0  0.00000000000E+00  0.00000000000E+00  0.14999999963E+04  0.15000000000E+04  0.10566000000E+00 0.  1.
        994   -1    0    0    0    0 -0.00000000000E+00 -0.00000000000E+00  0.11368683772E-12  0.17120000000E+03  0.17120000000E+03 0.  0.
         13    1    1    2    0    0  0.53541790043E+02  0.95654067113E+02  0.44280041898E+03  0.45616734435E+03  0.10566000000E+00 0.  1.
        994    1    1    2    0    0 -0.56698991959E+02 -0.96035427061E+02  0.53407395254E+02  0.21118562642E+03  0.17120000000E+03 0.  0.
        998    1    1    2    0    0  0.31572019163E+01  0.38135994763E+00  0.10037921820E+04  0.10038470292E+04  0.10000000000E+02 0.  0.
</event>
<event>
 5    1  0.1147307E-008  0.3743546E+03  0.7957747E-01  0.3476114E+00
         13   -1    0    0    0    0  0.00000000000E+00  0.00000000000E+00  0.14999999963E+04  0.15000000000E+04  0.10566000000E+00 0.  1.
        994   -1    0    0    0    0 -0.00000000000E+00 -0.00000000000E+00  0.11368683772E-12  0.17120000000E+03  0.17120000000E+03 0.  0.
         13    1    1    2    0    0 -0.48787177840E+02 -0.25275731616E+02  0.96331861839E+02  0.11090036113E+03  0.10566000000E+00 0.  1.
        994    1    1    2    0    0  0.63638697297E+02  0.36516300886E+02  0.32627530496E+02  0.18909605964E+03  0.17120000000E+03 0.  0.
        998    1    1    2    0    0 -0.14851519457E+02 -0.11240569270E+02  0.13710406039E+04  0.13712035792E+04  0.10000000000E+02 0.  1.
</event>
<event>
 5    1  0.1147307E-008  0.3727013E+03  0.7957747E-01  0.3483567E+00
         13   -1    0    0    0    0  0.00000000000E+00  0.00000000000E+00  0.14999999963E+04  0.15000000000E+04  0.10566000000E+00 0. -1.
        994   -1    0    0    0    0 -0.00000000000E+00 -0.00000000000E+00  0.11368683772E-12  0.17120000000E+03  0.17120000000E+03 0.  0.
         13    1    1    2    0    0  0.88702821449E+01  0.19223629736E+02  0.24912741212E+02  0.32693817219E+02  0.10566000000E+00 0. -1.
        994    1    1    2    0    0 -0.84071873131E+01 -0.17535640281E+02  0.91605226280E+01  0.17254429766E+03  0.17120000000E+03 0.  0.
        998    1    1    2    0    0 -0.46309483172E+00 -0.16879894549E+01  0.14659267324E+04  0.14659618851E+04  0.10000000000E+02 0. -1.
</event>
<event>
 5    1  0.1147307E-008  0.3840303E+03  0.7957747E-01  0.3433795E+00
         13   -1    0    0    0    0  0.00000000000E+00  0.00000000000E+00  0.14999999963E+04  0.15000000000E+04  0.10566000000E+00 0. -1.
        994   -1    0    0    0    0 -0.00000000000E+00 -0.00000000000E+00  0.11368683772E-12  0.17120000000E+03  0.17120000000E+03 0.  0.
         13    1    1    2    0    0  0.80739593037E+01 -0.85545766135E+01  0.32743565014E+02  0.34792553998E+02  0.10566000000E+00 0. -1.
        994    1    1    2    0    0 -0.65323129145E+01 -0.82821600125E+00  0.22553961466E+01  0.17134142484E+03  0.17120000000E+03 0.  0.
        998    1    1    2    0    0 -0.15416463892E+01  0.93827926147E+01  0.14650010351E+04  0.14650660212E+04  0.10000000000E+02 0. -1.
</event>
<event>
 5    1  0.1147307E-008  0.3754782E+03  0.7957747E-01  0.3471087E+00
         13   -1    0    0    0    0  0.00000000000E+00  0.00000000000E+00  0.14999999963E+04  0.15000000000E+04  0.10566000000E+00 0.  1.
        994   -1    0    0    0    0 -0.00000000000E+00 -0.00000000000E+00  0.11368683772E-12  0.17120000000E+03  0.17120000000E+03 0.  0.
         13    1    1    2    0    0  0.39295046604E+02  0.26301926367E+02  0.21919461919E+03  0.22423689318E+03  0.10566000000E+00 0.  1.
        994    1    1    2    0    0 -0.31319344817E+01  0.20825378007E+02  0.79399682382E+01  0.17267306819E+03  0.17120000000E+03 0.  0.
        998    1    1    2    0    0 -0.36163112122E+02 -0.47127304375E+02  0.12728654089E+04  0.12742900386E+04  0.10000000000E+02 0.  1.
</event>
<event>
 5    1  0.1147307E-008  0.3794254E+03  0.7957747E-01  0.3453664E+00
         13   -1    0    0    0    0  0.00000000000E+00  0.00000000000E+00  0.14999999963E+04  0.15000000000E+04  0.10566000000E+00 0. -1.
        994   -1    0    0    0    0 -0.00000000000E+00 -0.00000000000E+00  0.11368683772E-12  0.17120000000E+03  0.17120000000E+03 0.  0.
         13    1    1    2    0    0 -0.17199156035E+03 -0.63051098515E+02  0.97949722603E+03  0.99647948540E+03  0.10566000000E+00 0. -1.
        994    1    1    2    0    0  0.17027578733E+03  0.74641987186E+02  0.13054502255E+03  0.28445863129E+03  0.17120000000E+03 0.  0.
        998    1    1    2    0    0  0.17157730184E+01 -0.11590888671E+02  0.38995774770E+03  0.39026188331E+03  0.10000000000E+02 0. -1.
</event>
<event>
 5    1  0.1147307E-008  0.3688296E+03  0.7957747E-01  0.3501287E+00
         13   -1    0    0    0    0  0.00000000000E+00  0.00000000000E+00  0.14999999963E+04  0.15000000000E+04  0.10566000000E+00 0. -1.
        994   -1    0    0    0    0 -0.00000000000E+00 -0.00000000000E+00  0.11368683772E-12  0.17120000000E+03  0.17120000000E+03 0.  0.
         13    1    1    2    0    0 -0.17668284167E+03 -0.54257709216E+02  0.71803322232E+03  0.74143944127E+03  0.10566000000E+00 0. -1.
        994    1    1    2    0    0  0.18265944454E+03  0.47555575508E+02  0.14606801593E+03  0.29371978265E+03  0.17120000000E+03 0.  0.
        998    1    1    2    0    0 -0.59766028753E+01  0.67021337079E+01  0.63589875802E+03  0.63604077608E+03  0.10000000000E+02 0. -1.
</event>
<event>
 5    1  0.1147307E-008  0.3800607E+03  0.7957747E-01  0.3450894E+00
         13   -1    0    0    0    0  0.00000000000E+00  0.00000000000E+00  0.14999999963E+04  0.15000000000E+04  0.10566000000E+00 0.  1.
        994   -1    0    0    0    0 -0.00000000000E+00 -0.00000000000E+00  0.11368683772E-12  0.17120000000E+03  0.17120000000E+03 0.  0.
         13    1    1    2    0    0 -0.28423226966E+02 -0.30865427795E+02  0.21476364554E+03  0.21882410533E+03  0.10566000000E+00 0.  1.
        994    1    1    2    0    0  0.63969625877E+01  0.25966608985E+02  0.64965163229E+01  0.17339789686E+03  0.17120000000E+03 0.  0.
        998    1    1    2    0    0  0.22026264378E+02  0.48988188103E+01  0.12787398344E+04  0.12789779978E+04  0.10000000000E+02 0.  1.
</event>
<event>
 5    1  0.1147307E-008  0.3784537E+03  0.7957747E-01  0.3457919E+00
         13   -1    0    0    0    0  0.00000000000E+00  0.00000000000E+00  0.14999999963E+04  0.15000000000E+04  0.10566000000E+00 0. -1.
        994   -1    0    0    0    0 -0.00000000000E+00 -0.00000000000E+00  0.11368683772E-12  0.17120000000E+03  0.17120000000E+03 0.  0.
         13    1    1    2    0    0 -0.17996564323E+02  0.37931340161E+01  0.32475466610E+02  0.37321994704E+02  0.10566000000E+00 0. -1.
        994    1    1    2    0    0  0.15113029425E+02  0.13805638252E+02  0.63249017333E+01  0.17253534040E+03  0.17120000000E+03 0.  0.
        998    1    1    2    0    0  0.28835348981E+01 -0.17598772268E+02  0.14611996279E+04  0.14613426649E+04  0.10000000000E+02 0. -1.
</event>
<event>
 5    1  0.1147307E-008  0.3777493E+03  0.7957747E-01  0.3461017E+00
         13   -1    0    0    0    0  0.00000000000E+00  0.00000000000E+00  0.14999999963E+04  0.15000000000E+04  0.10566000000E+00 0.  1.
        994   -1    0    0    0    0 -0.00000000000E+00 -0.00000000000E+00  0.11368683772E-12  0.17120000000E+03  0.17120000000E+03 0.  0.
         13    1    1    2    0    0  0.16365497366E+02  0.68008064625E+01  0.28358089932E+02  0.33440587633E+02  0.10566000000E+00 0.  1.
        994    1    1    2    0    0  0.10312568416E+02 -0.30698610433E+02  0.88138877292E+01  0.17445881568E+03  0.17120000000E+03 0.  0.
        998    1    1    2    0    0 -0.26678065782E+02  0.23897803971E+02  0.14628280186E+04  0.14633005967E+04  0.10000000000E+02 0.  1.
</event>
<event>
 5    1  0.1147307E-008  0.3842913E+03  0.7957747E-01  0.3432683E+00
         13   -1    0    0    0    0  0.00000000000E+00  0.00000000000E+00  0.14999999963E+04  0.15000000000E+04  0.10566000000E+00 0. -1.
        994   -1    0    0    0    0 -0.00000000000E+00 -0.00000000000E+00  0.11368683772E-12  0.17120000000E+03  0.17120000000E+03 0.  0.
         13    1    1    2    0    0 -0.18441823722E+02 -0.18662392855E+01  0.10551689306E+03  0.10713267287E+03  0.10566000000E+00 0. -1.
        994    1    1    2    0    0 -0.14642510415E+02  0.21268640324E+01  0.27043659728E+01  0.17185947823E+03  0.17120000000E+03 0.  0.
        998    1    1    2    0    0  0.33084334138E+02 -0.26062474689E+00  0.13917787372E+04  0.13922078489E+04  0.10000000000E+02 0. -1.
</event>
<event>
 5    1  0.1147307E-008  0.3748725E+03  0.7957747E-01  0.3473793E+00
         13   -1    0    0    0    0  0.00000000000E+00  0.00000000000E+00  0.14999999963E+04  0.15000000000E+04  0.10566000000E+00 0.  1.
        994   -1    0    0    0    0 -0.00000000000E+00 -0.00000000000E+00  0.11368683772E-12  0.17120000000E+03  0.17120000000E+03 0.  0.
         13    1    1    2    0    0 -0.25004328943E+02  0.18237520025E+01  0.47298053182E+02  0.53531855339E+02  0.10566000000E+00 0.  1.
        994    1    1    2    0    0 -0.70364774734E+01  0.33118875083E+01  0.69499032679E+01  0.17151740952E+03  0.17120000000E+03 0.  0.
        998    1    1    2    0    0  0.32040806416E+02 -0.51356395108E+01  0.14457520398E+04  0.14461507351E+04  0.10000000000E+02 0.  1.
</event>
<event>
 5    1  0.1147307E-008  0.3845704E+03  0.7957747E-01  0.3431496E+00
         13   -1    0    0    0    0  0.00000000000E+00  0.00000000000E+00  0.14999999963E+04  0.15000000000E+04  0.10566000000E+00 0.  1.
        994   -1    0    0    0    0 -0.00000000000E+00 -0.00000000000E+00  0.11368683772E-12  0.17120000000E+03  0.17120000000E+03 0.  0.
         13    1    1    2    0    0  0.81998942770E+01 -0.14232799596E+02  0.72853489872E+02  0.74682347319E+02  0.10566000000E+00 0.  1.
        994    1    1    2    0    0 -0.49426171217E+01  0.98260540347E+01  0.22420991279E+01  0.17156761877E+03  0.17120000000E+03 0.  0.
        998    1    1    2    0    0 -0.32572771553E+01  0.44067455611E+01  0.14249044073E+04  0.14249500339E+04  0.10000000000E+02 0.  1.
</event>
<event>
 5    1  0.1147307E-008  0.3820468E+03  0.7957747E-01  0.3442294E+00
         13   -1    0    0    0    0  0.00000000000E+00  0.00000000000E+00  0.14999999963E+04  0.15000000000E+04  0.10566000000E+00 0. -1.
        994   -1    0    0    0    0 -0.00000000000E+00 -0.00000000000E+00  0.11368683772E-12  0.17120000000E+03  0.17120000000E+03 0.  0.
         13    1    1    2    0    0  0.44292948758E+01 -0.90698901387E+01  0.15079132329E+02  0.18145879865E+02  0.10566000000E+00 0. -1.
        994    1    1    2    0    0 -0.15346667377E+02  0.21192091453E+01  0.39008434114E+01  0.17194379264E+03  0.17120000000E+03 0.  0.
        998    1    1    2    0    0  0.10917372502E+02  0.69506809934E+01  0.14810200205E+04  0.14811103275E+04  0.10000000000E+02 0. -1.
</event>
<event>
 5    1  0.1147307E-008  0.3795065E+03  0.7957747E-01  0.3453310E+00
         13   -1    0    0    0    0  0.00000000000E+00  0.00000000000E+00  0.14999999963E+04  0.15000000000E+04  0.10566000000E+00 0.  1.
        994   -1    0    0    0    0 -0.00000000000E+00 -0.00000000000E+00  0.11368683772E-12  0.17120000000E+03  0.17120000000E+03 0.  0.
         13    1    1    2    0    0  0.28605764668E+02  0.11530249570E+02  0.10329561318E+03  0.10780181489E+03  0.10566000000E+00 0.  1.
        994    1    1    2    0    0 -0.24992755552E+02 -0.65626487914E+01  0.66213981170E+01  0.17326566048E+03  0.17120000000E+03 0.  0.
        998    1    1    2    0    0 -0.36130091162E+01 -0.49676007790E+01  0.13900829850E+04  0.13901325246E+04  0.10000000000E+02 0.  1.
</event>
<event>
 5    1  0.1147307E-008  0.3846973E+03  0.7957747E-01  0.3430957E+00
         13   -1    0    0    0    0  0.00000000000E+00  0.00000000000E+00  0.14999999963E+04  0.15000000000E+04  0.10566000000E+00 0.  1.
        994   -1    0    0    0    0 -0.00000000000E+00 -0.00000000000E+00  0.11368683772E-12  0.17120000000E+03  0.17120000000E+03 0.  0.
         13    1    1    2    0    0  0.39524836395E+00 -0.14350943041E+02  0.57502625114E+02  0.59267772411E+02  0.10566000000E+00 0.  1.
        994    1    1    2    0    0  0.21657618775E+01  0.10220078097E+02  0.21398601092E+01  0.17153180324E+03  0.17120000000E+03 0.  0.
        998    1    1    2    0    0 -0.25610102414E+01  0.41308649436E+01  0.14403575111E+04  0.14404004244E+04  0.10000000000E+02 0.  1.
</event>
<event>
 5    1  0.1147307E-008  0.3853529E+03  0.7957747E-01  0.3428177E+00
         13   -1    0    0    0    0  0.00000000000E+00  0.00000000000E+00  0.14999999963E+04  0.15000000000E+04  0.10566000000E+00 0.  1.
        994   -1    0    0    0    0 -0.00000000000E+00 -0.00000000000E+00  0.11368683772E-12  0.17120000000E+03  0.17120000000E+03 0.  0.
         13    1    1    2    0    0 -0.10617908672E+02 -0.12912365579E+02  0.92560792599E+02  0.94058389632E+02  0.10566000000E+00 0.  1.
        994    1    1    2    0    0 -0.23701879906E+00  0.21119871280E+02  0.29218169495E+01  0.17252270041E+03  0.17120000000E+03 0.  0.
        998    1    1    2    0    0  0.10854927471E+02 -0.82075057010E+01  0.14045173867E+04  0.14046189100E+04  0.10000000000E+02 0.  1.
</event>
<event>
 5    1  0.1147307E-008  0.3850917E+03  0.7957747E-01  0.3429283E+00
         13   -1    0    0    0    0  0.00000000000E+00  0.00000000000E+00  0.14999999963E+04  0.15000000000E+04  0.10566000000E+00 0.  1.
        994   -1    0    0    0    0 -0.00000000000E+00 -0.00000000000E+00  0.11368683772E-12  0.17120000000E+03  0.17120000000E+03 0.  0.
         13    1    1    2    0    0  0.10756379669E+02 -0.10853590808E+02  0.78010046952E+02  0.79492633159E+02  0.10566000000E+00 0.  1.
        994    1    1    2    0    0 -0.77935723627E+01 -0.45866192665E+01  0.18534984494E+01  0.17144868708E+03  0.17120000000E+03 0.  0.
        998    1    1    2    0    0 -0.29628073065E+01  0.15440210075E+02  0.14201364509E+04  0.14202586798E+04  0.10000000000E+02 0.  1.
</event>
<event>
 5    1  0.1147307E-008  0.3818563E+03  0.7957747E-01  0.3443115E+00
         13   -1    0    0    0    0  0.00000000000E+00  0.00000000000E+00  0.14999999963E+04  0.15000000000E+04  0.10566000000E+00 0. -1.
        994   -1    0    0    0    0 -0.00000000000E+00 -0.00000000000E+00  0.11368683772E-12  0.17120000000E+03  0.17120000000E+03 0.  0.
         13    1    1    2    0    0 -0.26490397172E+02  0.25743764162E+01  0.10890494932E+03  0.11211006960E+03  0.10566000000E+00 0. -1.
        994    1    1    2    0    0  0.19719750936E+02  0.18633969158E+02  0.56485466353E+01  0.17342848515E+03  0.17120000000E+03 0.  0.
        998    1    1    2    0    0  0.67706462362E+01 -0.21208345574E+02  0.13854465003E+04  0.13856614452E+04  0.10000000000E+02 0. -1.
</event>
<event>
 5    1  0.1147307E-008  0.3687577E+03  0.7957747E-01  0.3501620E+00
         13   -1    0    0    0    0  0.00000000000E+00  0.00000000000E+00  0.14999999963E+04  0.15000000000E+04  0.10566000000E+00 0. -1.
        994   -1    0    0    0    0 -0.00000000000E+00 -0.00000000000E+00  0.11368683772E-12  0.17120000000E+03  0.17120000000E+03 0.  0.
         13    1    1    2    0    0  0.35481756271E+02  0.42047800162E+02  0.19150047939E+03  0.19924712619E+03  0.10566000000E+00 0. -1.
        994    1    1    2    0    0  0.50938413046E+01  0.16497206814E+02  0.10955697326E+02  0.17241685636E+03  0.17120000000E+03 0.  0.
        998    1    1    2    0    0 -0.40575597575E+02 -0.58545006977E+02  0.12975438196E+04  0.12995360175E+04  0.10000000000E+02 0. -1.
</event>
<event>
 5    1  0.1147307E-008  0.3701875E+03  0.7957747E-01  0.3495029E+00
         13   -1    0    0    0    0  0.00000000000E+00  0.00000000000E+00  0.14999999963E+04  0.15000000000E+04  0.10566000000E+00 0.  1.
        994   -1    0    0    0    0 -0.00000000000E+00 -0.00000000000E+00  0.11368683772E-12  0.17120000000E+03  0.17120000000E+03 0.  0.
         13    1    1    2    0    0  0.81936686683E+02 -0.27300582188E+02  0.34372371521E+03  0.35440788080E+03  0.10566000000E+00 0.  1.
        994    1    1    2    0    0 -0.40136348907E+02  0.25510094699E+02  0.18992234326E+02  0.17869481358E+03  0.17120000000E+03 0.  0.
        998    1    1    2    0    0 -0.41800337776E+02  0.17904874891E+01  0.11372840467E+04  0.11380973056E+04  0.10000000000E+02 0.  1.
</event>
<event>
 5    1  0.1147307E-008  0.3835687E+03  0.7957747E-01  0.3435765E+00
         13   -1    0    0    0    0  0.00000000000E+00  0.00000000000E+00  0.14999999963E+04  0.15000000000E+04  0.10566000000E+00 0. -1.
        994   -1    0    0    0    0 -0.00000000000E+00 -0.00000000000E+00  0.11368683772E-12  0.17120000000E+03  0.17120000000E+03 0.  0.
         13    1    1    2    0    0  0.83243728550E+01 -0.10522429566E+02  0.36953971541E+02  0.39314423360E+02  0.10566000000E+00 0. -1.
        994    1    1    2    0    0 -0.76010248318E+01  0.12128169972E+02  0.30195781912E+01  0.17182382238E+03  0.17120000000E+03 0.  0.
        998    1    1    2    0    0 -0.72334802325E+00 -0.16057404065E+01  0.14600264465E+04  0.14600617543E+04  0.10000000000E+02 0. -1.
</event>
<event>
 5    1  0.1147307E-008  0.3846635E+03  0.7957747E-01  0.3431101E+00
         13   -1    0    0    0    0  0.00000000000E+00  0.00000000000E+00  0.14999999963E+04  0.15000000000E+04  0.10566000000E+00 0. -1.
        994   -1    0    0    0    0 -0.00000000000E+00 -0.00000000000E+00  0.11368683772E-12  0.17120000000E+03  0.17120000000E+03 0.  0.
         13    1    1    2    0    0  0.10150528517E+02  0.50680158020E-01  0.29584689524E+02  0.31277800688E+02  0.10566000000E+00 0. -1.
        994    1    1    2    0    0  0.37158101336E+01 -0.56194893555E+01  0.19467399874E+01  0.17134356043E+03  0.17120000000E+03 0.  0.
        998    1    1    2    0    0 -0.13866338651E+02  0.55688091975E+01  0.14684685668E+04  0.14685786389E+04  0.10000000000E+02 0. -1.
</event>
<event>
 5    1  0.1147307E-008  0.2645842E+03  0.7957747E-01  0.4186553E+00
         13   -1    0    0    0    0  0.00000000000E+00  0.00000000000E+00  0.14999999963E+04  0.15000000000E+04  0.10566000000E+00 0. -1.
        994   -1    0    0    0    0 -0.00000000000E+00 -0.00000000000E+00  0.11368683772E-12  0.17120000000E+03  0.17120000000E+03 0.  0.
         13    1    1    2    0    0  0.13060418652E+03 -0.77087552784E+02  0.57744239495E+03  0.59702569038E+03  0.10566000000E+00 0. -1.
        994    1    1    2    0    0 -0.26444352301E+02  0.44120397327E+02  0.37892559797E+02  0.18273258964E+03  0.17120000000E+03 0.  0.
        998    1    1    2    0    0 -0.10415983421E+03  0.32967155457E+02  0.88466504153E+03  0.89144171998E+03  0.10000000000E+02 0. -1.
</event>
<event>
 5    1  0.1147307E-008  0.3834635E+03  0.7957747E-01  0.3436215E+00
         13   -1    0    0    0    0  0.00000000000E+00  0.00000000000E+00  0.14999999963E+04  0.15000000000E+04  0.10566000000E+00 0. -1.
        994   -1    0    0    0    0 -0.00000000000E+00 -0.00000000000E+00  0.11368683772E-12  0.17120000000E+03  0.17120000000E+03 0.  0.
         13    1    1    2    0    0 -0.20227922432E+01  0.12993739686E+02  0.34501337994E+02  0.36922654928E+02  0.10566000000E+00 0. -1.
        994    1    1    2    0    0  0.29737860708E+01 -0.14980773994E+02  0.31662448668E+01  0.17190908091E+03  0.17120000000E+03 0.  0.
        998    1    1    2    0    0 -0.95099382764E+00  0.19870343081E+01  0.14623324134E+04  0.14623682642E+04  0.10000000000E+02 0. -1.
</event>
<event>
 5    1  0.1147307E-008  0.3797906E+03  0.7957747E-01  0.3452071E+00
         13   -1    0    0    0    0  0.00000000000E+00  0.00000000000E+00  0.14999999963E+04  0.15000000000E+04  0.10566000000E+00 0. -1.
        994   -1    0    0    0    0 -0.00000000000E+00 -0.00000000000E+00  0.11368683772E-12  0.17120000000E+03  0.17120000000E+03 0.  0.
         13    1    1    2    0    0  0.34976950154E+02  0.69882602432E+01  0.16612155173E+03  0.16990763355E+03  0.10566000000E+00 0. -1.
        994    1    1    2    0    0 -0.92113044500E+01  0.20743771212E+02  0.59640818367E+01  0.17280093300E+03  0.17120000000E+03 0.  0.
        998    1    1    2    0    0 -0.25765645704E+02 -0.27732031456E+02  0.13279143627E+04  0.13284914335E+04  0.10000000000E+02 0. -1.
</event>
<event>
 5    1  0.1147307E-008  0.4134261E+03  0.7957747E-01  0.3317390E+00
         13   -1    0    0    0    0  0.00000000000E+00  0.00000000000E+00  0.14999999963E+04  0.15000000000E+04  0.10566000000E+00 0. -1.
        994   -1    0    0    0    0 -0.00000000000E+00 -0.00000000000E+00  0.11368683772E-12  0.17120000000E+03  0.17120000000E+03 0.  0.
         13    1    1    2    0    0 -0.52879509545E+01 -0.82566190414E+02  0.78779941426E+02  0.11424284905E+03  0.10566000000E+00 0. -1.
        994    1    1    2    0    0  0.70162152028E+01  0.85463902843E+02  0.67243529232E+02  0.20293949391E+03  0.17120000000E+03 0.  0.
        998    1    1    2    0    0 -0.17282642483E+01 -0.28977124297E+01  0.13539765256E+04  0.13540176570E+04  0.10000000000E+02 0. -1.
</event>
<event>
 5    1  0.1147307E-008  0.3807732E+03  0.7957747E-01  0.3447799E+00
         13   -1    0    0    0    0  0.00000000000E+00  0.00000000000E+00  0.14999999963E+04  0.15000000000E+04  0.10566000000E+00 0.  1.
        994   -1    0    0    0    0 -0.00000000000E+00 -0.00000000000E+00  0.11368683772E-12  0.17120000000E+03  0.17120000000E+03 0.  0.
         13    1    1    2    0    0 -0.19320149820E+02  0.57284472619E+01  0.64831579418E+02  0.67891296578E+02  0.10566000000E+00 0.  1.
        994    1    1    2    0    0 -0.35346223576E+02 -0.56518916689E+01  0.80275432470E+01  0.17508620977E+03  0.17120000000E+03 0.  0.
        998    1    1    2    0    0  0.54666373396E+02 -0.76555593057E-01  0.14271408736E+04  0.14282224937E+04  0.10000000000E+02 0.  1.
</event>
<event>
 5    1  0.1147307E-008  0.3839515E+03  0.7957747E-01  0.3434131E+00
         13   -1    0    0    0    0  0.00000000000E+00  0.00000000000E+00  0.14999999963E+04  0.15000000000E+04  0.10566000000E+00 0.  1.
        994   -1    0    0    0    0 -0.00000000000E+00 -0.00000000000E+00  0.11368683772E-12  0.17120000000E+03  0.17120000000E+03 0.  0.
         13    1    1    2    0    0 -0.13178136255E+02 -0.56775517273E+01  0.51873629785E+02  0.53821766042E+02  0.10566000000E+00 0.  1.
        994    1    1    2    0    0 -0.10443223956E+02  0.30477975563E+01  0.25422214032E+01  0.17156413636E+03  0.17120000000E+03 0.  0.
        998    1    1    2    0    0  0.23621360212E+02  0.26297541710E+01  0.14455841451E+04  0.14458140976E+04  0.10000000000E+02 0.  1.
</event>
<event>
 5    1  0.1147307E-008  0.3752144E+03  0.7957747E-01  0.3472264E+00
         13   -1    0    0    0    0  0.00000000000E+00  0.00000000000E+00  0.14999999963E+04  0.15000000000E+04  0.10566000000E+00 0. -1.
        994   -1    0    0    0    0 -0.00000000000E+00 -0.00000000000E+00  0.11368683772E-12  0.17120000000E+03  0.17120000000E+03 0.  0.
         13    1    1    2    0    0  0.56320691305E+02 -0.34105170890E+02  0.23105302110E+03  0.24025131149E+03  0.10566000000E+00 0. -1.
        994    1    1    2    0    0 -0.67464477449E+02  0.70421644310E+02  0.39592571913E+02  0.20096685163E+03  0.17120000000E+03 0.  0.
        998    1    1    2    0    0  0.11143786143E+02 -0.36316473420E+02  0.12293544033E+04  0.12299818369E+04  0.10000000000E+02 0. -1.
</event>
<event>
 5    1  0.1147307E-008  0.3749487E+03  0.7957747E-01  0.3473452E+00
         13   -1    0    0    0    0  0.00000000000E+00  0.00000000000E+00  0.14999999963E+04  0.15000000000E+04  0.10566000000E+00 0.  1.
        994   -1    0    0    0    0 -0.00000000000E+00 -0.00000000000E+00  0.11368683772E-12  0.17120000000E+03  0.17120000000E+03 0.  0.
         13    1    1    2    0    0 -0.11600071681E+03  0.35109919511E+01  0.55379466807E+03  0.56582421202E+03  0.10566000000E+00 0.  1.
        994    1    1    2    0    0  0.12377825915E+03 -0.12272005989E+02  0.61270605052E+02  0.22030702806E+03  0.17120000000E+03 0.  0.
        998    1    1    2    0    0 -0.77775423386E+01  0.87610140383E+01  0.88493472316E+03  0.88506875992E+03  0.10000000000E+02 0.  1.
</event>
<event>
 5    1  0.1147307E-008  0.3746027E+03  0.7957747E-01  0.3475002E+00
         13   -1    0    0    0    0  0.00000000000E+00  0.00000000000E+00  0.14999999963E+04  0.15000000000E+04  0.10566000000E+00 0. -1.
        994   -1    0    0    0    0 -0.00000000000E+00 -0.00000000000E+00  0.11368683772E-12  0.17120000000E+03  0.17120000000E+03 0.  0.
         13    1    1    2    0    0  0.35313926667E+02  0.18264201973E+03  0.98041354532E+03  0.99790576299E+03  0.10566000000E+00 0. -1.
        994    1    1    2    0    0 -0.25755293078E+01 -0.17982028978E+03  0.12641530988E+03  0.27862562793E+03  0.17120000000E+03 0.  0.
        998    1    1    2    0    0 -0.32738397359E+02 -0.28217299528E+01  0.39317114108E+03  0.39466860908E+03  0.10000000000E+02 0. -1.
</event>
<event>
 5    1  0.1147307E-008  0.3838927E+03  0.7957747E-01  0.3434382E+00
         13   -1    0    0    0    0  0.00000000000E+00  0.00000000000E+00  0.14999999963E+04  0.15000000000E+04  0.10566000000E+00 0. -1.
        994   -1    0    0    0    0 -0.00000000000E+00 -0.00000000000E+00  0.11368683772E-12  0.17120000000E+03  0.17120000000E+03 0.  0.
         13    1    1    2    0    0 -0.13867527190E+01  0.12334037283E+02  0.31750378109E+02  0.34090309957E+02  0.10566000000E+00 0. -1.
        994    1    1    2    0    0  0.52656332903E+01 -0.30559549895E+02  0.53611358869E+01  0.17406836232E+03  0.17120000000E+03 0.  0.
        998    1    1    2    0    0 -0.38788805713E+01  0.18225512612E+02  0.14628884823E+04  0.14630413277E+04  0.10000000000E+02 0. -1.
</event>
<event>
 5    1  0.1147307E-008  0.3815678E+03  0.7957747E-01  0.3444360E+00
         13   -1    0    0    0    0  0.00000000000E+00  0.00000000000E+00  0.14999999963E+04  0.15000000000E+04  0.10566000000E+00 0. -1.
        994   -1    0    0    0    0 -0.00000000000E+00 -0.00000000000E+00  0.11368683772E-12  0.17120000000E+03  0.17120000000E+03 0.  0.
         13    1    1    2    0    0  0.24452667022E+02 -0.21386947600E+02  0.17760404990E+03  0.18055066923E+03  0.10566000000E+00 0. -1.
        994    1    1    2    0    0 -0.92430109441E+01 -0.57579143420E+01  0.37382955401E+01  0.17158671767E+03  0.17120000000E+03 0.  0.
        998    1    1    2    0    0 -0.15209656078E+02  0.27144861942E+02  0.13186576508E+04  0.13190626131E+04  0.10000000000E+02 0. -1.
</event>
<event>
 5    1  0.1147307E-008  0.3837073E+03  0.7957747E-01  0.3435173E+00
         13   -1    0    0    0    0  0.00000000000E+00  0.00000000000E+00  0.14999999963E+04  0.15000000000E+04  0.10566000000E+00 0. -1.
        994   -1    0    0    0    0 -0.00000000000E+00 -0.00000000000E+00  0.11368683772E-12  0.17120000000E+03  0.17120000000E+03 0.  0.
         13    1    1    2    0    0 -0.14567411751E+02  0.69090980074E+01  0.53007091109E+02  0.55404945558E+02  0.10566000000E+00 0. -1.
        994    1    1    2    0    0  0.30025960648E+02  0.65798560301E+01  0.53999266066E+01  0.17402141255E+03  0.17120000000E+03 0.  0.
        998    1    1    2    0    0 -0.15458548897E+02 -0.13488954037E+02  0.14415929786E+04  0.14417736419E+04  0.10000000000E+02 0. -1.
</event>
<event>
 5    1  0.1147307E-008  0.3703187E+03  0.7957747E-01  0.3494427E+00
         13   -1    0    0    0    0  0.00000000000E+00  0.00000000000E+00  0.14999999963E+04  0.15000000000E+04  0.10566000000E+00 0. -1.
        994   -1    0    0    0    0 -0.00000000000E+00 -0.00000000000E+00  0.11368683772E-12  0.17120000000E+03  0.17120000000E+03 0.  0.
         13    1    1    2    0    0  0.18799314397E+02 -0.15497669095E+02  0.22275546189E+02  0.33012165807E+02  0.10566000000E+00 0. -1.
        994    1    1    2    0    0  0.18204180611E+01  0.22691034232E+02  0.12923150534E+02  0.17318962087E+03  0.17120000000E+03 0.  0.
        998    1    1    2    0    0 -0.20619732459E+02 -0.71933651372E+01  0.14648012996E+04  0.14649982133E+04  0.10000000000E+02 0. -1.
</event>
<event>
 5    1  0.1147307E-008  0.3846439E+03  0.7957747E-01  0.3431184E+00
         13   -1    0    0    0    0  0.00000000000E+00  0.00000000000E+00  0.14999999963E+04  0.15000000000E+04  0.10566000000E+00 0.  1.
        994   -1    0    0    0    0 -0.00000000000E+00 -0.00000000000E+00  0.11368683772E-12  0.17120000000E+03  0.17120000000E+03 0.  0.
         13    1    1    2    0    0  0.11379545217E+02 -0.12736900571E+02  0.85473575497E+02  0.87163443931E+02  0.10566000000E+00 0.  1.
        994    1    1    2    0    0  0.31139641206E+01  0.63129345316E+01  0.19701977507E+01  0.17135597916E+03  0.17120000000E+03 0.  0.
        998    1    1    2    0    0 -0.14493509337E+02  0.64239660398E+01  0.14125562230E+04  0.14126805769E+04  0.10000000000E+02 0.  1.
</event>
<event>
 5    1  0.1147307E-008  0.3690228E+03  0.7957747E-01  0.3500394E+00
         13   -1    0    0    0    0  0.00000000000E+00  0.00000000000E+00  0.14999999963E+04  0.15000000000E+04  0.10566000000E+00 0. -1.
        994   -1    0    0    0    0 -0.00000000000E+00 -0.00000000000E+00  0.11368683772E-12  0.17120000000E+03  0.17120000000E+03 0.  0.
         13    1    1    2    0    0 -0.22339802983E+02 -0.59507421218E+01  0.20834455299E+02  0.31121757996E+02  0.10566000000E+00 0. -1.
        994    1    1    2    0    0  0.24498905481E+02  0.35189525545E+01  0.12560225188E+02  0.17343522899E+03  0.17120000000E+03 0.  0.
        998    1    1    2    0    0 -0.21591024983E+01  0.24317895673E+01  0.14666053158E+04  0.14666430130E+04  0.10000000000E+02 0. -1.
</event>
<event>
 5    1  0.1147307E-008  0.3691339E+03  0.7957747E-01  0.3499881E+00
         13   -1    0    0    0    0  0.00000000000E+00  0.00000000000E+00  0.14999999963E+04  0.15000000000E+04  0.10566000000E+00 0. -1.
        994   -1    0    0    0    0 -0.00000000000E+00 -0.00000000000E+00  0.11368683772E-12  0.17120000000E+03  0.17120000000E+03 0.  0.
         13    1    1    2    0    0  0.12672606347E+03  0.10370256368E+03  0.72352722728E+03  0.74182570504E+03  0.10566000000E+00 0. -1.
        994    1    1    2    0    0 -0.11699158052E+03 -0.10075581396E+03  0.97593413773E+02  0.25034511853E+03  0.17120000000E+03 0.  0.
        998    1    1    2    0    0 -0.97344829536E+01 -0.29467497229E+01  0.67887935522E+03  0.67902917643E+03  0.10000000000E+02 0.  0.
</event>
<event>
 5    1  0.1147307E-008  0.3855708E+03  0.7957747E-01  0.3427255E+00
         13   -1    0    0    0    0  0.00000000000E+00  0.00000000000E+00  0.14999999963E+04  0.15000000000E+04  0.10566000000E+00 0. -1.
        994   -1    0    0    0    0 -0.00000000000E+00 -0.00000000000E+00  0.11368683772E-12  0.17120000000E+03  0.17120000000E+03 0.  0.
         13    1    1    2    0    0  0.83724220265E+01  0.11658797898E+02  0.75943048079E+02  0.77287662241E+02  0.10566000000E+00 0. -1.
        994    1    1    2    0    0  0.14688947980E+02 -0.25642992463E+02  0.42190545217E+01  0.17378310814E+03  0.17120000000E+03 0.  0.
        998    1    1    2    0    0 -0.23061370006E+02  0.13984194565E+02  0.14198378937E+04  0.14201292296E+04  0.10000000000E+02 0. -1.
</event>
<event>
 5    1  0.1147307E-008  0.4115829E+03  0.7957747E-01  0.3324204E+00
         13   -1    0    0    0    0  0.00000000000E+00  0.00000000000E+00  0.14999999963E+04  0.15000000000E+04  0.10566000000E+00 0. -1.
        994   -1    0    0    0    0 -0.00000000000E+00 -0.00000000000E+00  0.11368683772E-12  0.17120000000E+03  0.17120000000E+03 0.  0.
         13    1    1    2    0    0  0.36938502483E+02  0.11371595217E+02  0.54380691986E+01  0.39030115349E+02  0.10566000000E+00 0. -1.
        994    1    1    2    0    0 -0.13760716569E+02 -0.12644991059E+03  0.10518575092E+03  0.23780752596E+03  0.17120000000E+03 0.  0.
        998    1    1    2    0    0 -0.23177785915E+02  0.11507831538E+03  0.13893761762E+04  0.13943623587E+04  0.10000000000E+02 0. -1.
</event>
<event>
 5    1  0.1147307E-008  0.3825699E+03  0.7957747E-01  0.3440044E+00
         13   -1    0    0    0    0  0.00000000000E+00  0.00000000000E+00  0.14999999963E+04  0.15000000000E+04  0.10566000000E+00 0.  1.
        994   -1    0    0    0    0 -0.00000000000E+00 -0.00000000000E+00  0.11368683772E-12  0.17120000000E+03  0.17120000000E+03 0.  0.
         13    1    1    2    0    0  0.28269520952E+01 -0.50837594473E+02  0.30030063482E+03  0.30458649856E+03  0.10566000000E+00 0.  1.
        994    1    1    2    0    0  0.50999330947E+01  0.70055442022E+02  0.19371677952E+02  0.18606041003E+03  0.17120000000E+03 0.  0.
        998    1    1    2    0    0 -0.79268851899E+01 -0.19217847549E+02  0.11803276835E+04  0.11805530914E+04  0.10000000000E+02 0.  1.
</event>
<event>
 5    1  0.1147307E-008  0.3858115E+03  0.7957747E-01  0.3426238E+00
         13   -1    0    0    0    0  0.00000000000E+00  0.00000000000E+00  0.14999999963E+04  0.15000000000E+04  0.10566000000E+00 0. -1.
        994   -1    0    0    0    0 -0.00000000000E+00 -0.00000000000E+00  0.11368683772E-12  0.17120000000E+03  0.17120000000E+03 0.  0.
         13    1    1    2    0    0 -0.30410553656E+00 -0.12608840726E+02  0.74845989220E+02  0.75901308362E+02  0.10566000000E+00 0. -1.
        994    1    1    2    0    0  0.87055942998E+01 -0.86524441404E+01  0.17220684210E+01  0.17164806344E+03  0.17120000000E+03 0.  0.
        998    1    1    2    0    0 -0.84014887632E+01  0.21261284866E+02  0.14234319386E+04  0.14236506282E+04  0.10000000000E+02 0. -1.
</event>
<event>
 5    1  0.1147307E-008  0.3823469E+03  0.7957747E-01  0.3441003E+00
         13   -1    0    0    0    0  0.00000000000E+00  0.00000000000E+00  0.14999999963E+04  0.15000000000E+04  0.10566000000E+00 0. -1.
        994   -1    0    0    0    0 -0.00000000000E+00 -0.00000000000E+00  0.11368683772E-12  0.17120000000E+03  0.17120000000E+03 0.  0.
         13    1    1    2    0    0 -0.15049180229E+02 -0.25069512031E+02  0.15469060037E+03  0.15742982966E+03  0.10566000000E+00 0. -1.
        994    1    1    2    0    0  0.39374816387E+01  0.67007018991E+01  0.31534893306E+01  0.17140533149E+03  0.17120000000E+03 0.  0.
        998    1    1    2    0    0  0.11111698590E+02  0.18368810132E+02  0.13421559066E+04  0.13423648388E+04  0.10000000000E+02 0. -1.
</event>
<event>
 5    1  0.1147307E-008  0.3824340E+03  0.7957747E-01  0.3440628E+00
         13   -1    0    0    0    0  0.00000000000E+00  0.00000000000E+00  0.14999999963E+04  0.15000000000E+04  0.10566000000E+00 0. -1.
        994   -1    0    0    0    0 -0.00000000000E+00 -0.00000000000E+00  0.11368683772E-12  0.17120000000E+03  0.17120000000E+03 0.  0.
         13    1    1    2    0    0  0.92705909876E+01 -0.15519676057E+02  0.54622221261E+02  0.57536096685E+02  0.10566000000E+00 0. -1.
        994    1    1    2    0    0 -0.58231481047E+01  0.13107429825E+02  0.35919853908E+01  0.17183729551E+03  0.17120000000E+03 0.  0.
        998    1    1    2    0    0 -0.34474428828E+01  0.24122462326E+01  0.14417857896E+04  0.14418266078E+04  0.10000000000E+02 0. -1.
</event>
<event>
 5    1  0.1147307E-008  0.3699145E+03  0.7957747E-01  0.3496284E+00
         13   -1    0    0    0    0  0.00000000000E+00  0.00000000000E+00  0.14999999963E+04  0.15000000000E+04  0.10566000000E+00 0. -1.
        994   -1    0    0    0    0 -0.00000000000E+00 -0.00000000000E+00  0.11368683772E-12  0.17120000000E+03  0.17120000000E+03 0.  0.
         13    1    1    2    0    0  0.37380412423E+02  0.26273545111E+02  0.85788437826E+02  0.97197024822E+02  0.10566000000E+00 0. -1.
        994    1    1    2    0    0 -0.48941741337E+02 -0.17457787840E+02  0.20390489423E+02  0.18007020981E+03  0.17120000000E+03 0.  0.
        998    1    1    2    0    0  0.11561328914E+02 -0.88157572707E+01  0.13938210690E+04  0.13939327654E+04  0.10000000000E+02 0. -1.
</event>
<event>
 5    1  0.1147307E-008  0.3821635E+03  0.7957747E-01  0.3441792E+00
         13   -1    0    0    0    0  0.00000000000E+00  0.00000000000E+00  0.14999999963E+04  0.15000000000E+04  0.10566000000E+00 0. -1.
        994   -1    0    0    0    0 -0.00000000000E+00 -0.00000000000E+00  0.11368683772E-12  0.17120000000E+03  0.17120000000E+03 0.  0.
         13    1    1    2    0    0 -0.13831226947E+02  0.50941548247E+01  0.33648087397E+02  0.36734972461E+02  0.10566000000E+00 0. -1.
        994    1    1    2    0    0  0.17984460628E+02 -0.22607477318E+01  0.41362828465E+01  0.17220656387E+03  0.17120000000E+03 0.  0.
        998    1    1    2    0    0 -0.41532336811E+01 -0.28334070929E+01  0.14622156260E+04  0.14622584637E+04  0.10000000000E+02 0. -1.
</event>
<event>
 5    1  0.1147307E-008  0.3855417E+03  0.7957747E-01  0.3427378E+00
         13   -1    0    0    0    0  0.00000000000E+00  0.00000000000E+00  0.14999999963E+04  0.15000000000E+04  0.10566000000E+00 0. -1.
        994   -1    0    0    0    0 -0.00000000000E+00 -0.00000000000E+00  0.11368683772E-12  0.17120000000E+03  0.17120000000E+03 0.  0.
         13    1    1    2    0    0  0.13075224997E+02 -0.19372710507E+01  0.65568256733E+02  0.66887382837E+02  0.10566000000E+00 0. -1.
        994    1    1    2    0    0 -0.53597151312E+01  0.83531301698E+01  0.16848728858E+01  0.17149571460E+03  0.17120000000E+03 0.  0.
        998    1    1    2    0    0 -0.77155098662E+01 -0.64158591191E+01  0.14327468667E+04  0.14328169026E+04  0.10000000000E+02 0. -1.
</event>
<event>
 5    1  0.1147307E-008  0.3781341E+03  0.7957747E-01  0.3459323E+00
         13   -1    0    0    0    0  0.00000000000E+00  0.00000000000E+00  0.14999999963E+04  0.15000000000E+04  0.10566000000E+00 0. -1.
        994   -1    0    0    0    0 -0.00000000000E+00 -0.00000000000E+00  0.11368683772E-12  0.17120000000E+03  0.17120000000E+03 0.  0.
         13    1    1    2    0    0 -0.29145951121E+02  0.58445947514E+02  0.35751559791E+03  0.36343201450E+03  0.10566000000E+00 0. -1.
        994    1    1    2    0    0  0.92066459579E+01 -0.56471855759E+02  0.16170209445E+02  0.18123120177E+03  0.17120000000E+03 0.  0.
        998    1    1    2    0    0  0.19939305163E+02 -0.19740917554E+01  0.11263141889E+04  0.11265367837E+04  0.10000000000E+02 0. -1.
</event>
<event>
 5    1  0.1147307E-008  0.3826806E+03  0.7957747E-01  0.3439569E+00
         13   -1    0    0    0    0  0.00000000000E+00  0.00000000000E+00  0.14999999963E+04  0.15000000000E+04  0.10566000000E+00 0.  1.
        994   -1    0    0    0    0 -0.00000000000E+00 -0.00000000000E+00  0.11368683772E-12  0.17120000000E+03  0.17120000000E+03 0.  0.
         13    1    1    2    0    0 -0.12940841229E+02 -0.20841314927E+01  0.29473201740E+02  0.32256623516E+02  0.10566000000E+00 0.  1.
        994    1    1    2    0    0  0.13181295982E+02 -0.23915701306E+01  0.33809654951E+01  0.17175662170E+03  0.17120000000E+03 0.  0.
        998    1    1    2    0    0 -0.24045475316E+00  0.44757016233E+01  0.14671458290E+04  0.14671867548E+04  0.10000000000E+02 0.  1.
</event>
<event>
 5    1  0.1147307E-008  0.3833867E+03  0.7957747E-01  0.3436543E+00
         13   -1    0    0    0    0  0.00000000000E+00  0.00000000000E+00  0.14999999963E+04  0.15000000000E+04  0.10566000000E+00 0.  1.
        994   -1    0    0    0    0 -0.00000000000E+00 -0.00000000000E+00  0.11368683772E-12  0.17120000000E+03  0.17120000000E+03 0.  0.
         13    1    1    2    0    0 -0.52835734457E+01 -0.17480573239E+02  0.64822699941E+02  0.67345973753E+02  0.10566000000E+00 0.  1.
        994    1    1    2    0    0 -0.25962401416E+01  0.22403170162E+02  0.41165611239E+01  0.17272819275E+03  0.17120000000E+03 0.  0.
        998    1    1    2    0    0  0.78798135873E+01 -0.49225969230E+01  0.14310607352E+04  0.14311258335E+04  0.10000000000E+02 0.  1.
</event>
<event>
 5    1  0.1147307E-008  0.3789731E+03  0.7957747E-01  0.3455642E+00
         13   -1    0    0    0    0  0.00000000000E+00  0.00000000000E+00  0.14999999963E+04  0.15000000000E+04  0.10566000000E+00 0.  1.
        994   -1    0    0    0    0 -0.00000000000E+00 -0.00000000000E+00  0.11368683772E-12  0.17120000000E+03  0.17120000000E+03 0.  0.
         13    1    1    2    0    0  0.71345794104E+01  0.12842884861E+02  0.21038955128E+02  0.25661073864E+02  0.10566000000E+00 0.  1.
        994    1    1    2    0    0 -0.80410979980E+01 -0.11503097919E+02  0.53134213304E+01  0.17185648945E+03  0.17120000000E+03 0.  0.
        998    1    1    2    0    0  0.90651858766E+00 -0.13397869424E+01  0.14736476198E+04  0.14736824367E+04  0.10000000000E+02 0.  1.
</event>
<event>
 5    1  0.1147307E-008  0.3825093E+03  0.7957747E-01  0.3440305E+00
         13   -1    0    0    0    0  0.00000000000E+00  0.00000000000E+00  0.14999999963E+04  0.15000000000E+04  0.10566000000E+00 0. -1.
        994   -1    0    0    0    0 -0.00000000000E+00 -0.00000000000E+00  0.11368683772E-12  0.17120000000E+03  0.17120000000E+03 0.  0.
         13    1    1    2    0    0 -0.10773479107E+02  0.10115357201E+02  0.36427878595E+02  0.39311446250E+02  0.10566000000E+00 0. -1.
        994    1    1    2    0    0  0.97148393431E+01 -0.10645350921E+02  0.35607185731E+01  0.17184242874E+03  0.17120000000E+03 0.  0.
        998    1    1    2    0    0  0.10586397637E+01  0.52999372074E+00  0.14600113991E+04  0.14600461250E+04  0.10000000000E+02 0.  0.
</event>
<event>
 5    1  0.1147307E-008  0.3846422E+03  0.7957747E-01  0.3431191E+00
         13   -1    0    0    0    0  0.00000000000E+00  0.00000000000E+00  0.14999999963E+04  0.15000000000E+04  0.10566000000E+00 0.  1.
        994   -1    0    0    0    0 -0.00000000000E+00 -0.00000000000E+00  0.11368683772E-12  0.17120000000E+03  0.17120000000E+03 0.  0.
         13    1    1    2    0    0 -0.43455142991E+01 -0.12775688959E+02  0.51669503843E+02  0.53402720102E+02  0.10566000000E+00 0.  1.
        994    1    1    2    0    0 -0.62593646508E+01  0.58662028487E+01  0.20502217810E+01  0.17142705560E+03  0.17120000000E+03 0.  0.
        998    1    1    2    0    0  0.10604878950E+02  0.69094861101E+01  0.14462802707E+04  0.14463702243E+04  0.10000000000E+02 0.  1.
</event>
<event>
 5    1  0.1147307E-008  0.3837758E+03  0.7957747E-01  0.3434881E+00
         13   -1    0    0    0    0  0.00000000000E+00  0.00000000000E+00  0.14999999963E+04  0.15000000000E+04  0.10566000000E+00 0.  1.
        994   -1    0    0    0    0 -0.00000000000E+00 -0.00000000000E+00  0.11368683772E-12  0.17120000000E+03  0.17120000000E+03 0.  0.
         13    1    1    2    0    0  0.34072812840E+01  0.13410677525E+02  0.42072029534E+02  0.44289080715E+02  0.10566000000E+00 0.  1.
        994    1    1    2    0    0 -0.27347380627E+01 -0.94143607568E+01  0.25565634996E+01  0.17149951894E+03  0.17120000000E+03 0.  0.
        998    1    1    2    0    0 -0.67254322134E+00 -0.39963167686E+01  0.14553714032E+04  0.14554114003E+04  0.10000000000E+02 0.  1.
</event>
<event>
 5    1  0.1147307E-008  0.3795722E+03  0.7957747E-01  0.3453024E+00
         13   -1    0    0    0    0  0.00000000000E+00  0.00000000000E+00  0.14999999963E+04  0.15000000000E+04  0.10566000000E+00 0.  1.
        994   -1    0    0    0    0 -0.00000000000E+00 -0.00000000000E+00  0.11368683772E-12  0.17120000000E+03  0.17120000000E+03 0.  0.
         13    1    1    2    0    0  0.27237276911E+01 -0.20482696810E+02  0.52974571417E+02  0.56861902378E+02  0.10566000000E+00 0.  1.
        994    1    1    2    0    0 -0.31633287055E+01 -0.16122245036E+02  0.52534322005E+01  0.17206676606E+03  0.17120000000E+03 0.  0.
        998    1    1    2    0    0  0.43960101438E+00  0.36604941845E+02  0.14417719927E+04  0.14422713316E+04  0.10000000000E+02 0.  1.
</event>
<event>
 5    1  0.1147307E-008  0.3846511E+03  0.7957747E-01  0.3431153E+00
         13   -1    0    0    0    0  0.00000000000E+00  0.00000000000E+00  0.14999999963E+04  0.15000000000E+04  0.10566000000E+00 0. -1.
        994   -1    0    0    0    0 -0.00000000000E+00 -0.00000000000E+00  0.11368683772E-12  0.17120000000E+03  0.17120000000E+03 0.  0.
         13    1    1    2    0    0  0.39752844105E+01 -0.39677723210E+02  0.22550770050E+03  0.22900624174E+03  0.10566000000E+00 0. -1.
        994    1    1    2    0    0  0.27055351520E+02  0.95231041361E+02  0.34767032776E+02  0.20079623964E+03  0.17120000000E+03 0.  0.
        998    1    1    2    0    0 -0.31030635931E+02 -0.55553318151E+02  0.12397252630E+04  0.12413975186E+04  0.10000000000E+02 0. -1.
</event>
<event>
 5    1  0.1147307E-008  0.3751737E+03  0.7957747E-01  0.3472446E+00
         13   -1    0    0    0    0  0.00000000000E+00  0.00000000000E+00  0.14999999963E+04  0.15000000000E+04  0.10566000000E+00 0. -1.
        994   -1    0    0    0    0 -0.00000000000E+00 -0.00000000000E+00  0.11368683772E-12  0.17120000000E+03  0.17120000000E+03 0.  0.
         13    1    1    2    0    0  0.84190019419E+02  0.23141753939E+02  0.50507109339E+03  0.51256250417E+03  0.10566000000E+00 0. -1.
        994    1    1    2    0    0 -0.64481384043E+02 -0.40428371145E+01  0.20904872716E+02  0.18417558775E+03  0.17120000000E+03 0.  0.
        998    1    1    2    0    0 -0.19708635376E+02 -0.19098916825E+02  0.97402403018E+03  0.97446190808E+03  0.10000000000E+02 0. -1.
</event>
<event>
 5    1  0.1147307E-008  0.3832764E+03  0.7957747E-01  0.3437015E+00
         13   -1    0    0    0    0  0.00000000000E+00  0.00000000000E+00  0.14999999963E+04  0.15000000000E+04  0.10566000000E+00 0.  1.
        994   -1    0    0    0    0 -0.00000000000E+00 -0.00000000000E+00  0.11368683772E-12  0.17120000000E+03  0.17120000000E+03 0.  0.
         13    1    1    2    0    0  0.26840804639E+01 -0.18344031694E+02  0.67407159473E+02  0.69910257466E+02  0.10566000000E+00 0.  1.
        994    1    1    2    0    0 -0.51175392420E+01  0.14095504942E+02  0.32323538221E+01  0.17188589407E+03  0.17120000000E+03 0.  0.
        998    1    1    2    0    0  0.24334587781E+01  0.42485267513E+01  0.14293604830E+04  0.14294038485E+04  0.10000000000E+02 0.  1.
</event>
<event>
 5    1  0.1147307E-008  0.3746443E+03  0.7957747E-01  0.3474815E+00
         13   -1    0    0    0    0  0.00000000000E+00  0.00000000000E+00  0.14999999963E+04  0.15000000000E+04  0.10566000000E+00 0. -1.
        994   -1    0    0    0    0 -0.00000000000E+00 -0.00000000000E+00  0.11368683772E-12  0.17120000000E+03  0.17120000000E+03 0.  0.
         13    1    1    2    0    0  0.50033816868E+02  0.15015372951E+02  0.93869546480E+02  0.10742600791E+03  0.10566000000E+00 0. -1.
        994    1    1    2    0    0 -0.45963016076E+02 -0.14542178490E+01  0.20969458875E+02  0.17850454280E+03  0.17120000000E+03 0.  0.
        998    1    1    2    0    0 -0.40708007923E+01 -0.13561155102E+02  0.13851609909E+04  0.13852694493E+04  0.10000000000E+02 0. -1.
</event>
<event>
 5    1  0.1147307E-008  0.3686861E+03  0.7957747E-01  0.3501951E+00
         13   -1    0    0    0    0  0.00000000000E+00  0.00000000000E+00  0.14999999963E+04  0.15000000000E+04  0.10566000000E+00 0.  1.
        994   -1    0    0    0    0 -0.00000000000E+00 -0.00000000000E+00  0.11368683772E-12  0.17120000000E+03  0.17120000000E+03 0.  0.
         13    1    1    2    0    0  0.23183542541E+02  0.34615512223E+02  0.81099942560E+02  0.91175227877E+02  0.10566000000E+00 0.  1.
        994    1    1    2    0    0 -0.92728444655E+01 -0.36767378673E+02  0.14968135306E+02  0.17598667806E+03  0.17120000000E+03 0.  0.
        998    1    1    2    0    0 -0.13910698075E+02  0.21518664496E+01  0.14039319184E+04  0.14040380941E+04  0.10000000000E+02 0.  1.
</event>
<event>
 5    1  0.1147307E-008  0.3785392E+03  0.7957747E-01  0.3457544E+00
         13   -1    0    0    0    0  0.00000000000E+00  0.00000000000E+00  0.14999999963E+04  0.15000000000E+04  0.10566000000E+00 0. -1.
        994   -1    0    0    0    0 -0.00000000000E+00 -0.00000000000E+00  0.11368683772E-12  0.17120000000E+03  0.17120000000E+03 0.  0.
         13    1    1    2    0    0 -0.37399675049E+01 -0.11074483052E+02  0.11821683555E+02  0.16625128509E+02  0.10566000000E+00 0. -1.
        994    1    1    2    0    0  0.11490831691E+02  0.66895964007E+01  0.54664421199E+01  0.17180253753E+03  0.17120000000E+03 0.  0.
        998    1    1    2    0    0 -0.77508641858E+01  0.43848866517E+01  0.14827118706E+04  0.14827723340E+04  0.10000000000E+02 0. -1.
</event>
<event>
 5    1  0.1147307E-008  0.3765283E+03  0.7957747E-01  0.3466416E+00
         13   -1    0    0    0    0  0.00000000000E+00  0.00000000000E+00  0.14999999963E+04  0.15000000000E+04  0.10566000000E+00 0. -1.
        994   -1    0    0    0    0 -0.00000000000E+00 -0.00000000000E+00  0.11368683772E-12  0.17120000000E+03  0.17120000000E+03 0.  0.
         13    1    1    2    0    0 -0.74454492451E+00 -0.24578978327E+02  0.15225555979E+02  0.28922469494E+02  0.10566000000E+00 0. -1.
        994    1    1    2    0    0 -0.20516602302E+02  0.65081386707E+01  0.16092545816E+02  0.17329655758E+03  0.17120000000E+03 0.  0.
        998    1    1    2    0    0  0.21261147227E+02  0.18070839656E+02  0.14686818945E+04  0.14689809729E+04  0.10000000000E+02 0. -1.
</event>
<event>
 5    1  0.1147307E-008  0.3743943E+03  0.7957747E-01  0.3475936E+00
         13   -1    0    0    0    0  0.00000000000E+00  0.00000000000E+00  0.14999999963E+04  0.15000000000E+04  0.10566000000E+00 0.  1.
        994   -1    0    0    0    0 -0.00000000000E+00 -0.00000000000E+00  0.11368683772E-12  0.17120000000E+03  0.17120000000E+03 0.  0.
         13    1    1    2    0    0  0.19657564220E+03  0.15815912300E+03  0.11494705028E+04  0.11768342021E+04  0.10566000000E+00 0.  1.
        994    1    1    2    0    0 -0.19103523958E+03 -0.14811798084E+03  0.23573730166E+03  0.37856956350E+03  0.17120000000E+03 0.  0.
        998    1    1    2    0    0 -0.55404026199E+01 -0.10041142157E+02  0.11479219179E+03  0.11579623436E+03  0.10000000000E+02 0. -1.
</event>
<event>
 5    1  0.1147307E-008  0.3853389E+03  0.7957747E-01  0.3428236E+00
         13   -1    0    0    0    0  0.00000000000E+00  0.00000000000E+00  0.14999999963E+04  0.15000000000E+04  0.10566000000E+00 0. -1.
        994   -1    0    0    0    0 -0.00000000000E+00 -0.00000000000E+00  0.11368683772E-12  0.17120000000E+03  0.17120000000E+03 0.  0.
         13    1    1    2    0    0  0.80941442124E+01 -0.11150842942E+02  0.62518276075E+02  0.64018766595E+02  0.10566000000E+00 0. -1.
        994    1    1    2    0    0 -0.12366597320E+02  0.10165595006E+02  0.23042912863E+01  0.17196226856E+03  0.17120000000E+03 0.  0.
        998    1    1    2    0    0  0.42724531079E+01  0.98524793586E+00  0.14351774289E+04  0.14352189648E+04  0.10000000000E+02 0. -1.
</event>
<event>
 5    1  0.1147307E-008  0.3832643E+03  0.7957747E-01  0.3437067E+00
         13   -1    0    0    0    0  0.00000000000E+00  0.00000000000E+00  0.14999999963E+04  0.15000000000E+04  0.10566000000E+00 0. -1.
        994   -1    0    0    0    0 -0.00000000000E+00 -0.00000000000E+00  0.11368683772E-12  0.17120000000E+03  0.17120000000E+03 0.  0.
         13    1    1    2    0    0 -0.12364946682E+02  0.60626470633E+01  0.40937946818E+02  0.43192293868E+02  0.10566000000E+00 0. -1.
        994    1    1    2    0    0 -0.83009594109E+01  0.12223373466E+02  0.32167046677E+01  0.17186652954E+03  0.17120000000E+03 0.  0.
        998    1    1    2    0    0  0.20665906093E+02 -0.18286020529E+02  0.14558453448E+04  0.14561411766E+04  0.10000000000E+02 0. -1.
</event>
<event>
 5    1  0.1147307E-008  0.3745108E+03  0.7957747E-01  0.3475413E+00
         13   -1    0    0    0    0  0.00000000000E+00  0.00000000000E+00  0.14999999963E+04  0.15000000000E+04  0.10566000000E+00 0. -1.
        994   -1    0    0    0    0 -0.00000000000E+00 -0.00000000000E+00  0.11368683772E-12  0.17120000000E+03  0.17120000000E+03 0.  0.
         13    1    1    2    0    0 -0.48140510905E+02 -0.39422412751E+01  0.15086909257E+03  0.15841257625E+03  0.10566000000E+00 0. -1.
        994    1    1    2    0    0  0.47107865217E+02  0.69010743925E+01  0.14687574172E+02  0.17830294621E+03  0.17120000000E+03 0.  0.
        998    1    1    2    0    0  0.10326456878E+01 -0.29588331174E+01  0.13344433295E+04  0.13344844775E+04  0.10000000000E+02 0. -1.
</event>
<event>
 5    1  0.1147307E-008  0.3813510E+03  0.7957747E-01  0.3445297E+00
         13   -1    0    0    0    0  0.00000000000E+00  0.00000000000E+00  0.14999999963E+04  0.15000000000E+04  0.10566000000E+00 0.  1.
        994   -1    0    0    0    0 -0.00000000000E+00 -0.00000000000E+00  0.11368683772E-12  0.17120000000E+03  0.17120000000E+03 0.  0.
         13    1    1    2    0    0 -0.38872385656E+02  0.28755563763E+02  0.23360078003E+03  0.23855246888E+03  0.10566000000E+00 0.  1.
        994    1    1    2    0    0  0.64932240137E+02 -0.34230743468E+02  0.21596763158E+02  0.18752013168E+03  0.17120000000E+03 0.  0.
        998    1    1    2    0    0 -0.26059854481E+02  0.54751797059E+01  0.12448024531E+04  0.12451273994E+04  0.10000000000E+02 0.  1.
</event>
<event>
 5    1  0.1147307E-008  0.3826266E+03  0.7957747E-01  0.3439801E+00
         13   -1    0    0    0    0  0.00000000000E+00  0.00000000000E+00  0.14999999963E+04  0.15000000000E+04  0.10566000000E+00 0.  1.
        994   -1    0    0    0    0 -0.00000000000E+00 -0.00000000000E+00  0.11368683772E-12  0.17120000000E+03  0.17120000000E+03 0.  0.
         13    1    1    2    0    0 -0.89750896401E+01  0.24974906245E+02  0.12686158842E+03  0.12960776194E+03  0.10566000000E+00 0.  1.
        994    1    1    2    0    0  0.10033457726E+02 -0.10382697267E+02  0.35043205219E+01  0.17184350712E+03  0.17120000000E+03 0.  0.
        998    1    1    2    0    0 -0.10583680855E+01 -0.14592208978E+02  0.13696340873E+04  0.13697487309E+04  0.10000000000E+02 0.  1.
</event>
<event>
 5    1  0.1147307E-008  0.3741057E+03  0.7957747E-01  0.3477232E+00
         13   -1    0    0    0    0  0.00000000000E+00  0.00000000000E+00  0.14999999963E+04  0.15000000000E+04  0.10566000000E+00 0. -1.
        994   -1    0    0    0    0 -0.00000000000E+00 -0.00000000000E+00  0.11368683772E-12  0.17120000000E+03  0.17120000000E+03 0.  0.
         13    1    1    2    0    0 -0.10894031540E+02  0.26517076458E+02  0.53822612911E+02  0.60981309363E+02  0.10566000000E+00 0. -1.
        994    1    1    2    0    0  0.77952653573E+01 -0.23267048160E+02  0.91943175770E+01  0.17319381388E+03  0.17120000000E+03 0.  0.
        998    1    1    2    0    0  0.30987661827E+01 -0.32500282985E+01  0.14369830658E+04  0.14370248768E+04  0.10000000000E+02 0. -1.
</event>
<event>
 5    1  0.1147307E-008  0.3806763E+03  0.7957747E-01  0.3448219E+00
         13   -1    0    0    0    0  0.00000000000E+00  0.00000000000E+00  0.14999999963E+04  0.15000000000E+04  0.10566000000E+00 0. -1.
        994   -1    0    0    0    0 -0.00000000000E+00 -0.00000000000E+00  0.11368683772E-12  0.17120000000E+03  0.17120000000E+03 0.  0.
         13    1    1    2    0    0 -0.12606483253E+02 -0.18640673094E+02  0.64986492967E+02  0.68772476658E+02  0.10566000000E+00 0. -1.
        994    1    1    2    0    0  0.71024219321E+01  0.14363030208E+02  0.46489493819E+01  0.17201102803E+03  0.17120000000E+03 0.  0.
        998    1    1    2    0    0  0.55040613205E+01  0.42776428859E+01  0.14303645539E+04  0.14304164953E+04  0.10000000000E+02 0. -1.
</event>
<event>
 5    1  0.1147307E-008  0.3815188E+03  0.7957747E-01  0.3444572E+00
         13   -1    0    0    0    0  0.00000000000E+00  0.00000000000E+00  0.14999999963E+04  0.15000000000E+04  0.10566000000E+00 0.  1.
        994   -1    0    0    0    0 -0.00000000000E+00 -0.00000000000E+00  0.11368683772E-12  0.17120000000E+03  0.17120000000E+03 0.  0.
         13    1    1    2    0    0  0.52011018347E+01 -0.88977682989E+01  0.14224470378E+02  0.17566116889E+02  0.10566000000E+00 0.  1.
        994    1    1    2    0    0 -0.67543717205E+01  0.86270012657E+01  0.37678368698E+01  0.17159161775E+03  0.17120000000E+03 0.  0.
        998    1    1    2    0    0  0.15532698859E+01  0.27076703317E+00  0.14820076890E+04  0.14820422654E+04  0.10000000000E+02 0.  1.
</event>
<event>
 5    1  0.1147307E-008  0.3687596E+03  0.7957747E-01  0.3501611E+00
         13   -1    0    0    0    0  0.00000000000E+00  0.00000000000E+00  0.14999999963E+04  0.15000000000E+04  0.10566000000E+00 0. -1.
        994   -1    0    0    0    0 -0.00000000000E+00 -0.00000000000E+00  0.11368683772E-12  0.17120000000E+03  0.17120000000E+03 0.  0.
         13    1    1    2    0    0  0.68576917824E+02 -0.15651202628E+01  0.18203343886E+03  0.19452873127E+03  0.10566000000E+00 0. -1.
        994    1    1    2    0    0 -0.95221787046E+02  0.10605482633E+03  0.84178068658E+02  0.23813903955E+03  0.17120000000E+03 0.  0.
        998    1    1    2    0    0  0.26644869222E+02 -0.10448970607E+03  0.12337884888E+04  0.12385322292E+04  0.10000000000E+02 0. -1.
</event>
<event>
 5    1  0.1147307E-008  0.3848446E+03  0.7957747E-01  0.3430332E+00
         13   -1    0    0    0    0  0.00000000000E+00  0.00000000000E+00  0.14999999963E+04  0.15000000000E+04  0.10566000000E+00 0. -1.
        994   -1    0    0    0    0 -0.00000000000E+00 -0.00000000000E+00  0.11368683772E-12  0.17120000000E+03  0.17120000000E+03 0.  0.
         13    1    1    2    0    0  0.47481448813E+01 -0.12197917080E+02  0.45639074603E+02  0.47479157065E+02  0.10566000000E+00 0. -1.
        994    1    1    2    0    0  0.67352908953E+01  0.31411373888E+02  0.51104268087E+01  0.17426300530E+03  0.17120000000E+03 0.  0.
        998    1    1    2    0    0 -0.11483435777E+02 -0.19213456809E+02  0.14492504949E+04  0.14494578376E+04  0.10000000000E+02 0. -1.
</event>
<event>
 5    1  0.1469006E-008  0.3856979E+03  0.7957747E-01  0.3426718E+00
         13   -1    0    0    0    0  0.00000000000E+00  0.00000000000E+00  0.14999999963E+04  0.15000000000E+04  0.10566000000E+00 0.  1.
        994   -1    0    0    0    0 -0.00000000000E+00 -0.00000000000E+00  0.11368683772E-12  0.17120000000E+03  0.17120000000E+03 0.  0.
         13    1    1    2    0    0  0.14215718381E+02 -0.22098086124E+01  0.85249697845E+02  0.86455144728E+02  0.10566000000E+00 0.  1.
        994    1    1    2    0    0 -0.25878516604E+01  0.61056500282E+01  0.14283609142E+01  0.17133434026E+03  0.17120000000E+03 0.  0.
        998    1    1    2    0    0 -0.11627866720E+02 -0.38958414158E+01  0.14133219375E+04  0.14134105150E+04  0.10000000000E+02 0.  1.
</event>
<event>
 5    1  0.1147307E-008  0.3745265E+03  0.7957747E-01  0.3475343E+00
         13   -1    0    0    0    0  0.00000000000E+00  0.00000000000E+00  0.14999999963E+04  0.15000000000E+04  0.10566000000E+00 0. -1.
        994   -1    0    0    0    0 -0.00000000000E+00 -0.00000000000E+00  0.11368683772E-12  0.17120000000E+03  0.17120000000E+03 0.  0.
         13    1    1    2    0    0  0.82249245639E+01 -0.37937943953E+02  0.11630816485E+03  0.12261540422E+03  0.10566000000E+00 0. -1.
        994    1    1    2    0    0 -0.35227010061E+02 -0.29946255167E+01  0.11189418199E+02  0.17517006907E+03  0.17120000000E+03 0.  0.
        998    1    1    2    0    0  0.27002085497E+02  0.40932569470E+02  0.13725024132E+04  0.13734145267E+04  0.10000000000E+02 0. -1.
</event>
<event>
 5    1  0.1147307E-008  0.3848182E+03  0.7957747E-01  0.3430444E+00
         13   -1    0    0    0    0  0.00000000000E+00  0.00000000000E+00  0.14999999963E+04  0.15000000000E+04  0.10566000000E+00 0.  1.
        994   -1    0    0    0    0 -0.00000000000E+00 -0.00000000000E+00  0.11368683772E-12  0.17120000000E+03  0.17120000000E+03 0.  0.
         13    1    1    2    0    0  0.47862895081E+01 -0.12116540966E+02  0.49571804859E+02  0.51255186404E+02  0.10566000000E+00 0.  1.
        994    1    1    2    0    0 -0.23683371350E+01  0.68482188643E+01  0.18932334389E+01  0.17136374020E+03  0.17120000000E+03 0.  0.
        998    1    1    2    0    0 -0.24179523731E+01  0.52683221014E+01  0.14485349580E+04  0.14485810734E+04  0.10000000000E+02 0.  1.
</event>
<event>
 5    1  0.1147307E-008  0.3855140E+03  0.7957747E-01  0.3427495E+00
         13   -1    0    0    0    0  0.00000000000E+00  0.00000000000E+00  0.14999999963E+04  0.15000000000E+04  0.10566000000E+00 0.  1.
        994   -1    0    0    0    0 -0.00000000000E+00 -0.00000000000E+00  0.11368683772E-12  0.17120000000E+03  0.17120000000E+03 0.  0.
         13    1    1    2    0    0 -0.14097488491E+02 -0.50923999390E+01  0.84857110242E+02  0.86170830573E+02  0.10566000000E+00 0.  1.
        994    1    1    2    0    0  0.89625244156E+01 -0.77753196643E+01  0.18375059804E+01  0.17162050830E+03  0.17120000000E+03 0.  0.
        998    1    1    2    0    0  0.51349640752E+01  0.12867719603E+02  0.14133053801E+04  0.14134086611E+04  0.10000000000E+02 0.  1.
</event>
<event>
 5    1  0.1147307E-008  0.3842055E+03  0.7957747E-01  0.3433049E+00
         13   -1    0    0    0    0  0.00000000000E+00  0.00000000000E+00  0.14999999963E+04  0.15000000000E+04  0.10566000000E+00 0. -1.
        994   -1    0    0    0    0 -0.00000000000E+00 -0.00000000000E+00  0.11368683772E-12  0.17120000000E+03  0.17120000000E+03 0.  0.
         13    1    1    2    0    0  0.71629584020E+01  0.88308693379E+01  0.30041252381E+02  0.32121336133E+02  0.10566000000E+00 0. -1.
        994    1    1    2    0    0  0.15586537668E+01 -0.25672248436E+02  0.42092013784E+01  0.17317231626E+03  0.17120000000E+03 0.  0.
        998    1    1    2    0    0 -0.87216121688E+01  0.16841379098E+02  0.14657495425E+04  0.14659063476E+04  0.10000000000E+02 0. -1.
</event>
<event>
 5    1  0.1147307E-008  0.3770475E+03  0.7957747E-01  0.3464116E+00
         13   -1    0    0    0    0  0.00000000000E+00  0.00000000000E+00  0.14999999963E+04  0.15000000000E+04  0.10566000000E+00 0. -1.
        994   -1    0    0    0    0 -0.00000000000E+00 -0.00000000000E+00  0.11368683772E-12  0.17120000000E+03  0.17120000000E+03 0.  0.
         13    1    1    2    0    0 -0.72208050464E+02 -0.33170931058E+02  0.45681724391E+03  0.46367695513E+03  0.10566000000E+00 0. -1.
        994    1    1    2    0    0  0.61894297218E+02  0.21111413637E+02  0.20207265483E+02  0.18437562038E+03  0.17120000000E+03 0.  0.
        998    1    1    2    0    0  0.10313753246E+02  0.12059517421E+02  0.10229754869E+04  0.10231474245E+04  0.10000000000E+02 0. -1.
</event>
<event>
 5    1  0.1147307E-008  0.4446898E+03  0.7957747E-01  0.3210256E+00
         13   -1    0    0    0    0  0.00000000000E+00  0.00000000000E+00  0.14999999963E+04  0.15000000000E+04  0.10566000000E+00 0. -1.
        994   -1    0    0    0    0 -0.00000000000E+00 -0.00000000000E+00  0.11368683772E-12  0.17120000000E+03  0.17120000000E+03 0.  0.
         13    1    1    2    0    0  0.46922440593E+02  0.67015062439E+01 -0.17512458102E+01  0.47431040923E+02  0.10566000000E+00 0. -1.
        994    1    1    2    0    0 -0.42361034563E+02 -0.52977691016E+01  0.66628755521E+02  0.18860369739E+03  0.17120000000E+03 0.  0.
        998    1    1    2    0    0 -0.45614060295E+01 -0.14037371423E+01  0.14351224866E+04  0.14351652617E+04  0.10000000000E+02 0. -1.
</event>
<event>
 5    1  0.1147307E-008  0.3694281E+03  0.7957747E-01  0.3498523E+00
         13   -1    0    0    0    0  0.00000000000E+00  0.00000000000E+00  0.14999999963E+04  0.15000000000E+04  0.10566000000E+00 0.  1.
        994   -1    0    0    0    0 -0.00000000000E+00 -0.00000000000E+00  0.11368683772E-12  0.17120000000E+03  0.17120000000E+03 0.  0.
         13    1    1    2    0    0  0.35263481466E+02 -0.20419176826E+02  0.84439968246E+02  0.93758067966E+02  0.10566000000E+00 0.  1.
        994    1    1    2    0    0 -0.21711145761E+02  0.68043557042E+01  0.11363834772E+02  0.17307873887E+03  0.17120000000E+03 0.  0.
        998    1    1    2    0    0 -0.13552335705E+02  0.13614821121E+02  0.14041961933E+04  0.14043631932E+04  0.10000000000E+02 0.  1.
</event>
<event>
 5    1  0.1147307E-008  0.3699963E+03  0.7957747E-01  0.3495908E+00
         13   -1    0    0    0    0  0.00000000000E+00  0.00000000000E+00  0.14999999963E+04  0.15000000000E+04  0.10566000000E+00 0.  1.
        994   -1    0    0    0    0 -0.00000000000E+00 -0.00000000000E+00  0.11368683772E-12  0.17120000000E+03  0.17120000000E+03 0.  0.
         13    1    1    2    0    0 -0.22737511135E+02  0.47324519477E+02  0.12805315533E+03  0.13839879447E+03  0.10566000000E+00 0.  1.
        994    1    1    2    0    0  0.34029848227E+02 -0.72064866030E+01  0.15178627082E+02  0.17535619390E+03  0.17120000000E+03 0.  0.
        998    1    1    2    0    0 -0.11292337092E+02 -0.40118032874E+02  0.13567682139E+04  0.13574450116E+04  0.10000000000E+02 0.  1.
</event>
<event>
 5    1  0.1147307E-008  0.3795566E+03  0.7957747E-01  0.3453091E+00
         13   -1    0    0    0    0  0.00000000000E+00  0.00000000000E+00  0.14999999963E+04  0.15000000000E+04  0.10566000000E+00 0. -1.
        994   -1    0    0    0    0 -0.00000000000E+00 -0.00000000000E+00  0.11368683772E-12  0.17120000000E+03  0.17120000000E+03 0.  0.
         13    1    1    2    0    0 -0.26747225024E+02  0.73129027954E+01  0.93788969176E+02  0.97802221329E+02  0.10566000000E+00 0. -1.
        994    1    1    2    0    0  0.31020664646E+01  0.70760594625E+01  0.45570101686E+01  0.17143482661E+03  0.17120000000E+03 0.  0.
        998    1    1    2    0    0  0.23645158559E+02 -0.14388962258E+02  0.14016540169E+04  0.14019629521E+04  0.10000000000E+02 0. -1.
</event>
<event>
 5    1  0.1147307E-008  0.3850867E+03  0.7957747E-01  0.3429305E+00
         13   -1    0    0    0    0  0.00000000000E+00  0.00000000000E+00  0.14999999963E+04  0.15000000000E+04  0.10566000000E+00 0. -1.
        994   -1    0    0    0    0 -0.00000000000E+00 -0.00000000000E+00  0.11368683772E-12  0.17120000000E+03  0.17120000000E+03 0.  0.
         13    1    1    2    0    0 -0.99831480999E+01 -0.12051211317E+02  0.77264405063E+02  0.78833333014E+02  0.10566000000E+00 0. -1.
        994    1    1    2    0    0  0.74647984364E+01  0.70360768360E+01  0.19331463812E+01  0.17151794847E+03  0.17120000000E+03 0.  0.
        998    1    1    2    0    0  0.25183496635E+01  0.50151344812E+01  0.14208024448E+04  0.14208487185E+04  0.10000000000E+02 0. -1.
</event>
<event>
 5    1  0.1147307E-008  0.3816138E+03  0.7957747E-01  0.3444162E+00
         13   -1    0    0    0    0  0.00000000000E+00  0.00000000000E+00  0.14999999963E+04  0.15000000000E+04  0.10566000000E+00 0.  1.
        994   -1    0    0    0    0 -0.00000000000E+00 -0.00000000000E+00  0.11368683772E-12  0.17120000000E+03  0.17120000000E+03 0.  0.
         13    1    1    2    0    0  0.40313089829E+01 -0.23945857860E+02  0.93506170932E+02  0.96607819183E+02  0.10566000000E+00 0.  1.
        994    1    1    2    0    0 -0.76135973981E+01  0.22269498575E+01  0.35299844674E+01  0.17142003081E+03  0.17120000000E+03 0.  0.
        998    1    1    2    0    0  0.35822884152E+01  0.21718908003E+02  0.14029638409E+04  0.14031721500E+04  0.10000000000E+02 0.  1.
</event>
<event>
 5    1  0.1147307E-008  0.3984414E+03  0.7957747E-01  0.3374592E+00
         13   -1    0    0    0    0  0.00000000000E+00  0.00000000000E+00  0.14999999963E+04  0.15000000000E+04  0.10566000000E+00 0.  1.
        994   -1    0    0    0    0 -0.00000000000E+00 -0.00000000000E+00  0.11368683772E-12  0.17120000000E+03  0.17120000000E+03 0.  0.
         13    1    1    2    0    0  0.55499249452E+02  0.30820346199E+02  0.72168241538E+02  0.96116214451E+02  0.10566000000E+00 0.  1.
        994    1    1    2    0    0 -0.19932002303E+02  0.65810907053E+01  0.28566885632E+02  0.17483164023E+03  0.17120000000E+03 0.  0.
        998    1    1    2    0    0 -0.35567247148E+02 -0.37401436905E+02  0.13992648691E+04  0.14002521453E+04  0.10000000000E+02 0.  1.
</event>
<event>
 5    1  0.1147307E-008  0.3770594E+03  0.7957747E-01  0.3464063E+00
         13   -1    0    0    0    0  0.00000000000E+00  0.00000000000E+00  0.14999999963E+04  0.15000000000E+04  0.10566000000E+00 0.  1.
        994   -1    0    0    0    0 -0.00000000000E+00 -0.00000000000E+00  0.11368683772E-12  0.17120000000E+03  0.17120000000E+03 0.  0.
         13    1    1    2    0    0 -0.36680011221E+01  0.26570718720E+02  0.64973059118E+02  0.70292011642E+02  0.10566000000E+00 0.  1.
        994    1    1    2    0    0 -0.49132943425E+00 -0.39989576302E+01  0.56797547662E+01  0.17134156729E+03  0.17120000000E+03 0.  0.
        998    1    1    2    0    0  0.41593305564E+01 -0.22571761089E+02  0.14293471824E+04  0.14295664211E+04  0.10000000000E+02 0.  1.
</event>
<event>
 5    1  0.1147307E-008  0.3819860E+03  0.7957747E-01  0.3442557E+00
         13   -1    0    0    0    0  0.00000000000E+00  0.00000000000E+00  0.14999999963E+04  0.15000000000E+04  0.10566000000E+00 0. -1.
        994   -1    0    0    0    0 -0.00000000000E+00 -0.00000000000E+00  0.11368683772E-12  0.17120000000E+03  0.17120000000E+03 0.  0.
         13    1    1    2    0    0 -0.34898659181E+02 -0.16893528244E+02  0.23076515780E+03  0.23399973703E+03  0.10566000000E+00 0. -1.
        994    1    1    2    0    0  0.21505355557E+02  0.15595808053E+02  0.54812679847E+01  0.17333549505E+03  0.17120000000E+03 0.  0.
        998    1    1    2    0    0  0.13393303624E+02  0.12977201914E+01  0.12637535705E+04  0.12638647679E+04  0.10000000000E+02 0. -1.
</event>
<event>
 5    1  0.1147307E-008  0.3133462E+03  0.7957747E-01  0.3805118E+00
         13   -1    0    0    0    0  0.00000000000E+00  0.00000000000E+00  0.14999999963E+04  0.15000000000E+04  0.10566000000E+00 0. -1.
        994   -1    0    0    0    0 -0.00000000000E+00 -0.00000000000E+00  0.11368683772E-12  0.17120000000E+03  0.17120000000E+03 0.  0.
         13    1    1    2    0    0 -0.15741940440E+03 -0.18918189214E+03  0.58975695002E+03  0.63904923789E+03  0.10566000000E+00 0. -1.
        994    1    1    2    0    0  0.13197807111E+03  0.20151833914E+03  0.29980156555E+03  0.42097300504E+03  0.17120000000E+03 0.  0.
        998    1    1    2    0    0  0.25441333289E+02 -0.12336446999E+02  0.61044148071E+03  0.61117775707E+03  0.10000000000E+02 0. -1.
</event>
<event>
 5    1  0.1147307E-008  0.3817888E+03  0.7957747E-01  0.3443407E+00
         13   -1    0    0    0    0  0.00000000000E+00  0.00000000000E+00  0.14999999963E+04  0.15000000000E+04  0.10566000000E+00 0. -1.
        994   -1    0    0    0    0 -0.00000000000E+00 -0.00000000000E+00  0.11368683772E-12  0.17120000000E+03  0.17120000000E+03 0.  0.
         13    1    1    2    0    0 -0.95150168277E+01  0.35829236640E+02  0.19063680231E+03  0.19420780443E+03  0.10566000000E+00 0. -1.
        994    1    1    2    0    0  0.68914162312E+01 -0.34006376920E+02  0.72442167561E+01  0.17483090106E+03  0.17120000000E+03 0.  0.
        998    1    1    2    0    0  0.26236005965E+01 -0.18228597205E+01  0.13021189772E+04  0.13021612945E+04  0.10000000000E+02 0. -1.
</event>
<event>
 5    1  0.2703689E-008  0.3865401E+03  0.7957747E-01  0.3423167E+00
         13   -1    0    0    0    0  0.00000000000E+00  0.00000000000E+00  0.14999999963E+04  0.15000000000E+04  0.10566000000E+00 0. -1.
        994   -1    0    0    0    0 -0.00000000000E+00 -0.00000000000E+00  0.11368683772E-12  0.17120000000E+03  0.17120000000E+03 0.  0.
         13    1    1    2    0    0  0.51138802855E+00  0.11483089502E+02  0.65519071234E+02  0.66519791954E+02  0.10566000000E+00 0. -1.
        994    1    1    2    0    0 -0.30908276696E+01 -0.28219307905E+02  0.35089894405E+01  0.17357314182E+03  0.17120000000E+03 0.  0.
        998    1    1    2    0    0  0.25794396410E+01  0.16736218403E+02  0.14309719356E+04  0.14311070662E+04  0.10000000000E+02 0. -1.
</event>
<event>
 5    1  0.1232005E-008  0.3863283E+03  0.7957747E-01  0.3424058E+00
         13   -1    0    0    0    0  0.00000000000E+00  0.00000000000E+00  0.14999999963E+04  0.15000000000E+04  0.10566000000E+00 0.  1.
        994   -1    0    0    0    0 -0.00000000000E+00 -0.00000000000E+00  0.11368683772E-12  0.17120000000E+03  0.17120000000E+03 0.  0.
         13    1    1    2    0    0 -0.86178638259E+01  0.74289420907E+01  0.62870334138E+02  0.63891680492E+02  0.10566000000E+00 0.  1.
        994    1    1    2    0    0  0.90487654028E+01 -0.15808746528E+02  0.20593345453E+01  0.17217862086E+03  0.17120000000E+03 0.  0.
        998    1    1    2    0    0 -0.43090157696E+00  0.83798044369E+01  0.14350703276E+04  0.14351296986E+04  0.10000000000E+02 0.  1.
</event>
<event>
 5    1  0.1147307E-008  0.3836535E+03  0.7957747E-01  0.3435403E+00
         13   -1    0    0    0    0  0.00000000000E+00  0.00000000000E+00  0.14999999963E+04  0.15000000000E+04  0.10566000000E+00 0.  1.
        994   -1    0    0    0    0 -0.00000000000E+00 -0.00000000000E+00  0.11368683772E-12  0.17120000000E+03  0.17120000000E+03 0.  0.
         13    1    1    2    0    0  0.10695694869E+02 -0.22384543591E+02  0.12758338398E+03  0.12997306149E+03  0.10566000000E+00 0.  1.
        994    1    1    2    0    0 -0.12166674670E+02  0.17316856161E+02  0.37809732754E+01  0.17254459493E+03  0.17120000000E+03 0.  0.
        998    1    1    2    0    0  0.14709798014E+01  0.50676874302E+01  0.13686356390E+04  0.13686823436E+04  0.10000000000E+02 0.  1.
</event>
<event>
 5    1  0.1147307E-008  0.3723001E+03  0.7957747E-01  0.3485387E+00
         13   -1    0    0    0    0  0.00000000000E+00  0.00000000000E+00  0.14999999963E+04  0.15000000000E+04  0.10566000000E+00 0.  1.
        994   -1    0    0    0    0 -0.00000000000E+00 -0.00000000000E+00  0.11368683772E-12  0.17120000000E+03  0.17120000000E+03 0.  0.
         13    1    1    2    0    0  0.50137828653E+02 -0.11590569585E+02  0.18545780584E+03  0.19246493727E+03  0.10566000000E+00 0.  1.
        994    1    1    2    0    0 -0.63179146626E+01 -0.70451825722E+01  0.83790361848E+01  0.17166595146E+03  0.17120000000E+03 0.  0.
        998    1    1    2    0    0 -0.43819913990E+02  0.18635752157E+02  0.13061631542E+04  0.13070691113E+04  0.10000000000E+02 0.  1.
</event>
<event>
 5    1  0.1147307E-008  0.3846288E+03  0.7957747E-01  0.3431248E+00
         13   -1    0    0    0    0  0.00000000000E+00  0.00000000000E+00  0.14999999963E+04  0.15000000000E+04  0.10566000000E+00 0. -1.
        994   -1    0    0    0    0 -0.00000000000E+00 -0.00000000000E+00  0.11368683772E-12  0.17120000000E+03  0.17120000000E+03 0.  0.
         13    1    1    2    0    0  0.31512879662E+01 -0.16123534619E+02  0.75702314693E+02  0.77464511864E+02  0.10566000000E+00 0. -1.
        994    1    1    2    0    0  0.38021060854E+01  0.85544381670E+01  0.21031377143E+01  0.17146864906E+03  0.17120000000E+03 0.  0.
        998    1    1    2    0    0 -0.69533940515E+01  0.75690964522E+01  0.14221945439E+04  0.14222668391E+04  0.10000000000E+02 0. -1.
</event>
<event>
 5    1  0.1147307E-008  0.3794784E+03  0.7957747E-01  0.3453433E+00
         13   -1    0    0    0    0  0.00000000000E+00  0.00000000000E+00  0.14999999963E+04  0.15000000000E+04  0.10566000000E+00 0. -1.
        994   -1    0    0    0    0 -0.00000000000E+00 -0.00000000000E+00  0.11368683772E-12  0.17120000000E+03  0.17120000000E+03 0.  0.
         13    1    1    2    0    0 -0.28354626200E+02  0.23800637970E+02  0.13273214141E+03  0.13779799607E+03  0.10566000000E+00 0. -1.
        994    1    1    2    0    0  0.48151957554E+02 -0.18470976648E+02  0.13355510354E+02  0.17929751156E+03  0.17120000000E+03 0.  0.
        998    1    1    2    0    0 -0.19797331354E+02 -0.53296613226E+01  0.13539123445E+04  0.13541044924E+04  0.10000000000E+02 0. -1.
</event>
<event>
 5    1  0.1147307E-008  0.3816584E+03  0.7957747E-01  0.3443969E+00
         13   -1    0    0    0    0  0.00000000000E+00  0.00000000000E+00  0.14999999963E+04  0.15000000000E+04  0.10566000000E+00 0. -1.
        994   -1    0    0    0    0 -0.00000000000E+00 -0.00000000000E+00  0.11368683772E-12  0.17120000000E+03  0.17120000000E+03 0.  0.
         13    1    1    2    0    0  0.10424346831E+02  0.15400134066E+01  0.15477517191E+02  0.18724405213E+02  0.10566000000E+00 0. -1.
        994    1    1    2    0    0 -0.79913529441E+01  0.47466629283E+01  0.35856061920E+01  0.17148961806E+03  0.17120000000E+03 0.  0.
        998    1    1    2    0    0 -0.24329938867E+01 -0.62866763348E+01  0.14809368729E+04  0.14809859767E+04  0.10000000000E+02 0. -1.
</event>
<event>
 5    1  0.1147307E-008  0.3814303E+03  0.7957747E-01  0.3444954E+00
         13   -1    0    0    0    0  0.00000000000E+00  0.00000000000E+00  0.14999999963E+04  0.15000000000E+04  0.10566000000E+00 0. -1.
        994   -1    0    0    0    0 -0.00000000000E+00 -0.00000000000E+00  0.11368683772E-12  0.17120000000E+03  0.17120000000E+03 0.  0.
         13    1    1    2    0    0  0.26600712943E+02  0.16150067573E+02  0.13866200294E+03  0.14211117069E+03  0.10566000000E+00 0. -1.
        994    1    1    2    0    0 -0.18205173736E+02 -0.99883948529E+01  0.48488882324E+01  0.17252289152E+03  0.17120000000E+03 0.  0.
        998    1    1    2    0    0 -0.83955392075E+01 -0.61616727200E+01  0.13564891051E+04  0.13565659378E+04  0.10000000000E+02 0. -1.
</event>
<event>
 5    1  0.1147307E-008  0.3808982E+03  0.7957747E-01  0.3447257E+00
         13   -1    0    0    0    0  0.00000000000E+00  0.00000000000E+00  0.14999999963E+04  0.15000000000E+04  0.10566000000E+00 0. -1.
        994   -1    0    0    0    0 -0.00000000000E+00 -0.00000000000E+00  0.11368683772E-12  0.17120000000E+03  0.17120000000E+03 0.  0.
         13    1    1    2    0    0 -0.45079873961E+02 -0.29806075107E+02  0.23924952518E+03  0.24527727904E+03  0.10566000000E+00 0. -1.
        994    1    1    2    0    0  0.72835743486E+02  0.60655167215E+02  0.34228633799E+02  0.19865833537E+03  0.17120000000E+03 0.  0.
        998    1    1    2    0    0 -0.27755869525E+02 -0.30849092108E+02  0.12265218373E+04  0.12272643856E+04  0.10000000000E+02 0. -1.
</event>
<event>
 5    1  0.1147307E-008  0.3714434E+03  0.7957747E-01  0.3489283E+00
         13   -1    0    0    0    0  0.00000000000E+00  0.00000000000E+00  0.14999999963E+04  0.15000000000E+04  0.10566000000E+00 0. -1.
        994   -1    0    0    0    0 -0.00000000000E+00 -0.00000000000E+00  0.11368683772E-12  0.17120000000E+03  0.17120000000E+03 0.  0.
         13    1    1    2    0    0 -0.41642892548E+02 -0.59038282813E+02  0.21310962700E+03  0.22502305131E+03  0.10566000000E+00 0. -1.
        994    1    1    2    0    0  0.33178664673E+02  0.36416615981E+02  0.20281117695E+02  0.17929795717E+03  0.17120000000E+03 0.  0.
        998    1    1    2    0    0  0.84642278744E+01  0.22621666831E+02  0.12666092516E+04  0.12668789915E+04  0.10000000000E+02 0. -1.
</event>
<event>
 5    1  0.1147307E-008  0.3708658E+03  0.7957747E-01  0.3491921E+00
         13   -1    0    0    0    0  0.00000000000E+00  0.00000000000E+00  0.14999999963E+04  0.15000000000E+04  0.10566000000E+00 0. -1.
        994   -1    0    0    0    0 -0.00000000000E+00 -0.00000000000E+00  0.11368683772E-12  0.17120000000E+03  0.17120000000E+03 0.  0.
         13    1    1    2    0    0 -0.18287672303E+03 -0.43997003798E+02  0.75582786195E+03  0.77888086395E+03  0.10566000000E+00 0. -1.
        994    1    1    2    0    0  0.18582231231E+03  0.54571947815E+02  0.15181388473E+03  0.29977479020E+03  0.17120000000E+03 0.  0.
        998    1    1    2    0    0 -0.29455892798E+01 -0.10574944018E+02  0.59235824960E+03  0.59254434585E+03  0.10000000000E+02 0. -1.
</event>
<event>
 5    1  0.1147307E-008  0.3805697E+03  0.7957747E-01  0.3448682E+00
         13   -1    0    0    0    0  0.00000000000E+00  0.00000000000E+00  0.14999999963E+04  0.15000000000E+04  0.10566000000E+00 0. -1.
        994   -1    0    0    0    0 -0.00000000000E+00 -0.00000000000E+00  0.11368683772E-12  0.17120000000E+03  0.17120000000E+03 0.  0.
         13    1    1    2    0    0 -0.27553080017E+02 -0.13804380259E+03  0.47724542412E+03  0.49757257728E+03  0.10566000000E+00 0. -1.
        994    1    1    2    0    0  0.20353527082E+02  0.11145413317E+03  0.64876849166E+02  0.21530149889E+03  0.17120000000E+03 0.  0.
        998    1    1    2    0    0  0.71995529344E+01  0.26589669420E+02  0.95787772299E+03  0.95832592383E+03  0.10000000000E+02 0. -1.
</event>
<event>
 5    1  0.1147307E-008  0.3137199E+03  0.7957747E-01  0.3802692E+00
         13   -1    0    0    0    0  0.00000000000E+00  0.00000000000E+00  0.14999999963E+04  0.15000000000E+04  0.10566000000E+00 0.  1.
        994   -1    0    0    0    0 -0.00000000000E+00 -0.00000000000E+00  0.11368683772E-12  0.17120000000E+03  0.17120000000E+03 0.  0.
         13    1    1    2    0    0 -0.18995916484E+03 -0.48533663100E+02  0.76091967741E+03  0.78577271993E+03  0.10566000000E+00 0.  1.
        994    1    1    2    0    0  0.17708359974E+03  0.12026049098E+02  0.13715892034E+03  0.28217944039E+03  0.17120000000E+03 0.  0.
        998    1    1    2    0    0  0.12875565103E+02  0.36507614002E+02  0.60192139853E+03  0.60324783967E+03  0.10000000000E+02 0. -1.
</event>
<event>
 5    1  0.1147307E-008  0.4090362E+03  0.7957747E-01  0.3333719E+00
         13   -1    0    0    0    0  0.00000000000E+00  0.00000000000E+00  0.14999999963E+04  0.15000000000E+04  0.10566000000E+00 0. -1.
        994   -1    0    0    0    0 -0.00000000000E+00 -0.00000000000E+00  0.11368683772E-12  0.17120000000E+03  0.17120000000E+03 0.  0.
         13    1    1    2    0    0  0.10105743862E+03 -0.23002924137E+02  0.16680428016E+03  0.19638080217E+03  0.10566000000E+00 0. -1.
        994    1    1    2    0    0 -0.21890448088E+02  0.94271258845E+02  0.72511787179E+02  0.20960358118E+03  0.17120000000E+03 0.  0.
        998    1    1    2    0    0 -0.79166990533E+02 -0.71268334708E+02  0.12606839289E+04  0.12652156167E+04  0.10000000000E+02 0. -1.
</event>
<event>
 5    1  0.1147307E-008  0.3772880E+03  0.7957747E-01  0.3463053E+00
         13   -1    0    0    0    0  0.00000000000E+00  0.00000000000E+00  0.14999999963E+04  0.15000000000E+04  0.10566000000E+00 0. -1.
        994   -1    0    0    0    0 -0.00000000000E+00 -0.00000000000E+00  0.11368683772E-12  0.17120000000E+03  0.17120000000E+03 0.  0.
         13    1    1    2    0    0 -0.19715431258E+01  0.52698106398E+02  0.28796449830E+03  0.29275337888E+03  0.10566000000E+00 0. -1.
        994    1    1    2    0    0 -0.29709339469E+02 -0.15828441671E+02  0.93403936874E+01  0.17472798108E+03  0.17120000000E+03 0.  0.
        998    1    1    2    0    0  0.31680882594E+02 -0.36869664727E+02  0.12026951043E+04  0.12037186400E+04  0.10000000000E+02 0. -1.
</event>
<event>
 5    1  0.1147307E-008  0.3820952E+03  0.7957747E-01  0.3442086E+00
         13   -1    0    0    0    0  0.00000000000E+00  0.00000000000E+00  0.14999999963E+04  0.15000000000E+04  0.10566000000E+00 0.  1.
        994   -1    0    0    0    0 -0.00000000000E+00 -0.00000000000E+00  0.11368683772E-12  0.17120000000E+03  0.17120000000E+03 0.  0.
         13    1    1    2    0    0  0.22447273415E+01  0.27029555482E+02  0.11158680147E+03  0.11483580059E+03  0.10566000000E+00 0.  1.
        994    1    1    2    0    0 -0.75343772031E+01 -0.25703155894E+02  0.54646455793E+01  0.17336874405E+03  0.17120000000E+03 0.  0.
        998    1    1    2    0    0  0.52896498616E+01 -0.13263995879E+01  0.13829485492E+04  0.13829954554E+04  0.10000000000E+02 0.  1.
</event>
<event>
 5    1  0.1147307E-008  0.3701185E+03  0.7957747E-01  0.3495347E+00
         13   -1    0    0    0    0  0.00000000000E+00  0.00000000000E+00  0.14999999963E+04  0.15000000000E+04  0.10566000000E+00 0.  1.
        994   -1    0    0    0    0 -0.00000000000E+00 -0.00000000000E+00  0.11368683772E-12  0.17120000000E+03  0.17120000000E+03 0.  0.
         13    1    1    2    0    0 -0.25559985457E+02 -0.14935786222E+02  0.42816845092E+02  0.52054624716E+02  0.10566000000E+00 0.  1.
        994    1    1    2    0    0  0.24941189164E+02  0.16153643817E+02  0.12265090423E+02  0.17419206517E+03  0.17120000000E+03 0.  0.
        998    1    1    2    0    0  0.61879629323E+00 -0.12178575955E+01  0.14449180608E+04  0.14449533101E+04  0.10000000000E+02 0.  1.
</event>
<event>
 5    1  0.1147307E-008  0.3697693E+03  0.7957747E-01  0.3496952E+00
         13   -1    0    0    0    0  0.00000000000E+00  0.00000000000E+00  0.14999999963E+04  0.15000000000E+04  0.10566000000E+00 0. -1.
        994   -1    0    0    0    0 -0.00000000000E+00 -0.00000000000E+00  0.11368683772E-12  0.17120000000E+03  0.17120000000E+03 0.  0.
         13    1    1    2    0    0 -0.58178026505E+02  0.12794156234E+03  0.69552525711E+03  0.70958376572E+03  0.10566000000E+00 0. -1.
        994    1    1    2    0    0  0.50047817517E+02 -0.96476480501E+02  0.53301091295E+02  0.20967341668E+03  0.17120000000E+03 0.  0.
        998    1    1    2    0    0  0.81302089878E+01 -0.31465081838E+02  0.75117364788E+03  0.75194281760E+03  0.10000000000E+02 0. -1.
</event>
<event>
 5    1  0.1147307E-008  0.3719140E+03  0.7957747E-01  0.3487141E+00
         13   -1    0    0    0    0  0.00000000000E+00  0.00000000000E+00  0.14999999963E+04  0.15000000000E+04  0.10566000000E+00 0.  1.
        994   -1    0    0    0    0 -0.00000000000E+00 -0.00000000000E+00  0.11368683772E-12  0.17120000000E+03  0.17120000000E+03 0.  0.
         13    1    1    2    0    0 -0.44119206156E+02  0.22566932100E+02  0.14842637631E+03  0.15648057747E+03  0.10566000000E+00 0.  1.
        994    1    1    2    0    0  0.15084817270E+02 -0.27233939860E+02  0.11608644622E+02  0.17439449482E+03  0.17120000000E+03 0.  0.
        998    1    1    2    0    0  0.29034388885E+02  0.46670077600E+01  0.13399649753E+04  0.13403249277E+04  0.10000000000E+02 0.  1.
</event>
<event>
 5    1  0.1147307E-008  0.3852728E+03  0.7957747E-01  0.3428516E+00
         13   -1    0    0    0    0  0.00000000000E+00  0.00000000000E+00  0.14999999963E+04  0.15000000000E+04  0.10566000000E+00 0.  1.
        994   -1    0    0    0    0 -0.00000000000E+00 -0.00000000000E+00  0.11368683772E-12  0.17120000000E+03  0.17120000000E+03 0.  0.
         13    1    1    2    0    0  0.13692762029E+02  0.89110613407E+01  0.81026996180E+02  0.82657631349E+02  0.10566000000E+00 0.  1.
        994    1    1    2    0    0 -0.22376661954E+02 -0.10391490223E+02  0.34973233678E+01  0.17300395758E+03  0.17120000000E+03 0.  0.
        998    1    1    2    0    0  0.86838999255E+01  0.14804288827E+01  0.14154756767E+04  0.14155384111E+04  0.10000000000E+02 0.  1.
</event>
<event>
 5    1  0.1147307E-008  0.4064607E+03  0.7957747E-01  0.3343460E+00
         13   -1    0    0    0    0  0.00000000000E+00  0.00000000000E+00  0.14999999963E+04  0.15000000000E+04  0.10566000000E+00 0.  1.
        994   -1    0    0    0    0 -0.00000000000E+00 -0.00000000000E+00  0.11368683772E-12  0.17120000000E+03  0.17120000000E+03 0.  0.
         13    1    1    2    0    0  0.14241833190E+03  0.48047993126E+02  0.43104232469E+03  0.45649653640E+03  0.10566000000E+00 0.  1.
        994    1    1    2    0    0 -0.67601504129E+02  0.26838715811E+02  0.53300622003E+02  0.19349593363E+03  0.17120000000E+03 0.  0.
        998    1    1    2    0    0 -0.74816827770E+02 -0.74886708937E+02  0.10156570496E+04  0.10212075300E+04  0.10000000000E+02 0.  1.
</event>
<event>
 5    1  0.1147307E-008  0.3839535E+03  0.7957747E-01  0.3434123E+00
         13   -1    0    0    0    0  0.00000000000E+00  0.00000000000E+00  0.14999999963E+04  0.15000000000E+04  0.10566000000E+00 0.  1.
        994   -1    0    0    0    0 -0.00000000000E+00 -0.00000000000E+00  0.11368683772E-12  0.17120000000E+03  0.17120000000E+03 0.  0.
         13    1    1    2    0    0  0.12851947789E+02 -0.44927380724E+01  0.41953605939E+02  0.44107521724E+02  0.10566000000E+00 0.  1.
        994    1    1    2    0    0 -0.11042306635E+02  0.58936335869E+01  0.26677418292E+01  0.17167767560E+03  0.17120000000E+03 0.  0.
        998    1    1    2    0    0 -0.18096411535E+01 -0.14008955145E+01  0.14553786485E+04  0.14554148027E+04  0.10000000000E+02 0.  1.
</event>
<event>
 5    1  0.1147307E-008  0.3722754E+03  0.7957747E-01  0.3485499E+00
         13   -1    0    0    0    0  0.00000000000E+00  0.00000000000E+00  0.14999999963E+04  0.15000000000E+04  0.10566000000E+00 0.  1.
        994   -1    0    0    0    0 -0.00000000000E+00 -0.00000000000E+00  0.11368683772E-12  0.17120000000E+03  0.17120000000E+03 0.  0.
         13    1    1    2    0    0 -0.66719786742E+02 -0.47900796820E+02  0.34844479944E+03  0.35799414199E+03  0.10566000000E+00 0.  1.
        994    1    1    2    0    0  0.72343615061E+02  0.21389357994E+02  0.27869324109E+02  0.18914873117E+03  0.17120000000E+03 0.  0.
        998    1    1    2    0    0 -0.56238283195E+01  0.26511438827E+02  0.11236858727E+04  0.11240571268E+04  0.10000000000E+02 0.  1.
</event>
<event>
 5    1  0.1147307E-008  0.3869053E+03  0.7957747E-01  0.3421632E+00
         13   -1    0    0    0    0  0.00000000000E+00  0.00000000000E+00  0.14999999963E+04  0.15000000000E+04  0.10566000000E+00 0. -1.
        994   -1    0    0    0    0 -0.00000000000E+00 -0.00000000000E+00  0.11368683772E-12  0.17120000000E+03  0.17120000000E+03 0.  0.
         13    1    1    2    0    0  0.92103137150E+02  0.40601992724E+02  0.27210766430E+03  0.29012773363E+03  0.10566000000E+00 0. -1.
        994    1    1    2    0    0 -0.67385124633E+02  0.48208680817E+02  0.46172052820E+02  0.19571951969E+03  0.17120000000E+03 0.  0.
        998    1    1    2    0    0 -0.24718012517E+02 -0.88810673541E+02  0.11817202792E+04  0.11853527467E+04  0.10000000000E+02 0. -1.
</event>
<event>
 5    1  0.1147307E-008  0.3827365E+03  0.7957747E-01  0.3439329E+00
         13   -1    0    0    0    0  0.00000000000E+00  0.00000000000E+00  0.14999999963E+04  0.15000000000E+04  0.10566000000E+00 0. -1.
        994   -1    0    0    0    0 -0.00000000000E+00 -0.00000000000E+00  0.11368683772E-12  0.17120000000E+03  0.17120000000E+03 0.  0.
         13    1    1    2    0    0 -0.13106170941E+02 -0.25725629286E+01  0.30363434098E+02  0.33171359499E+02  0.10566000000E+00 0. -1.
        994    1    1    2    0    0  0.17493202027E+02  0.63081868549E+01  0.39046039533E+01  0.17225124461E+03  0.17120000000E+03 0.  0.
        998    1    1    2    0    0 -0.43870310857E+01 -0.37356239263E+01  0.14657319582E+04  0.14657773959E+04  0.10000000000E+02 0. -1.
</event>
<event>
 5    1  0.1147307E-008  0.3833322E+03  0.7957747E-01  0.3436776E+00
         13   -1    0    0    0    0  0.00000000000E+00  0.00000000000E+00  0.14999999963E+04  0.15000000000E+04  0.10566000000E+00 0. -1.
        994   -1    0    0    0    0 -0.00000000000E+00 -0.00000000000E+00  0.11368683772E-12  0.17120000000E+03  0.17120000000E+03 0.  0.
         13    1    1    2    0    0 -0.10964490199E+02 -0.26822716032E+01  0.24959064303E+02  0.27393077250E+02  0.10566000000E+00 0. -1.
        994    1    1    2    0    0  0.72036048386E+01  0.82007945966E+01  0.28544827116E+01  0.17157136424E+03  0.17120000000E+03 0.  0.
        998    1    1    2    0    0  0.37608853600E+01 -0.55185229934E+01  0.14721864493E+04  0.14722355585E+04  0.10000000000E+02 0. -1.
</event>
<event>
 5    1  0.1147307E-008  0.3799524E+03  0.7957747E-01  0.3451366E+00
         13   -1    0    0    0    0  0.00000000000E+00  0.00000000000E+00  0.14999999963E+04  0.15000000000E+04  0.10566000000E+00 0.  1.
        994   -1    0    0    0    0 -0.00000000000E+00 -0.00000000000E+00  0.11368683772E-12  0.17120000000E+03  0.17120000000E+03 0.  0.
         13    1    1    2    0    0 -0.17966479546E+01  0.20226380886E+02  0.51191628786E+02  0.55072029647E+02  0.10566000000E+00 0.  1.
        994    1    1    2    0    0  0.50330079766E+01  0.39364893695E+01  0.42937001523E+01  0.17137299373E+03  0.17120000000E+03 0.  0.
        998    1    1    2    0    0 -0.32363600220E+01 -0.24162870256E+02  0.14445146673E+04  0.14447549766E+04  0.10000000000E+02 0.  1.
</event>
<event>
 5    1  0.1147307E-008  0.3982071E+03  0.7957747E-01  0.3375520E+00
         13   -1    0    0    0    0  0.00000000000E+00  0.00000000000E+00  0.14999999963E+04  0.15000000000E+04  0.10566000000E+00 0.  1.
        994   -1    0    0    0    0 -0.00000000000E+00 -0.00000000000E+00  0.11368683772E-12  0.17120000000E+03  0.17120000000E+03 0.  0.
         13    1    1    2    0    0  0.51268928199E+02  0.10855131570E+03  0.47117512887E+03  0.48622824308E+03  0.10566000000E+00 0.  1.
        994    1    1    2    0    0  0.56805557529E+02 -0.88758562524E+01  0.39672196762E+02  0.18490261054E+03  0.17120000000E+03 0.  0.
        998    1    1    2    0    0 -0.10807448573E+03 -0.99675459452E+02  0.98915267065E+03  0.10000691464E+04  0.10000000000E+02 0.  1.
</event>
<event>
 5    1  0.1147307E-008  0.3838681E+03  0.7957747E-01  0.3434487E+00
         13   -1    0    0    0    0  0.00000000000E+00  0.00000000000E+00  0.14999999963E+04  0.15000000000E+04  0.10566000000E+00 0. -1.
        994   -1    0    0    0    0 -0.00000000000E+00 -0.00000000000E+00  0.11368683772E-12  0.17120000000E+03  0.17120000000E+03 0.  0.
         13    1    1    2    0    0 -0.14498521874E+01 -0.12128921944E+02  0.31789811200E+02  0.34056072572E+02  0.10566000000E+00 0. -1.
        994    1    1    2    0    0 -0.50767365187E+01  0.21579925161E+02  0.38170256945E+01  0.17267158454E+03  0.17120000000E+03 0.  0.
        998    1    1    2    0    0  0.65265887061E+01 -0.94510032171E+01  0.14643931594E+04  0.14644723429E+04  0.10000000000E+02 0. -1.
</event>
<event>
 5    1  0.1147307E-008  0.3707942E+03  0.7957747E-01  0.3492249E+00
         13   -1    0    0    0    0  0.00000000000E+00  0.00000000000E+00  0.14999999963E+04  0.15000000000E+04  0.10566000000E+00 0. -1.
        994   -1    0    0    0    0 -0.00000000000E+00 -0.00000000000E+00  0.11368683772E-12  0.17120000000E+03  0.17120000000E+03 0.  0.
         13    1    1    2    0    0  0.10770532345E+03  0.24277095507E+02  0.43417444786E+03  0.44799249593E+03  0.10566000000E+00 0. -1.
        994    1    1    2    0    0 -0.85590631580E+02 -0.37795172246E+02  0.42715722539E+02  0.19972056532E+03  0.17120000000E+03 0.  0.
        998    1    1    2    0    0 -0.22114691870E+02  0.13518076739E+02  0.10231098259E+04  0.10234869388E+04  0.10000000000E+02 0. -1.
</event>
<event>
 5    1  0.1147307E-008  0.3813356E+03  0.7957747E-01  0.3445363E+00
         13   -1    0    0    0    0  0.00000000000E+00  0.00000000000E+00  0.14999999963E+04  0.15000000000E+04  0.10566000000E+00 0.  1.
        994   -1    0    0    0    0 -0.00000000000E+00 -0.00000000000E+00  0.11368683772E-12  0.17120000000E+03  0.17120000000E+03 0.  0.
         13    1    1    2    0    0 -0.14278316034E+01  0.51283681358E+02  0.29514532688E+03  0.29957107640E+03  0.10566000000E+00 0.  1.
        994    1    1    2    0    0 -0.11437415601E+01 -0.55350071387E+02  0.13729294125E+02  0.18045185525E+03  0.17120000000E+03 0.  0.
        998    1    1    2    0    0  0.25715731635E+01  0.40663900290E+01  0.11911253753E+04  0.11911770683E+04  0.10000000000E+02 0.  1.
</event>
<event>
 5    1  0.1147307E-008  0.3837902E+03  0.7957747E-01  0.3434819E+00
         13   -1    0    0    0    0  0.00000000000E+00  0.00000000000E+00  0.14999999963E+04  0.15000000000E+04  0.10566000000E+00 0.  1.
        994   -1    0    0    0    0 -0.00000000000E+00 -0.00000000000E+00  0.11368683772E-12  0.17120000000E+03  0.17120000000E+03 0.  0.
         13    1    1    2    0    0 -0.66209511255E+01 -0.14537288571E+02  0.56713523690E+02  0.58920324899E+02  0.10566000000E+00 0.  1.
        994    1    1    2    0    0  0.45527286666E+01  0.91809394784E+01  0.25787637647E+01  0.17152582024E+03  0.17120000000E+03 0.  0.
        998    1    1    2    0    0  0.20682224589E+01  0.53563490925E+01  0.14407077088E+04  0.14407538549E+04  0.10000000000E+02 0.  1.
</event>
<event>
 5    1  0.1147307E-008  0.3727250E+03  0.7957747E-01  0.3483460E+00
         13   -1    0    0    0    0  0.00000000000E+00  0.00000000000E+00  0.14999999963E+04  0.15000000000E+04  0.10566000000E+00 0.  1.
        994   -1    0    0    0    0 -0.00000000000E+00 -0.00000000000E+00  0.11368683772E-12  0.17120000000E+03  0.17120000000E+03 0.  0.
         13    1    1    2    0    0  0.62367980195E+02  0.20157293201E+02  0.17414086932E+03  0.18606755482E+03  0.10566000000E+00 0.  1.
        994    1    1    2    0    0 -0.30620766659E+02 -0.14916567150E+02  0.16492967000E+02  0.17533280722E+03  0.17120000000E+03 0.  0.
        998    1    1    2    0    0 -0.31747213536E+02 -0.52407260511E+01  0.13093661600E+04  0.13097996380E+04  0.10000000000E+02 0.  1.
</event>
<event>
 5    1  0.1147307E-008  0.3829840E+03  0.7957747E-01  0.3438268E+00
         13   -1    0    0    0    0  0.00000000000E+00  0.00000000000E+00  0.14999999963E+04  0.15000000000E+04  0.10566000000E+00 0.  1.
        994   -1    0    0    0    0 -0.00000000000E+00 -0.00000000000E+00  0.11368683772E-12  0.17120000000E+03  0.17120000000E+03 0.  0.
         13    1    1    2    0    0 -0.57390320818E+00  0.25358720018E+02  0.12652923860E+03  0.12904671027E+03  0.10566000000E+00 0.  1.
        994    1    1    2    0    0  0.28236536032E+01 -0.95063011143E+01  0.29599913615E+01  0.17151251945E+03  0.17120000000E+03 0.  0.
        998    1    1    2    0    0 -0.22497503950E+01 -0.15852418904E+02  0.13705107663E+04  0.13706407703E+04  0.10000000000E+02 0.  1.
</event>
<event>
 5    1  0.1147307E-008  0.3692361E+03  0.7957747E-01  0.3499409E+00
         13   -1    0    0    0    0  0.00000000000E+00  0.00000000000E+00  0.14999999963E+04  0.15000000000E+04  0.10566000000E+00 0. -1.
        994   -1    0    0    0    0 -0.00000000000E+00 -0.00000000000E+00  0.11368683772E-12  0.17120000000E+03  0.17120000000E+03 0.  0.
         13    1    1    2    0    0  0.13104064935E+02  0.21061531515E+02  0.24372223189E+02  0.34775293741E+02  0.10566000000E+00 0. -1.
        994    1    1    2    0    0 -0.17414720188E+02 -0.18722226269E+02  0.12818347760E+02  0.17357287886E+03  0.17120000000E+03 0.  0.
        998    1    1    2    0    0  0.43106552535E+01 -0.23393052462E+01  0.14628094253E+04  0.14628518274E+04  0.10000000000E+02 0. -1.
</event>
<event>
 5    1  0.1147307E-008  0.3767103E+03  0.7957747E-01  0.3465609E+00
         13   -1    0    0    0    0  0.00000000000E+00  0.00000000000E+00  0.14999999963E+04  0.15000000000E+04  0.10566000000E+00 0.  1.
        994   -1    0    0    0    0 -0.00000000000E+00 -0.00000000000E+00  0.11368683772E-12  0.17120000000E+03  0.17120000000E+03 0.  0.
         13    1    1    2    0    0 -0.24821577723E+02 -0.38640580665E+02  0.15918227118E+03  0.16567501868E+03  0.10566000000E+00 0.  1.
        994    1    1    2    0    0  0.18188609415E+02  0.46408809679E+02  0.14246858025E+02  0.17887709773E+03  0.17120000000E+03 0.  0.
        998    1    1    2    0    0  0.66329683084E+01 -0.77682290141E+01  0.13265708671E+04  0.13266478836E+04  0.10000000000E+02 0.  1.
</event>
<event>
 5    1  0.1147307E-008  0.3824253E+03  0.7957747E-01  0.3440666E+00
         13   -1    0    0    0    0  0.00000000000E+00  0.00000000000E+00  0.14999999963E+04  0.15000000000E+04  0.10566000000E+00 0. -1.
        994   -1    0    0    0    0 -0.00000000000E+00 -0.00000000000E+00  0.11368683772E-12  0.17120000000E+03  0.17120000000E+03 0.  0.
         13    1    1    2    0    0 -0.10721107636E+02  0.12168230003E+02  0.42316578998E+02  0.45317899251E+02  0.10566000000E+00 0. -1.
        994    1    1    2    0    0 -0.64547603842E+00 -0.29292993763E+02  0.57661037118E+01  0.17378487873E+03  0.17120000000E+03 0.  0.
        998    1    1    2    0    0  0.11366583674E+02  0.17124763761E+02  0.14519173136E+04  0.14520972220E+04  0.10000000000E+02 0. -1.
</event>
<event>
 5    1  0.1147307E-008  0.3815879E+03  0.7957747E-01  0.3444274E+00
         13   -1    0    0    0    0  0.00000000000E+00  0.00000000000E+00  0.14999999963E+04  0.15000000000E+04  0.10566000000E+00 0. -1.
        994   -1    0    0    0    0 -0.00000000000E+00 -0.00000000000E+00  0.11368683772E-12  0.17120000000E+03  0.17120000000E+03 0.  0.
         13    1    1    2    0    0  0.52896848260E+01  0.22653823213E+02  0.75691210597E+02  0.79185522650E+02  0.10566000000E+00 0. -1.
        994    1    1    2    0    0 -0.66719077680E+01 -0.25159730066E+02  0.55900937847E+01  0.17325765645E+03  0.17120000000E+03 0.  0.
        998    1    1    2    0    0  0.13822229420E+01  0.25059068531E+01  0.14187186919E+04  0.14187568209E+04  0.10000000000E+02 0. -1.
</event>
<event>
 5    1  0.1147307E-008  0.3752835E+03  0.7957747E-01  0.3471956E+00
         13   -1    0    0    0    0  0.00000000000E+00  0.00000000000E+00  0.14999999963E+04  0.15000000000E+04  0.10566000000E+00 0. -1.
        994   -1    0    0    0    0 -0.00000000000E+00 -0.00000000000E+00  0.11368683772E-12  0.17120000000E+03  0.17120000000E+03 0.  0.
         13    1    1    2    0    0  0.16167677069E+03 -0.13089430761E+03  0.83753281074E+03  0.86297967426E+03  0.10566000000E+00 0. -1.
        994    1    1    2    0    0 -0.19536175001E+03  0.11539033682E+03  0.20819876080E+03  0.35233124641E+03  0.17120000000E+03 0.  0.
        998    1    1    2    0    0  0.33684979326E+02  0.15503970791E+02  0.45426842474E+03  0.45588907933E+03  0.10000000000E+02 0. -1.
</event>
<event>
 5    1  0.1147307E-008  0.3848653E+03  0.7957747E-01  0.3430244E+00
         13   -1    0    0    0    0  0.00000000000E+00  0.00000000000E+00  0.14999999963E+04  0.15000000000E+04  0.10566000000E+00 0.  1.
        994   -1    0    0    0    0 -0.00000000000E+00 -0.00000000000E+00  0.11368683772E-12  0.17120000000E+03  0.17120000000E+03 0.  0.
         13    1    1    2    0    0  0.26868054440E+00  0.12764254463E+02  0.47745847500E+02  0.49423430665E+02  0.10566000000E+00 0.  1.
        994    1    1    2    0    0  0.30570352803E+01 -0.91913435659E+01  0.20058075159E+01  0.17148553736E+03  0.17120000000E+03 0.  0.
        998    1    1    2    0    0 -0.33257158247E+01 -0.35729108973E+01  0.14502483413E+04  0.14502910320E+04  0.10000000000E+02 0.  1.
</event>
<event>
 5    1  0.1147307E-008  0.3842802E+03  0.7957747E-01  0.3432731E+00
         13   -1    0    0    0    0  0.00000000000E+00  0.00000000000E+00  0.14999999963E+04  0.15000000000E+04  0.10566000000E+00 0. -1.
        994   -1    0    0    0    0 -0.00000000000E+00 -0.00000000000E+00  0.11368683772E-12  0.17120000000E+03  0.17120000000E+03 0.  0.
         13    1    1    2    0    0  0.14020432519E+02  0.23416021383E+02  0.16479639175E+03  0.16704114608E+03  0.10566000000E+00 0. -1.
        994    1    1    2    0    0  0.65948127609E+01 -0.40867779438E+02  0.76572970540E+01  0.17630014506E+03  0.17120000000E+03 0.  0.
        998    1    1    2    0    0 -0.20615245280E+02  0.17451758055E+02  0.13275463075E+04  0.13278587089E+04  0.10000000000E+02 0. -1.
</event>
<event>
 5    1  0.1147307E-008  0.3825115E+03  0.7957747E-01  0.3440295E+00
         13   -1    0    0    0    0  0.00000000000E+00  0.00000000000E+00  0.14999999963E+04  0.15000000000E+04  0.10566000000E+00 0. -1.
        994   -1    0    0    0    0 -0.00000000000E+00 -0.00000000000E+00  0.11368683772E-12  0.17120000000E+03  0.17120000000E+03 0.  0.
         13    1    1    2    0    0 -0.14775753478E+01  0.14742332462E+02  0.37706513130E+02  0.40513107654E+02  0.10566000000E+00 0. -1.
        994    1    1    2    0    0  0.80799426328E+01 -0.60934160254E+01  0.32103223557E+01  0.17152889366E+03  0.17120000000E+03 0.  0.
        998    1    1    2    0    0 -0.66023672851E+01 -0.86489164366E+01  0.14590831608E+04  0.14591579987E+04  0.10000000000E+02 0. -1.
</event>
<event>
 5    1  0.1147307E-008  0.3835341E+03  0.7957747E-01  0.3435913E+00
         13   -1    0    0    0    0  0.00000000000E+00  0.00000000000E+00  0.14999999963E+04  0.15000000000E+04  0.10566000000E+00 0. -1.
        994   -1    0    0    0    0 -0.00000000000E+00 -0.00000000000E+00  0.11368683772E-12  0.17120000000E+03  0.17120000000E+03 0.  0.
         13    1    1    2    0    0 -0.17099524777E+02  0.18307468352E+02  0.12334578869E+03  0.12586402146E+03  0.10566000000E+00 0. -1.
        994    1    1    2    0    0  0.16013463906E+02 -0.19206679358E+02  0.44287306735E+01  0.17307334056E+03  0.17120000000E+03 0.  0.
        998    1    1    2    0    0  0.10860608704E+01  0.89921100589E+00  0.13722254769E+04  0.13722626380E+04  0.10000000000E+02 0.  0.
</event>
<event>
 5    1  0.1147307E-008  0.3605109E+03  0.7957747E-01  0.3540671E+00
         13   -1    0    0    0    0  0.00000000000E+00  0.00000000000E+00  0.14999999963E+04  0.15000000000E+04  0.10566000000E+00 0. -1.
        994   -1    0    0    0    0 -0.00000000000E+00 -0.00000000000E+00  0.11368683772E-12  0.17120000000E+03  0.17120000000E+03 0.  0.
         13    1    1    2    0    0 -0.11098885737E+01 -0.26017665026E+03  0.10821032379E+04  0.11129422940E+04  0.10566000000E+00 0. -1.
        994    1    1    2    0    0  0.12822820212E+00  0.21916335735E+03  0.21638651799E+03  0.35237076896E+03  0.17120000000E+03 0.  0.
        998    1    1    2    0    0  0.98166037156E+00  0.41013292914E+02  0.20151024040E+03  0.20588693703E+03  0.10000000000E+02 0.  1.
</event>
<event>
 5    1  0.1147307E-008  0.3728536E+03  0.7957747E-01  0.3482878E+00
         13   -1    0    0    0    0  0.00000000000E+00  0.00000000000E+00  0.14999999963E+04  0.15000000000E+04  0.10566000000E+00 0. -1.
        994   -1    0    0    0    0 -0.00000000000E+00 -0.00000000000E+00  0.11368683772E-12  0.17120000000E+03  0.17120000000E+03 0.  0.
         13    1    1    2    0    0 -0.63178544210E+02 -0.18211198583E+02  0.32304555140E+03  0.32966894857E+03  0.10566000000E+00 0. -1.
        994    1    1    2    0    0  0.21925190894E+02 -0.14362564623E+02  0.10140978549E+02  0.17349143121E+03  0.17120000000E+03 0.  0.
        998    1    1    2    0    0  0.41253353316E+02  0.32573763206E+02  0.11668134663E+04  0.11680396202E+04  0.10000000000E+02 0. -1.
</event>
<event>
 5    1  0.1147307E-008  0.3846625E+03  0.7957747E-01  0.3431105E+00
         13   -1    0    0    0    0  0.00000000000E+00  0.00000000000E+00  0.14999999963E+04  0.15000000000E+04  0.10566000000E+00 0. -1.
        994   -1    0    0    0    0 -0.00000000000E+00 -0.00000000000E+00  0.11368683772E-12  0.17120000000E+03  0.17120000000E+03 0.  0.
         13    1    1    2    0    0 -0.37163718060E+01  0.10167000637E+02  0.30929156554E+02  0.32768936671E+02  0.10566000000E+00 0. -1.
        994    1    1    2    0    0  0.82762055610E+01 -0.15222914172E+02  0.27868618902E+01  0.17209717980E+03  0.17120000000E+03 0.  0.
        998    1    1    2    0    0 -0.45598337550E+01  0.50559135348E+01  0.14662839778E+04  0.14663338835E+04  0.10000000000E+02 0. -1.
</event>
<event>
 5    1  0.1147307E-008  0.3700060E+03  0.7957747E-01  0.3495864E+00
         13   -1    0    0    0    0  0.00000000000E+00  0.00000000000E+00  0.14999999963E+04  0.15000000000E+04  0.10566000000E+00 0.  1.
        994   -1    0    0    0    0 -0.00000000000E+00 -0.00000000000E+00  0.11368683772E-12  0.17120000000E+03  0.17120000000E+03 0.  0.
         13    1    1    2    0    0  0.24930047038E+02  0.33728505048E+01  0.29518468894E+02  0.38784462556E+02  0.10566000000E+00 0.  1.
        994    1    1    2    0    0 -0.28157134692E+02 -0.46473171240E+01  0.12087038902E+02  0.17398263793E+03  0.17120000000E+03 0.  0.
        998    1    1    2    0    0  0.32270876540E+01  0.12744666192E+01  0.14583944885E+04  0.14584328995E+04  0.10000000000E+02 0.  1.
</event>
<event>
 5    1  0.1147307E-008  0.3852919E+03  0.7957747E-01  0.3428435E+00
         13   -1    0    0    0    0  0.00000000000E+00  0.00000000000E+00  0.14999999963E+04  0.15000000000E+04  0.10566000000E+00 0.  1.
        994   -1    0    0    0    0 -0.00000000000E+00 -0.00000000000E+00  0.11368683772E-12  0.17120000000E+03  0.17120000000E+03 0.  0.
         13    1    1    2    0    0 -0.98658600591E+01  0.63057322200E+01  0.44883041621E+02  0.46385299855E+02  0.10566000000E+00 0.  1.
        994    1    1    2    0    0  0.10643139569E+02 -0.78448963453E+01  0.20598519540E+01  0.17172216458E+03  0.17120000000E+03 0.  0.
        998    1    1    2    0    0 -0.77727950971E+00  0.15391641252E+01  0.14530571027E+04  0.14530925356E+04  0.10000000000E+02 0.  1.
</event>
<event>
 5    1  0.1147307E-008  0.3744437E+03  0.7957747E-01  0.3475715E+00
         13   -1    0    0    0    0  0.00000000000E+00  0.00000000000E+00  0.14999999963E+04  0.15000000000E+04  0.10566000000E+00 0. -1.
        994   -1    0    0    0    0 -0.00000000000E+00 -0.00000000000E+00  0.11368683772E-12  0.17120000000E+03  0.17120000000E+03 0.  0.
         13    1    1    2    0    0  0.37549607320E+01 -0.28714367683E+02  0.56034012242E+02  0.63074847075E+02  0.10566000000E+00 0. -1.
        994    1    1    2    0    0 -0.29545862592E+01  0.26803829164E+02  0.94451068742E+01  0.17356792584E+03  0.17120000000E+03 0.  0.
        998    1    1    2    0    0 -0.80037447279E+00  0.19105385188E+01  0.14345208772E+04  0.14345572271E+04  0.10000000000E+02 0. -1.
</event>
<event>
 5    1  0.1147307E-008  0.3782810E+03  0.7957747E-01  0.3458678E+00
         13   -1    0    0    0    0  0.00000000000E+00  0.00000000000E+00  0.14999999963E+04  0.15000000000E+04  0.10566000000E+00 0. -1.
        994   -1    0    0    0    0 -0.00000000000E+00 -0.00000000000E+00  0.11368683772E-12  0.17120000000E+03  0.17120000000E+03 0.  0.
         13    1    1    2    0    0 -0.37129609958E+02  0.85413530513E+01  0.12772236280E+03  0.13328381661E+03  0.10566000000E+00 0. -1.
        994    1    1    2    0    0  0.41391929282E+02 -0.18477818516E+02  0.11942690587E+02  0.17750151956E+03  0.17120000000E+03 0.  0.
        998    1    1    2    0    0 -0.42623193245E+01  0.99364654651E+01  0.13603349429E+04  0.13604146638E+04  0.10000000000E+02 0. -1.
</event>
<event>
 5    1  0.1147307E-008  0.3800496E+03  0.7957747E-01  0.3450943E+00
         13   -1    0    0    0    0  0.00000000000E+00  0.00000000000E+00  0.14999999963E+04  0.15000000000E+04  0.10566000000E+00 0.  1.
        994   -1    0    0    0    0 -0.00000000000E+00 -0.00000000000E+00  0.11368683772E-12  0.17120000000E+03  0.17120000000E+03 0.  0.
         13    1    1    2    0    0 -0.81280320641E+02  0.20941252956E+03  0.12745183651E+04  0.12941627301E+04  0.10566000000E+00 0.  1.
        994    1    1    2    0    0  0.86623336056E+02 -0.19704786398E+03  0.18034738684E+03  0.32888612465E+03  0.17120000000E+03 0.  0.
        998    1    1    2    0    0 -0.53430154159E+01 -0.12364665578E+02  0.45134244389E+02  0.48151145211E+02  0.10000000000E+02 0.  1.
</event>
<event>
 5    1  0.1147307E-008  0.3841923E+03  0.7957747E-01  0.3433105E+00
         13   -1    0    0    0    0  0.00000000000E+00  0.00000000000E+00  0.14999999963E+04  0.15000000000E+04  0.10566000000E+00 0. -1.
        994   -1    0    0    0    0 -0.00000000000E+00 -0.00000000000E+00  0.11368683772E-12  0.17120000000E+03  0.17120000000E+03 0.  0.
         13    1    1    2    0    0 -0.50518701642E+01 -0.11268954615E+02  0.37136161684E+02  0.39135871000E+02  0.10566000000E+00 0. -1.
        994    1    1    2    0    0  0.28777678061E+00  0.85375906182E+01  0.22723121615E+01  0.17142805101E+03  0.17120000000E+03 0.  0.
        998    1    1    2    0    0  0.47640933835E+01  0.27313639971E+01  0.14605915224E+04  0.14606360780E+04  0.10000000000E+02 0. -1.
</event>
<event>
 5    1  0.1147307E-008  0.3791418E+03  0.7957747E-01  0.3454904E+00
         13   -1    0    0    0    0  0.00000000000E+00  0.00000000000E+00  0.14999999963E+04  0.15000000000E+04  0.10566000000E+00 0. -1.
        994   -1    0    0    0    0 -0.00000000000E+00 -0.00000000000E+00  0.11368683772E-12  0.17120000000E+03  0.17120000000E+03 0.  0.
         13    1    1    2    0    0  0.31483720272E+01 -0.17675567997E+02  0.35586247926E+02  0.39858878006E+02  0.10566000000E+00 0. -1.
        994    1    1    2    0    0  0.40435232535E+00 -0.72645037201E+01  0.47444509259E+01  0.17142020397E+03  0.17120000000E+03 0.  0.
        998    1    1    2    0    0 -0.35527243525E+01  0.24940071717E+02  0.14596692974E+04  0.14599209180E+04  0.10000000000E+02 0. -1.
</event>
<event>
 5    1  0.1147307E-008  0.3836337E+03  0.7957747E-01  0.3435488E+00
         13   -1    0    0    0    0  0.00000000000E+00  0.00000000000E+00  0.14999999963E+04  0.15000000000E+04  0.10566000000E+00 0. -1.
        994   -1    0    0    0    0 -0.00000000000E+00 -0.00000000000E+00  0.11368683772E-12  0.17120000000E+03  0.17120000000E+03 0.  0.
         13    1    1    2    0    0 -0.14611567768E+02  0.39706779745E+02  0.43876688728E+02  0.60953271021E+02  0.10566000000E+00 0. -1.
        994    1    1    2    0    0 -0.42965892737E+01 -0.14922057541E+02  0.19223831746E+02  0.17297434546E+03  0.17120000000E+03 0.  0.
        998    1    1    2    0    0  0.18908157041E+02 -0.24784722204E+02  0.14368994758E+04  0.14372723835E+04  0.10000000000E+02 0. -1.
</event>
<event>
 5    1  0.1147307E-008  0.3841731E+03  0.7957747E-01  0.3433187E+00
         13   -1    0    0    0    0  0.00000000000E+00  0.00000000000E+00  0.14999999963E+04  0.15000000000E+04  0.10566000000E+00 0. -1.
        994   -1    0    0    0    0 -0.00000000000E+00 -0.00000000000E+00  0.11368683772E-12  0.17120000000E+03  0.17120000000E+03 0.  0.
         13    1    1    2    0    0  0.24227363795E+02 -0.91487200584E+01  0.13625759989E+03  0.13869682378E+03  0.10566000000E+00 0. -1.
        994    1    1    2    0    0 -0.36483437837E+02  0.12918580454E+02  0.69963341922E+01  0.17565966996E+03  0.17120000000E+03 0.  0.
        998    1    1    2    0    0  0.12256074042E+02 -0.37698603953E+01  0.13567460622E+04  0.13568435063E+04  0.10000000000E+02 0. -1.
</event>
<event>
 5    1  0.1147307E-008  0.3736611E+03  0.7957747E-01  0.3479232E+00
         13   -1    0    0    0    0  0.00000000000E+00  0.00000000000E+00  0.14999999963E+04  0.15000000000E+04  0.10566000000E+00 0. -1.
        994   -1    0    0    0    0 -0.00000000000E+00 -0.00000000000E+00  0.11368683772E-12  0.17120000000E+03  0.17120000000E+03 0.  0.
         13    1    1    2    0    0  0.29550281845E+02 -0.48927960768E+01  0.29079345199E+02  0.41746593775E+02  0.10566000000E+00 0. -1.
        994    1    1    2    0    0 -0.29191847551E+02 -0.10318226561E+01  0.15915465324E+02  0.17440175073E+03  0.17120000000E+03 0.  0.
        998    1    1    2    0    0 -0.35843429413E+00  0.59246187329E+01  0.14550051858E+04  0.14550516555E+04  0.10000000000E+02 0. -1.
</event>
<event>
 5    1  0.1147307E-008  0.4179193E+03  0.7957747E-01  0.3301028E+00
         13   -1    0    0    0    0  0.00000000000E+00  0.00000000000E+00  0.14999999963E+04  0.15000000000E+04  0.10566000000E+00 0.  1.
        994   -1    0    0    0    0 -0.00000000000E+00 -0.00000000000E+00  0.11368683772E-12  0.17120000000E+03  0.17120000000E+03 0.  0.
         13    1    1    2    0    0 -0.66900276156E+02  0.14776802828E+02  0.46862482392E+02  0.83006651972E+02  0.10566000000E+00 0.  1.
        994    1    1    2    0    0  0.56573030786E+02 -0.24519143219E+02  0.55207125117E+02  0.19015510211E+03  0.17120000000E+03 0.  0.
        998    1    1    2    0    0  0.10327245370E+02  0.97423403916E+01  0.13979303888E+04  0.13980382459E+04  0.10000000000E+02 0.  1.
</event>
<event>
 5    1  0.1147307E-008  0.3791595E+03  0.7957747E-01  0.3454827E+00
         13   -1    0    0    0    0  0.00000000000E+00  0.00000000000E+00  0.14999999963E+04  0.15000000000E+04  0.10566000000E+00 0. -1.
        994   -1    0    0    0    0 -0.00000000000E+00 -0.00000000000E+00  0.11368683772E-12  0.17120000000E+03  0.17120000000E+03 0.  0.
         13    1    1    2    0    0 -0.84890862065E+01 -0.31480485580E+02  0.12933370689E+03  0.13338030011E+03  0.10566000000E+00 0. -1.
        994    1    1    2    0    0 -0.82033127773E+01  0.11900664804E+01  0.47884103792E+01  0.17146742977E+03  0.17120000000E+03 0.  0.
        998    1    1    2    0    0  0.16692398984E+02  0.30290419100E+02  0.13658778790E+04  0.13663522701E+04  0.10000000000E+02 0. -1.
</event>
<event>
 5    1  0.1147307E-008  0.3824786E+03  0.7957747E-01  0.3440437E+00
         13   -1    0    0    0    0  0.00000000000E+00  0.00000000000E+00  0.14999999963E+04  0.15000000000E+04  0.10566000000E+00 0.  1.
        994   -1    0    0    0    0 -0.00000000000E+00 -0.00000000000E+00  0.11368683772E-12  0.17120000000E+03  0.17120000000E+03 0.  0.
         13    1    1    2    0    0  0.16876353612E+02 -0.29261016183E+01  0.49547453967E+02  0.52424562379E+02  0.10566000000E+00 0.  1.
        994    1    1    2    0    0 -0.10176634515E+02  0.16672086277E+02  0.41532131169E+01  0.17236070181E+03  0.17120000000E+03 0.  0.
        998    1    1    2    0    0 -0.66997190965E+01 -0.13745984658E+02  0.14462993292E+04  0.14464147358E+04  0.10000000000E+02 0.  1.
</event>
<event>
 5    1  0.1147307E-008  0.3770878E+03  0.7957747E-01  0.3463938E+00
         13   -1    0    0    0    0  0.00000000000E+00  0.00000000000E+00  0.14999999963E+04  0.15000000000E+04  0.10566000000E+00 0. -1.
        994   -1    0    0    0    0 -0.00000000000E+00 -0.00000000000E+00  0.11368683772E-12  0.17120000000E+03  0.17120000000E+03 0.  0.
         13    1    1    2    0    0  0.24196631468E+02  0.15642158601E+02  0.71192014989E+02  0.76801486068E+02  0.10566000000E+00 0. -1.
        994    1    1    2    0    0 -0.20358246083E+02 -0.67328236193E+01  0.71640178273E+01  0.17268628275E+03  0.17120000000E+03 0.  0.
        998    1    1    2    0    0 -0.38383853845E+01 -0.89093349812E+01  0.14216439635E+04  0.14217122312E+04  0.10000000000E+02 0. -1.
</event>
<event>
 5    1  0.1147307E-008  0.3808262E+03  0.7957747E-01  0.3447569E+00
         13   -1    0    0    0    0  0.00000000000E+00  0.00000000000E+00  0.14999999963E+04  0.15000000000E+04  0.10566000000E+00 0. -1.
        994   -1    0    0    0    0 -0.00000000000E+00 -0.00000000000E+00  0.11368683772E-12  0.17120000000E+03  0.17120000000E+03 0.  0.
         13    1    1    2    0    0  0.11306624600E+02 -0.62861769851E+00  0.16447972971E+02  0.19969524255E+02  0.10566000000E+00 0. -1.
        994    1    1    2    0    0  0.11178703481E+02  0.15407994213E+02  0.49256468948E+01  0.17232548185E+03  0.17120000000E+03 0.  0.
        998    1    1    2    0    0 -0.22485328081E+02 -0.14779376514E+02  0.14786263764E+04  0.14789049939E+04  0.10000000000E+02 0. -1.
</event>
<event>
 5    1  0.1147307E-008  0.3837984E+03  0.7957747E-01  0.3434784E+00
         13   -1    0    0    0    0  0.00000000000E+00  0.00000000000E+00  0.14999999963E+04  0.15000000000E+04  0.10566000000E+00 0. -1.
        994   -1    0    0    0    0 -0.00000000000E+00 -0.00000000000E+00  0.11368683772E-12  0.17120000000E+03  0.17120000000E+03 0.  0.
         13    1    1    2    0    0 -0.10008248853E+02  0.13524256265E+02  0.60626150182E+02  0.62917499971E+02  0.10566000000E+00 0. -1.
        994    1    1    2    0    0  0.77825582989E+01 -0.17043818660E+02  0.33877596849E+01  0.17225555690E+03  0.17120000000E+03 0.  0.
        998    1    1    2    0    0  0.22256905536E+01  0.35195623957E+01  0.14359860864E+04  0.14360269431E+04  0.10000000000E+02 0. -1.
</event>
<event>
 5    1  0.1147307E-008  0.3704779E+03  0.7957747E-01  0.3493697E+00
         13   -1    0    0    0    0  0.00000000000E+00  0.00000000000E+00  0.14999999963E+04  0.15000000000E+04  0.10566000000E+00 0.  1.
        994   -1    0    0    0    0 -0.00000000000E+00 -0.00000000000E+00  0.11368683772E-12  0.17120000000E+03  0.17120000000E+03 0.  0.
         13    1    1    2    0    0 -0.29807661334E+02 -0.11144500676E+02  0.56701456151E+02  0.65021249320E+02  0.10566000000E+00 0.  1.
        994    1    1    2    0    0 -0.51929078791E+01  0.42820636602E+01  0.91758910908E+01  0.17157779384E+03  0.17120000000E+03 0.  0.
        998    1    1    2    0    0  0.35000569213E+02  0.68624370156E+01  0.14341226490E+04  0.14346009568E+04  0.10000000000E+02 0.  1.
</event>
<event>
 5    1  0.1147307E-008  0.3850394E+03  0.7957747E-01  0.3429505E+00
         13   -1    0    0    0    0  0.00000000000E+00  0.00000000000E+00  0.14999999963E+04  0.15000000000E+04  0.10566000000E+00 0.  1.
        994   -1    0    0    0    0 -0.00000000000E+00 -0.00000000000E+00  0.11368683772E-12  0.17120000000E+03  0.17120000000E+03 0.  0.
         13    1    1    2    0    0 -0.25429777560E+02  0.54703026154E+02  0.82966982475E+02  0.10257985183E+03  0.10566000000E+00 0.  1.
        994    1    1    2    0    0  0.22921635675E+02 -0.60599058299E+02  0.34790037741E+02  0.18632614947E+03  0.17120000000E+03 0.  0.
        998    1    1    2    0    0  0.25081418847E+01  0.58960321453E+01  0.13822429761E+04  0.13822939987E+04  0.10000000000E+02 0. -1.
</event>
<event>
 5    1  0.1147307E-008  0.3734502E+03  0.7957747E-01  0.3480183E+00
         13   -1    0    0    0    0  0.00000000000E+00  0.00000000000E+00  0.14999999963E+04  0.15000000000E+04  0.10566000000E+00 0.  1.
        994   -1    0    0    0    0 -0.00000000000E+00 -0.00000000000E+00  0.11368683772E-12  0.17120000000E+03  0.17120000000E+03 0.  0.
         13    1    1    2    0    0 -0.56591418929E+01 -0.15341175637E+02  0.14406843086E+02  0.21793252364E+02  0.10566000000E+00 0.  1.
        994    1    1    2    0    0  0.50265185475E+01  0.16782520403E+02  0.85262173002E+01  0.17230512256E+03  0.17120000000E+03 0.  0.
        998    1    1    2    0    0  0.63262334542E+00 -0.14413447662E+01  0.14770669359E+04  0.14771016251E+04  0.10000000000E+02 0.  1.
</event>
<event>
 5    1  0.1147307E-008  0.3839816E+03  0.7957747E-01  0.3434003E+00
         13   -1    0    0    0    0  0.00000000000E+00  0.00000000000E+00  0.14999999963E+04  0.15000000000E+04  0.10566000000E+00 0. -1.
        994   -1    0    0    0    0 -0.00000000000E+00 -0.00000000000E+00  0.11368683772E-12  0.17120000000E+03  0.17120000000E+03 0.  0.
         13    1    1    2    0    0  0.13918525879E+02 -0.70723887876E+01  0.56303039425E+02  0.58427625814E+02  0.10566000000E+00 0. -1.
        994    1    1    2    0    0 -0.63039874780E+01  0.12514173985E+02  0.27847277532E+01  0.17179505091E+03  0.17120000000E+03 0.  0.
        998    1    1    2    0    0 -0.76145384012E+01 -0.54417851976E+01  0.14409122291E+04  0.14409773233E+04  0.10000000000E+02 0. -1.
</event>
<event>
 5    1  0.1147307E-008  0.3843431E+03  0.7957747E-01  0.3432463E+00
         13   -1    0    0    0    0  0.00000000000E+00  0.00000000000E+00  0.14999999963E+04  0.15000000000E+04  0.10566000000E+00 0. -1.
        994   -1    0    0    0    0 -0.00000000000E+00 -0.00000000000E+00  0.11368683772E-12  0.17120000000E+03  0.17120000000E+03 0.  0.
         13    1    1    2    0    0  0.10311497681E+03  0.22835111611E+02  0.30629586564E+03  0.32399276108E+03  0.10566000000E+00 0. -1.
        994    1    1    2    0    0 -0.47491966402E+02 -0.41149496151E+02  0.33422483636E+02  0.18540569117E+03  0.17120000000E+03 0.  0.
        998    1    1    2    0    0 -0.55623010404E+02  0.18314384540E+02  0.11602816470E+04  0.11618015477E+04  0.10000000000E+02 0. -1.
</event>
<event>
 5    1  0.1147307E-008  0.3754319E+03  0.7957747E-01  0.3471293E+00
         13   -1    0    0    0    0  0.00000000000E+00  0.00000000000E+00  0.14999999963E+04  0.15000000000E+04  0.10566000000E+00 0.  1.
        994   -1    0    0    0    0 -0.00000000000E+00 -0.00000000000E+00  0.11368683772E-12  0.17120000000E+03  0.17120000000E+03 0.  0.
         13    1    1    2    0    0  0.23631077620E+02  0.87440681603E+01  0.48943930108E+02  0.55049123662E+02  0.10566000000E+00 0.  1.
        994    1    1    2    0    0  0.50124802247E+01 -0.17475514305E+02  0.75797571533E+01  0.17232936858E+03  0.17120000000E+03 0.  0.
        998    1    1    2    0    0 -0.28643557845E+02  0.87314461444E+01  0.14434763090E+04  0.14438215078E+04  0.10000000000E+02 0.  1.
</event>
<event>
 5    1  0.1147307E-008  0.3856607E+03  0.7957747E-01  0.3426875E+00
         13   -1    0    0    0    0  0.00000000000E+00  0.00000000000E+00  0.14999999963E+04  0.15000000000E+04  0.10566000000E+00 0. -1.
        994   -1    0    0    0    0 -0.00000000000E+00 -0.00000000000E+00  0.11368683772E-12  0.17120000000E+03  0.17120000000E+03 0.  0.
         13    1    1    2    0    0 -0.63495883899E-01  0.14450635709E+02  0.78754721860E+02  0.80069608987E+02  0.10566000000E+00 0. -1.
        994    1    1    2    0    0  0.37039170804E+01 -0.12648284126E+02  0.18726806119E+01  0.17171675814E+03  0.17120000000E+03 0.  0.
        998    1    1    2    0    0 -0.36404211965E+01 -0.18023515832E+01  0.14193725938E+04  0.14194136329E+04  0.10000000000E+02 0. -1.
</event>
<event>
 5    1  0.1147307E-008  0.3842776E+03  0.7957747E-01  0.3432742E+00
         13   -1    0    0    0    0  0.00000000000E+00  0.00000000000E+00  0.14999999963E+04  0.15000000000E+04  0.10566000000E+00 0. -1.
        994   -1    0    0    0    0 -0.00000000000E+00 -0.00000000000E+00  0.11368683772E-12  0.17120000000E+03  0.17120000000E+03 0.  0.
         13    1    1    2    0    0  0.16497917471E+02  0.70624999966E+01  0.91040946233E+02  0.92792915904E+02  0.10566000000E+00 0. -1.
        994    1    1    2    0    0  0.15817335328E+02 -0.25046193370E+02  0.48871348321E+01  0.17381261170E+03  0.17120000000E+03 0.  0.
        998    1    1    2    0    0 -0.32315252799E+02  0.17983693373E+02  0.14040719152E+04  0.14045944724E+04  0.10000000000E+02 0. -1.
</event>
<event>
 5    1  0.1147307E-008  0.3815731E+03  0.7957747E-01  0.3444337E+00
         13   -1    0    0    0    0  0.00000000000E+00  0.00000000000E+00  0.14999999963E+04  0.15000000000E+04  0.10566000000E+00 0. -1.
        994   -1    0    0    0    0 -0.00000000000E+00 -0.00000000000E+00  0.11368683772E-12  0.17120000000E+03  0.17120000000E+03 0.  0.
         13    1    1    2    0    0  0.11566857776E+02  0.93800292883E+01  0.32194017331E+02  0.35471722036E+02  0.10566000000E+00 0. -1.
        994    1    1    2    0    0 -0.26399840062E+01 -0.90881967280E+01  0.36390845072E+01  0.17149999350E+03  0.17120000000E+03 0.  0.
        998    1    1    2    0    0 -0.89268737696E+01 -0.29183256033E+00  0.14641668944E+04  0.14642282845E+04  0.10000000000E+02 0. -1.
</event>
<event>
 5    1  0.1147307E-008  0.3693232E+03  0.7957747E-01  0.3499007E+00
         13   -1    0    0    0    0  0.00000000000E+00  0.00000000000E+00  0.14999999963E+04  0.15000000000E+04  0.10566000000E+00 0. -1.
        994   -1    0    0    0    0 -0.00000000000E+00 -0.00000000000E+00  0.11368683772E-12  0.17120000000E+03  0.17120000000E+03 0.  0.
         13    1    1    2    0    0  0.59391657996E+01  0.13549369534E+03  0.57058915849E+03  0.58648598799E+03  0.10566000000E+00 0. -1.
        994    1    1    2    0    0  0.19859570035E+02 -0.12677921804E+03  0.70438315536E+02  0.22525179010E+03  0.17120000000E+03 0.  0.
        998    1    1    2    0    0 -0.25798735834E+02 -0.87144773011E+01  0.85897252226E+03  0.85946222190E+03  0.10000000000E+02 0. -1.
</event>
<event>
 5    1  0.1147307E-008  0.3799780E+03  0.7957747E-01  0.3451254E+00
         13   -1    0    0    0    0  0.00000000000E+00  0.00000000000E+00  0.14999999963E+04  0.15000000000E+04  0.10566000000E+00 0.  1.
        994   -1    0    0    0    0 -0.00000000000E+00 -0.00000000000E+00  0.11368683772E-12  0.17120000000E+03  0.17120000000E+03 0.  0.
         13    1    1    2    0    0  0.36371214833E+02  0.53427298026E+01  0.15360436083E+03  0.15794214402E+03  0.10566000000E+00 0.  1.
        994    1    1    2    0    0 -0.27966977996E+02 -0.13896279963E+02  0.74115614614E+01  0.17418274799E+03  0.17120000000E+03 0.  0.
        998    1    1    2    0    0 -0.84042368373E+01  0.85535501601E+01  0.13389840740E+04  0.13390751080E+04  0.10000000000E+02 0.  1.
</event>
<event>
 5    1  0.1147307E-008  0.3848154E+03  0.7957747E-01  0.3430455E+00
         13   -1    0    0    0    0  0.00000000000E+00  0.00000000000E+00  0.14999999963E+04  0.15000000000E+04  0.10566000000E+00 0. -1.
        994   -1    0    0    0    0 -0.00000000000E+00 -0.00000000000E+00  0.11368683772E-12  0.17120000000E+03  0.17120000000E+03 0.  0.
         13    1    1    2    0    0 -0.13163829643E+02 -0.99548454633E+01  0.73416846814E+02  0.75249119060E+02  0.10566000000E+00 0. -1.
        994    1    1    2    0    0  0.17580044657E+02  0.13458644063E+02  0.33365063610E+01  0.17265794318E+03  0.17120000000E+03 0.  0.
        998    1    1    2    0    0 -0.44162150143E+01 -0.35037985995E+01  0.14232466431E+04  0.14232929378E+04  0.10000000000E+02 0. -1.
</event>
<event>
 5    1  0.1147307E-008  0.3719411E+03  0.7957747E-01  0.3487017E+00
         13   -1    0    0    0    0  0.00000000000E+00  0.00000000000E+00  0.14999999963E+04  0.15000000000E+04  0.10566000000E+00 0.  1.
        994   -1    0    0    0    0 -0.00000000000E+00 -0.00000000000E+00  0.11368683772E-12  0.17120000000E+03  0.17120000000E+03 0.  0.
         13    1    1    2    0    0 -0.61532270679E+02  0.24952602846E+02  0.32971983038E+03  0.33633915983E+03  0.10566000000E+00 0.  1.
        994    1    1    2    0    0  0.72217197098E+01 -0.57829769239E+01  0.85520633197E+01  0.17166296585E+03  0.17120000000E+03 0.  0.
        998    1    1    2    0    0  0.54310550969E+02 -0.19169625922E+02  0.11617281026E+04  0.11631978743E+04  0.10000000000E+02 0.  1.
</event>
<event>
 5    1  0.1147307E-008  0.3738355E+03  0.7957747E-01  0.3478447E+00
         13   -1    0    0    0    0  0.00000000000E+00  0.00000000000E+00  0.14999999963E+04  0.15000000000E+04  0.10566000000E+00 0.  1.
        994   -1    0    0    0    0 -0.00000000000E+00 -0.00000000000E+00  0.11368683772E-12  0.17120000000E+03  0.17120000000E+03 0.  0.
         13    1    1    2    0    0  0.20519912193E+02  0.92977483446E+01  0.31797058930E+02  0.38968949708E+02  0.10566000000E+00 0.  1.
        994    1    1    2    0    0 -0.36327234569E+02  0.43668327919E+02  0.18370115982E+02  0.18131048507E+03  0.17120000000E+03 0.  0.
        998    1    1    2    0    0  0.15807322375E+02 -0.52966076264E+02  0.14498328214E+04  0.14509205652E+04  0.10000000000E+02 0.  1.
</event>
<event>
 5    1  0.1147307E-008  0.3869166E+03  0.7957747E-01  0.3421584E+00
         13   -1    0    0    0    0  0.00000000000E+00  0.00000000000E+00  0.14999999963E+04  0.15000000000E+04  0.10566000000E+00 0. -1.
        994   -1    0    0    0    0 -0.00000000000E+00 -0.00000000000E+00  0.11368683772E-12  0.17120000000E+03  0.17120000000E+03 0.  0.
         13    1    1    2    0    0 -0.74781499320E+02 -0.35467365434E+02  0.18998094387E+03  0.20722687290E+03  0.10566000000E+00 0. -1.
        994    1    1    2    0    0  0.51903351516E+01  0.23634097425E+02  0.22359452159E+02  0.17434131823E+03  0.17120000000E+03 0.  0.
        998    1    1    2    0    0  0.69591164168E+02  0.11833268009E+02  0.12876596002E+04  0.12896318089E+04  0.10000000000E+02 0. -1.
</event>
<event>
 5    1  0.1147307E-008  0.3840300E+03  0.7957747E-01  0.3433796E+00
         13   -1    0    0    0    0  0.00000000000E+00  0.00000000000E+00  0.14999999963E+04  0.15000000000E+04  0.10566000000E+00 0. -1.
        994   -1    0    0    0    0 -0.00000000000E+00 -0.00000000000E+00  0.11368683772E-12  0.17120000000E+03  0.17120000000E+03 0.  0.
         13    1    1    2    0    0  0.17243062854E+02 -0.33041286802E+01  0.71101474764E+02  0.73237090061E+02  0.10566000000E+00 0. -1.
        994    1    1    2    0    0 -0.14645417135E+02  0.21355892855E+01  0.28354643126E+01  0.17186194705E+03  0.17120000000E+03 0.  0.
        998    1    1    2    0    0 -0.25976457192E+01  0.11685393948E+01  0.14260630572E+04  0.14261009629E+04  0.10000000000E+02 0. -1.
</event>
<event>
 5    1  0.1147307E-008  0.3432133E+03  0.7957747E-01  0.3628847E+00
         13   -1    0    0    0    0  0.00000000000E+00  0.00000000000E+00  0.14999999963E+04  0.15000000000E+04  0.10566000000E+00 0.  1.
        994   -1    0    0    0    0 -0.00000000000E+00 -0.00000000000E+00  0.11368683772E-12  0.17120000000E+03  0.17120000000E+03 0.  0.
         13    1    1    2    0    0  0.25985517183E+03  0.12159883170E+03  0.53154819440E+03  0.60403185374E+03  0.10566000000E+00 0.  1.
        994    1    1    2    0    0 -0.26729904751E+03 -0.15749756683E+03  0.60046572369E+03  0.69722506386E+03  0.17120000000E+03 0.  0.
        998    1    1    2    0    0  0.74438756750E+01  0.35898735128E+02  0.36798607819E+03  0.36994308240E+03  0.10000000000E+02 0. -1.
</event>
<event>
 5    1  0.1147307E-008  0.3840386E+03  0.7957747E-01  0.3433760E+00
         13   -1    0    0    0    0  0.00000000000E+00  0.00000000000E+00  0.14999999963E+04  0.15000000000E+04  0.10566000000E+00 0.  1.
        994   -1    0    0    0    0 -0.00000000000E+00 -0.00000000000E+00  0.11368683772E-12  0.17120000000E+03  0.17120000000E+03 0.  0.
         13    1    1    2    0    0 -0.53395683649E+01  0.22648615398E+02  0.12569404193E+03  0.12782986392E+03  0.10566000000E+00 0.  1.
        994    1    1    2    0    0  0.62859619773E+01 -0.15590869911E+02  0.30409830953E+01  0.17205021395E+03  0.17120000000E+03 0.  0.
        998    1    1    2    0    0 -0.94639361236E+00 -0.70577454872E+01  0.13712649713E+04  0.13713199221E+04  0.10000000000E+02 0.  1.
</event>
<event>
 5    1  0.1147307E-008  0.3825737E+03  0.7957747E-01  0.3440028E+00
         13   -1    0    0    0    0  0.00000000000E+00  0.00000000000E+00  0.14999999963E+04  0.15000000000E+04  0.10566000000E+00 0.  1.
        994   -1    0    0    0    0 -0.00000000000E+00 -0.00000000000E+00  0.11368683772E-12  0.17120000000E+03  0.17120000000E+03 0.  0.
         13    1    1    2    0    0  0.16871957908E+02 -0.51731329307E+01  0.51819088789E+02  0.54741697041E+02  0.10566000000E+00 0.  1.
        994    1    1    2    0    0 -0.28761549570E+02 -0.21994009291E+02  0.71972216084E+01  0.17513481429E+03  0.17120000000E+03 0.  0.
        998    1    1    2    0    0  0.11889591662E+02  0.27167142222E+02  0.14409836859E+04  0.14413234887E+04  0.10000000000E+02 0.  1.
</event>
<event>
 5    1  0.1147307E-008  0.3835196E+03  0.7957747E-01  0.3435975E+00
         13   -1    0    0    0    0  0.00000000000E+00  0.00000000000E+00  0.14999999963E+04  0.15000000000E+04  0.10566000000E+00 0. -1.
        994   -1    0    0    0    0 -0.00000000000E+00 -0.00000000000E+00  0.11368683772E-12  0.17120000000E+03  0.17120000000E+03 0.  0.
         13    1    1    2    0    0  0.93505778724E+01 -0.95932764792E+01  0.36800721204E+02  0.39163356666E+02  0.10566000000E+00 0. -1.
        994    1    1    2    0    0 -0.10264923279E+02  0.64821483592E+01  0.28541120771E+01  0.17165364212E+03  0.17120000000E+03 0.  0.
        998    1    1    2    0    0  0.91434540694E+00  0.31111281200E+01  0.14603451630E+04  0.14603830012E+04  0.10000000000E+02 0. -1.
</event>
<event>
 5    1  0.1147307E-008  0.3736599E+03  0.7957747E-01  0.3479238E+00
         13   -1    0    0    0    0  0.00000000000E+00  0.00000000000E+00  0.14999999963E+04  0.15000000000E+04  0.10566000000E+00 0.  1.
        994   -1    0    0    0    0 -0.00000000000E+00 -0.00000000000E+00  0.11368683772E-12  0.17120000000E+03  0.17120000000E+03 0.  0.
         13    1    1    2    0    0  0.25543913515E+02 -0.12374248681E+02  0.52490973294E+02  0.59673503245E+02  0.10566000000E+00 0.  1.
        994    1    1    2    0    0 -0.13799689052E+02  0.48409522033E+01  0.80991330341E+01  0.17201424997E+03  0.17120000000E+03 0.  0.
        998    1    1    2    0    0 -0.11744224462E+02  0.75332964774E+01  0.14394098900E+04  0.14395122468E+04  0.10000000000E+02 0.  1.
</event>
<event>
 5    1  0.1147307E-008  0.3815415E+03  0.7957747E-01  0.3444474E+00
         13   -1    0    0    0    0  0.00000000000E+00  0.00000000000E+00  0.14999999963E+04  0.15000000000E+04  0.10566000000E+00 0.  1.
        994   -1    0    0    0    0 -0.00000000000E+00 -0.00000000000E+00  0.11368683772E-12  0.17120000000E+03  0.17120000000E+03 0.  0.
         13    1    1    2    0    0 -0.43659252451E+01  0.18166358671E+02  0.50957927322E+02  0.54275219130E+02  0.10566000000E+00 0.  1.
        994    1    1    2    0    0  0.38690581919E+01 -0.10941796506E+02  0.38051380746E+01  0.17163511179E+03  0.17120000000E+03 0.  0.
        998    1    1    2    0    0  0.49686705328E+00 -0.72245621656E+01  0.14452369309E+04  0.14452896691E+04  0.10000000000E+02 0.  1.
</event>
<event>
 5    1  0.1147307E-008  0.3702089E+03  0.7957747E-01  0.3494931E+00
         13   -1    0    0    0    0  0.00000000000E+00  0.00000000000E+00  0.14999999963E+04  0.15000000000E+04  0.10566000000E+00 0. -1.
        994   -1    0    0    0    0 -0.00000000000E+00 -0.00000000000E+00  0.11368683772E-12  0.17120000000E+03  0.17120000000E+03 0.  0.
         13    1    1    2    0    0 -0.13992739358E+02  0.39937494834E+01  0.79446921603E+01  0.16579387421E+02  0.10566000000E+00 0. -1.
        994    1    1    2    0    0 -0.19772192035E+02 -0.18222438722E+01  0.10523318345E+02  0.17266858539E+03  0.17120000000E+03 0.  0.
        998    1    1    2    0    0  0.33764931394E+02 -0.21715056112E+01  0.14815319858E+04  0.14819520272E+04  0.10000000000E+02 0. -1.
</event>
<event>
 5    1  0.1147307E-008  0.2614421E+03  0.7957747E-01  0.4216626E+00
         13   -1    0    0    0    0  0.00000000000E+00  0.00000000000E+00  0.14999999963E+04  0.15000000000E+04  0.10566000000E+00 0.  1.
        994   -1    0    0    0    0 -0.00000000000E+00 -0.00000000000E+00  0.11368683772E-12  0.17120000000E+03  0.17120000000E+03 0.  0.
         13    1    1    2    0    0 -0.12550869115E+03 -0.17060319919E+03  0.45717793224E+03  0.50385469732E+03  0.10566000000E+00 0.  1.
        994    1    1    2    0    0  0.82463361512E+02  0.84855662653E+02  0.12149023683E+03  0.24097719212E+03  0.17120000000E+03 0.  0.
        998    1    1    2    0    0  0.43045329636E+02  0.85747536537E+02  0.92133182721E+03  0.92636811056E+03  0.10000000000E+02 0. -1.
</event>
<event>
 5    1  0.1147307E-008  0.3767641E+03  0.7957747E-01  0.3465371E+00
         13   -1    0    0    0    0  0.00000000000E+00  0.00000000000E+00  0.14999999963E+04  0.15000000000E+04  0.10566000000E+00 0. -1.
        994   -1    0    0    0    0 -0.00000000000E+00 -0.00000000000E+00  0.11368683772E-12  0.17120000000E+03  0.17120000000E+03 0.  0.
         13    1    1    2    0    0  0.11376637164E+02  0.27918199550E+02  0.78363074905E+02  0.83962112955E+02  0.10566000000E+00 0. -1.
        994    1    1    2    0    0 -0.17975959144E+02 -0.68614545437E+01  0.70275922051E+01  0.17242111738E+03  0.17120000000E+03 0.  0.
        998    1    1    2    0    0  0.65993219799E+01 -0.21056745006E+02  0.14146093292E+04  0.14148167697E+04  0.10000000000E+02 0. -1.
</event>
<event>
 5    1  0.1147307E-008  0.3821991E+03  0.7957747E-01  0.3441639E+00
         13   -1    0    0    0    0  0.00000000000E+00  0.00000000000E+00  0.14999999963E+04  0.15000000000E+04  0.10566000000E+00 0.  1.
        994   -1    0    0    0    0 -0.00000000000E+00 -0.00000000000E+00  0.11368683772E-12  0.17120000000E+03  0.17120000000E+03 0.  0.
         13    1    1    2    0    0  0.27913993025E+02 -0.53175201625E+01  0.12686346615E+03  0.13000698918E+03  0.10566000000E+00 0.  1.
        994    1    1    2    0    0 -0.22836324625E+02  0.58617186820E+01  0.48741027338E+01  0.17288451158E+03  0.17120000000E+03 0.  0.
        998    1    1    2    0    0 -0.50776684000E+01 -0.54419851950E+00  0.13682624274E+04  0.13683084992E+04  0.10000000000E+02 0.  1.
</event>
<event>
 5    1  0.1147307E-008  0.3816102E+03  0.7957747E-01  0.3444177E+00
         13   -1    0    0    0    0  0.00000000000E+00  0.00000000000E+00  0.14999999963E+04  0.15000000000E+04  0.10566000000E+00 0.  1.
        994   -1    0    0    0    0 -0.00000000000E+00 -0.00000000000E+00  0.11368683772E-12  0.17120000000E+03  0.17120000000E+03 0.  0.
         13    1    1    2    0    0 -0.29792377625E+02  0.18290622754E+01  0.15410006601E+03  0.15696424033E+03  0.10566000000E+00 0.  1.
        994    1    1    2    0    0 -0.28986965135E+01 -0.64486132014E+01  0.34887892307E+01  0.17138144212E+03  0.17120000000E+03 0.  0.
        998    1    1    2    0    0  0.32691074138E+02  0.46195509260E+01  0.13424111410E+04  0.13428543176E+04  0.10000000000E+02 0.  1.
</event>
<event>
 5    1  0.1147307E-008  0.3826385E+03  0.7957747E-01  0.3439750E+00
         13   -1    0    0    0    0  0.00000000000E+00  0.00000000000E+00  0.14999999963E+04  0.15000000000E+04  0.10566000000E+00 0. -1.
        994   -1    0    0    0    0 -0.00000000000E+00 -0.00000000000E+00  0.11368683772E-12  0.17120000000E+03  0.17120000000E+03 0.  0.
         13    1    1    2    0    0 -0.11896948053E+02 -0.67599014811E+01  0.32409681827E+02  0.35179998311E+02  0.10566000000E+00 0. -1.
        994    1    1    2    0    0  0.99911943591E+01  0.70552697684E+00  0.31396933900E+01  0.17152148381E+03  0.17120000000E+03 0.  0.
        998    1    1    2    0    0  0.19057536941E+01  0.60543745042E+01  0.14644506211E+04  0.14644985179E+04  0.10000000000E+02 0. -1.
</event>
<event>
 5    1  0.1147307E-008  0.3758026E+03  0.7957747E-01  0.3469641E+00
         13   -1    0    0    0    0  0.00000000000E+00  0.00000000000E+00  0.14999999963E+04  0.15000000000E+04  0.10566000000E+00 0. -1.
        994   -1    0    0    0    0 -0.00000000000E+00 -0.00000000000E+00  0.11368683772E-12  0.17120000000E+03  0.17120000000E+03 0.  0.
         13    1    1    2    0    0  0.15954159395E+02  0.13841303144E+03  0.64364772437E+03  0.65855531789E+03  0.10566000000E+00 0. -1.
        994    1    1    2    0    0 -0.39730728643E+02 -0.15407608981E+03  0.97587325571E+02  0.25327988148E+03  0.17120000000E+03 0.  0.
        998    1    1    2    0    0  0.23776569248E+02  0.15663058373E+02  0.75876494634E+03  0.75936480063E+03  0.10000000000E+02 0. -1.
</event>
<event>
 5    1  0.1147307E-008  0.3817364E+03  0.7957747E-01  0.3443633E+00
         13   -1    0    0    0    0  0.00000000000E+00  0.00000000000E+00  0.14999999963E+04  0.15000000000E+04  0.10566000000E+00 0. -1.
        994   -1    0    0    0    0 -0.00000000000E+00 -0.00000000000E+00  0.11368683772E-12  0.17120000000E+03  0.17120000000E+03 0.  0.
         13    1    1    2    0    0  0.19110897272E+02  0.54194827267E+01  0.39305450066E+01  0.20249877423E+02  0.10566000000E+00 0. -1.
        994    1    1    2    0    0 -0.10347686578E+02  0.22794269460E+02  0.19572780202E+02  0.17412405653E+03  0.17120000000E+03 0.  0.
        998    1    1    2    0    0 -0.87632106939E+01 -0.28213752187E+02  0.14764966711E+04  0.14768260660E+04  0.10000000000E+02 0. -1.
</event>
<event>
 5    1  0.1147307E-008  0.3805486E+03  0.7957747E-01  0.3448773E+00
         13   -1    0    0    0    0  0.00000000000E+00  0.00000000000E+00  0.14999999963E+04  0.15000000000E+04  0.10566000000E+00 0.  1.
        994   -1    0    0    0    0 -0.00000000000E+00 -0.00000000000E+00  0.11368683772E-12  0.17120000000E+03  0.17120000000E+03 0.  0.
         13    1    1    2    0    0  0.33986720452E+02 -0.23543682116E+01  0.13832436440E+03  0.14245799790E+03  0.10566000000E+00 0.  1.
        994    1    1    2    0    0 -0.32592137369E+02 -0.20420355697E+01  0.74231233007E+01  0.17444471929E+03  0.17120000000E+03 0.  0.
        998    1    1    2    0    0 -0.13945830837E+01  0.43964037813E+01  0.13542525086E+04  0.13542972828E+04  0.10000000000E+02 0.  1.
</event>
<event>
 5    1  0.1147307E-008  0.3827237E+03  0.7957747E-01  0.3439384E+00
         13   -1    0    0    0    0  0.00000000000E+00  0.00000000000E+00  0.14999999963E+04  0.15000000000E+04  0.10566000000E+00 0.  1.
        994   -1    0    0    0    0 -0.00000000000E+00 -0.00000000000E+00  0.11368683772E-12  0.17120000000E+03  0.17120000000E+03 0.  0.
         13    1    1    2    0    0  0.19798534419E+02 -0.56517616680E+01  0.70253507229E+02  0.73208543334E+02  0.10566000000E+00 0.  1.
        994    1    1    2    0    0 -0.26767361014E+02  0.84172917933E+01  0.53774308110E+01  0.17356756373E+03  0.17120000000E+03 0.  0.
        998    1    1    2    0    0  0.69688265950E+01 -0.27655301253E+01  0.14243690582E+04  0.14244238929E+04  0.10000000000E+02 0.  1.
</event>
<event>
 5    1  0.1147307E-008  0.3847583E+03  0.7957747E-01  0.3430698E+00
         13   -1    0    0    0    0  0.00000000000E+00  0.00000000000E+00  0.14999999963E+04  0.15000000000E+04  0.10566000000E+00 0.  1.
        994   -1    0    0    0    0 -0.00000000000E+00 -0.00000000000E+00  0.11368683772E-12  0.17120000000E+03  0.17120000000E+03 0.  0.
         13    1    1    2    0    0  0.17587178479E+02 -0.34087254259E+01  0.90777293475E+02  0.92528138588E+02  0.10566000000E+00 0.  1.
        994    1    1    2    0    0 -0.11876876980E+02  0.57253201985E+01  0.23225403943E+01  0.17172266505E+03  0.17120000000E+03 0.  0.
        998    1    1    2    0    0 -0.57103014996E+01 -0.23165947726E+01  0.14069001624E+04  0.14069491964E+04  0.10000000000E+02 0.  1.
</event>
<event>
 5    1  0.1147307E-008  0.3820879E+03  0.7957747E-01  0.3442118E+00
         13   -1    0    0    0    0  0.00000000000E+00  0.00000000000E+00  0.14999999963E+04  0.15000000000E+04  0.10566000000E+00 0.  1.
        994   -1    0    0    0    0 -0.00000000000E+00 -0.00000000000E+00  0.11368683772E-12  0.17120000000E+03  0.17120000000E+03 0.  0.
         13    1    1    2    0    0 -0.12694991459E+02 -0.32893657020E+02  0.16967747749E+03  0.17330208600E+03  0.10566000000E+00 0.  1.
        994    1    1    2    0    0  0.16123795956E+02  0.39806689959E+02  0.92311430044E+01  0.17674615516E+03  0.17120000000E+03 0.  0.
        998    1    1    2    0    0 -0.34288044969E+01 -0.69130329397E+01  0.13210913758E+04  0.13211517588E+04  0.10000000000E+02 0.  1.
</event>
<event>
 5    1  0.1147307E-008  0.3687545E+03  0.7957747E-01  0.3501635E+00
         13   -1    0    0    0    0  0.00000000000E+00  0.00000000000E+00  0.14999999963E+04  0.15000000000E+04  0.10566000000E+00 0.  1.
        994   -1    0    0    0    0 -0.00000000000E+00 -0.00000000000E+00  0.11368683772E-12  0.17120000000E+03  0.17120000000E+03 0.  0.
         13    1    1    2    0    0 -0.29515190345E+02  0.28475051169E+02  0.82666655668E+02  0.92280887098E+02  0.10566000000E+00 0.  1.
        994    1    1    2    0    0  0.76506543748E+00 -0.29485341396E+02  0.12948558012E+02  0.17420412118E+03  0.17120000000E+03 0.  0.
        998    1    1    2    0    0  0.28750124908E+02  0.10102902273E+01  0.14043847826E+04  0.14047149917E+04  0.10000000000E+02 0.  1.
</event>
<event>
 5    1  0.1147307E-008  0.3838185E+03  0.7957747E-01  0.3434699E+00
         13   -1    0    0    0    0  0.00000000000E+00  0.00000000000E+00  0.14999999963E+04  0.15000000000E+04  0.10566000000E+00 0. -1.
        994   -1    0    0    0    0 -0.00000000000E+00 -0.00000000000E+00  0.11368683772E-12  0.17120000000E+03  0.17120000000E+03 0.  0.
         13    1    1    2    0    0  0.28807524750E+01  0.20135919004E+02  0.91168860852E+02  0.93410525756E+02  0.10566000000E+00 0. -1.
        994    1    1    2    0    0 -0.10842419531E+02 -0.14256733195E+02  0.32776830522E+01  0.17216560548E+03  0.17120000000E+03 0.  0.
        998    1    1    2    0    0  0.79616670557E+01 -0.58791858090E+01  0.14055534524E+04  0.14056238688E+04  0.10000000000E+02 0. -1.
</event>
<event>
 5    1  0.1147307E-008  0.3816614E+03  0.7957747E-01  0.3443956E+00
         13   -1    0    0    0    0  0.00000000000E+00  0.00000000000E+00  0.14999999963E+04  0.15000000000E+04  0.10566000000E+00 0. -1.
        994   -1    0    0    0    0 -0.00000000000E+00 -0.00000000000E+00  0.11368683772E-12  0.17120000000E+03  0.17120000000E+03 0.  0.
         13    1    1    2    0    0 -0.18112464123E+02 -0.87540173020E+01  0.63106324927E+02  0.66235289577E+02  0.10566000000E+00 0. -1.
        994    1    1    2    0    0 -0.60292417210E+00  0.78681017935E+01  0.35038720422E+01  0.17141758271E+03  0.17120000000E+03 0.  0.
        998    1    1    2    0    0  0.18715388295E+02  0.88591550851E+00  0.14333897993E+04  0.14335471277E+04  0.10000000000E+02 0. -1.
</event>
<event>
 5    1  0.1147307E-008  0.3788811E+03  0.7957747E-01  0.3456045E+00
         13   -1    0    0    0    0  0.00000000000E+00  0.00000000000E+00  0.14999999963E+04  0.15000000000E+04  0.10566000000E+00 0.  1.
        994   -1    0    0    0    0 -0.00000000000E+00 -0.00000000000E+00  0.11368683772E-12  0.17120000000E+03  0.17120000000E+03 0.  0.
         13    1    1    2    0    0 -0.87624844524E+01  0.45975777091E+02  0.62125524561E+02  0.77782679171E+02  0.10566000000E+00 0.  1.
        994    1    1    2    0    0  0.94896920760E+01 -0.42445993705E+02  0.22571903669E+02  0.17807483672E+03  0.17120000000E+03 0.  0.
        998    1    1    2    0    0 -0.72720762357E+00 -0.35297833860E+01  0.14153025680E+04  0.14153424841E+04  0.10000000000E+02 0.  1.
</event>
<event>
 5    1  0.1147307E-008  0.3854984E+03  0.7957747E-01  0.3427561E+00
         13   -1    0    0    0    0  0.00000000000E+00  0.00000000000E+00  0.14999999963E+04  0.15000000000E+04  0.10566000000E+00 0. -1.
        994   -1    0    0    0    0 -0.00000000000E+00 -0.00000000000E+00  0.11368683772E-12  0.17120000000E+03  0.17120000000E+03 0.  0.
         13    1    1    2    0    0 -0.94695614571E+00  0.14724187767E+02  0.79018960570E+02  0.80384735647E+02  0.10566000000E+00 0. -1.
        994    1    1    2    0    0  0.61854318552E+01 -0.94765401397E+01  0.18034623933E+01  0.17158309024E+03  0.17120000000E+03 0.  0.
        998    1    1    2    0    0 -0.52384757095E+01 -0.52476476277E+01  0.14191775733E+04  0.14192321741E+04  0.10000000000E+02 0. -1.
</event>
<event>
 5    1  0.1147307E-008  0.3807974E+03  0.7957747E-01  0.3447694E+00
         13   -1    0    0    0    0  0.00000000000E+00  0.00000000000E+00  0.14999999963E+04  0.15000000000E+04  0.10566000000E+00 0. -1.
        994   -1    0    0    0    0 -0.00000000000E+00 -0.00000000000E+00  0.11368683772E-12  0.17120000000E+03  0.17120000000E+03 0.  0.
         13    1    1    2    0    0 -0.94073244782E+01  0.65178454446E+01  0.15957010073E+02  0.19637143315E+02  0.10566000000E+00 0. -1.
        994    1    1    2    0    0  0.71907590394E+01 -0.49138347302E+01  0.39841226189E+01  0.17146768215E+03  0.17120000000E+03 0.  0.
        998    1    1    2    0    0  0.22165654388E+01 -0.16040107144E+01  0.14800588636E+04  0.14800951745E+04  0.10000000000E+02 0. -1.
</event>
<event>
 5    1  0.1147307E-008  0.3844324E+03  0.7957747E-01  0.3432083E+00
         13   -1    0    0    0    0  0.00000000000E+00  0.00000000000E+00  0.14999999963E+04  0.15000000000E+04  0.10566000000E+00 0. -1.
        994   -1    0    0    0    0 -0.00000000000E+00 -0.00000000000E+00  0.11368683772E-12  0.17120000000E+03  0.17120000000E+03 0.  0.
         13    1    1    2    0    0 -0.10483476316E+02 -0.12152916153E+02  0.65953384831E+02  0.67878249693E+02  0.10566000000E+00 0. -1.
        994    1    1    2    0    0  0.17038058136E+02  0.31758696239E+01  0.29024843223E+01  0.17209952350E+03  0.17120000000E+03 0.  0.
        998    1    1    2    0    0 -0.65545818198E+01  0.89770465287E+01  0.14311441271E+04  0.14312222268E+04  0.10000000000E+02 0. -1.
</event>
<event>
 5    1  0.1147307E-008  0.3835284E+03  0.7957747E-01  0.3435937E+00
         13   -1    0    0    0    0  0.00000000000E+00  0.00000000000E+00  0.14999999963E+04  0.15000000000E+04  0.10566000000E+00 0.  1.
        994   -1    0    0    0    0 -0.00000000000E+00 -0.00000000000E+00  0.11368683772E-12  0.17120000000E+03  0.17120000000E+03 0.  0.
         13    1    1    2    0    0  0.16886928092E+01 -0.15138895451E+02  0.45981644231E+02  0.48439246579E+02  0.10566000000E+00 0.  1.
        994    1    1    2    0    0 -0.99533361722E+01  0.20828856253E+02  0.41254404210E+01  0.17279863834E+03  0.17120000000E+03 0.  0.
        998    1    1    2    0    0  0.82646433630E+01 -0.56899608011E+01  0.14498929116E+04  0.14499621151E+04  0.10000000000E+02 0.  1.
</event>
<event>
 5    1  0.1147307E-008  0.3817852E+03  0.7957747E-01  0.3443422E+00
         13   -1    0    0    0    0  0.00000000000E+00  0.00000000000E+00  0.14999999963E+04  0.15000000000E+04  0.10566000000E+00 0. -1.
        994   -1    0    0    0    0 -0.00000000000E+00 -0.00000000000E+00  0.11368683772E-12  0.17120000000E+03  0.17120000000E+03 0.  0.
         13    1    1    2    0    0  0.74057667712E+02 -0.19625367376E+03  0.12330523738E+04  0.12507670488E+04  0.10566000000E+00 0. -1.
        994    1    1    2    0    0 -0.63157342275E+02  0.19280469135E+03  0.15488490139E+03  0.30734552472E+03  0.17120000000E+03 0.  0.
        998    1    1    2    0    0 -0.10900325436E+02  0.34489824094E+01  0.11206272112E+03  0.11308742653E+03  0.10000000000E+02 0. -1.
</event>
<event>
 5    1  0.1147307E-008  0.3859135E+03  0.7957747E-01  0.3425807E+00
         13   -1    0    0    0    0  0.00000000000E+00  0.00000000000E+00  0.14999999963E+04  0.15000000000E+04  0.10566000000E+00 0.  1.
        994   -1    0    0    0    0 -0.00000000000E+00 -0.00000000000E+00  0.11368683772E-12  0.17120000000E+03  0.17120000000E+03 0.  0.
         13    1    1    2    0    0  0.31017277291E+01  0.13432674312E+02  0.78646992753E+02  0.79846215234E+02  0.10566000000E+00 0.  1.
        994    1    1    2    0    0  0.44990406921E+01 -0.15000877245E+02  0.19819126327E+01  0.17192625065E+03  0.17120000000E+03 0.  0.
        998    1    1    2    0    0 -0.76007684212E+01  0.15682029330E+01  0.14193710909E+04  0.14194275341E+04  0.10000000000E+02 0.  1.
</event>
<event>
 5    1  0.1147307E-008  0.3691145E+03  0.7957747E-01  0.3499970E+00
         13   -1    0    0    0    0  0.00000000000E+00  0.00000000000E+00  0.14999999963E+04  0.15000000000E+04  0.10566000000E+00 0. -1.
        994   -1    0    0    0    0 -0.00000000000E+00 -0.00000000000E+00  0.11368683772E-12  0.17120000000E+03  0.17120000000E+03 0.  0.
         13    1    1    2    0    0  0.31750406347E+02 -0.51497217235E+02  0.15013593350E+03  0.16186680135E+03  0.10566000000E+00 0. -1.
        994    1    1    2    0    0 -0.27327546510E+02  0.62247666901E+02  0.26756548443E+02  0.18613683063E+03  0.17120000000E+03 0.  0.
        998    1    1    2    0    0 -0.44228598372E+01 -0.10750449666E+02  0.13231075143E+04  0.13231963680E+04  0.10000000000E+02 0. -1.
</event>
<event>
 5    1  0.1147307E-008  0.3737123E+03  0.7957747E-01  0.3479002E+00
         13   -1    0    0    0    0  0.00000000000E+00  0.00000000000E+00  0.14999999963E+04  0.15000000000E+04  0.10566000000E+00 0. -1.
        994   -1    0    0    0    0 -0.00000000000E+00 -0.00000000000E+00  0.11368683772E-12  0.17120000000E+03  0.17120000000E+03 0.  0.
         13    1    1    2    0    0  0.41634792167E+02  0.22612632137E+02  0.12780796193E+03  0.13630727548E+03  0.10566000000E+00 0. -1.
        994    1    1    2    0    0 -0.53130701692E+02 -0.36844703626E+02  0.21750597927E+02  0.18429034744E+03  0.17120000000E+03 0.  0.
        998    1    1    2    0    0  0.11495909525E+02  0.14232071489E+02  0.13504414364E+04  0.13506023771E+04  0.10000000000E+02 0. -1.
</event>
<event>
 5    1  0.1147307E-008  0.3772247E+03  0.7957747E-01  0.3463332E+00
         13   -1    0    0    0    0  0.00000000000E+00  0.00000000000E+00  0.14999999963E+04  0.15000000000E+04  0.10566000000E+00 0. -1.
        994   -1    0    0    0    0 -0.00000000000E+00 -0.00000000000E+00  0.11368683772E-12  0.17120000000E+03  0.17120000000E+03 0.  0.
         13    1    1    2    0    0 -0.29677981873E+03 -0.70361406171E+02  0.70159159218E+03  0.76502271970E+03  0.10566000000E+00 0. -1.
        994    1    1    2    0    0  0.31986557451E+03  0.65448395107E+02  0.58661112741E+03  0.69283441959E+03  0.17120000000E+03 0.  0.
        998    1    1    2    0    0 -0.23085755780E+02  0.49130110642E+01  0.21179727670E+03  0.21334286070E+03  0.10000000000E+02 0.  1.
</event>
<event>
 5    1  0.1147307E-008  0.3785398E+03  0.7957747E-01  0.3457541E+00
         13   -1    0    0    0    0  0.00000000000E+00  0.00000000000E+00  0.14999999963E+04  0.15000000000E+04  0.10566000000E+00 0.  1.
        994   -1    0    0    0    0 -0.00000000000E+00 -0.00000000000E+00  0.11368683772E-12  0.17120000000E+03  0.17120000000E+03 0.  0.
         13    1    1    2    0    0  0.68779909822E+02  0.41442302123E+02  0.40413815682E+03  0.41203859207E+03  0.10566000000E+00 0.  1.
        994    1    1    2    0    0 -0.72970921396E+02 -0.67384520096E+02  0.38760254555E+02  0.20168595948E+03  0.17120000000E+03 0.  0.
        998    1    1    2    0    0  0.41910115741E+01  0.25942217973E+02  0.10571015849E+04  0.10574754484E+04  0.10000000000E+02 0.  1.
</event>
<event>
 5    1  0.1147307E-008  0.3797148E+03  0.7957747E-01  0.3452401E+00
         13   -1    0    0    0    0  0.00000000000E+00  0.00000000000E+00  0.14999999963E+04  0.15000000000E+04  0.10566000000E+00 0. -1.
        994   -1    0    0    0    0 -0.00000000000E+00 -0.00000000000E+00  0.11368683772E-12  0.17120000000E+03  0.17120000000E+03 0.  0.
         13    1    1    2    0    0  0.62464924090E+00  0.18384040302E+02  0.39452760111E+02  0.43530386730E+02  0.10566000000E+00 0. -1.
        994    1    1    2    0    0  0.79661444058E+01 -0.62095717278E+00  0.44908338735E+01  0.17144518842E+03  0.17120000000E+03 0.  0.
        998    1    1    2    0    0 -0.85907936467E+01 -0.17763083129E+02  0.14560564023E+04  0.14562244248E+04  0.10000000000E+02 0. -1.
</event>
<event>
 5    1  0.1147307E-008  0.3805213E+03  0.7957747E-01  0.3448892E+00
         13   -1    0    0    0    0  0.00000000000E+00  0.00000000000E+00  0.14999999963E+04  0.15000000000E+04  0.10566000000E+00 0. -1.
        994   -1    0    0    0    0 -0.00000000000E+00 -0.00000000000E+00  0.11368683772E-12  0.17120000000E+03  0.17120000000E+03 0.  0.
         13    1    1    2    0    0  0.13516991130E+03 -0.10723532983E+03  0.86571445228E+03  0.88274109734E+03  0.10566000000E+00 0. -1.
        994    1    1    2    0    0 -0.15385376945E+03  0.11362610340E+03  0.13753741249E+03  0.29121787991E+03  0.17120000000E+03 0.  0.
        998    1    1    2    0    0  0.18683858147E+02 -0.63907735690E+01  0.49674813151E+03  0.49724102274E+03  0.10000000000E+02 0. -1.
</event>
<event>
 5    1  0.1147307E-008  0.3840380E+03  0.7957747E-01  0.3433763E+00
         13   -1    0    0    0    0  0.00000000000E+00  0.00000000000E+00  0.14999999963E+04  0.15000000000E+04  0.10566000000E+00 0.  1.
        994   -1    0    0    0    0 -0.00000000000E+00 -0.00000000000E+00  0.11368683772E-12  0.17120000000E+03  0.17120000000E+03 0.  0.
         13    1    1    2    0    0 -0.25361781264E+01  0.11317885582E+02  0.35925281126E+02  0.37751340659E+02  0.10566000000E+00 0.  1.
        994    1    1    2    0    0 -0.38916620346E+02  0.14699273475E+02  0.78385898725E+01  0.17635604745E+03  0.17120000000E+03 0.  0.
        998    1    1    2    0    0  0.41452798472E+02 -0.26017159057E+02  0.14562361253E+04  0.14570926119E+04  0.10000000000E+02 0.  1.
</event>
<event>
 5    1  0.1147307E-008  0.3749906E+03  0.7957747E-01  0.3473265E+00
         13   -1    0    0    0    0  0.00000000000E+00  0.00000000000E+00  0.14999999963E+04  0.15000000000E+04  0.10566000000E+00 0.  1.
        994   -1    0    0    0    0 -0.00000000000E+00 -0.00000000000E+00  0.11368683772E-12  0.17120000000E+03  0.17120000000E+03 0.  0.
         13    1    1    2    0    0  0.84132023546E+01 -0.25166730642E+02  0.47736555704E+02  0.54616263325E+02  0.10566000000E+00 0.  1.
        994    1    1    2    0    0 -0.94480981205E+01  0.31386154693E+02  0.10344320426E+02  0.17461615684E+03  0.17120000000E+03 0.  0.
        998    1    1    2    0    0  0.10348957659E+01 -0.62194240510E+01  0.14419191201E+04  0.14419675798E+04  0.10000000000E+02 0.  1.
</event>
<event>
 5    1  0.1147307E-008  0.3806451E+03  0.7957747E-01  0.3448354E+00
         13   -1    0    0    0    0  0.00000000000E+00  0.00000000000E+00  0.14999999963E+04  0.15000000000E+04  0.10566000000E+00 0. -1.
        994   -1    0    0    0    0 -0.00000000000E+00 -0.00000000000E+00  0.11368683772E-12  0.17120000000E+03  0.17120000000E+03 0.  0.
         13    1    1    2    0    0  0.10964427866E+03 -0.78896162951E+01  0.28689078773E+03  0.30723028682E+03  0.10566000000E+00 0. -1.
        994    1    1    2    0    0 -0.10782519952E+03  0.12251087875E+02  0.60815718267E+02  0.21162314239E+03  0.17120000000E+03 0.  0.
        998    1    1    2    0    0 -0.18190791485E+01 -0.43614715795E+01  0.11522934903E+04  0.11523465708E+04  0.10000000000E+02 0.  0.
</event>
<event>
 5    1  0.1147307E-008  0.3735430E+03  0.7957747E-01  0.3479765E+00
         13   -1    0    0    0    0  0.00000000000E+00  0.00000000000E+00  0.14999999963E+04  0.15000000000E+04  0.10566000000E+00 0. -1.
        994   -1    0    0    0    0 -0.00000000000E+00 -0.00000000000E+00  0.11368683772E-12  0.17120000000E+03  0.17120000000E+03 0.  0.
         13    1    1    2    0    0  0.34303496952E+02  0.27602447694E+01  0.73873316482E+02  0.81496177250E+02  0.10566000000E+00 0. -1.
        994    1    1    2    0    0 -0.33013451280E+02 -0.58890386430E+01  0.11279997577E+02  0.17481775392E+03  0.17120000000E+03 0.  0.
        998    1    1    2    0    0 -0.12900456721E+01  0.31287938736E+01  0.14148466822E+04  0.14148860688E+04  0.10000000000E+02 0.  0.
</event>
<event>
 5    1  0.1195177E-008  0.3847718E+03  0.7957747E-01  0.3430641E+00
         13   -1    0    0    0    0  0.00000000000E+00  0.00000000000E+00  0.14999999963E+04  0.15000000000E+04  0.10566000000E+00 0. -1.
        994   -1    0    0    0    0 -0.00000000000E+00 -0.00000000000E+00  0.11368683772E-12  0.17120000000E+03  0.17120000000E+03 0.  0.
         13    1    1    2    0    0  0.10879038173E+02 -0.11509749022E+01  0.34645232130E+02  0.36331549488E+02  0.10566000000E+00 0. -1.
        994    1    1    2    0    0 -0.41987301611E+01 -0.54132924544E+01  0.18979748031E+01  0.17134752808E+03  0.17120000000E+03 0.  0.
        998    1    1    2    0    0 -0.66803080117E+01  0.65642673566E+01  0.14634567893E+04  0.14635209224E+04  0.10000000000E+02 0. -1.
</event>
<event>
 5    1  0.1147307E-008  0.3854944E+03  0.7957747E-01  0.3427578E+00
         13   -1    0    0    0    0  0.00000000000E+00  0.00000000000E+00  0.14999999963E+04  0.15000000000E+04  0.10566000000E+00 0. -1.
        994   -1    0    0    0    0 -0.00000000000E+00 -0.00000000000E+00  0.11368683772E-12  0.17120000000E+03  0.17120000000E+03 0.  0.
         13    1    1    2    0    0  0.16041061321E+02 -0.58582597005E+01  0.10038890743E+03  0.10183112861E+03  0.10566000000E+00 0. -1.
        994    1    1    2    0    0 -0.15847971401E+02  0.65316748985E+01  0.23502096791E+01  0.17207203277E+03  0.17120000000E+03 0.  0.
        998    1    1    2    0    0 -0.19308992050E+00 -0.67341519800E+00  0.13972608792E+04  0.13972968386E+04  0.10000000000E+02 0.  0.
</event>
<event>
 5    1  0.1147307E-008  0.3803578E+03  0.7957747E-01  0.3449602E+00
         13   -1    0    0    0    0  0.00000000000E+00  0.00000000000E+00  0.14999999963E+04  0.15000000000E+04  0.10566000000E+00 0.  1.
        994   -1    0    0    0    0 -0.00000000000E+00 -0.00000000000E+00  0.11368683772E-12  0.17120000000E+03  0.17120000000E+03 0.  0.
         13    1    1    2    0    0  0.32888759049E+02 -0.69315030893E+01  0.15223411391E+03  0.15590045801E+03  0.10566000000E+00 0.  1.
        994    1    1    2    0    0 -0.98093177034E+01 -0.38458763469E+01  0.43233970373E+01  0.17157839386E+03  0.17120000000E+03 0.  0.
        998    1    1    2    0    0 -0.23079441346E+02  0.10777379436E+02  0.13434424853E+04  0.13437211481E+04  0.10000000000E+02 0.  1.
</event>
<event>
 5    1  0.1147307E-008  0.3808497E+03  0.7957747E-01  0.3447467E+00
         13   -1    0    0    0    0  0.00000000000E+00  0.00000000000E+00  0.14999999963E+04  0.15000000000E+04  0.10566000000E+00 0.  1.
        994   -1    0    0    0    0 -0.00000000000E+00 -0.00000000000E+00  0.11368683772E-12  0.17120000000E+03  0.17120000000E+03 0.  0.
         13    1    1    2    0    0 -0.61855063877E+02 -0.19655190423E+02  0.37417109077E+03  0.37975833338E+03  0.10566000000E+00 0.  1.
        994    1    1    2    0    0  0.73993305255E+02  0.20171704063E+02  0.23567753737E+02  0.18906820432E+03  0.17120000000E+03 0.  0.
        998    1    1    2    0    0 -0.12138241378E+02 -0.51651364048E+00  0.11022611518E+04  0.11023734623E+04  0.10000000000E+02 0.  1.
</event>
<event>
 5    1  0.1147307E-008  0.3964876E+03  0.7957747E-01  0.3382366E+00
         13   -1    0    0    0    0  0.00000000000E+00  0.00000000000E+00  0.14999999963E+04  0.15000000000E+04  0.10566000000E+00 0.  1.
        994   -1    0    0    0    0 -0.00000000000E+00 -0.00000000000E+00  0.11368683772E-12  0.17120000000E+03  0.17120000000E+03 0.  0.
         13    1    1    2    0    0 -0.98483163318E+01  0.58594140818E+02  0.67036676392E+02  0.89577842229E+02  0.10566000000E+00 0.  1.
        994    1    1    2    0    0 -0.53782945357E+02 -0.76353522792E+01  0.37173712473E+02  0.18341817989E+03  0.17120000000E+03 0.  0.
        998    1    1    2    0    0  0.63631261689E+02 -0.50958788539E+02  0.13957896074E+04  0.13982039779E+04  0.10000000000E+02 0.  1.
</event>
<event>
 5    1  0.1147307E-008  0.3036637E+03  0.7957747E-01  0.3870206E+00
         13   -1    0    0    0    0  0.00000000000E+00  0.00000000000E+00  0.14999999963E+04  0.15000000000E+04  0.10566000000E+00 0. -1.
        994   -1    0    0    0    0 -0.00000000000E+00 -0.00000000000E+00  0.11368683772E-12  0.17120000000E+03  0.17120000000E+03 0.  0.
         13    1    1    2    0    0 -0.18843439676E+03 -0.11422621752E+03  0.54912555335E+03  0.59168744718E+03  0.10566000000E+00 0. -1.
        994    1    1    2    0    0  0.21115093029E+03  0.10559334192E+03  0.26779279406E+03  0.39592561141E+03  0.17120000000E+03 0.  0.
        998    1    1    2    0    0 -0.22716533530E+02  0.86328755988E+01  0.68308164887E+03  0.68358694140E+03  0.10000000000E+02 0. -1.
</event>
<event>
 5    1  0.1147307E-008  0.3725230E+03  0.7957747E-01  0.3484376E+00
         13   -1    0    0    0    0  0.00000000000E+00  0.00000000000E+00  0.14999999963E+04  0.15000000000E+04  0.10566000000E+00 0.  1.
        994   -1    0    0    0    0 -0.00000000000E+00 -0.00000000000E+00  0.11368683772E-12  0.17120000000E+03  0.17120000000E+03 0.  0.
         13    1    1    2    0    0 -0.18940940195E+02 -0.28289613537E+02  0.73199148199E+02  0.80729102006E+02  0.10566000000E+00 0.  1.
        994    1    1    2    0    0  0.73365408059E+01  0.52324741719E+01  0.82346697883E+01  0.17163465094E+03  0.17120000000E+03 0.  0.
        998    1    1    2    0    0  0.11604399390E+02  0.23057139366E+02  0.14185661783E+04  0.14188362471E+04  0.10000000000E+02 0.  1.
</event>
<event>
 5    1  0.1147307E-008  0.3818832E+03  0.7957747E-01  0.3442999E+00
         13   -1    0    0    0    0  0.00000000000E+00  0.00000000000E+00  0.14999999963E+04  0.15000000000E+04  0.10566000000E+00 0. -1.
        994   -1    0    0    0    0 -0.00000000000E+00 -0.00000000000E+00  0.11368683772E-12  0.17120000000E+03  0.17120000000E+03 0.  0.
         13    1    1    2    0    0 -0.20279591396E+02 -0.22084360666E+01  0.61783356338E+02  0.65064070741E+02  0.10566000000E+00 0. -1.
        994    1    1    2    0    0  0.21986950030E+02 -0.14607012834E+01  0.48003209995E+01  0.17267901639E+03  0.17120000000E+03 0.  0.
        998    1    1    2    0    0 -0.17073586349E+01  0.36691373500E+01  0.14334163189E+04  0.14334569129E+04  0.10000000000E+02 0. -1.
</event>
<event>
 5    1  0.1147307E-008  0.3700071E+03  0.7957747E-01  0.3495858E+00
         13   -1    0    0    0    0  0.00000000000E+00  0.00000000000E+00  0.14999999963E+04  0.15000000000E+04  0.10566000000E+00 0. -1.
        994   -1    0    0    0    0 -0.00000000000E+00 -0.00000000000E+00  0.11368683772E-12  0.17120000000E+03  0.17120000000E+03 0.  0.
         13    1    1    2    0    0  0.73053645023E+02  0.43192904885E+02  0.40743587937E+03  0.41618081293E+03  0.10566000000E+00 0. -1.
        994    1    1    2    0    0 -0.16432821889E+02 -0.60846408211E+02  0.23128026463E+02  0.18389309023E+03  0.17120000000E+03 0.  0.
        998    1    1    2    0    0 -0.56620823135E+02  0.17653503326E+02  0.10694360904E+04  0.10711260968E+04  0.10000000000E+02 0. -1.
</event>
<event>
 5    1  0.1147307E-008  0.3817073E+03  0.7957747E-01  0.3443758E+00
         13   -1    0    0    0    0  0.00000000000E+00  0.00000000000E+00  0.14999999963E+04  0.15000000000E+04  0.10566000000E+00 0. -1.
        994   -1    0    0    0    0 -0.00000000000E+00 -0.00000000000E+00  0.11368683772E-12  0.17120000000E+03  0.17120000000E+03 0.  0.
         13    1    1    2    0    0 -0.85328085035E+01 -0.15650318541E+02  0.47296056772E+02  0.50543737907E+02  0.10566000000E+00 0. -1.
        994    1    1    2    0    0  0.57908315872E+01  0.10729748039E+02  0.37681177844E+01  0.17167498343E+03  0.17120000000E+03 0.  0.
        998    1    1    2    0    0  0.27419769164E+01  0.49205705017E+01  0.14489358217E+04  0.14489812787E+04  0.10000000000E+02 0. -1.
</event>
<event>
 5    1  0.1147307E-008  0.3785118E+03  0.7957747E-01  0.3457664E+00
         13   -1    0    0    0    0  0.00000000000E+00  0.00000000000E+00  0.14999999963E+04  0.15000000000E+04  0.10566000000E+00 0.  1.
        994   -1    0    0    0    0 -0.00000000000E+00 -0.00000000000E+00  0.11368683772E-12  0.17120000000E+03  0.17120000000E+03 0.  0.
         13    1    1    2    0    0 -0.11772847321E+02 -0.77196948967E-01  0.12087945657E+02  0.16874107018E+02  0.10566000000E+00 0.  1.
        994    1    1    2    0    0  0.62069636960E+01  0.56828885308E+01  0.51242104757E+01  0.17148329118E+03  0.17120000000E+03 0.  0.
        998    1    1    2    0    0  0.55658836251E+01 -0.56056915818E+01  0.14827878401E+04  0.14828426018E+04  0.10000000000E+02 0.  1.
</event>
<event>
 5    1  0.1147307E-008  0.3843343E+03  0.7957747E-01  0.3432500E+00
         13   -1    0    0    0    0  0.00000000000E+00  0.00000000000E+00  0.14999999963E+04  0.15000000000E+04  0.10566000000E+00 0.  1.
        994   -1    0    0    0    0 -0.00000000000E+00 -0.00000000000E+00  0.11368683772E-12  0.17120000000E+03  0.17120000000E+03 0.  0.
         13    1    1    2    0    0 -0.44290129189E+01  0.22589438193E+02  0.12101121393E+03  0.12318126454E+03  0.10566000000E+00 0.  1.
        994    1    1    2    0    0  0.88288782082E+01 -0.26859221588E+02  0.45999571113E+01  0.17357985621E+03  0.17120000000E+03 0.  0.
        998    1    1    2    0    0 -0.43998652893E+01  0.42697833951E+01  0.13743888252E+04  0.13744388793E+04  0.10000000000E+02 0.  1.
</event>
<event>
 5    1  0.1147307E-008  0.3835026E+03  0.7957747E-01  0.3436048E+00
         13   -1    0    0    0    0  0.00000000000E+00  0.00000000000E+00  0.14999999963E+04  0.15000000000E+04  0.10566000000E+00 0. -1.
        994   -1    0    0    0    0 -0.00000000000E+00 -0.00000000000E+00  0.11368683772E-12  0.17120000000E+03  0.17120000000E+03 0.  0.
         13    1    1    2    0    0 -0.98786757646E+01  0.48149967497E+01  0.24249441885E+02  0.26623655353E+02  0.10566000000E+00 0. -1.
        994    1    1    2    0    0  0.12406799301E+02 -0.21915333102E+01  0.29001181470E+01  0.17168745491E+03  0.17120000000E+03 0.  0.
        998    1    1    2    0    0 -0.25281235362E+01 -0.26234634395E+01  0.14728504362E+04  0.14728888897E+04  0.10000000000E+02 0. -1.
</event>
<event>
 5    1  0.1147307E-008  0.3830750E+03  0.7957747E-01  0.3437878E+00
         13   -1    0    0    0    0  0.00000000000E+00  0.00000000000E+00  0.14999999963E+04  0.15000000000E+04  0.10566000000E+00 0. -1.
        994   -1    0    0    0    0 -0.00000000000E+00 -0.00000000000E+00  0.11368683772E-12  0.17120000000E+03  0.17120000000E+03 0.  0.
         13    1    1    2    0    0 -0.75295136126E+01 -0.13877652507E+02  0.47323841503E+02  0.49888274704E+02  0.10566000000E+00 0. -1.
        994    1    1    2    0    0  0.59102030798E+01  0.89373968678E+01  0.29689060805E+01  0.17156066556E+03  0.17120000000E+03 0.  0.
        998    1    1    2    0    0  0.16193105328E+01  0.49402556392E+01  0.14497072487E+04  0.14497510597E+04  0.10000000000E+02 0. -1.
</event>
<event>
 5    1  0.1147307E-008  0.3838036E+03  0.7957747E-01  0.3434762E+00
         13   -1    0    0    0    0  0.00000000000E+00  0.00000000000E+00  0.14999999963E+04  0.15000000000E+04  0.10566000000E+00 0.  1.
        994   -1    0    0    0    0 -0.00000000000E+00 -0.00000000000E+00  0.11368683772E-12  0.17120000000E+03  0.17120000000E+03 0.  0.
         13    1    1    2    0    0  0.83239926680E+01 -0.10316784576E+02  0.37781652180E+02  0.40039846446E+02  0.10566000000E+00 0.  1.
        994    1    1    2    0    0 -0.12540281168E+02  0.10101422228E+02  0.30818045450E+01  0.17198324018E+03  0.17120000000E+03 0.  0.
        998    1    1    2    0    0  0.42162884998E+01  0.21536234811E+00  0.14591365396E+04  0.14591769134E+04  0.10000000000E+02 0.  1.
</event>
<event>
 5    1  0.1147307E-008  0.3721383E+03  0.7957747E-01  0.3486121E+00
         13   -1    0    0    0    0  0.00000000000E+00  0.00000000000E+00  0.14999999963E+04  0.15000000000E+04  0.10566000000E+00 0.  1.
        994   -1    0    0    0    0 -0.00000000000E+00 -0.00000000000E+00  0.11368683772E-12  0.17120000000E+03  0.17120000000E+03 0.  0.
         13    1    1    2    0    0  0.39705797837E+01 -0.16894851544E+02  0.14808506014E+02  0.22814568304E+02  0.10566000000E+00 0.  1.
        994    1    1    2    0    0 -0.41092880974E+01  0.14539166929E+02  0.89395449246E+01  0.17209773121E+03  0.17120000000E+03 0.  0.
        998    1    1    2    0    0  0.13870831374E+00  0.23556846145E+01  0.14762519453E+04  0.14762877005E+04  0.10000000000E+02 0.  1.
</event>
<event>
 5    1  0.1147307E-008  0.3821595E+03  0.7957747E-01  0.3441809E+00
         13   -1    0    0    0    0  0.00000000000E+00  0.00000000000E+00  0.14999999963E+04  0.15000000000E+04  0.10566000000E+00 0.  1.
        994   -1    0    0    0    0 -0.00000000000E+00 -0.00000000000E+00  0.11368683772E-12  0.17120000000E+03  0.17120000000E+03 0.  0.
         13    1    1    2    0    0 -0.75465480295E+01  0.14248783935E+02  0.41428211106E+02  0.44455439153E+02  0.10566000000E+00 0.  1.
        994    1    1    2    0    0  0.47936803487E+01 -0.10894541012E+02  0.35173570255E+01  0.17164930001E+03  0.17120000000E+03 0.  0.
        998    1    1    2    0    0  0.27528676809E+01 -0.33542429232E+01  0.14550544281E+04  0.14550952608E+04  0.10000000000E+02 0.  1.
</event>
<event>
 5    1  0.1147307E-008  0.3733619E+03  0.7957747E-01  0.3480582E+00
         13   -1    0    0    0    0  0.00000000000E+00  0.00000000000E+00  0.14999999963E+04  0.15000000000E+04  0.10566000000E+00 0.  1.
        994   -1    0    0    0    0 -0.00000000000E+00 -0.00000000000E+00  0.11368683772E-12  0.17120000000E+03  0.17120000000E+03 0.  0.
         13    1    1    2    0    0 -0.11269699912E+03  0.21285913445E+02  0.52928379370E+03  0.54156721574E+03  0.10566000000E+00 0.  1.
        994    1    1    2    0    0  0.11471959786E+03 -0.25169596587E+02  0.56246772685E+02  0.21509819656E+03  0.17120000000E+03 0.  0.
        998    1    1    2    0    0 -0.20225987380E+01  0.38836831420E+01  0.91446942989E+03  0.91453458770E+03  0.10000000000E+02 0.  0.
</event>
<event>
 5    1  0.1147307E-008  0.2750296E+03  0.7957747E-01  0.4092168E+00
         13   -1    0    0    0    0  0.00000000000E+00  0.00000000000E+00  0.14999999963E+04  0.15000000000E+04  0.10566000000E+00 0. -1.
        994   -1    0    0    0    0 -0.00000000000E+00 -0.00000000000E+00  0.11368683772E-12  0.17120000000E+03  0.17120000000E+03 0.  0.
         13    1    1    2    0    0  0.78197692087E+02 -0.10411045992E+03  0.64916535533E+03  0.66209480940E+03  0.10566000000E+00 0. -1.
        994    1    1    2    0    0 -0.46733605152E+02  0.81826911331E+01  0.27767730460E+02  0.17980954685E+03  0.17120000000E+03 0.  0.
        998    1    1    2    0    0 -0.31464086935E+02  0.95927768791E+02  0.82306691049E+03  0.82929564374E+03  0.10000000000E+02 0.  1.
</event>
<event>
 5    1  0.1147307E-008  0.3824526E+03  0.7957747E-01  0.3440549E+00
         13   -1    0    0    0    0  0.00000000000E+00  0.00000000000E+00  0.14999999963E+04  0.15000000000E+04  0.10566000000E+00 0. -1.
        994   -1    0    0    0    0 -0.00000000000E+00 -0.00000000000E+00  0.11368683772E-12  0.17120000000E+03  0.17120000000E+03 0.  0.
         13    1    1    2    0    0 -0.21002745582E+02  0.13690098840E+02  0.10686038819E+03  0.10976195997E+03  0.10566000000E+00 0. -1.
        994    1    1    2    0    0  0.16849470854E+02 -0.39976281496E+01  0.38952650233E+01  0.17211768877E+03  0.17120000000E+03 0.  0.
        998    1    1    2    0    0  0.41532747281E+01 -0.96924706908E+01  0.13892443431E+04  0.13893203513E+04  0.10000000000E+02 0. -1.
</event>
<event>
 5    1  0.1147307E-008  0.3707326E+03  0.7957747E-01  0.3492531E+00
         13   -1    0    0    0    0  0.00000000000E+00  0.00000000000E+00  0.14999999963E+04  0.15000000000E+04  0.10566000000E+00 0. -1.
        994   -1    0    0    0    0 -0.00000000000E+00 -0.00000000000E+00  0.11368683772E-12  0.17120000000E+03  0.17120000000E+03 0.  0.
         13    1    1    2    0    0  0.18617105705E+02 -0.11740251199E+02  0.16373053375E+02  0.27432064521E+02  0.10566000000E+00 0. -1.
        994    1    1    2    0    0 -0.15492260744E+02  0.12694610831E+02  0.12734003627E+02  0.17283737482E+03  0.17120000000E+03 0.  0.
        998    1    1    2    0    0 -0.31248449604E+01 -0.95435963209E+00  0.14708929393E+04  0.14709305607E+04  0.10000000000E+02 0. -1.
</event>
<event>
 5    1  0.1147307E-008  0.2736110E+03  0.7957747E-01  0.4104509E+00
         13   -1    0    0    0    0  0.00000000000E+00  0.00000000000E+00  0.14999999963E+04  0.15000000000E+04  0.10566000000E+00 0. -1.
        994   -1    0    0    0    0 -0.00000000000E+00 -0.00000000000E+00  0.11368683772E-12  0.17120000000E+03  0.17120000000E+03 0.  0.
         13    1    1    2    0    0 -0.97081737407E+02  0.16723330323E+03  0.52008941529E+03  0.55487372664E+03  0.10566000000E+00 0. -1.
        994    1    1    2    0    0  0.82834149282E+02 -0.10583697407E+03  0.10961887025E+03  0.24369796487E+03  0.17120000000E+03 0.  0.
        998    1    1    2    0    0  0.14247588125E+02 -0.61396329163E+02  0.87029171074E+03  0.87262830849E+03  0.10000000000E+02 0.  1.
</event>
<event>
 5    1  0.1147307E-008  0.3844989E+03  0.7957747E-01  0.3431800E+00
         13   -1    0    0    0    0  0.00000000000E+00  0.00000000000E+00  0.14999999963E+04  0.15000000000E+04  0.10566000000E+00 0. -1.
        994   -1    0    0    0    0 -0.00000000000E+00 -0.00000000000E+00  0.11368683772E-12  0.17120000000E+03  0.17120000000E+03 0.  0.
         13    1    1    2    0    0  0.75473731673E+01 -0.15052274951E+02  0.70684028338E+02  0.72662072975E+02  0.10566000000E+00 0. -1.
        994    1    1    2    0    0 -0.92126846364E+01  0.19013340701E+02  0.33508770336E+01  0.17253129878E+03  0.17120000000E+03 0.  0.
        998    1    1    2    0    0  0.16653114691E+01 -0.39610657506E+01  0.14259650909E+04  0.14260066282E+04  0.10000000000E+02 0. -1.
</event>
<event>
 5    1  0.1147307E-008  0.3815061E+03  0.7957747E-01  0.3444627E+00
         13   -1    0    0    0    0  0.00000000000E+00  0.00000000000E+00  0.14999999963E+04  0.15000000000E+04  0.10566000000E+00 0. -1.
        994   -1    0    0    0    0 -0.00000000000E+00 -0.00000000000E+00  0.11368683772E-12  0.17120000000E+03  0.17120000000E+03 0.  0.
         13    1    1    2    0    0 -0.37767238671E+02  0.62461739863E+01  0.35259330034E+02  0.52044313088E+02  0.10566000000E+00 0. -1.
        994    1    1    2    0    0  0.40037996003E+02  0.17051230017E+02  0.24089144324E+02  0.17827931019E+03  0.17120000000E+03 0.  0.
        998    1    1    2    0    0 -0.22707573316E+01 -0.23297404003E+02  0.14406515219E+04  0.14408763767E+04  0.10000000000E+02 0. -1.
</event>
<event>
 5    1  0.1147307E-008  0.3732948E+03  0.7957747E-01  0.3480884E+00
         13   -1    0    0    0    0  0.00000000000E+00  0.00000000000E+00  0.14999999963E+04  0.15000000000E+04  0.10566000000E+00 0. -1.
        994   -1    0    0    0    0 -0.00000000000E+00 -0.00000000000E+00  0.11368683772E-12  0.17120000000E+03  0.17120000000E+03 0.  0.
         13    1    1    2    0    0  0.56360376782E+02 -0.41894612359E+02  0.17738269572E+03  0.19077809759E+03  0.10566000000E+00 0. -1.
        994    1    1    2    0    0 -0.47267281699E+02  0.34944931609E+02  0.25015195689E+02  0.18273079702E+03  0.17120000000E+03 0.  0.
        998    1    1    2    0    0 -0.90930950832E+01  0.69496807494E+01  0.12976021049E+04  0.12976911054E+04  0.10000000000E+02 0.  0.
</event>
<event>
 5    1  0.1147307E-008  0.3742611E+03  0.7957747E-01  0.3476534E+00
         13   -1    0    0    0    0  0.00000000000E+00  0.00000000000E+00  0.14999999963E+04  0.15000000000E+04  0.10566000000E+00 0.  1.
        994   -1    0    0    0    0 -0.00000000000E+00 -0.00000000000E+00  0.11368683772E-12  0.17120000000E+03  0.17120000000E+03 0.  0.
         13    1    1    2    0    0 -0.71196226071E+02 -0.18945197453E+02  0.24960796031E+03  0.26025366112E+03  0.10566000000E+00 0.  1.
        994    1    1    2    0    0 -0.13051516977E+01  0.17369897378E+02  0.14287429485E+02  0.17267596068E+03  0.17120000000E+03 0.  0.
        998    1    1    2    0    0  0.72501377768E+02  0.15753000743E+01  0.12361046065E+04  0.12382703782E+04  0.10000000000E+02 0.  1.
</event>
<event>
 5    1  0.1147307E-008  0.3826212E+03  0.7957747E-01  0.3439824E+00
         13   -1    0    0    0    0  0.00000000000E+00  0.00000000000E+00  0.14999999963E+04  0.15000000000E+04  0.10566000000E+00 0.  1.
        994   -1    0    0    0    0 -0.00000000000E+00 -0.00000000000E+00  0.11368683772E-12  0.17120000000E+03  0.17120000000E+03 0.  0.
         13    1    1    2    0    0  0.14566610177E+02 -0.38776222476E+01  0.40398517403E+02  0.43119293347E+02  0.10566000000E+00 0.  1.
        994    1    1    2    0    0 -0.72931866004E+01 -0.11918136025E+02  0.34630911019E+01  0.17180414878E+03  0.17120000000E+03 0.  0.
        998    1    1    2    0    0 -0.72734235769E+01  0.15795758273E+02  0.14561383878E+04  0.14562765579E+04  0.10000000000E+02 0.  1.
</event>
<event>
 5    1  0.1202401E-008  0.3860188E+03  0.7957747E-01  0.3425363E+00
         13   -1    0    0    0    0  0.00000000000E+00  0.00000000000E+00  0.14999999963E+04  0.15000000000E+04  0.10566000000E+00 0.  1.
        994   -1    0    0    0    0 -0.00000000000E+00 -0.00000000000E+00  0.11368683772E-12  0.17120000000E+03  0.17120000000E+03 0.  0.
         13    1    1    2    0    0 -0.11983849449E+02  0.20562991667E+01  0.70682014361E+02  0.71720285359E+02  0.10566000000E+00 0.  1.
        994    1    1    2    0    0  0.25286742773E+01  0.10980024615E+02  0.15414063507E+01  0.17157730347E+03  0.17120000000E+03 0.  0.
        998    1    1    2    0    0  0.94551751714E+01 -0.13036323782E+02  0.14277765756E+04  0.14279024112E+04  0.10000000000E+02 0.  1.
</event>
<event>
 5    1  0.1147307E-008  0.3843262E+03  0.7957747E-01  0.3432535E+00
         13   -1    0    0    0    0  0.00000000000E+00  0.00000000000E+00  0.14999999963E+04  0.15000000000E+04  0.10566000000E+00 0. -1.
        994   -1    0    0    0    0 -0.00000000000E+00 -0.00000000000E+00  0.11368683772E-12  0.17120000000E+03  0.17120000000E+03 0.  0.
         13    1    1    2    0    0  0.12345663889E+02 -0.91213241724E+01  0.57995942003E+02  0.59992953123E+02  0.10566000000E+00 0. -1.
        994    1    1    2    0    0 -0.11059897619E+02  0.10607456186E+02  0.27394113429E+01  0.17190632285E+03  0.17120000000E+03 0.  0.
        998    1    1    2    0    0 -0.12857662701E+01 -0.14861320132E+01  0.14392646429E+04  0.14393007240E+04  0.10000000000E+02 0. -1.
</event>
<event>
 5    1  0.1147307E-008  0.3795686E+03  0.7957747E-01  0.3453039E+00
         13   -1    0    0    0    0  0.00000000000E+00  0.00000000000E+00  0.14999999963E+04  0.15000000000E+04  0.10566000000E+00 0.  1.
        994   -1    0    0    0    0 -0.00000000000E+00 -0.00000000000E+00  0.11368683772E-12  0.17120000000E+03  0.17120000000E+03 0.  0.
         13    1    1    2    0    0 -0.14905511727E+02 -0.17916766747E+02  0.57899232304E+02  0.62414077547E+02  0.10566000000E+00 0.  1.
        994    1    1    2    0    0  0.31300342329E+02  0.98664088385E+01  0.79651176358E+01  0.17449911333E+03  0.17120000000E+03 0.  0.
        998    1    1    2    0    0 -0.16394830602E+02  0.80503579085E+01  0.14341356463E+04  0.14342868091E+04  0.10000000000E+02 0.  1.
</event>
<event>
 5    1  0.1147307E-008  0.3806930E+03  0.7957747E-01  0.3448147E+00
         13   -1    0    0    0    0  0.00000000000E+00  0.00000000000E+00  0.14999999963E+04  0.15000000000E+04  0.10566000000E+00 0. -1.
        994   -1    0    0    0    0 -0.00000000000E+00 -0.00000000000E+00  0.11368683772E-12  0.17120000000E+03  0.17120000000E+03 0.  0.
         13    1    1    2    0    0 -0.50387271169E+02 -0.27473421537E+02  0.89219411780E+02  0.10608383755E+03  0.10566000000E+00 0. -1.
        994    1    1    2    0    0  0.45271842220E+02  0.25727177606E+02  0.26624734956E+02  0.18091363651E+03  0.17120000000E+03 0.  0.
        998    1    1    2    0    0  0.51154289491E+01  0.17462439308E+01  0.13841558495E+04  0.13842025259E+04  0.10000000000E+02 0. -1.
</event>
<event>
 5    1  0.1147307E-008  0.3689923E+03  0.7957747E-01  0.3500535E+00
         13   -1    0    0    0    0  0.00000000000E+00  0.00000000000E+00  0.14999999963E+04  0.15000000000E+04  0.10566000000E+00 0. -1.
        994   -1    0    0    0    0 -0.00000000000E+00 -0.00000000000E+00  0.11368683772E-12  0.17120000000E+03  0.17120000000E+03 0.  0.
         13    1    1    2    0    0 -0.14490251526E+02  0.19172781860E+02  0.23544261950E+02  0.33643816495E+02  0.10566000000E+00 0. -1.
        994    1    1    2    0    0  0.11098193128E+02 -0.96782500259E+01  0.11162678625E+02  0.17219431991E+03  0.17120000000E+03 0.  0.
        998    1    1    2    0    0  0.33920583979E+01 -0.94945318340E+01  0.14652930557E+04  0.14653618636E+04  0.10000000000E+02 0. -1.
</event>
<event>
 5    1  0.1147307E-008  0.3781695E+03  0.7957747E-01  0.3459168E+00
         13   -1    0    0    0    0  0.00000000000E+00  0.00000000000E+00  0.14999999963E+04  0.15000000000E+04  0.10566000000E+00 0. -1.
        994   -1    0    0    0    0 -0.00000000000E+00 -0.00000000000E+00  0.11368683772E-12  0.17120000000E+03  0.17120000000E+03 0.  0.
         13    1    1    2    0    0  0.12368156206E+02 -0.38095964776E+02  0.15630793834E+03  0.16135816240E+03  0.10566000000E+00 0. -1.
        994    1    1    2    0    0 -0.98002420082E+01  0.22060554624E+02  0.70222946849E+01  0.17303602352E+03  0.17120000000E+03 0.  0.
        998    1    1    2    0    0 -0.25679141977E+01  0.16035410151E+02  0.13366697633E+04  0.13368058141E+04  0.10000000000E+02 0. -1.
</event>
<event>
 5    1  0.1147307E-008  0.3736262E+03  0.7957747E-01  0.3479390E+00
         13   -1    0    0    0    0  0.00000000000E+00  0.00000000000E+00  0.14999999963E+04  0.15000000000E+04  0.10566000000E+00 0. -1.
        994   -1    0    0    0    0 -0.00000000000E+00 -0.00000000000E+00  0.11368683772E-12  0.17120000000E+03  0.17120000000E+03 0.  0.
         13    1    1    2    0    0  0.24306603821E+02 -0.11097155867E+02  0.45358112208E+02  0.52643398111E+02  0.10566000000E+00 0. -1.
        994    1    1    2    0    0 -0.16415562098E+02  0.81706113631E+01  0.85349351450E+01  0.17239058758E+03  0.17120000000E+03 0.  0.
        998    1    1    2    0    0 -0.78910417230E+01  0.29265445035E+01  0.14461069489E+04  0.14461660143E+04  0.10000000000E+02 0. -1.
</event>
<event>
 5    1  0.1147307E-008  0.3839610E+03  0.7957747E-01  0.3434091E+00
         13   -1    0    0    0    0  0.00000000000E+00  0.00000000000E+00  0.14999999963E+04  0.15000000000E+04  0.10566000000E+00 0. -1.
        994   -1    0    0    0    0 -0.00000000000E+00 -0.00000000000E+00  0.11368683772E-12  0.17120000000E+03  0.17120000000E+03 0.  0.
         13    1    1    2    0    0 -0.95545210737E+01 -0.65488937401E+01  0.29832251706E+02  0.32002363789E+02  0.10566000000E+00 0. -1.
        994    1    1    2    0    0  0.12551176627E+02  0.79168542258E+01  0.28738400773E+01  0.17186595815E+03  0.17120000000E+03 0.  0.
        998    1    1    2    0    0 -0.29966555535E+01 -0.13679604857E+01  0.14672939045E+04  0.14673316781E+04  0.10000000000E+02 0. -1.
</event>
<event>
 5    1  0.1147307E-008  0.3854238E+03  0.7957747E-01  0.3427877E+00
         13   -1    0    0    0    0  0.00000000000E+00  0.00000000000E+00  0.14999999963E+04  0.15000000000E+04  0.10566000000E+00 0. -1.
        994   -1    0    0    0    0 -0.00000000000E+00 -0.00000000000E+00  0.11368683772E-12  0.17120000000E+03  0.17120000000E+03 0.  0.
         13    1    1    2    0    0  0.14290187902E+03 -0.56021209325E+02  0.87759778139E+03  0.89091930049E+03  0.10566000000E+00 0. -1.
        994    1    1    2    0    0 -0.18047167751E+03  0.65462758195E+02  0.13361385587E+03  0.28985772644E+03  0.17120000000E+03 0.  0.
        998    1    1    2    0    0  0.37569798492E+02 -0.94415488700E+01  0.48878835902E+03  0.49042297307E+03  0.10000000000E+02 0. -1.
</event>
<event>
 5    1  0.1147307E-008  0.3790475E+03  0.7957747E-01  0.3455317E+00
         13   -1    0    0    0    0  0.00000000000E+00  0.00000000000E+00  0.14999999963E+04  0.15000000000E+04  0.10566000000E+00 0.  1.
        994   -1    0    0    0    0 -0.00000000000E+00 -0.00000000000E+00  0.11368683772E-12  0.17120000000E+03  0.17120000000E+03 0.  0.
         13    1    1    2    0    0  0.22548020418E+02  0.45635149378E+02  0.23279621118E+03  0.23829617535E+03  0.10566000000E+00 0.  1.
        994    1    1    2    0    0 -0.24618621789E+02 -0.47528031760E+02  0.14283100970E+02  0.17994009368E+03  0.17120000000E+03 0.  0.
        998    1    1    2    0    0  0.20706013707E+01  0.18928823824E+01  0.12529206841E+04  0.12529637310E+04  0.10000000000E+02 0.  1.
</event>
<event>
 5    1  0.1147307E-008  0.3895997E+03  0.7957747E-01  0.3410395E+00
         13   -1    0    0    0    0  0.00000000000E+00  0.00000000000E+00  0.14999999963E+04  0.15000000000E+04  0.10566000000E+00 0.  1.
        994   -1    0    0    0    0 -0.00000000000E+00 -0.00000000000E+00  0.11368683772E-12  0.17120000000E+03  0.17120000000E+03 0.  0.
         13    1    1    2    0    0 -0.62657422502E+02  0.33983738011E+02  0.11139232974E+03  0.13224639629E+03  0.10566000000E+00 0.  1.
        994    1    1    2    0    0  0.44161333716E+02 -0.13975560870E+02  0.29806796695E+02  0.17984277808E+03  0.17120000000E+03 0.  0.
        998    1    1    2    0    0  0.18496088786E+02 -0.20008177141E+02  0.13588008698E+04  0.13591108256E+04  0.10000000000E+02 0.  1.
</event>
<event>
 5    1  0.1147307E-008  0.3843784E+03  0.7957747E-01  0.3432313E+00
         13   -1    0    0    0    0  0.00000000000E+00  0.00000000000E+00  0.14999999963E+04  0.15000000000E+04  0.10566000000E+00 0. -1.
        994   -1    0    0    0    0 -0.00000000000E+00 -0.00000000000E+00  0.11368683772E-12  0.17120000000E+03  0.17120000000E+03 0.  0.
         13    1    1    2    0    0 -0.15831096693E+02  0.15379700278E+02  0.11004452356E+03  0.11223621133E+03  0.10566000000E+00 0. -1.
        994    1    1    2    0    0  0.17837243214E+02 -0.26560647312E+02  0.53195398390E+01  0.17424515125E+03  0.17120000000E+03 0.  0.
        998    1    1    2    0    0 -0.20061465212E+01  0.11180947034E+02  0.13846359329E+04  0.13847186374E+04  0.10000000000E+02 0. -1.
</event>
<event>
 5    1  0.1147307E-008  0.3731503E+03  0.7957747E-01  0.3481537E+00
         13   -1    0    0    0    0  0.00000000000E+00  0.00000000000E+00  0.14999999963E+04  0.15000000000E+04  0.10566000000E+00 0.  1.
        994   -1    0    0    0    0 -0.00000000000E+00 -0.00000000000E+00  0.11368683772E-12  0.17120000000E+03  0.17120000000E+03 0.  0.
         13    1    1    2    0    0  0.36826772491E+02  0.10316252480E+02  0.91764319840E+02  0.99414977730E+02  0.10566000000E+00 0.  1.
        994    1    1    2    0    0 -0.21798936796E+02 -0.24478282660E+02  0.11315500828E+02  0.17467644525E+03  0.17120000000E+03 0.  0.
        998    1    1    2    0    0 -0.15027835695E+02  0.14162030180E+02  0.13969201756E+04  0.13971085770E+04  0.10000000000E+02 0.  1.
</event>
<event>
 5    1  0.1147307E-008  0.3762165E+03  0.7957747E-01  0.3467800E+00
         13   -1    0    0    0    0  0.00000000000E+00  0.00000000000E+00  0.14999999963E+04  0.15000000000E+04  0.10566000000E+00 0.  1.
        994   -1    0    0    0    0 -0.00000000000E+00 -0.00000000000E+00  0.11368683772E-12  0.17120000000E+03  0.17120000000E+03 0.  0.
         13    1    1    2    0    0 -0.30301888568E+01 -0.10078703688E+02  0.63269933827E+01  0.12280241115E+02  0.10566000000E+00 0.  1.
        994    1    1    2    0    0 -0.86678869802E+01  0.13389999465E+02  0.69171166809E+01  0.17208053595E+03  0.17120000000E+03 0.  0.
        998    1    1    2    0    0  0.11698075837E+02 -0.33112957776E+01  0.14867558862E+04  0.14868392229E+04  0.10000000000E+02 0.  1.
</event>
<event>
 5    1  0.1147307E-008  0.3747222E+03  0.7957747E-01  0.3474466E+00
         13   -1    0    0    0    0  0.00000000000E+00  0.00000000000E+00  0.14999999963E+04  0.15000000000E+04  0.10566000000E+00 0. -1.
        994   -1    0    0    0    0 -0.00000000000E+00 -0.00000000000E+00  0.11368683772E-12  0.17120000000E+03  0.17120000000E+03 0.  0.
         13    1    1    2    0    0 -0.89776303198E+01  0.25523931300E+02  0.53124389274E+02  0.59617789417E+02  0.10566000000E+00 0. -1.
        994    1    1    2    0    0 -0.15180703726E+02 -0.10775212673E+02  0.80014670470E+01  0.17239496062E+03  0.17120000000E+03 0.  0.
        998    1    1    2    0    0  0.24158334046E+02 -0.14748718628E+02  0.14388741400E+04  0.14391872500E+04  0.10000000000E+02 0. -1.
</event>
<event>
 5    1  0.1147307E-008  0.3789646E+03  0.7957747E-01  0.3455679E+00
         13   -1    0    0    0    0  0.00000000000E+00  0.00000000000E+00  0.14999999963E+04  0.15000000000E+04  0.10566000000E+00 0.  1.
        994   -1    0    0    0    0 -0.00000000000E+00 -0.00000000000E+00  0.11368683772E-12  0.17120000000E+03  0.17120000000E+03 0.  0.
         13    1    1    2    0    0 -0.57402339471E+00  0.14937481394E+02  0.22173287078E+02  0.26741796446E+02  0.10566000000E+00 0.  1.
        994    1    1    2    0    0  0.28853523872E+02 -0.68983614764E+01  0.76146213118E+01  0.17391818677E+03  0.17120000000E+03 0.  0.
        998    1    1    2    0    0 -0.28279500477E+02 -0.80391199177E+01  0.14702120879E+04  0.14705400168E+04  0.10000000000E+02 0.  1.
</event>
<event>
 5    1  0.1147307E-008  0.3700963E+03  0.7957747E-01  0.3495449E+00
         13   -1    0    0    0    0  0.00000000000E+00  0.00000000000E+00  0.14999999963E+04  0.15000000000E+04  0.10566000000E+00 0. -1.
        994   -1    0    0    0    0 -0.00000000000E+00 -0.00000000000E+00  0.11368683772E-12  0.17120000000E+03  0.17120000000E+03 0.  0.
         13    1    1    2    0    0 -0.36261101421E+02 -0.40444594596E+02  0.11749668535E+03  0.12944541298E+03  0.10566000000E+00 0. -1.
        994    1    1    2    0    0  0.53822913982E+02  0.34372267495E+02  0.25391896283E+02  0.18447912413E+03  0.17120000000E+03 0.  0.
        998    1    1    2    0    0 -0.17561812560E+02  0.60723271002E+01  0.13571114146E+04  0.13572754629E+04  0.10000000000E+02 0. -1.
</event>
<event>
 5    1  0.1147307E-008  0.3774680E+03  0.7957747E-01  0.3462258E+00
         13   -1    0    0    0    0  0.00000000000E+00  0.00000000000E+00  0.14999999963E+04  0.15000000000E+04  0.10566000000E+00 0. -1.
        994   -1    0    0    0    0 -0.00000000000E+00 -0.00000000000E+00  0.11368683772E-12  0.17120000000E+03  0.17120000000E+03 0.  0.
         13    1    1    2    0    0  0.14803884159E+02  0.50679355015E+02  0.15035742370E+03  0.15935783017E+03  0.10566000000E+00 0. -1.
        994    1    1    2    0    0  0.19124536838E+02 -0.14172774140E+03  0.77795872988E+02  0.23625016073E+03  0.17120000000E+03 0.  0.
        998    1    1    2    0    0 -0.33928420997E+02  0.91048386385E+02  0.12718466996E+04  0.12755920091E+04  0.10000000000E+02 0. -1.
</event>
<event>
 5    1  0.1147307E-008  0.3790150E+03  0.7957747E-01  0.3455458E+00
         13   -1    0    0    0    0  0.00000000000E+00  0.00000000000E+00  0.14999999963E+04  0.15000000000E+04  0.10566000000E+00 0. -1.
        994   -1    0    0    0    0 -0.00000000000E+00 -0.00000000000E+00  0.11368683772E-12  0.17120000000E+03  0.17120000000E+03 0.  0.
         13    1    1    2    0    0 -0.60095706118E-01 -0.26704810705E+02  0.71918856695E+02  0.76716905820E+02  0.10566000000E+00 0. -1.
        994    1    1    2    0    0 -0.92531620893E+00  0.27755629611E+02  0.72220680642E+01  0.17358810285E+03  0.17120000000E+03 0.  0.
        998    1    1    2    0    0  0.98541191505E+00 -0.10508189065E+01  0.14208590715E+04  0.14208949913E+04  0.10000000000E+02 0. -1.
</event>
<event>
 5    1  0.1147307E-008  0.3859564E+03  0.7957747E-01  0.3425626E+00
         13   -1    0    0    0    0  0.00000000000E+00  0.00000000000E+00  0.14999999963E+04  0.15000000000E+04  0.10566000000E+00 0. -1.
        994   -1    0    0    0    0 -0.00000000000E+00 -0.00000000000E+00  0.11368683772E-12  0.17120000000E+03  0.17120000000E+03 0.  0.
         13    1    1    2    0    0  0.49295238730E+01  0.91002273357E+01  0.47177968565E+02  0.48299960923E+02  0.10566000000E+00 0. -1.
        994    1    1    2    0    0  0.54162308014E+01 -0.96735268300E+01  0.15591120236E+01  0.17156568278E+03  0.17120000000E+03 0.  0.
        998    1    1    2    0    0 -0.10345754674E+02  0.57329949423E+00  0.14512629157E+04  0.14513343563E+04  0.10000000000E+02 0. -1.
</event>
<event>
 5    1  0.1147307E-008  0.3716384E+03  0.7957747E-01  0.3488395E+00
         13   -1    0    0    0    0  0.00000000000E+00  0.00000000000E+00  0.14999999963E+04  0.15000000000E+04  0.10566000000E+00 0. -1.
        994   -1    0    0    0    0 -0.00000000000E+00 -0.00000000000E+00  0.11368683772E-12  0.17120000000E+03  0.17120000000E+03 0.  0.
         13    1    1    2    0    0 -0.26456745972E+02 -0.18515956270E+02  0.62727302011E+02  0.70551581313E+02  0.10566000000E+00 0. -1.
        994    1    1    2    0    0  0.36346480255E+01 -0.39926584348E+01  0.85154513332E+01  0.17149666148E+03  0.17120000000E+03 0.  0.
        998    1    1    2    0    0  0.22822097946E+02  0.22508614705E+02  0.14287572429E+04  0.14291517572E+04  0.10000000000E+02 0. -1.
</event>
<event>
 5    1  0.1147307E-008  0.3853941E+03  0.7957747E-01  0.3428003E+00
         13   -1    0    0    0    0  0.00000000000E+00  0.00000000000E+00  0.14999999963E+04  0.15000000000E+04  0.10566000000E+00 0. -1.
        994   -1    0    0    0    0 -0.00000000000E+00 -0.00000000000E+00  0.11368683772E-12  0.17120000000E+03  0.17120000000E+03 0.  0.
         13    1    1    2    0    0  0.10148388329E+02 -0.44429011180E+01  0.42933019553E+02  0.44339423631E+02  0.10566000000E+00 0. -1.
        994    1    1    2    0    0 -0.89502220052E+01 -0.24563512103E+01  0.17175981834E+01  0.17145999615E+03  0.17120000000E+03 0.  0.
        998    1    1    2    0    0 -0.11981663234E+01  0.68992523283E+01  0.14553493785E+04  0.14554005802E+04  0.10000000000E+02 0. -1.
</event>
<event>
 5    1  0.1147307E-008  0.3860651E+03  0.7957747E-01  0.3425168E+00
         13   -1    0    0    0    0  0.00000000000E+00  0.00000000000E+00  0.14999999963E+04  0.15000000000E+04  0.10566000000E+00 0. -1.
        994   -1    0    0    0    0 -0.00000000000E+00 -0.00000000000E+00  0.11368683772E-12  0.17120000000E+03  0.17120000000E+03 0.  0.
         13    1    1    2    0    0 -0.34214091888E+01 -0.12200964584E+02  0.69856137598E+02  0.70996202024E+02  0.10566000000E+00 0. -1.
        994    1    1    2    0    0  0.98755879048E+01  0.13198822584E+02  0.19933445564E+01  0.17200334176E+03  0.17120000000E+03 0.  0.
        998    1    1    2    0    0 -0.64541787160E+01 -0.99785799958E+00  0.14281505141E+04  0.14282004562E+04  0.10000000000E+02 0. -1.
</event>
<event>
 5    1  0.1147307E-008  0.3740159E+03  0.7957747E-01  0.3477636E+00
         13   -1    0    0    0    0  0.00000000000E+00  0.00000000000E+00  0.14999999963E+04  0.15000000000E+04  0.10566000000E+00 0.  1.
        994   -1    0    0    0    0 -0.00000000000E+00 -0.00000000000E+00  0.11368683772E-12  0.17120000000E+03  0.17120000000E+03 0.  0.
         13    1    1    2    0    0 -0.43389641663E+02 -0.41045044550E+02  0.27188087833E+03  0.27836411380E+03  0.10566000000E+00 0.  1.
        994    1    1    2    0    0  0.11913998802E+02  0.16441037637E+02  0.85921948107E+01  0.17261377957E+03  0.17120000000E+03 0.  0.
        998    1    1    2    0    0  0.31475642862E+02  0.24604006913E+02  0.12195269231E+04  0.12202221066E+04  0.10000000000E+02 0.  1.
</event>
<event>
 5    1  0.1147307E-008  0.3820968E+03  0.7957747E-01  0.3442079E+00
         13   -1    0    0    0    0  0.00000000000E+00  0.00000000000E+00  0.14999999963E+04  0.15000000000E+04  0.10566000000E+00 0. -1.
        994   -1    0    0    0    0 -0.00000000000E+00 -0.00000000000E+00  0.11368683772E-12  0.17120000000E+03  0.17120000000E+03 0.  0.
         13    1    1    2    0    0  0.10141418649E+02  0.28204951420E+02  0.14553534827E+03  0.14858975879E+03  0.10566000000E+00 0. -1.
        994    1    1    2    0    0  0.47462278098E+01 -0.20197234936E+02  0.45087992101E+01  0.17251151917E+03  0.17120000000E+03 0.  0.
        998    1    1    2    0    0 -0.14887646459E+02 -0.80077164838E+01  0.13499558488E+04  0.13500987220E+04  0.10000000000E+02 0. -1.
</event>
<event>
 5    1  0.1147307E-008  0.3855632E+03  0.7957747E-01  0.3427287E+00
         13   -1    0    0    0    0  0.00000000000E+00  0.00000000000E+00  0.14999999963E+04  0.15000000000E+04  0.10566000000E+00 0. -1.
        994   -1    0    0    0    0 -0.00000000000E+00 -0.00000000000E+00  0.11368683772E-12  0.17120000000E+03  0.17120000000E+03 0.  0.
         13    1    1    2    0    0 -0.54911364691E+01 -0.14733901576E+02  0.89895006949E+02  0.91259870007E+02  0.10566000000E+00 0. -1.
        994    1    1    2    0    0  0.31931303526E+01  0.12756556800E+02  0.19186456733E+01  0.17171501689E+03  0.17120000000E+03 0.  0.
        998    1    1    2    0    0  0.22980061165E+01  0.19773447761E+01  0.14081863437E+04  0.14082251131E+04  0.10000000000E+02 0. -1.
</event>
<event>
 5    1  0.1147307E-008  0.3967849E+03  0.7957747E-01  0.3381179E+00
         13   -1    0    0    0    0  0.00000000000E+00  0.00000000000E+00  0.14999999963E+04  0.15000000000E+04  0.10566000000E+00 0.  1.
        994   -1    0    0    0    0 -0.00000000000E+00 -0.00000000000E+00  0.11368683772E-12  0.17120000000E+03  0.17120000000E+03 0.  0.
         13    1    1    2    0    0  0.71763282291E+02  0.10670976121E+03  0.29032493965E+03  0.31753035063E+03  0.10566000000E+00 0.  1.
        994    1    1    2    0    0 -0.38786395327E+02 -0.90074446656E+02  0.64093623267E+02  0.20744932621E+03  0.17120000000E+03 0.  0.
        998    1    1    2    0    0 -0.32976886964E+02 -0.16635314552E+02  0.11455814334E+04  0.11462203232E+04  0.10000000000E+02 0.  1.
</event>
<event>
 5    1  0.1147307E-008  0.3733328E+03  0.7957747E-01  0.3480713E+00
         13   -1    0    0    0    0  0.00000000000E+00  0.00000000000E+00  0.14999999963E+04  0.15000000000E+04  0.10566000000E+00 0.  1.
        994   -1    0    0    0    0 -0.00000000000E+00 -0.00000000000E+00  0.11368683772E-12  0.17120000000E+03  0.17120000000E+03 0.  0.
         13    1    1    2    0    0  0.25335192013E+02  0.15603728296E+02  0.54323355025E+02  0.61938569214E+02  0.10566000000E+00 0.  1.
        994    1    1    2    0    0 -0.23197363138E+02 -0.16144202118E+02  0.10272682139E+02  0.17382094499E+03  0.17120000000E+03 0.  0.
        998    1    1    2    0    0 -0.21378288744E+01  0.54047382214E+00  0.14354039591E+04  0.14354404858E+04  0.10000000000E+02 0.  1.
</event>
<event>
 5    1  0.1147307E-008  0.3799700E+03  0.7957747E-01  0.3451289E+00
         13   -1    0    0    0    0  0.00000000000E+00  0.00000000000E+00  0.14999999963E+04  0.15000000000E+04  0.10566000000E+00 0.  1.
        994   -1    0    0    0    0 -0.00000000000E+00 -0.00000000000E+00  0.11368683772E-12  0.17120000000E+03  0.17120000000E+03 0.  0.
         13    1    1    2    0    0  0.16263010116E+02  0.22467498208E+02  0.97176787962E+02  0.10105747501E+03  0.10566000000E+00 0.  1.
        994    1    1    2    0    0  0.85464938109E+01 -0.12214360083E+02  0.48915958247E+01  0.17191742453E+03  0.17120000000E+03 0.  0.
        998    1    1    2    0    0 -0.24809503927E+02 -0.10253138126E+02  0.13979316125E+04  0.13982251005E+04  0.10000000000E+02 0.  1.
</event>
<event>
 5    1  0.1147307E-008  0.3823713E+03  0.7957747E-01  0.3440898E+00
         13   -1    0    0    0    0  0.00000000000E+00  0.00000000000E+00  0.14999999963E+04  0.15000000000E+04  0.10566000000E+00 0. -1.
        994   -1    0    0    0    0 -0.00000000000E+00 -0.00000000000E+00  0.11368683772E-12  0.17120000000E+03  0.17120000000E+03 0.  0.
         13    1    1    2    0    0  0.18379372698E+02  0.10075178963E+02  0.77118898257E+02  0.79916495196E+02  0.10566000000E+00 0. -1.
        994    1    1    2    0    0  0.66577563993E+00 -0.11578619204E+02  0.33871827013E+01  0.17162581591E+03  0.17120000000E+03 0.  0.
        998    1    1    2    0    0 -0.19045148338E+02  0.15034402413E+01  0.14194939153E+04  0.14196576889E+04  0.10000000000E+02 0. -1.
</event>
<event>
 5    1  0.1147307E-008  0.3749705E+03  0.7957747E-01  0.3473355E+00
         13   -1    0    0    0    0  0.00000000000E+00  0.00000000000E+00  0.14999999963E+04  0.15000000000E+04  0.10566000000E+00 0. -1.
        994   -1    0    0    0    0 -0.00000000000E+00 -0.00000000000E+00  0.11368683772E-12  0.17120000000E+03  0.17120000000E+03 0.  0.
         13    1    1    2    0    0  0.24782862530E+02  0.62157222812E+02  0.36896311175E+03  0.37498199906E+03  0.10566000000E+00 0. -1.
        994    1    1    2    0    0  0.20559653425E+02 -0.38574877680E+02  0.13217272111E+02  0.17718593855E+03  0.17120000000E+03 0.  0.
        998    1    1    2    0    0 -0.45342515955E+02 -0.23582345132E+02  0.11178196124E+04  0.11190320624E+04  0.10000000000E+02 0. -1.
</event>
<event>
 5    1  0.1147307E-008  0.3840184E+03  0.7957747E-01  0.3433846E+00
         13   -1    0    0    0    0  0.00000000000E+00  0.00000000000E+00  0.14999999963E+04  0.15000000000E+04  0.10566000000E+00 0. -1.
        994   -1    0    0    0    0 -0.00000000000E+00 -0.00000000000E+00  0.11368683772E-12  0.17120000000E+03  0.17120000000E+03 0.  0.
         13    1    1    2    0    0 -0.16797099553E+02  0.61068945851E+00  0.64933659374E+02  0.67073890440E+02  0.10566000000E+00 0. -1.
        994    1    1    2    0    0  0.14477758635E+02 -0.28221252251E+01  0.28363816372E+01  0.17185765897E+03  0.17120000000E+03 0.  0.
        998    1    1    2    0    0  0.23193409173E+01  0.22114357666E+01  0.14322299553E+04  0.14322684506E+04  0.10000000000E+02 0. -1.
</event>
<event>
 5    1  0.1147307E-008  0.3773606E+03  0.7957747E-01  0.3462732E+00
         13   -1    0    0    0    0  0.00000000000E+00  0.00000000000E+00  0.14999999963E+04  0.15000000000E+04  0.10566000000E+00 0.  1.
        994   -1    0    0    0    0 -0.00000000000E+00 -0.00000000000E+00  0.11368683772E-12  0.17120000000E+03  0.17120000000E+03 0.  0.
         13    1    1    2    0    0  0.20327949222E+02 -0.38326325130E+02  0.16928475145E+03  0.17475546044E+03  0.10566000000E+00 0.  1.
        994    1    1    2    0    0 -0.26079744921E+02  0.16049898783E+02  0.86403885955E+01  0.17413169919E+03  0.17120000000E+03 0.  0.
        998    1    1    2    0    0  0.57517956994E+01  0.22276426347E+02  0.13220748562E+04  0.13223128404E+04  0.10000000000E+02 0.  1.
</event>
<event>
 5    1  0.1147307E-008  0.3697551E+03  0.7957747E-01  0.3497017E+00
         13   -1    0    0    0    0  0.00000000000E+00  0.00000000000E+00  0.14999999963E+04  0.15000000000E+04  0.10566000000E+00 0.  1.
        994   -1    0    0    0    0 -0.00000000000E+00 -0.00000000000E+00  0.11368683772E-12  0.17120000000E+03  0.17120000000E+03 0.  0.
         13    1    1    2    0    0 -0.77387810704E+01  0.17439987193E+02  0.14970257996E+02  0.24252044744E+02  0.10566000000E+00 0.  1.
        994    1    1    2    0    0  0.96357818256E+01 -0.20383877195E+02  0.11158297919E+02  0.17303843028E+03  0.17120000000E+03 0.  0.
        998    1    1    2    0    0 -0.18970007551E+01  0.29438900015E+01  0.14738714404E+04  0.14739095250E+04  0.10000000000E+02 0.  1.
</event>
<event>
 5    1  0.1147307E-008  0.3832856E+03  0.7957747E-01  0.3436976E+00
         13   -1    0    0    0    0  0.00000000000E+00  0.00000000000E+00  0.14999999963E+04  0.15000000000E+04  0.10566000000E+00 0.  1.
        994   -1    0    0    0    0 -0.00000000000E+00 -0.00000000000E+00  0.11368683772E-12  0.17120000000E+03  0.17120000000E+03 0.  0.
         13    1    1    2    0    0  0.25926470389E+02 -0.17229565793E+01  0.12822916896E+03  0.13083532161E+03  0.10566000000E+00 0.  1.
        994    1    1    2    0    0 -0.23168366219E+02 -0.89208293937E+00  0.42634612523E+01  0.17281546837E+03  0.17120000000E+03 0.  0.
        998    1    1    2    0    0 -0.27581041697E+01  0.26150395187E+01  0.13675073661E+04  0.13675492100E+04  0.10000000000E+02 0.  1.
</event>
<event>
 5    1  0.1147307E-008  0.3822861E+03  0.7957747E-01  0.3441264E+00
         13   -1    0    0    0    0  0.00000000000E+00  0.00000000000E+00  0.14999999963E+04  0.15000000000E+04  0.10566000000E+00 0. -1.
        994   -1    0    0    0    0 -0.00000000000E+00 -0.00000000000E+00  0.11368683772E-12  0.17120000000E+03  0.17120000000E+03 0.  0.
         13    1    1    2    0    0 -0.99705726286E+01 -0.37112828497E+01  0.17753532200E+02  0.20697463819E+02  0.10566000000E+00 0. -1.
        994    1    1    2    0    0  0.78718823244E+01  0.20877833757E+01  0.32036492349E+01  0.17142353613E+03  0.17120000000E+03 0.  0.
        998    1    1    2    0    0  0.20986903042E+01  0.16234994739E+01  0.14790428148E+04  0.14790790001E+04  0.10000000000E+02 0. -1.
</event>
<event>
 5    1  0.1147307E-008  0.3805340E+03  0.7957747E-01  0.3448837E+00
         13   -1    0    0    0    0  0.00000000000E+00  0.00000000000E+00  0.14999999963E+04  0.15000000000E+04  0.10566000000E+00 0.  1.
        994   -1    0    0    0    0 -0.00000000000E+00 -0.00000000000E+00  0.11368683772E-12  0.17120000000E+03  0.17120000000E+03 0.  0.
         13    1    1    2    0    0  0.71751527293E+01  0.70052176767E+01  0.11330363189E+02  0.15130901672E+02  0.10566000000E+00 0.  1.
        994    1    1    2    0    0  0.12202293093E+01 -0.11245586535E+02  0.42909494283E+01  0.17162693385E+03  0.17120000000E+03 0.  0.
        998    1    1    2    0    0 -0.83953820387E+01  0.42403688584E+01  0.14843786837E+04  0.14844421645E+04  0.10000000000E+02 0.  1.
</event>
<event>
 5    1  0.1147307E-008  0.3819031E+03  0.7957747E-01  0.3442914E+00
         13   -1    0    0    0    0  0.00000000000E+00  0.00000000000E+00  0.14999999963E+04  0.15000000000E+04  0.10566000000E+00 0. -1.
        994   -1    0    0    0    0 -0.00000000000E+00 -0.00000000000E+00  0.11368683772E-12  0.17120000000E+03  0.17120000000E+03 0.  0.
         13    1    1    2    0    0  0.35904077559E+02  0.60670660153E+02  0.12150328955E+03  0.14047452554E+03  0.10566000000E+00 0. -1.
        994    1    1    2    0    0 -0.45529002081E+02 -0.68398537449E+02  0.42448788922E+02  0.19458311755E+03  0.17120000000E+03 0.  0.
        998    1    1    2    0    0  0.96249245222E+01  0.77278772960E+01  0.13360479178E+04  0.13361423569E+04  0.10000000000E+02 0. -1.
</event>
<event>
 5    1  0.1147307E-008  0.3736227E+03  0.7957747E-01  0.3479405E+00
         13   -1    0    0    0    0  0.00000000000E+00  0.00000000000E+00  0.14999999963E+04  0.15000000000E+04  0.10566000000E+00 0.  1.
        994   -1    0    0    0    0 -0.00000000000E+00 -0.00000000000E+00  0.11368683772E-12  0.17120000000E+03  0.17120000000E+03 0.  0.
         13    1    1    2    0    0  0.47957286779E+02  0.88380039161E+01  0.14263202091E+03  0.15073790572E+03  0.10566000000E+00 0.  1.
        994    1    1    2    0    0 -0.50665010353E+02 -0.67115670953E+01  0.16360808089E+02  0.17941322261E+03  0.17120000000E+03 0.  0.
        998    1    1    2    0    0  0.27077235745E+01 -0.21264368208E+01  0.13410071673E+04  0.13410488717E+04  0.10000000000E+02 0.  0.
</event>
<event>
 5    1  0.1147307E-008  0.3824259E+03  0.7957747E-01  0.3440663E+00
         13   -1    0    0    0    0  0.00000000000E+00  0.00000000000E+00  0.14999999963E+04  0.15000000000E+04  0.10566000000E+00 0.  1.
        994   -1    0    0    0    0 -0.00000000000E+00 -0.00000000000E+00  0.11368683772E-12  0.17120000000E+03  0.17120000000E+03 0.  0.
         13    1    1    2    0    0 -0.19215288362E+02 -0.11462636950E+02  0.85670618511E+02  0.88544256690E+02  0.10566000000E+00 0.  1.
        994    1    1    2    0    0  0.15380734213E+02 -0.10217688496E+01  0.37019485393E+01  0.17193241527E+03  0.17120000000E+03 0.  0.
        998    1    1    2    0    0  0.38345541492E+01  0.12484405800E+02  0.14106274292E+04  0.14107233280E+04  0.10000000000E+02 0.  1.
</event>
<event>
 5    1  0.1147307E-008  0.3849970E+03  0.7957747E-01  0.3429685E+00
         13   -1    0    0    0    0  0.00000000000E+00  0.00000000000E+00  0.14999999963E+04  0.15000000000E+04  0.10566000000E+00 0. -1.
        994   -1    0    0    0    0 -0.00000000000E+00 -0.00000000000E+00  0.11368683772E-12  0.17120000000E+03  0.17120000000E+03 0.  0.
         13    1    1    2    0    0 -0.12460750481E+02  0.14119930058E+02  0.10581887970E+03  0.10748157606E+03  0.10566000000E+00 0. -1.
        994    1    1    2    0    0  0.11696022936E+02 -0.10131589605E+02  0.24194628610E+01  0.17191492041E+03  0.17120000000E+03 0.  0.
        998    1    1    2    0    0  0.76472754507E+00 -0.39883404528E+01  0.13917616537E+04  0.13918035035E+04  0.10000000000E+02 0. -1.
</event>
<event>
 5    1  0.1147307E-008  0.3747681E+03  0.7957747E-01  0.3474261E+00
         13   -1    0    0    0    0  0.00000000000E+00  0.00000000000E+00  0.14999999963E+04  0.15000000000E+04  0.10566000000E+00 0. -1.
        994   -1    0    0    0    0 -0.00000000000E+00 -0.00000000000E+00  0.11368683772E-12  0.17120000000E+03  0.17120000000E+03 0.  0.
         13    1    1    2    0    0 -0.34262757093E+02 -0.18698188256E+02  0.12453255269E+03  0.13050642364E+03  0.10566000000E+00 0. -1.
        994    1    1    2    0    0  0.41284165247E+00 -0.77160883646E+01  0.70010337948E+01  0.17151723800E+03  0.17120000000E+03 0.  0.
        998    1    1    2    0    0  0.33849915441E+02  0.26414276620E+02  0.13684664098E+04  0.13691763384E+04  0.10000000000E+02 0. -1.
</event>
<event>
 5    1  0.1147307E-008  0.3692880E+03  0.7957747E-01  0.3499169E+00
         13   -1    0    0    0    0  0.00000000000E+00  0.00000000000E+00  0.14999999963E+04  0.15000000000E+04  0.10566000000E+00 0. -1.
        994   -1    0    0    0    0 -0.00000000000E+00 -0.00000000000E+00  0.11368683772E-12  0.17120000000E+03  0.17120000000E+03 0.  0.
         13    1    1    2    0    0  0.15314503872E+02 -0.34882698655E+02  0.66168179241E+02  0.76351658806E+02  0.10566000000E+00 0. -1.
        994    1    1    2    0    0 -0.29715999022E+02  0.41755839452E+02  0.18801669878E+02  0.17969288666E+03  0.17120000000E+03 0.  0.
        998    1    1    2    0    0  0.14401495150E+02 -0.68731407970E+01  0.14150301472E+04  0.14151554545E+04  0.10000000000E+02 0. -1.
</event>
<event>
 5    1  0.1550279E-008  0.3857874E+03  0.7957747E-01  0.3426339E+00
         13   -1    0    0    0    0  0.00000000000E+00  0.00000000000E+00  0.14999999963E+04  0.15000000000E+04  0.10566000000E+00 0.  1.
        994   -1    0    0    0    0 -0.00000000000E+00 -0.00000000000E+00  0.11368683772E-12  0.17120000000E+03  0.17120000000E+03 0.  0.
         13    1    1    2    0    0 -0.10754668389E+02  0.78559844712E+01  0.68946887295E+02  0.70221533847E+02  0.10566000000E+00 0.  1.
        994    1    1    2    0    0  0.11734134028E+02 -0.93229294546E+01  0.19768138578E+01  0.17186609528E+03  0.17120000000E+03 0.  0.
        998    1    1    2    0    0 -0.97946563996E+00  0.14669449834E+01  0.14290762951E+04  0.14291123709E+04  0.10000000000E+02 0.  1.
</event>
<event>
 5    1  0.1147307E-008  0.3734662E+03  0.7957747E-01  0.3480111E+00
         13   -1    0    0    0    0  0.00000000000E+00  0.00000000000E+00  0.14999999963E+04  0.15000000000E+04  0.10566000000E+00 0. -1.
        994   -1    0    0    0    0 -0.00000000000E+00 -0.00000000000E+00  0.11368683772E-12  0.17120000000E+03  0.17120000000E+03 0.  0.
         13    1    1    2    0    0  0.96022164850E+01  0.94045837711E+01  0.87954887631E+01  0.16063017897E+02  0.10566000000E+00 0. -1.
        994    1    1    2    0    0 -0.78209102693E+01 -0.79044934091E+00  0.76796555960E+01  0.17155234932E+03  0.17120000000E+03 0.  0.
        998    1    1    2    0    0 -0.17813062158E+01 -0.86141344302E+01  0.14835248519E+04  0.14835846328E+04  0.10000000000E+02 0. -1.
</event>
<event>
 5    1  0.1147307E-008  0.3907829E+03  0.7957747E-01  0.3405510E+00
         13   -1    0    0    0    0  0.00000000000E+00  0.00000000000E+00  0.14999999963E+04  0.15000000000E+04  0.10566000000E+00 0.  1.
        994   -1    0    0    0    0 -0.00000000000E+00 -0.00000000000E+00  0.11368683772E-12  0.17120000000E+03  0.17120000000E+03 0.  0.
         13    1    1    2    0    0  0.81884552925E+01 -0.71089374746E+02  0.10079849503E+03  0.12361673740E+03  0.10566000000E+00 0.  1.
        994    1    1    2    0    0 -0.45238855684E+01  0.70140604442E+02  0.41273363051E+02  0.18961302811E+03  0.17120000000E+03 0.  0.
        998    1    1    2    0    0 -0.36645697241E+01  0.94877030427E+00  0.13579281382E+04  0.13579702345E+04  0.10000000000E+02 0.  1.
</event>
<event>
 5    1  0.1147307E-008  0.3846075E+03  0.7957747E-01  0.3431338E+00
         13   -1    0    0    0    0  0.00000000000E+00  0.00000000000E+00  0.14999999963E+04  0.15000000000E+04  0.10566000000E+00 0.  1.
        994   -1    0    0    0    0 -0.00000000000E+00 -0.00000000000E+00  0.11368683772E-12  0.17120000000E+03  0.17120000000E+03 0.  0.
         13    1    1    2    0    0  0.96170982915E+01  0.39389192105E+01  0.28485579707E+02  0.30322319822E+02  0.10566000000E+00 0.  1.
        994    1    1    2    0    0 -0.12534257583E+02 -0.39468423942E+01  0.23939508520E+01  0.17172028470E+03  0.17120000000E+03 0.  0.
        998    1    1    2    0    0  0.29171592916E+01  0.79231836883E-02  0.14691204657E+04  0.14691573955E+04  0.10000000000E+02 0.  1.
</event>
<event>
 5    1  0.1147307E-008  0.3806962E+03  0.7957747E-01  0.3448133E+00
         13   -1    0    0    0    0  0.00000000000E+00  0.00000000000E+00  0.14999999963E+04  0.15000000000E+04  0.10566000000E+00 0. -1.
        994   -1    0    0    0    0 -0.00000000000E+00 -0.00000000000E+00  0.11368683772E-12  0.17120000000E+03  0.17120000000E+03 0.  0.
         13    1    1    2    0    0 -0.34245821190E+01  0.19491585388E+02  0.50360349482E+02  0.54109385763E+02  0.10566000000E+00 0. -1.
        994    1    1    2    0    0  0.27731034775E+01 -0.12819640282E+02  0.43561215247E+01  0.17175694767E+03  0.17120000000E+03 0.  0.
        998    1    1    2    0    0  0.65147864152E+00 -0.66719451064E+01  0.14452835253E+04  0.14453336666E+04  0.10000000000E+02 0. -1.
</event>
<event>
 5    1  0.1147307E-008  0.3853103E+03  0.7957747E-01  0.3428357E+00
         13   -1    0    0    0    0  0.00000000000E+00  0.00000000000E+00  0.14999999963E+04  0.15000000000E+04  0.10566000000E+00 0.  1.
        994   -1    0    0    0    0 -0.00000000000E+00 -0.00000000000E+00  0.11368683772E-12  0.17120000000E+03  0.17120000000E+03 0.  0.
         13    1    1    2    0    0  0.10372730686E+02 -0.10361742879E+02  0.82226519493E+02  0.83523475319E+02  0.10566000000E+00 0.  1.
        994    1    1    2    0    0 -0.19382091466E+00 -0.84579624675E+01  0.17113436304E+01  0.17141745358E+03  0.17120000000E+03 0.  0.
        998    1    1    2    0    0 -0.10178909771E+02  0.18819705346E+02  0.14160621332E+04  0.14162590711E+04  0.10000000000E+02 0.  1.
</event>
<event>
 5    1  0.1147307E-008  0.3822034E+03  0.7957747E-01  0.3441620E+00
         13   -1    0    0    0    0  0.00000000000E+00  0.00000000000E+00  0.14999999963E+04  0.15000000000E+04  0.10566000000E+00 0.  1.
        994   -1    0    0    0    0 -0.00000000000E+00 -0.00000000000E+00  0.11368683772E-12  0.17120000000E+03  0.17120000000E+03 0.  0.
         13    1    1    2    0    0  0.67660177289E+01  0.73983111776E+01  0.15803795798E+02  0.18715905799E+02  0.10566000000E+00 0.  1.
        994    1    1    2    0    0 -0.29500176467E+01  0.64219823104E+01  0.31907733322E+01  0.17137551020E+03  0.17120000000E+03 0.  0.
        998    1    1    2    0    0 -0.38160000822E+01 -0.13820293488E+02  0.14810054271E+04  0.14811085840E+04  0.10000000000E+02 0.  1.
</event>
<event>
 5    1  0.1147307E-008  0.3738955E+03  0.7957747E-01  0.3478177E+00
         13   -1    0    0    0    0  0.00000000000E+00  0.00000000000E+00  0.14999999963E+04  0.15000000000E+04  0.10566000000E+00 0. -1.
        994   -1    0    0    0    0 -0.00000000000E+00 -0.00000000000E+00  0.11368683772E-12  0.17120000000E+03  0.17120000000E+03 0.  0.
         13    1    1    2    0    0 -0.27686938778E+02  0.33303718433E+01  0.26211676224E+02  0.38271674774E+02  0.10566000000E+00 0. -1.
        994    1    1    2    0    0 -0.50763213272E+01  0.48263306040E+02  0.21408303174E+02  0.17922854458E+03  0.17120000000E+03 0.  0.
        998    1    1    2    0    0  0.32763260105E+02 -0.51593677883E+02  0.14523800169E+04  0.14536997806E+04  0.10000000000E+02 0. -1.
</event>
<event>
 5    1  0.1147307E-008  0.3848608E+03  0.7957747E-01  0.3430263E+00
         13   -1    0    0    0    0  0.00000000000E+00  0.00000000000E+00  0.14999999963E+04  0.15000000000E+04  0.10566000000E+00 0.  1.
        994   -1    0    0    0    0 -0.00000000000E+00 -0.00000000000E+00  0.11368683772E-12  0.17120000000E+03  0.17120000000E+03 0.  0.
         13    1    1    2    0    0 -0.16875298876E+02  0.78472666240E+01  0.93506369680E+02  0.95340482694E+02  0.10566000000E+00 0.  1.
        994    1    1    2    0    0  0.21124659451E+02 -0.10517805158E+02  0.35335817654E+01  0.17285485721E+03  0.17120000000E+03 0.  0.
        998    1    1    2    0    0 -0.42493605749E+01  0.26705385337E+01  0.14029600448E+04  0.14030046601E+04  0.10000000000E+02 0.  1.
</event>
<event>
 5    1  0.1147307E-008  0.3717449E+03  0.7957747E-01  0.3487910E+00
         13   -1    0    0    0    0  0.00000000000E+00  0.00000000000E+00  0.14999999963E+04  0.15000000000E+04  0.10566000000E+00 0.  1.
        994   -1    0    0    0    0 -0.00000000000E+00 -0.00000000000E+00  0.11368683772E-12  0.17120000000E+03  0.17120000000E+03 0.  0.
         13    1    1    2    0    0  0.25582511969E+02 -0.31129565698E+02  0.89100448543E+02  0.97787605931E+02  0.10566000000E+00 0.  1.
        994    1    1    2    0    0 -0.26055081093E+02  0.30438473633E+02  0.13897663012E+02  0.17637446801E+03  0.17120000000E+03 0.  0.
        998    1    1    2    0    0  0.47256912359E+00  0.69109206508E+00  0.13970018847E+04  0.13970379261E+04  0.10000000000E+02 0.  0.
</event>
<event>
 5    1  0.1147307E-008  0.3833176E+03  0.7957747E-01  0.3436839E+00
         13   -1    0    0    0    0  0.00000000000E+00  0.00000000000E+00  0.14999999963E+04  0.15000000000E+04  0.10566000000E+00 0.  1.
        994   -1    0    0    0    0 -0.00000000000E+00 -0.00000000000E+00  0.11368683772E-12  0.17120000000E+03  0.17120000000E+03 0.  0.
         13    1    1    2    0    0  0.94518973250E+01  0.13207640261E+02  0.55637494973E+02  0.57959659551E+02  0.10566000000E+00 0.  1.
        994    1    1    2    0    0  0.76554328912E+01 -0.53775459439E+01  0.27572012491E+01  0.17147759566E+03  0.17120000000E+03 0.  0.
        998    1    1    2    0    0 -0.17107330216E+02 -0.78300943170E+01  0.14416053001E+04  0.14417627448E+04  0.10000000000E+02 0.  1.
</event>
<event>
 5    1  0.1147307E-008  0.3762724E+03  0.7957747E-01  0.3467552E+00
         13   -1    0    0    0    0  0.00000000000E+00  0.00000000000E+00  0.14999999963E+04  0.15000000000E+04  0.10566000000E+00 0. -1.
        994   -1    0    0    0    0 -0.00000000000E+00 -0.00000000000E+00  0.11368683772E-12  0.17120000000E+03  0.17120000000E+03 0.  0.
         13    1    1    2    0    0 -0.24176210812E+02 -0.28978299412E+02  0.12481828809E+03  0.13039880065E+03  0.10566000000E+00 0. -1.
        994    1    1    2    0    0  0.11950690023E+02  0.38187948242E+00  0.65108163786E+01  0.17174048898E+03  0.17120000000E+03 0.  0.
        998    1    1    2    0    0  0.12225520789E+02  0.28596419930E+02  0.13686708918E+04  0.13690607104E+04  0.10000000000E+02 0. -1.
</event>
<event>
 5    1  0.1147307E-008  0.3806223E+03  0.7957747E-01  0.3448453E+00
         13   -1    0    0    0    0  0.00000000000E+00  0.00000000000E+00  0.14999999963E+04  0.15000000000E+04  0.10566000000E+00 0. -1.
        994   -1    0    0    0    0 -0.00000000000E+00 -0.00000000000E+00  0.11368683772E-12  0.17120000000E+03  0.17120000000E+03 0.  0.
         13    1    1    2    0    0 -0.26267657387E+02  0.10092018843E+01  0.87871432605E+02  0.91719180901E+02  0.10566000000E+00 0. -1.
        994    1    1    2    0    0  0.19340147879E+02  0.50954759703E+01  0.51549263699E+01  0.17244134789E+03  0.17120000000E+03 0.  0.
        998    1    1    2    0    0  0.69275095079E+01 -0.61046778546E+01  0.14069736373E+04  0.14070394712E+04  0.10000000000E+02 0. -1.
</event>
<event>
 5    1  0.1147307E-008  0.3847161E+03  0.7957747E-01  0.3430877E+00
         13   -1    0    0    0    0  0.00000000000E+00  0.00000000000E+00  0.14999999963E+04  0.15000000000E+04  0.10566000000E+00 0. -1.
        994   -1    0    0    0    0 -0.00000000000E+00 -0.00000000000E+00  0.11368683772E-12  0.17120000000E+03  0.17120000000E+03 0.  0.
         13    1    1    2    0    0  0.11625636531E+02 -0.93491177023E+01  0.67012167333E+02  0.68652772422E+02  0.10566000000E+00 0. -1.
        994    1    1    2    0    0 -0.37053211837E+01 -0.58527965430E+01  0.19291401326E+01  0.17135094460E+03  0.17120000000E+03 0.  0.
        998    1    1    2    0    0 -0.79203153475E+01  0.15201914245E+02  0.14310586888E+04  0.14311962830E+04  0.10000000000E+02 0. -1.
</event>
<event>
 5    1  0.1147307E-008  0.3832704E+03  0.7957747E-01  0.3437041E+00
         13   -1    0    0    0    0  0.00000000000E+00  0.00000000000E+00  0.14999999963E+04  0.15000000000E+04  0.10566000000E+00 0.  1.
        994   -1    0    0    0    0 -0.00000000000E+00 -0.00000000000E+00  0.11368683772E-12  0.17120000000E+03  0.17120000000E+03 0.  0.
         13    1    1    2    0    0 -0.25670731817E+02  0.84098343208E+01  0.13791919033E+03  0.14053976665E+03  0.10566000000E+00 0.  1.
        994    1    1    2    0    0  0.21691178128E+02 -0.95509832891E+01  0.43512508862E+01  0.17288754112E+03  0.17120000000E+03 0.  0.
        998    1    1    2    0    0  0.39795536888E+01  0.11411489683E+01  0.13577295551E+04  0.13577726922E+04  0.10000000000E+02 0.  1.
</event>
<event>
 5    1  0.1147307E-008  0.3832178E+03  0.7957747E-01  0.3437266E+00
         13   -1    0    0    0    0  0.00000000000E+00  0.00000000000E+00  0.14999999963E+04  0.15000000000E+04  0.10566000000E+00 0. -1.
        994   -1    0    0    0    0 -0.00000000000E+00 -0.00000000000E+00  0.11368683772E-12  0.17120000000E+03  0.17120000000E+03 0.  0.
         13    1    1    2    0    0 -0.16597544828E+02 -0.11299980859E+02  0.90818112016E+02  0.93011336384E+02  0.10566000000E+00 0. -1.
        994    1    1    2    0    0 -0.36846796693E+01 -0.10147762995E+02  0.29031791511E+01  0.17156463041E+03  0.17120000000E+03 0.  0.
        998    1    1    2    0    0  0.20282224497E+02  0.21447743853E+02  0.14062787051E+04  0.14066240332E+04  0.10000000000E+02 0. -1.
</event>
<event>
 5    1  0.1147307E-008  0.3739838E+03  0.7957747E-01  0.3477780E+00
         13   -1    0    0    0    0  0.00000000000E+00  0.00000000000E+00  0.14999999963E+04  0.15000000000E+04  0.10566000000E+00 0.  1.
        994   -1    0    0    0    0 -0.00000000000E+00 -0.00000000000E+00  0.11368683772E-12  0.17120000000E+03  0.17120000000E+03 0.  0.
         13    1    1    2    0    0  0.10107147247E+01 -0.11660258583E+02  0.61551277453E+01  0.13224217787E+02  0.10566000000E+00 0.  1.
        994    1    1    2    0    0 -0.43686001103E+01  0.11932768277E+02  0.77524581525E+01  0.17184590840E+03  0.17120000000E+03 0.  0.
        998    1    1    2    0    0  0.33578853856E+01 -0.27250969426E+00  0.14860924104E+04  0.14861298738E+04  0.10000000000E+02 0.  1.
</event>
<event>
 5    1  0.1147307E-008  0.3856997E+03  0.7957747E-01  0.3426710E+00
         13   -1    0    0    0    0  0.00000000000E+00  0.00000000000E+00  0.14999999963E+04  0.15000000000E+04  0.10566000000E+00 0.  1.
        994   -1    0    0    0    0 -0.00000000000E+00 -0.00000000000E+00  0.11368683772E-12  0.17120000000E+03  0.17120000000E+03 0.  0.
         13    1    1    2    0    0 -0.10953412446E+02 -0.65691945049E+01  0.62423686217E+02  0.63717025398E+02  0.10566000000E+00 0.  1.
        994    1    1    2    0    0  0.93784360999E+01  0.80678923056E+01  0.17854892292E+01  0.17165568421E+03  0.17120000000E+03 0.  0.
        998    1    1    2    0    0  0.15749763465E+01 -0.14986978008E+01  0.14357908208E+04  0.14358272904E+04  0.10000000000E+02 0.  1.
</event>
<event>
 5    1  0.1147307E-008  0.3686669E+03  0.7957747E-01  0.3502040E+00
         13   -1    0    0    0    0  0.00000000000E+00  0.00000000000E+00  0.14999999963E+04  0.15000000000E+04  0.10566000000E+00 0. -1.
        994   -1    0    0    0    0 -0.00000000000E+00 -0.00000000000E+00  0.11368683772E-12  0.17120000000E+03  0.17120000000E+03 0.  0.
         13    1    1    2    0    0 -0.17892799391E+02  0.85538545102E+00  0.12277997943E+02  0.21717374423E+02  0.10566000000E+00 0. -1.
        994    1    1    2    0    0 -0.81919645715E+01 -0.33947025598E+01  0.10240735140E+02  0.17173510109E+03  0.17120000000E+03 0.  0.
        998    1    1    2    0    0  0.26084763962E+02  0.25393171087E+01  0.14774812632E+04  0.14777475245E+04  0.10000000000E+02 0. -1.
</event>
<event>
 5    1  0.1147307E-008  0.3729854E+03  0.7957747E-01  0.3482282E+00
         13   -1    0    0    0    0  0.00000000000E+00  0.00000000000E+00  0.14999999963E+04  0.15000000000E+04  0.10566000000E+00 0. -1.
        994   -1    0    0    0    0 -0.00000000000E+00 -0.00000000000E+00  0.11368683772E-12  0.17120000000E+03  0.17120000000E+03 0.  0.
         13    1    1    2    0    0 -0.40666581979E+02 -0.29771743649E+02  0.12759192402E+03  0.13718541412E+03  0.10566000000E+00 0. -1.
        994    1    1    2    0    0  0.43881186343E+02  0.82922107710E+02  0.38467742694E+02  0.19897447497E+03  0.17120000000E+03 0.  0.
        998    1    1    2    0    0 -0.32146043639E+01 -0.53150364062E+02  0.13339403296E+04  0.13350401109E+04  0.10000000000E+02 0. -1.
</event>
<event>
 5    1  0.1147307E-008  0.3755967E+03  0.7957747E-01  0.3470558E+00
         13   -1    0    0    0    0  0.00000000000E+00  0.00000000000E+00  0.14999999963E+04  0.15000000000E+04  0.10566000000E+00 0.  1.
        994   -1    0    0    0    0 -0.00000000000E+00 -0.00000000000E+00  0.11368683772E-12  0.17120000000E+03  0.17120000000E+03 0.  0.
         13    1    1    2    0    0 -0.14097793806E+03  0.90497877579E+02  0.83586128569E+03  0.85248386785E+03  0.10566000000E+00 0.  1.
        994    1    1    2    0    0  0.14589758499E+03 -0.83378284443E+02  0.10912448597E+03  0.26354437399E+03  0.17120000000E+03 0.  0.
        998    1    1    2    0    0 -0.49196469306E+01 -0.71195931354E+01  0.55501422461E+03  0.55517175816E+03  0.10000000000E+02 0.  0.
</event>
<event>
 5    1  0.1147307E-008  0.3818978E+03  0.7957747E-01  0.3442936E+00
         13   -1    0    0    0    0  0.00000000000E+00  0.00000000000E+00  0.14999999963E+04  0.15000000000E+04  0.10566000000E+00 0.  1.
        994   -1    0    0    0    0 -0.00000000000E+00 -0.00000000000E+00  0.11368683772E-12  0.17120000000E+03  0.17120000000E+03 0.  0.
         13    1    1    2    0    0  0.83171622527E+01 -0.26239492126E+02  0.11428993814E+03  0.11755801656E+03  0.10566000000E+00 0.  1.
        994    1    1    2    0    0 -0.29129301062E+00  0.23135285413E+02  0.49586283327E+01  0.17282752755E+03  0.17120000000E+03 0.  0.
        998    1    1    2    0    0 -0.80258692420E+01  0.31042067130E+01  0.13807514298E+04  0.13808144559E+04  0.10000000000E+02 0.  1.
</event>
<event>
 5    1  0.1147307E-008  0.3851146E+03  0.7957747E-01  0.3429187E+00
         13   -1    0    0    0    0  0.00000000000E+00  0.00000000000E+00  0.14999999963E+04  0.15000000000E+04  0.10566000000E+00 0.  1.
        994   -1    0    0    0    0 -0.00000000000E+00 -0.00000000000E+00  0.11368683772E-12  0.17120000000E+03  0.17120000000E+03 0.  0.
         13    1    1    2    0    0 -0.15878975649E+02 -0.23680404202E+01  0.82153679284E+02  0.83707751535E+02  0.10566000000E+00 0.  1.
        994    1    1    2    0    0  0.96203939872E+01  0.50096440071E+01  0.19601314691E+01  0.17155445383E+03  0.17120000000E+03 0.  0.
        998    1    1    2    0    0  0.62585816619E+01 -0.26416035868E+01  0.14158861855E+04  0.14159377946E+04  0.10000000000E+02 0.  1.
</event>
<event>
 5    1  0.1147307E-008  0.3689834E+03  0.7957747E-01  0.3500576E+00
         13   -1    0    0    0    0  0.00000000000E+00  0.00000000000E+00  0.14999999963E+04  0.15000000000E+04  0.10566000000E+00 0.  1.
        994   -1    0    0    0    0 -0.00000000000E+00 -0.00000000000E+00  0.11368683772E-12  0.17120000000E+03  0.17120000000E+03 0.  0.
         13    1    1    2    0    0  0.65346773254E+02  0.10993662654E+03  0.47993478370E+03  0.49668266569E+03  0.10566000000E+00 0.  1.
        994    1    1    2    0    0 -0.80180644616E+02 -0.10886591988E+03  0.77090351773E+02  0.23137218203E+03  0.17120000000E+03 0.  0.
        998    1    1    2    0    0  0.14833871362E+02 -0.10707066645E+01  0.94297486081E+03  0.94314515228E+03  0.10000000000E+02 0.  1.
</event>
<event>
 5    1  0.1147307E-008  0.3847873E+03  0.7957747E-01  0.3430575E+00
         13   -1    0    0    0    0  0.00000000000E+00  0.00000000000E+00  0.14999999963E+04  0.15000000000E+04  0.10566000000E+00 0. -1.
        994   -1    0    0    0    0 -0.00000000000E+00 -0.00000000000E+00  0.11368683772E-12  0.17120000000E+03  0.17120000000E+03 0.  0.
         13    1    1    2    0    0  0.22983606889E+01 -0.19482520077E+02  0.11177854944E+03  0.11348703155E+03  0.10566000000E+00 0. -1.
        994    1    1    2    0    0 -0.49501733409E+01  0.10776819353E+02  0.21987820416E+01  0.17162435344E+03  0.17120000000E+03 0.  0.
        998    1    1    2    0    0  0.26518126520E+01  0.87057007244E+01  0.13860226648E+04  0.13860886150E+04  0.10000000000E+02 0. -1.
</event>
<event>
 5    1  0.1147307E-008  0.3750394E+03  0.7957747E-01  0.3473047E+00
         13   -1    0    0    0    0  0.00000000000E+00  0.00000000000E+00  0.14999999963E+04  0.15000000000E+04  0.10566000000E+00 0. -1.
        994   -1    0    0    0    0 -0.00000000000E+00 -0.00000000000E+00  0.11368683772E-12  0.17120000000E+03  0.17120000000E+03 0.  0.
         13    1    1    2    0    0  0.45604709682E+02  0.20329063226E+01  0.13083697844E+03  0.13857217738E+03  0.10566000000E+00 0. -1.
        994    1    1    2    0    0 -0.62054899359E+02  0.47292451251E+01  0.19938360074E+02  0.18324888675E+03  0.17120000000E+03 0.  0.
        998    1    1    2    0    0  0.16450189677E+02 -0.67621514477E+01  0.13492246578E+04  0.13493789359E+04  0.10000000000E+02 0. -1.
</event>
<event>
 5    1  0.1147307E-008  0.3841549E+03  0.7957747E-01  0.3433264E+00
         13   -1    0    0    0    0  0.00000000000E+00  0.00000000000E+00  0.14999999963E+04  0.15000000000E+04  0.10566000000E+00 0.  1.
        994   -1    0    0    0    0 -0.00000000000E+00 -0.00000000000E+00  0.11368683772E-12  0.17120000000E+03  0.17120000000E+03 0.  0.
         13    1    1    2    0    0 -0.55863256547E+01  0.22155996880E+02  0.11226334625E+03  0.11456511384E+03  0.10566000000E+00 0.  1.
        994    1    1    2    0    0  0.14411151273E+02 -0.28319538787E+02  0.53870094547E+01  0.17420716813E+03  0.17120000000E+03 0.  0.
        998    1    1    2    0    0 -0.88248256184E+01  0.61635419073E+01  0.13823496406E+04  0.13824277180E+04  0.10000000000E+02 0.  1.
</event>
<event>
 5    1  0.1147307E-008  0.3735020E+03  0.7957747E-01  0.3479949E+00
         13   -1    0    0    0    0  0.00000000000E+00  0.00000000000E+00  0.14999999963E+04  0.15000000000E+04  0.10566000000E+00 0. -1.
        994   -1    0    0    0    0 -0.00000000000E+00 -0.00000000000E+00  0.11368683772E-12  0.17120000000E+03  0.17120000000E+03 0.  0.
         13    1    1    2    0    0  0.98900970908E+01 -0.89529023195E+01  0.85544553580E+01  0.15847976240E+02  0.10566000000E+00 0. -1.
        994    1    1    2    0    0 -0.97967517428E+01  0.53514197249E+01  0.78758299406E+01  0.17174423640E+03  0.17120000000E+03 0.  0.
        998    1    1    2    0    0 -0.93345347994E-01  0.36014825947E+01  0.14835697110E+04  0.14836077874E+04  0.10000000000E+02 0. -1.
</event>
<event>
 5    1  0.1147307E-008  0.3834320E+03  0.7957747E-01  0.3436349E+00
         13   -1    0    0    0    0  0.00000000000E+00  0.00000000000E+00  0.14999999963E+04  0.15000000000E+04  0.10566000000E+00 0.  1.
        994   -1    0    0    0    0 -0.00000000000E+00 -0.00000000000E+00  0.11368683772E-12  0.17120000000E+03  0.17120000000E+03 0.  0.
         13    1    1    2    0    0  0.21545517220E+02  0.80350310505E+01  0.94713984561E+02  0.97465486567E+02  0.10566000000E+00 0.  1.
        994    1    1    2    0    0 -0.36543901065E+02 -0.77750572865E+01  0.70384323913E+01  0.17537071520E+03  0.17120000000E+03 0.  0.
        998    1    1    2    0    0  0.14998383845E+02 -0.25997376398E+00  0.13982475793E+04  0.13983637982E+04  0.10000000000E+02 0.  1.
</event>
<event>
 5    1  0.1147307E-008  0.3780957E+03  0.7957747E-01  0.3459492E+00
         13   -1    0    0    0    0  0.00000000000E+00  0.00000000000E+00  0.14999999963E+04  0.15000000000E+04  0.10566000000E+00 0.  1.
        994   -1    0    0    0    0 -0.00000000000E+00 -0.00000000000E+00  0.11368683772E-12  0.17120000000E+03  0.17120000000E+03 0.  0.
         13    1    1    2    0    0  0.38092092974E+02 -0.13303838054E+02  0.22555171237E+03  0.22913224516E+03  0.10566000000E+00 0.  1.
        994    1    1    2    0    0  0.10858179749E+02 -0.34830420289E+02  0.95883863144E+01  0.17530668954E+03  0.17120000000E+03 0.  0.
        998    1    1    2    0    0 -0.48950272722E+02  0.48134258342E+02  0.12648598976E+04  0.12667610653E+04  0.10000000000E+02 0. -1.
</event>
<event>
 5    1  0.1147307E-008  0.3732470E+03  0.7957747E-01  0.3481100E+00
         13   -1    0    0    0    0  0.00000000000E+00  0.00000000000E+00  0.14999999963E+04  0.15000000000E+04  0.10566000000E+00 0.  1.
        994   -1    0    0    0    0 -0.00000000000E+00 -0.00000000000E+00  0.11368683772E-12  0.17120000000E+03  0.17120000000E+03 0.  0.
         13    1    1    2    0    0  0.75690613429E+01  0.85331079770E+01  0.46511882465E+01  0.12318658105E+02  0.10566000000E+00 0.  1.
        994    1    1    2    0    0 -0.45605002294E+02 -0.11523662790E+02  0.15185625962E+02  0.17819274473E+03  0.17120000000E+03 0.  0.
        998    1    1    2    0    0  0.38035940951E+02  0.29905548134E+01  0.14801631821E+04  0.14806885972E+04  0.10000000000E+02 0.  1.
</event>
<event>
 5    1  0.1147307E-008  0.3833857E+03  0.7957747E-01  0.3436547E+00
         13   -1    0    0    0    0  0.00000000000E+00  0.00000000000E+00  0.14999999963E+04  0.15000000000E+04  0.10566000000E+00 0. -1.
        994   -1    0    0    0    0 -0.00000000000E+00 -0.00000000000E+00  0.11368683772E-12  0.17120000000E+03  0.17120000000E+03 0.  0.
         13    1    1    2    0    0  0.50099375089E+01  0.16686349133E+02  0.61948148882E+02  0.64351519292E+02  0.10566000000E+00 0. -1.
        994    1    1    2    0    0  0.27683035787E+01 -0.11924447856E+02  0.29292847403E+01  0.17166210027E+03  0.17120000000E+03 0.  0.
        998    1    1    2    0    0 -0.77782410877E+01 -0.47619012770E+01  0.14351225627E+04  0.14351863804E+04  0.10000000000E+02 0. -1.
</event>
<event>
 5    1  0.1147307E-008  0.3782026E+03  0.7957747E-01  0.3459022E+00
         13   -1    0    0    0    0  0.00000000000E+00  0.00000000000E+00  0.14999999963E+04  0.15000000000E+04  0.10566000000E+00 0. -1.
        994   -1    0    0    0    0 -0.00000000000E+00 -0.00000000000E+00  0.11368683772E-12  0.17120000000E+03  0.17120000000E+03 0.  0.
         13    1    1    2    0    0  0.63349470399E+02  0.84307168568E+02  0.39601492235E+03  0.40981542670E+03  0.10566000000E+00 0. -1.
        994    1    1    2    0    0 -0.57091151889E+02 -0.18426875490E+03  0.14254741120E+03  0.29469234482E+03  0.17120000000E+03 0.  0.
        998    1    1    2    0    0 -0.62583185100E+01  0.99961586333E+02  0.96143766272E+03  0.96669222848E+03  0.10000000000E+02 0. -1.
</event>
<event>
 5    1  0.1147307E-008  0.3722048E+03  0.7957747E-01  0.3485819E+00
         13   -1    0    0    0    0  0.00000000000E+00  0.00000000000E+00  0.14999999963E+04  0.15000000000E+04  0.10566000000E+00 0.  1.
        994   -1    0    0    0    0 -0.00000000000E+00 -0.00000000000E+00  0.11368683772E-12  0.17120000000E+03  0.17120000000E+03 0.  0.
         13    1    1    2    0    0  0.90591628492E+01  0.20338537476E+02  0.27413593588E+02  0.35316296743E+02  0.10566000000E+00 0.  1.
        994    1    1    2    0    0 -0.70953373297E+01 -0.95115076661E+01  0.86045432330E+01  0.17182633894E+03  0.17120000000E+03 0.  0.
        998    1    1    2    0    0 -0.19638255195E+01 -0.10827029810E+02  0.14639818595E+04  0.14640573643E+04  0.10000000000E+02 0.  1.
</event>
<event>
 5    1  0.1147307E-008  0.3845870E+03  0.7957747E-01  0.3431426E+00
         13   -1    0    0    0    0  0.00000000000E+00  0.00000000000E+00  0.14999999963E+04  0.15000000000E+04  0.10566000000E+00 0. -1.
        994   -1    0    0    0    0 -0.00000000000E+00 -0.00000000000E+00  0.11368683772E-12  0.17120000000E+03  0.17120000000E+03 0.  0.
         13    1    1    2    0    0 -0.11668251131E+02  0.16350108867E+02  0.10854497945E+03  0.11038794260E+03  0.10566000000E+00 0. -1.
        994    1    1    2    0    0  0.84008230376E+01 -0.11264372784E+02  0.24858216762E+01  0.17179371127E+03  0.17120000000E+03 0.  0.
        998    1    1    2    0    0  0.32674280938E+01 -0.50857360832E+01  0.13889691952E+04  0.13890183461E+04  0.10000000000E+02 0. -1.
</event>
<event>
 5    1  0.1147307E-008  0.3745954E+03  0.7957747E-01  0.3475034E+00
         13   -1    0    0    0    0  0.00000000000E+00  0.00000000000E+00  0.14999999963E+04  0.15000000000E+04  0.10566000000E+00 0. -1.
        994   -1    0    0    0    0 -0.00000000000E+00 -0.00000000000E+00  0.11368683772E-12  0.17120000000E+03  0.17120000000E+03 0.  0.
         13    1    1    2    0    0 -0.33303024042E+02 -0.25924050129E+02  0.16053604320E+03  0.16599090372E+03  0.10566000000E+00 0. -1.
        994    1    1    2    0    0 -0.10621179644E+02 -0.16027784898E+02  0.81460637994E+01  0.17246883110E+03  0.17120000000E+03 0.  0.
        998    1    1    2    0    0  0.43924203687E+02  0.41951835027E+02  0.13313178893E+04  0.13327402652E+04  0.10000000000E+02 0. -1.
</event>
<event>
 5    1  0.1147307E-008  0.3841936E+03  0.7957747E-01  0.3433099E+00
         13   -1    0    0    0    0  0.00000000000E+00  0.00000000000E+00  0.14999999963E+04  0.15000000000E+04  0.10566000000E+00 0. -1.
        994   -1    0    0    0    0 -0.00000000000E+00 -0.00000000000E+00  0.11368683772E-12  0.17120000000E+03  0.17120000000E+03 0.  0.
         13    1    1    2    0    0 -0.10383656949E+02 -0.23589768181E+01  0.27620041477E+02  0.29601739113E+02  0.10566000000E+00 0. -1.
        994    1    1    2    0    0  0.69298800897E+01 -0.83425263830E+01  0.24189473413E+01  0.17156022934E+03  0.17120000000E+03 0.  0.
        998    1    1    2    0    0  0.34537768596E+01  0.10701503201E+02  0.14699610075E+04  0.14700380315E+04  0.10000000000E+02 0. -1.
</event>
<event>
 5    1  0.1147307E-008  0.3782887E+03  0.7957747E-01  0.3458644E+00
         13   -1    0    0    0    0  0.00000000000E+00  0.00000000000E+00  0.14999999963E+04  0.15000000000E+04  0.10566000000E+00 0.  1.
        994   -1    0    0    0    0 -0.00000000000E+00 -0.00000000000E+00  0.11368683772E-12  0.17120000000E+03  0.17120000000E+03 0.  0.
         13    1    1    2    0    0 -0.17416439572E+03 -0.12097712202E+03  0.98436247311E+03  0.10069449788E+04  0.10566000000E+00 0.  1.
        994    1    1    2    0    0  0.17188886054E+03  0.12838011900E+03  0.17967511725E+03  0.32805460382E+03  0.17120000000E+03 0.  0.
        998    1    1    2    0    0  0.22755351797E+01 -0.74029969769E+01  0.33596240592E+03  0.33620041733E+03  0.10000000000E+02 0.  0.
</event>
<event>
 5    1  0.1147307E-008  0.3833645E+03  0.7957747E-01  0.3436638E+00
         13   -1    0    0    0    0  0.00000000000E+00  0.00000000000E+00  0.14999999963E+04  0.15000000000E+04  0.10566000000E+00 0. -1.
        994   -1    0    0    0    0 -0.00000000000E+00 -0.00000000000E+00  0.11368683772E-12  0.17120000000E+03  0.17120000000E+03 0.  0.
         13    1    1    2    0    0  0.13863287465E+02  0.16034154377E+02  0.94069404832E+02  0.96427946859E+02  0.10566000000E+00 0. -1.
        994    1    1    2    0    0 -0.83141149061E+01 -0.40930861416E+01  0.27282828620E+01  0.17147233418E+03  0.17120000000E+03 0.  0.
        998    1    1    2    0    0 -0.55491725591E+01 -0.11941068235E+02  0.14032023086E+04  0.14032997190E+04  0.10000000000E+02 0. -1.
</event>
<event>
 5    1  0.1147307E-008  0.3849421E+03  0.7957747E-01  0.3429918E+00
         13   -1    0    0    0    0  0.00000000000E+00  0.00000000000E+00  0.14999999963E+04  0.15000000000E+04  0.10566000000E+00 0. -1.
        994   -1    0    0    0    0 -0.00000000000E+00 -0.00000000000E+00  0.11368683772E-12  0.17120000000E+03  0.17120000000E+03 0.  0.
         13    1    1    2    0    0  0.71203586430E+01  0.17038542205E+02  0.10059498314E+03  0.10227596601E+03  0.10566000000E+00 0. -1.
        994    1    1    2    0    0 -0.78435048016E+01 -0.12506550804E+02  0.23760451636E+01  0.17185173834E+03  0.17120000000E+03 0.  0.
        998    1    1    2    0    0  0.72314615860E+00 -0.45319914011E+01  0.13970289680E+04  0.13970722956E+04  0.10000000000E+02 0. -1.
</event>
<event>
 5    1  0.1147307E-008  0.3797865E+03  0.7957747E-01  0.3452089E+00
         13   -1    0    0    0    0  0.00000000000E+00  0.00000000000E+00  0.14999999963E+04  0.15000000000E+04  0.10566000000E+00 0. -1.
        994   -1    0    0    0    0 -0.00000000000E+00 -0.00000000000E+00  0.11368683772E-12  0.17120000000E+03  0.17120000000E+03 0.  0.
         13    1    1    2    0    0 -0.54734889977E+01 -0.19599884483E+02  0.45766692453E+02  0.50087082722E+02  0.10566000000E+00 0. -1.
        994    1    1    2    0    0  0.46303018140E+01  0.21649615177E+02  0.58823626742E+01  0.17272575871E+03  0.17120000000E+03 0.  0.
        998    1    1    2    0    0  0.84318718364E+00 -0.20497306943E+01  0.14483509412E+04  0.14483871586E+04  0.10000000000E+02 0. -1.
</event>
<event>
 5    1  0.1147307E-008  0.3740120E+03  0.7957747E-01  0.3477653E+00
         13   -1    0    0    0    0  0.00000000000E+00  0.00000000000E+00  0.14999999963E+04  0.15000000000E+04  0.10566000000E+00 0.  1.
        994   -1    0    0    0    0 -0.00000000000E+00 -0.00000000000E+00  0.11368683772E-12  0.17120000000E+03  0.17120000000E+03 0.  0.
         13    1    1    2    0    0 -0.85531506558E+01 -0.25859402998E+02  0.51735938913E+02  0.58467800102E+02  0.10566000000E+00 0.  1.
        994    1    1    2    0    0 -0.55774035167E+01  0.11574318896E+01  0.72976521433E+01  0.17145011754E+03  0.17120000000E+03 0.  0.
        998    1    1    2    0    0  0.14130554173E+02  0.24701971109E+02  0.14409664052E+04  0.14412820824E+04  0.10000000000E+02 0.  1.
</event>
<event>
 5    1  0.1147307E-008  0.3845573E+03  0.7957747E-01  0.3431552E+00
         13   -1    0    0    0    0  0.00000000000E+00  0.00000000000E+00  0.14999999963E+04  0.15000000000E+04  0.10566000000E+00 0.  1.
        994   -1    0    0    0    0 -0.00000000000E+00 -0.00000000000E+00  0.11368683772E-12  0.17120000000E+03  0.17120000000E+03 0.  0.
         13    1    1    2    0    0  0.15805879031E+02  0.78723849679E+01  0.10482760673E+03  0.10630446159E+03  0.10566000000E+00 0.  1.
        994    1    1    2    0    0  0.19720406269E+02 -0.30200418725E+01  0.31619909666E+01  0.17238750901E+03  0.17120000000E+03 0.  0.
        998    1    1    2    0    0 -0.35526285300E+02 -0.48523430953E+01  0.13920103986E+04  0.13925080294E+04  0.10000000000E+02 0.  1.
</event>
<event>
 5    1  0.1147307E-008  0.3742078E+03  0.7957747E-01  0.3476773E+00
         13   -1    0    0    0    0  0.00000000000E+00  0.00000000000E+00  0.14999999963E+04  0.15000000000E+04  0.10566000000E+00 0. -1.
        994   -1    0    0    0    0 -0.00000000000E+00 -0.00000000000E+00  0.11368683772E-12  0.17120000000E+03  0.17120000000E+03 0.  0.
         13    1    1    2    0    0 -0.35843456051E+02 -0.64986082594E+02  0.21798043994E+03  0.23026816461E+03  0.10566000000E+00 0. -1.
        994    1    1    2    0    0  0.26207712858E+02  0.21856539440E+02  0.17324712515E+02  0.17542559161E+03  0.17120000000E+03 0.  0.
        998    1    1    2    0    0  0.96357431936E+01  0.43129543153E+02  0.12646948438E+04  0.12655062438E+04  0.10000000000E+02 0. -1.
</event>
<event>
 5    1  0.1147307E-008  0.3834884E+03  0.7957747E-01  0.3436108E+00
         13   -1    0    0    0    0  0.00000000000E+00  0.00000000000E+00  0.14999999963E+04  0.15000000000E+04  0.10566000000E+00 0. -1.
        994   -1    0    0    0    0 -0.00000000000E+00 -0.00000000000E+00  0.11368683772E-12  0.17120000000E+03  0.17120000000E+03 0.  0.
         13    1    1    2    0    0 -0.17649834887E+02 -0.18859242532E+02  0.15006625135E+03  0.15227303983E+03  0.10566000000E+00 0. -1.
        994    1    1    2    0    0  0.19373207607E+01  0.72904170548E+01  0.25705539013E+01  0.17138538777E+03  0.17120000000E+03 0.  0.
        998    1    1    2    0    0  0.15712514126E+02  0.11568825477E+02  0.13473631910E+04  0.13475415724E+04  0.10000000000E+02 0. -1.
</event>
<event>
 5    1  0.1315818E-008  0.3851883E+03  0.7957747E-01  0.3428874E+00
         13   -1    0    0    0    0  0.00000000000E+00  0.00000000000E+00  0.14999999963E+04  0.15000000000E+04  0.10566000000E+00 0. -1.
        994   -1    0    0    0    0 -0.00000000000E+00 -0.00000000000E+00  0.11368683772E-12  0.17120000000E+03  0.17120000000E+03 0.  0.
         13    1    1    2    0    0  0.26424260645E+01 -0.11689649033E+02  0.50676015144E+02  0.52073985683E+02  0.10566000000E+00 0. -1.
        994    1    1    2    0    0 -0.25486733137E+01 -0.64308314197E+01  0.16939810742E+01  0.17134806944E+03  0.17120000000E+03 0.  0.
        998    1    1    2    0    0 -0.93752750758E-01  0.18120480452E+02  0.14476300001E+04  0.14477779449E+04  0.10000000000E+02 0. -1.
</event>
<event>
 5    1  0.1147307E-008  0.3802209E+03  0.7957747E-01  0.3450197E+00
         13   -1    0    0    0    0  0.00000000000E+00  0.00000000000E+00  0.14999999963E+04  0.15000000000E+04  0.10566000000E+00 0.  1.
        994   -1    0    0    0    0 -0.00000000000E+00 -0.00000000000E+00  0.11368683772E-12  0.17120000000E+03  0.17120000000E+03 0.  0.
         13    1    1    2    0    0 -0.57191099915E+00  0.20635767886E+02  0.51193130199E+02  0.55198820114E+02  0.10566000000E+00 0.  1.
        994    1    1    2    0    0  0.61911914645E+01 -0.14832343251E+02  0.48850986046E+01  0.17202218882E+03  0.17120000000E+03 0.  0.
        998    1    1    2    0    0 -0.56192804653E+01 -0.58034246344E+01  0.14439217675E+04  0.14439789911E+04  0.10000000000E+02 0.  1.
</event>
<event>
 5    1  0.1147307E-008  0.3805890E+03  0.7957747E-01  0.3448598E+00
         13   -1    0    0    0    0  0.00000000000E+00  0.00000000000E+00  0.14999999963E+04  0.15000000000E+04  0.10566000000E+00 0. -1.
        994   -1    0    0    0    0 -0.00000000000E+00 -0.00000000000E+00  0.11368683772E-12  0.17120000000E+03  0.17120000000E+03 0.  0.
         13    1    1    2    0    0 -0.17170688299E+02  0.14979200397E+02  0.70267353159E+02  0.73869622073E+02  0.10566000000E+00 0. -1.
        994    1    1    2    0    0 -0.35098538842E+01 -0.65696949569E+01  0.40212430086E+01  0.17140913150E+03  0.17120000000E+03 0.  0.
        998    1    1    2    0    0  0.20680542183E+02 -0.84095054399E+01  0.14257114001E+04  0.14259212464E+04  0.10000000000E+02 0. -1.
</event>
<event>
 5    1  0.1147307E-008  0.3833262E+03  0.7957747E-01  0.3436802E+00
         13   -1    0    0    0    0  0.00000000000E+00  0.00000000000E+00  0.14999999963E+04  0.15000000000E+04  0.10566000000E+00 0.  1.
        994   -1    0    0    0    0 -0.00000000000E+00 -0.00000000000E+00  0.11368683772E-12  0.17120000000E+03  0.17120000000E+03 0.  0.
         13    1    1    2    0    0 -0.23881055321E+02 -0.24015507905E+02  0.20201701581E+03  0.20483636216E+03  0.10566000000E+00 0.  1.
        994    1    1    2    0    0  0.17708936038E+02  0.31834777532E+02  0.68638804122E+01  0.17516738375E+03  0.17120000000E+03 0.  0.
        998    1    1    2    0    0  0.61721192830E+01 -0.78192696268E+01  0.12911191001E+04  0.12911962541E+04  0.10000000000E+02 0.  1.
</event>
<event>
 5    1  0.1147307E-008  0.3783415E+03  0.7957747E-01  0.3458412E+00
         13   -1    0    0    0    0  0.00000000000E+00  0.00000000000E+00  0.14999999963E+04  0.15000000000E+04  0.10566000000E+00 0.  1.
        994   -1    0    0    0    0 -0.00000000000E+00 -0.00000000000E+00  0.11368683772E-12  0.17120000000E+03  0.17120000000E+03 0.  0.
         13    1    1    2    0    0  0.31566255071E+00 -0.59702592546E+02  0.25829706585E+03  0.26510730769E+03  0.10566000000E+00 0.  1.
        994    1    1    2    0    0  0.31568758166E+02  0.78769941319E+02  0.29573497586E+02  0.19335284303E+03  0.17120000000E+03 0.  0.
        998    1    1    2    0    0 -0.31884420716E+02 -0.19067348773E+02  0.12121294328E+04  0.12127398493E+04  0.10000000000E+02 0.  1.
</event>
<event>
 5    1  0.1147307E-008  0.3808863E+03  0.7957747E-01  0.3447309E+00
         13   -1    0    0    0    0  0.00000000000E+00  0.00000000000E+00  0.14999999963E+04  0.15000000000E+04  0.10566000000E+00 0.  1.
        994   -1    0    0    0    0 -0.00000000000E+00 -0.00000000000E+00  0.11368683772E-12  0.17120000000E+03  0.17120000000E+03 0.  0.
         13    1    1    2    0    0  0.15680469401E+02  0.13291346340E+02  0.57403884669E+02  0.60973388846E+02  0.10566000000E+00 0.  1.
        994    1    1    2    0    0 -0.15990814492E+02  0.73642506558E+01  0.47201886597E+01  0.17216753038E+03  0.17120000000E+03 0.  0.
        998    1    1    2    0    0  0.31034509100E+00 -0.20655596996E+02  0.14378759229E+04  0.14380590808E+04  0.10000000000E+02 0.  1.
</event>
<event>
 5    1  0.1147307E-008  0.3728397E+03  0.7957747E-01  0.3482941E+00
         13   -1    0    0    0    0  0.00000000000E+00  0.00000000000E+00  0.14999999963E+04  0.15000000000E+04  0.10566000000E+00 0.  1.
        994   -1    0    0    0    0 -0.00000000000E+00 -0.00000000000E+00  0.11368683772E-12  0.17120000000E+03  0.17120000000E+03 0.  0.
         13    1    1    2    0    0  0.16717002043E+03 -0.31738906829E+02  0.85959094037E+03  0.87627037486E+03  0.10566000000E+00 0.  1.
        994    1    1    2    0    0 -0.15490988021E+03  0.30149211184E+02  0.98552858598E+02  0.25284017058E+03  0.17120000000E+03 0.  0.
        998    1    1    2    0    0 -0.12260140214E+02  0.15896956452E+01  0.54185619731E+03  0.54208945455E+03  0.10000000000E+02 0.  1.
</event>
<event>
 5    1  0.1147307E-008  0.3778450E+03  0.7957747E-01  0.3460596E+00
         13   -1    0    0    0    0  0.00000000000E+00  0.00000000000E+00  0.14999999963E+04  0.15000000000E+04  0.10566000000E+00 0.  1.
        994   -1    0    0    0    0 -0.00000000000E+00 -0.00000000000E+00  0.11368683772E-12  0.17120000000E+03  0.17120000000E+03 0.  0.
         13    1    1    2    0    0  0.36588536910E+02  0.59264911937E+02  0.13334309490E+03  0.15043750511E+03  0.10566000000E+00 0.  1.
        994    1    1    2    0    0 -0.58340690909E+02 -0.64531547880E+02  0.42886904643E+02  0.19676555460E+03  0.17120000000E+03 0.  0.
        998    1    1    2    0    0  0.21752153999E+02  0.52666359430E+01  0.13237699967E+04  0.13239969403E+04  0.10000000000E+02 0.  1.
</event>
<event>
 5    1  0.1147307E-008  0.3821371E+03  0.7957747E-01  0.3441905E+00
         13   -1    0    0    0    0  0.00000000000E+00  0.00000000000E+00  0.14999999963E+04  0.15000000000E+04  0.10566000000E+00 0. -1.
        994   -1    0    0    0    0 -0.00000000000E+00 -0.00000000000E+00  0.11368683772E-12  0.17120000000E+03  0.17120000000E+03 0.  0.
         13    1    1    2    0    0  0.73277656436E+01 -0.84463183144E+01  0.20382615900E+02  0.23248626570E+02  0.10566000000E+00 0. -1.
        994    1    1    2    0    0  0.13678367886E+02 -0.36768377550E+01  0.37244293042E+01  0.17182528410E+03  0.17120000000E+03 0.  0.
        998    1    1    2    0    0 -0.21006133529E+02  0.12123156069E+02  0.14758929511E+04  0.14761260893E+04  0.10000000000E+02 0. -1.
</event>
<event>
 5    1  0.1147307E-008  0.3698100E+03  0.7957747E-01  0.3496765E+00
         13   -1    0    0    0    0  0.00000000000E+00  0.00000000000E+00  0.14999999963E+04  0.15000000000E+04  0.10566000000E+00 0.  1.
        994   -1    0    0    0    0 -0.00000000000E+00 -0.00000000000E+00  0.11368683772E-12  0.17120000000E+03  0.17120000000E+03 0.  0.
         13    1    1    2    0    0  0.11883638846E+02  0.34387756999E+02  0.70937663669E+02  0.79723911058E+02  0.10566000000E+00 0.  1.
        994    1    1    2    0    0 -0.18012506657E+02 -0.99347679514E+00  0.10495191351E+02  0.17246746486E+03  0.17120000000E+03 0.  0.
        998    1    1    2    0    0  0.61288678105E+01 -0.33394280204E+02  0.14185671413E+04  0.14190086241E+04  0.10000000000E+02 0.  1.
</event>
<event>
 5    1  0.1147307E-008  0.3720148E+03  0.7957747E-01  0.3486682E+00
         13   -1    0    0    0    0  0.00000000000E+00  0.00000000000E+00  0.14999999963E+04  0.15000000000E+04  0.10566000000E+00 0. -1.
        994   -1    0    0    0    0 -0.00000000000E+00 -0.00000000000E+00  0.11368683772E-12  0.17120000000E+03  0.17120000000E+03 0.  0.
         13    1    1    2    0    0  0.65311189194E+02  0.18640243482E+02  0.31798304369E+03  0.32515571247E+03  0.10566000000E+00 0. -1.
        994    1    1    2    0    0  0.47032017491E+02 -0.28653892852E+02  0.22764807504E+02  0.18127529535E+03  0.17120000000E+03 0.  0.
        998    1    1    2    0    0 -0.11234320668E+03  0.10013649370E+02  0.11592521451E+04  0.11647689922E+04  0.10000000000E+02 0. -1.
</event>
<event>
 5    1  0.1147307E-008  0.3847464E+03  0.7957747E-01  0.3430748E+00
         13   -1    0    0    0    0  0.00000000000E+00  0.00000000000E+00  0.14999999963E+04  0.15000000000E+04  0.10566000000E+00 0. -1.
        994   -1    0    0    0    0 -0.00000000000E+00 -0.00000000000E+00  0.11368683772E-12  0.17120000000E+03  0.17120000000E+03 0.  0.
         13    1    1    2    0    0  0.65699931225E+01 -0.10018006377E+02  0.39455619039E+02  0.41234479494E+02  0.10566000000E+00 0. -1.
        994    1    1    2    0    0 -0.81145704745E+01  0.11621746149E+02  0.24176296649E+01  0.17180278278E+03  0.17120000000E+03 0.  0.
        998    1    1    2    0    0  0.15445773520E+01 -0.16037397721E+01  0.14581267476E+04  0.14581627377E+04  0.10000000000E+02 0. -1.
</event>
<event>
 5    1  0.1147307E-008  0.3818734E+03  0.7957747E-01  0.3443042E+00
         13   -1    0    0    0    0  0.00000000000E+00  0.00000000000E+00  0.14999999963E+04  0.15000000000E+04  0.10566000000E+00 0.  1.
        994   -1    0    0    0    0 -0.00000000000E+00 -0.00000000000E+00  0.11368683772E-12  0.17120000000E+03  0.17120000000E+03 0.  0.
         13    1    1    2    0    0 -0.39854250994E+02  0.11513183209E+02  0.23533098347E+03  0.23895940587E+03  0.10566000000E+00 0.  1.
        994    1    1    2    0    0  0.36877094862E+02 -0.11691889330E+02  0.81787586244E+01  0.17570700753E+03  0.17120000000E+03 0.  0.
        998    1    1    2    0    0  0.29771561319E+01  0.17870612112E+00  0.12564902542E+04  0.12565335866E+04  0.10000000000E+02 0.  0.
</event>
<event>
 5    1  0.1147307E-008  0.3841693E+03  0.7957747E-01  0.3433203E+00
         13   -1    0    0    0    0  0.00000000000E+00  0.00000000000E+00  0.14999999963E+04  0.15000000000E+04  0.10566000000E+00 0.  1.
        994   -1    0    0    0    0 -0.00000000000E+00 -0.00000000000E+00  0.11368683772E-12  0.17120000000E+03  0.17120000000E+03 0.  0.
         13    1    1    2    0    0 -0.17142370299E+02  0.34956986591E+01  0.74767559808E+02  0.76787238082E+02  0.10566000000E+00 0.  1.
        994    1    1    2    0    0  0.61164157746E+01 -0.28050500823E+02  0.47658353784E+01  0.17365596542E+03  0.17120000000E+03 0.  0.
        998    1    1    2    0    0  0.11025954525E+02  0.24554802164E+02  0.14204666011E+04  0.14207567965E+04  0.10000000000E+02 0.  1.
</event>
<event>
 5    1  0.1147307E-008  0.3861546E+03  0.7957747E-01  0.3424790E+00
         13   -1    0    0    0    0  0.00000000000E+00  0.00000000000E+00  0.14999999963E+04  0.15000000000E+04  0.10566000000E+00 0. -1.
        994   -1    0    0    0    0 -0.00000000000E+00 -0.00000000000E+00  0.11368683772E-12  0.17120000000E+03  0.17120000000E+03 0.  0.
         13    1    1    2    0    0 -0.13924124389E+01 -0.10741794021E+02  0.55136115045E+02  0.56190099639E+02  0.10566000000E+00 0. -1.
        994    1    1    2    0    0  0.43879712541E+01  0.96094482964E+01  0.14236932973E+01  0.17153152098E+03  0.17120000000E+03 0.  0.
        998    1    1    2    0    0 -0.29955588151E+01  0.11323457249E+01  0.14434401879E+04  0.14434783794E+04  0.10000000000E+02 0. -1.
</event>
<event>
 5    1  0.1147307E-008  0.3841308E+03  0.7957747E-01  0.3433367E+00
         13   -1    0    0    0    0  0.00000000000E+00  0.00000000000E+00  0.14999999963E+04  0.15000000000E+04  0.10566000000E+00 0. -1.
        994   -1    0    0    0    0 -0.00000000000E+00 -0.00000000000E+00  0.11368683772E-12  0.17120000000E+03  0.17120000000E+03 0.  0.
         13    1    1    2    0    0  0.93056919024E+01 -0.18972312513E+02  0.11569102752E+03  0.11760514256E+03  0.10566000000E+00 0. -1.
        994    1    1    2    0    0 -0.80696001536E+01  0.67026523362E+00  0.22785523856E+01  0.17140653285E+03  0.17120000000E+03 0.  0.
        998    1    1    2    0    0 -0.12360917487E+01  0.18302047279E+02  0.13820304164E+04  0.13821883246E+04  0.10000000000E+02 0. -1.
</event>
<event>
 5    1  0.1147307E-008  0.3820691E+03  0.7957747E-01  0.3442198E+00
         13   -1    0    0    0    0  0.00000000000E+00  0.00000000000E+00  0.14999999963E+04  0.15000000000E+04  0.10566000000E+00 0.  1.
        994   -1    0    0    0    0 -0.00000000000E+00 -0.00000000000E+00  0.11368683772E-12  0.17120000000E+03  0.17120000000E+03 0.  0.
         13    1    1    2    0    0  0.13978224439E+02  0.16637096039E+02  0.71140072866E+02  0.74384842909E+02  0.10566000000E+00 0.  1.
        994    1    1    2    0    0 -0.19150095960E+02 -0.17140994700E+02  0.52885307971E+01  0.17319915829E+03  0.17120000000E+03 0.  0.
        998    1    1    2    0    0  0.51718715212E+01  0.50389866176E+00  0.14235713926E+04  0.14236159988E+04  0.10000000000E+02 0.  1.
</event>
<event>
 5    1  0.1147307E-008  0.3763782E+03  0.7957747E-01  0.3467082E+00
         13   -1    0    0    0    0  0.00000000000E+00  0.00000000000E+00  0.14999999963E+04  0.15000000000E+04  0.10566000000E+00 0.  1.
        994   -1    0    0    0    0 -0.00000000000E+00 -0.00000000000E+00  0.11368683772E-12  0.17120000000E+03  0.17120000000E+03 0.  0.
         13    1    1    2    0    0 -0.48195144740E+02 -0.17901934928E+00  0.23834580320E+03  0.24316977011E+03  0.10566000000E+00 0.  1.
        994    1    1    2    0    0 -0.18793977612E+01  0.13513117653E+02  0.66027303210E+01  0.17186963819E+03  0.17120000000E+03 0.  0.
        998    1    1    2    0    0  0.50074542501E+02 -0.13334098304E+02  0.12550514628E+04  0.12561605917E+04  0.10000000000E+02 0.  1.
</event>
<event>
 5    1  0.1147307E-008  0.3770532E+03  0.7957747E-01  0.3464091E+00
         13   -1    0    0    0    0  0.00000000000E+00  0.00000000000E+00  0.14999999963E+04  0.15000000000E+04  0.10566000000E+00 0. -1.
        994   -1    0    0    0    0 -0.00000000000E+00 -0.00000000000E+00  0.11368683772E-12  0.17120000000E+03  0.17120000000E+03 0.  0.
         13    1    1    2    0    0  0.74392044846E+01 -0.53951686695E+02  0.20516656772E+03  0.21227213179E+03  0.10566000000E+00 0. -1.
        994    1    1    2    0    0 -0.74144649626E+01  0.69394430404E+02  0.22251088140E+02  0.18621254572E+03  0.17120000000E+03 0.  0.
        998    1    1    2    0    0 -0.24739521952E-01 -0.15442743710E+02  0.12725823404E+04  0.12727153225E+04  0.10000000000E+02 0. -1.
</event>
<event>
 5    1  0.1147307E-008  0.3685631E+03  0.7957747E-01  0.3502521E+00
         13   -1    0    0    0    0  0.00000000000E+00  0.00000000000E+00  0.14999999963E+04  0.15000000000E+04  0.10566000000E+00 0. -1.
        994   -1    0    0    0    0 -0.00000000000E+00 -0.00000000000E+00  0.11368683772E-12  0.17120000000E+03  0.17120000000E+03 0.  0.
         13    1    1    2    0    0  0.60084962657E+02 -0.10028702202E+02  0.17497792754E+03  0.18527834168E+03  0.10566000000E+00 0. -1.
        994    1    1    2    0    0 -0.39837425494E+02  0.11834720187E+02  0.16212753333E+02  0.17691629219E+03  0.17120000000E+03 0.  0.
        998    1    1    2    0    0 -0.20247537163E+02 -0.18060179850E+01  0.13088093154E+04  0.13090053661E+04  0.10000000000E+02 0. -1.
</event>
<event>
 5    1  0.1147307E-008  0.3757444E+03  0.7957747E-01  0.3469900E+00
         13   -1    0    0    0    0  0.00000000000E+00  0.00000000000E+00  0.14999999963E+04  0.15000000000E+04  0.10566000000E+00 0. -1.
        994   -1    0    0    0    0 -0.00000000000E+00 -0.00000000000E+00  0.11368683772E-12  0.17120000000E+03  0.17120000000E+03 0.  0.
         13    1    1    2    0    0  0.53278444233E+02 -0.10002431956E+03  0.65276688531E+03  0.66253156517E+03  0.10566000000E+00 0. -1.
        994    1    1    2    0    0 -0.67299361988E+01  0.12125403151E+03  0.58066516433E+02  0.21778198394E+03  0.17120000000E+03 0.  0.
        998    1    1    2    0    0 -0.46548508034E+02 -0.21229711947E+02  0.78916659453E+03  0.79088645088E+03  0.10000000000E+02 0. -1.
</event>
<event>
 5    1  0.1147307E-008  0.3786063E+03  0.7957747E-01  0.3457249E+00
         13   -1    0    0    0    0  0.00000000000E+00  0.00000000000E+00  0.14999999963E+04  0.15000000000E+04  0.10566000000E+00 0.  1.
        994   -1    0    0    0    0 -0.00000000000E+00 -0.00000000000E+00  0.11368683772E-12  0.17120000000E+03  0.17120000000E+03 0.  0.
         13    1    1    2    0    0  0.11473239379E+02 -0.41737055405E+01  0.13503328693E+02  0.18204562330E+02  0.10566000000E+00 0.  1.
        994    1    1    2    0    0 -0.47018215014E+01 -0.76753113594E+01  0.51104493926E+01  0.17151260660E+03  0.17120000000E+03 0.  0.
        998    1    1    2    0    0 -0.67714178780E+01  0.11849016900E+02  0.14813862182E+04  0.14814828311E+04  0.10000000000E+02 0.  1.
</event>
<event>
 5    1  0.1147307E-008  0.3856222E+03  0.7957747E-01  0.3427038E+00
         13   -1    0    0    0    0  0.00000000000E+00  0.00000000000E+00  0.14999999963E+04  0.15000000000E+04  0.10566000000E+00 0.  1.
        994   -1    0    0    0    0 -0.00000000000E+00 -0.00000000000E+00  0.11368683772E-12  0.17120000000E+03  0.17120000000E+03 0.  0.
         13    1    1    2    0    0  0.50786603274E+01 -0.90813266570E+01  0.41053438971E+02  0.42351615081E+02  0.10566000000E+00 0.  1.
        994    1    1    2    0    0  0.82113278851E+01  0.13395755005E+02  0.21322139128E+01  0.17193271502E+03  0.17120000000E+03 0.  0.
        998    1    1    2    0    0 -0.13289988213E+02 -0.43144283475E+01  0.14568143434E+04  0.14569156699E+04  0.10000000000E+02 0.  1.
</event>
<event>
 5    1  0.1147307E-008  0.3851920E+03  0.7957747E-01  0.3428858E+00
         13   -1    0    0    0    0  0.00000000000E+00  0.00000000000E+00  0.14999999963E+04  0.15000000000E+04  0.10566000000E+00 0.  1.
        994   -1    0    0    0    0 -0.00000000000E+00 -0.00000000000E+00  0.11368683772E-12  0.17120000000E+03  0.17120000000E+03 0.  0.
         13    1    1    2    0    0  0.85588852711E+01  0.73435209418E+01  0.40323226788E+02  0.41870700968E+02  0.10566000000E+00 0.  1.
        994    1    1    2    0    0 -0.11370754524E+02 -0.62948006409E+01  0.20902137725E+01  0.17170535101E+03  0.17120000000E+03 0.  0.
        998    1    1    2    0    0  0.28118692526E+01 -0.10487203009E+01  0.14575865557E+04  0.14576239480E+04  0.10000000000E+02 0.  1.
</event>
<event>
 5    1  0.1147307E-008  0.3784585E+03  0.7957747E-01  0.3457898E+00
         13   -1    0    0    0    0  0.00000000000E+00  0.00000000000E+00  0.14999999963E+04  0.15000000000E+04  0.10566000000E+00 0.  1.
        994   -1    0    0    0    0 -0.00000000000E+00 -0.00000000000E+00  0.11368683772E-12  0.17120000000E+03  0.17120000000E+03 0.  0.
         13    1    1    2    0    0  0.28262261196E+02 -0.19989835284E+02  0.11054952986E+03  0.11584281867E+03  0.10566000000E+00 0.  1.
        994    1    1    2    0    0 -0.32086372140E+02  0.19885528027E+02  0.97161862038E+01  0.17558135942E+03  0.17120000000E+03 0.  0.
        998    1    1    2    0    0  0.38241109437E+01  0.10430725770E+00  0.13797342802E+04  0.13797758219E+04  0.10000000000E+02 0.  1.
</event>
<event>
 5    1  0.1147307E-008  0.3687866E+03  0.7957747E-01  0.3501486E+00
         13   -1    0    0    0    0  0.00000000000E+00  0.00000000000E+00  0.14999999963E+04  0.15000000000E+04  0.10566000000E+00 0.  1.
        994   -1    0    0    0    0 -0.00000000000E+00 -0.00000000000E+00  0.11368683772E-12  0.17120000000E+03  0.17120000000E+03 0.  0.
         13    1    1    2    0    0  0.20009313963E+02 -0.14086644411E+01  0.15444483796E+02  0.25316007279E+02  0.10566000000E+00 0.  1.
        994    1    1    2    0    0 -0.27474929098E+02  0.26615773604E+02  0.15002556465E+02  0.17606188638E+03  0.17120000000E+03 0.  0.
        998    1    1    2    0    0  0.74656151345E+01 -0.25207109163E+02  0.14695529560E+04  0.14698221063E+04  0.10000000000E+02 0.  1.
</event>
<event>
 5    1  0.1147307E-008  0.3815376E+03  0.7957747E-01  0.3444491E+00
         13   -1    0    0    0    0  0.00000000000E+00  0.00000000000E+00  0.14999999963E+04  0.15000000000E+04  0.10566000000E+00 0.  1.
        994   -1    0    0    0    0 -0.00000000000E+00 -0.00000000000E+00  0.11368683772E-12  0.17120000000E+03  0.17120000000E+03 0.  0.
         13    1    1    2    0    0 -0.36719020151E+01  0.17805942062E+02  0.48431640150E+02  0.51731705644E+02  0.10566000000E+00 0.  1.
        994    1    1    2    0    0  0.20636315520E+01 -0.95865898519E+01  0.36788897429E+01  0.17152007320E+03  0.17120000000E+03 0.  0.
        998    1    1    2    0    0  0.16082704631E+01 -0.82193522104E+01  0.14478894664E+04  0.14479482212E+04  0.10000000000E+02 0.  1.
</event>
<event>
 5    1  0.1147307E-008  0.3791440E+03  0.7957747E-01  0.3454894E+00
         13   -1    0    0    0    0  0.00000000000E+00  0.00000000000E+00  0.14999999963E+04  0.15000000000E+04  0.10566000000E+00 0.  1.
        994   -1    0    0    0    0 -0.00000000000E+00 -0.00000000000E+00  0.11368683772E-12  0.17120000000E+03  0.17120000000E+03 0.  0.
         13    1    1    2    0    0  0.45801070637E+01 -0.11214963991E+02  0.14027789783E+02  0.18534908909E+02  0.10566000000E+00 0.  1.
        994    1    1    2    0    0 -0.53813529200E+01  0.89965305380E+01  0.49343748299E+01  0.17159162152E+03  0.17120000000E+03 0.  0.
        998    1    1    2    0    0  0.80124585636E+00  0.22184334526E+01  0.14810378317E+04  0.14810734696E+04  0.10000000000E+02 0.  1.
</event>
<event>
 5    1  0.1147307E-008  0.3963636E+03  0.7957747E-01  0.3382862E+00
         13   -1    0    0    0    0  0.00000000000E+00  0.00000000000E+00  0.14999999963E+04  0.15000000000E+04  0.10566000000E+00 0.  1.
        994   -1    0    0    0    0 -0.00000000000E+00 -0.00000000000E+00  0.11368683772E-12  0.17120000000E+03  0.17120000000E+03 0.  0.
         13    1    1    2    0    0  0.63654072971E+02 -0.40380714044E+02  0.96507040939E+02  0.12245841411E+03  0.10566000000E+00 0.  1.
        994    1    1    2    0    0 -0.63161558173E+02  0.40827804409E+02  0.47790012745E+02  0.19300159938E+03  0.17120000000E+03 0.  0.
        998    1    1    2    0    0 -0.49251479759E+00 -0.44709036498E+00  0.13557029426E+04  0.13557399865E+04  0.10000000000E+02 0.  0.
</event>
<event>
 5    1  0.1147307E-008  0.3751532E+03  0.7957747E-01  0.3472538E+00
         13   -1    0    0    0    0  0.00000000000E+00  0.00000000000E+00  0.14999999963E+04  0.15000000000E+04  0.10566000000E+00 0. -1.
        994   -1    0    0    0    0 -0.00000000000E+00 -0.00000000000E+00  0.11368683772E-12  0.17120000000E+03  0.17120000000E+03 0.  0.
         13    1    1    2    0    0 -0.36887737126E+02  0.35952754695E+02  0.26500840817E+03  0.26996809680E+03  0.10566000000E+00 0. -1.
        994    1    1    2    0    0 -0.12026201975E+02  0.79341741684E+00  0.70937541684E+01  0.17177025468E+03  0.17120000000E+03 0.  0.
        998    1    1    2    0    0  0.48913939101E+02 -0.36746172112E+02  0.12278978339E+04  0.12294616485E+04  0.10000000000E+02 0. -1.
</event>
<event>
 5    1  0.1147307E-008  0.3818571E+03  0.7957747E-01  0.3443112E+00
         13   -1    0    0    0    0  0.00000000000E+00  0.00000000000E+00  0.14999999963E+04  0.15000000000E+04  0.10566000000E+00 0. -1.
        994   -1    0    0    0    0 -0.00000000000E+00 -0.00000000000E+00  0.11368683772E-12  0.17120000000E+03  0.17120000000E+03 0.  0.
         13    1    1    2    0    0  0.14258443211E+02  0.19315090108E+02  0.85098274375E+02  0.88420039439E+02  0.10566000000E+00 0. -1.
        994    1    1    2    0    0 -0.19392009676E+02 -0.14970753253E+02  0.51952456621E+01  0.17302197568E+03  0.17120000000E+03 0.  0.
        998    1    1    2    0    0  0.51335664647E+01 -0.43443368546E+01  0.14097064762E+04  0.14097579849E+04  0.10000000000E+02 0. -1.
</event>
<event>
 5    1  0.1147307E-008  0.3848161E+03  0.7957747E-01  0.3430452E+00
         13   -1    0    0    0    0  0.00000000000E+00  0.00000000000E+00  0.14999999963E+04  0.15000000000E+04  0.10566000000E+00 0. -1.
        994   -1    0    0    0    0 -0.00000000000E+00 -0.00000000000E+00  0.11368683772E-12  0.17120000000E+03  0.17120000000E+03 0.  0.
         13    1    1    2    0    0 -0.76011305459E+01 -0.18677296011E+02  0.10903041610E+03  0.11087949030E+03  0.10566000000E+00 0. -1.
        994    1    1    2    0    0  0.19333671888E+02  0.16937554270E+02  0.38984946688E+01  0.17316266882E+03  0.17120000000E+03 0.  0.
        998    1    1    2    0    0 -0.11732541342E+02  0.17397417405E+01  0.13870710855E+04  0.13871578409E+04  0.10000000000E+02 0. -1.
</event>
<event>
 5    1  0.1147307E-008  0.3767360E+03  0.7957747E-01  0.3465495E+00
         13   -1    0    0    0    0  0.00000000000E+00  0.00000000000E+00  0.14999999963E+04  0.15000000000E+04  0.10566000000E+00 0.  1.
        994   -1    0    0    0    0 -0.00000000000E+00 -0.00000000000E+00  0.11368683772E-12  0.17120000000E+03  0.17120000000E+03 0.  0.
         13    1    1    2    0    0 -0.13764622123E+02  0.23262462363E+01  0.14168657367E+02  0.19890657590E+02  0.10566000000E+00 0.  1.
        994    1    1    2    0    0  0.12717867450E+02 -0.61070455047E+01  0.64628533374E+01  0.17190185755E+03  0.17120000000E+03 0.  0.
        998    1    1    2    0    0  0.10467546732E+01  0.37807992685E+01  0.14793684856E+04  0.14794074849E+04  0.10000000000E+02 0.  1.
</event>
<event>
 5    1  0.1147307E-008  0.3827185E+03  0.7957747E-01  0.3439406E+00
         13   -1    0    0    0    0  0.00000000000E+00  0.00000000000E+00  0.14999999963E+04  0.15000000000E+04  0.10566000000E+00 0. -1.
        994   -1    0    0    0    0 -0.00000000000E+00 -0.00000000000E+00  0.11368683772E-12  0.17120000000E+03  0.17120000000E+03 0.  0.
         13    1    1    2    0    0  0.14082514948E+02 -0.44845586798E+01  0.39017912422E+02  0.41723340562E+02  0.10566000000E+00 0. -1.
        994    1    1    2    0    0 -0.50332436068E+01  0.69924073634E+01  0.30130850437E+01  0.17144312755E+03  0.17120000000E+03 0.  0.
        998    1    1    2    0    0 -0.90492713416E+01 -0.25078486836E+01  0.14579689988E+04  0.14580335319E+04  0.10000000000E+02 0. -1.
</event>
<event>
 5    1  0.1147307E-008  0.3854088E+03  0.7957747E-01  0.3427940E+00
         13   -1    0    0    0    0  0.00000000000E+00  0.00000000000E+00  0.14999999963E+04  0.15000000000E+04  0.10566000000E+00 0.  1.
        994   -1    0    0    0    0 -0.00000000000E+00 -0.00000000000E+00  0.11368683772E-12  0.17120000000E+03  0.17120000000E+03 0.  0.
         13    1    1    2    0    0  0.13722263358E+02 -0.49184837901E+01  0.72727725018E+02  0.74174288974E+02  0.10566000000E+00 0.  1.
        994    1    1    2    0    0 -0.11237271347E+02  0.85328994578E+01  0.20814629957E+01  0.17179307067E+03  0.17120000000E+03 0.  0.
        998    1    1    2    0    0 -0.24849920117E+01 -0.36144156677E+01  0.14251908083E+04  0.14252326404E+04  0.10000000000E+02 0.  1.
</event>
<event>
 5    1  0.1147307E-008  0.3785375E+03  0.7957747E-01  0.3457551E+00
         13   -1    0    0    0    0  0.00000000000E+00  0.00000000000E+00  0.14999999963E+04  0.15000000000E+04  0.10566000000E+00 0. -1.
        994   -1    0    0    0    0 -0.00000000000E+00 -0.00000000000E+00  0.11368683772E-12  0.17120000000E+03  0.17120000000E+03 0.  0.
         13    1    1    2    0    0  0.33850436954E+02  0.21261058802E+02  0.15743716469E+03  0.16243262201E+03  0.10566000000E+00 0. -1.
        994    1    1    2    0    0 -0.20606809180E+02 -0.20748747962E+02  0.77511476740E+01  0.17385244150E+03  0.17120000000E+03 0.  0.
        998    1    1    2    0    0 -0.13243627774E+02 -0.51231084031E+00  0.13348116839E+04  0.13349149365E+04  0.10000000000E+02 0. -1.
</event>
<event>
 5    1  0.1147307E-008  0.3794662E+03  0.7957747E-01  0.3453486E+00
         13   -1    0    0    0    0  0.00000000000E+00  0.00000000000E+00  0.14999999963E+04  0.15000000000E+04  0.10566000000E+00 0. -1.
        994   -1    0    0    0    0 -0.00000000000E+00 -0.00000000000E+00  0.11368683772E-12  0.17120000000E+03  0.17120000000E+03 0.  0.
         13    1    1    2    0    0 -0.14209786981E+02 -0.16932763008E+02  0.59182066401E+02  0.63175665067E+02  0.10566000000E+00 0. -1.
        994    1    1    2    0    0  0.21133112416E+02 -0.29620975449E+02  0.88494802602E+01  0.17524772161E+03  0.17120000000E+03 0.  0.
        998    1    1    2    0    0 -0.69233254348E+01  0.46553738456E+02  0.14319684496E+04  0.14327766133E+04  0.10000000000E+02 0. -1.
</event>
<event>
 5    1  0.1147307E-008  0.3836026E+03  0.7957747E-01  0.3435621E+00
         13   -1    0    0    0    0  0.00000000000E+00  0.00000000000E+00  0.14999999963E+04  0.15000000000E+04  0.10566000000E+00 0. -1.
        994   -1    0    0    0    0 -0.00000000000E+00 -0.00000000000E+00  0.11368683772E-12  0.17120000000E+03  0.17120000000E+03 0.  0.
         13    1    1    2    0    0  0.23527512376E+02 -0.64636440970E+01  0.12943551992E+03  0.13171517572E+03  0.10566000000E+00 0. -1.
        994    1    1    2    0    0 -0.99432318862E+01  0.12718832343E+02  0.31870491295E+01  0.17198905151E+03  0.17120000000E+03 0.  0.
        998    1    1    2    0    0 -0.13584280490E+02 -0.62551882456E+01  0.13673774272E+04  0.13674957728E+04  0.10000000000E+02 0. -1.
</event>
<event>
 5    1  0.1147307E-008  0.3847578E+03  0.7957747E-01  0.3430700E+00
         13   -1    0    0    0    0  0.00000000000E+00  0.00000000000E+00  0.14999999963E+04  0.15000000000E+04  0.10566000000E+00 0.  1.
        994   -1    0    0    0    0 -0.00000000000E+00 -0.00000000000E+00  0.11368683772E-12  0.17120000000E+03  0.17120000000E+03 0.  0.
         13    1    1    2    0    0  0.98807768685E+01  0.28455594635E+01  0.29700275794E+02  0.31429993740E+02  0.10566000000E+00 0.  1.
        994    1    1    2    0    0 -0.89478530725E+01  0.85635475346E+00  0.20163994241E+01  0.17144766923E+03  0.17120000000E+03 0.  0.
        998    1    1    2    0    0 -0.93292379598E+00 -0.37019142170E+01  0.14682833211E+04  0.14683223370E+04  0.10000000000E+02 0.  1.
</event>
<event>
 5    1  0.1147307E-008  0.3743170E+03  0.7957747E-01  0.3476283E+00
         13   -1    0    0    0    0  0.00000000000E+00  0.00000000000E+00  0.14999999963E+04  0.15000000000E+04  0.10566000000E+00 0. -1.
        994   -1    0    0    0    0 -0.00000000000E+00 -0.00000000000E+00  0.11368683772E-12  0.17120000000E+03  0.17120000000E+03 0.  0.
         13    1    1    2    0    0 -0.66897815126E+01  0.83413525701E+01  0.48556507208E+01  0.11743928105E+02  0.10566000000E+00 0. -1.
        994    1    1    2    0    0  0.68979451517E+01 -0.75502485209E+01  0.73862688126E+01  0.17166416302E+03  0.17120000000E+03 0.  0.
        998    1    1    2    0    0 -0.20816363909E+00 -0.79110404923E+00  0.14877580767E+04  0.14877919089E+04  0.10000000000E+02 0. -1.
</event>
<event>
 5    1  0.1147307E-008  0.3725990E+03  0.7957747E-01  0.3484031E+00
         13   -1    0    0    0    0  0.00000000000E+00  0.00000000000E+00  0.14999999963E+04  0.15000000000E+04  0.10566000000E+00 0.  1.
        994   -1    0    0    0    0 -0.00000000000E+00 -0.00000000000E+00  0.11368683772E-12  0.17120000000E+03  0.17120000000E+03 0.  0.
         13    1    1    2    0    0  0.79631595886E+01  0.63838079066E+01 -0.15353576898E+01  0.10321501891E+02  0.10566000000E+00 0.  1.
        994    1    1    2    0    0 -0.43476218417E+01 -0.55499255985E+01  0.12495150949E+02  0.17180009397E+03  0.17120000000E+03 0.  0.
        998    1    1    2    0    0 -0.36155377469E+01 -0.83388230811E+00  0.14890402030E+04  0.14890784041E+04  0.10000000000E+02 0.  1.
</event>
<event>
 5    1  0.1147307E-008  0.3852943E+03  0.7957747E-01  0.3428425E+00
         13   -1    0    0    0    0  0.00000000000E+00  0.00000000000E+00  0.14999999963E+04  0.15000000000E+04  0.10566000000E+00 0. -1.
        994   -1    0    0    0    0 -0.00000000000E+00 -0.00000000000E+00  0.11368683772E-12  0.17120000000E+03  0.17120000000E+03 0.  0.
         13    1    1    2    0    0  0.31111746925E+01  0.11450121619E+02  0.47641509052E+02  0.49096937194E+02  0.10566000000E+00 0. -1.
        994    1    1    2    0    0 -0.16533538969E+02 -0.34976809663E+01  0.24229670696E+01  0.17204912802E+03  0.17120000000E+03 0.  0.
        998    1    1    2    0    0  0.13422364277E+02 -0.79524406525E+01  0.14499355202E+04  0.14500539348E+04  0.10000000000E+02 0. -1.
</event>
<event>
 5    1  0.1147307E-008  0.3754079E+03  0.7957747E-01  0.3471401E+00
         13   -1    0    0    0    0  0.00000000000E+00  0.00000000000E+00  0.14999999963E+04  0.15000000000E+04  0.10566000000E+00 0.  1.
        994   -1    0    0    0    0 -0.00000000000E+00 -0.00000000000E+00  0.11368683772E-12  0.17120000000E+03  0.17120000000E+03 0.  0.
         13    1    1    2    0    0  0.48186867788E+02 -0.23176449096E+02  0.23141192750E+03  0.23750918587E+03  0.10566000000E+00 0.  1.
        994    1    1    2    0    0 -0.21173108833E+02  0.75533159151E+01  0.81867441989E+01  0.17286357598E+03  0.17120000000E+03 0.  0.
        998    1    1    2    0    0 -0.27013758955E+02  0.15623133181E+02  0.12604013246E+04  0.12608272381E+04  0.10000000000E+02 0.  1.
</event>
<event>
 5    1  0.1147307E-008  0.3780998E+03  0.7957747E-01  0.3459474E+00
         13   -1    0    0    0    0  0.00000000000E+00  0.00000000000E+00  0.14999999963E+04  0.15000000000E+04  0.10566000000E+00 0. -1.
        994   -1    0    0    0    0 -0.00000000000E+00 -0.00000000000E+00  0.11368683772E-12  0.17120000000E+03  0.17120000000E+03 0.  0.
         13    1    1    2    0    0 -0.29640943375E+02 -0.66436977214E+01  0.10068746096E+03  0.10516986357E+03  0.10566000000E+00 0. -1.
        994    1    1    2    0    0 -0.55303390788E+01 -0.10661843588E+02  0.55808878494E+01  0.17171151932E+03  0.17120000000E+03 0.  0.
        998    1    1    2    0    0  0.35171282454E+02  0.17305541309E+02  0.13937316475E+04  0.13943186171E+04  0.10000000000E+02 0. -1.
</event>
<event>
 5    1  0.1147307E-008  0.3771983E+03  0.7957747E-01  0.3463449E+00
         13   -1    0    0    0    0  0.00000000000E+00  0.00000000000E+00  0.14999999963E+04  0.15000000000E+04  0.10566000000E+00 0. -1.
        994   -1    0    0    0    0 -0.00000000000E+00 -0.00000000000E+00  0.11368683772E-12  0.17120000000E+03  0.17120000000E+03 0.  0.
         13    1    1    2    0    0  0.22054963669E+02  0.21067202064E+02  0.79342483657E+02  0.85002878200E+02  0.10566000000E+00 0. -1.
        994    1    1    2    0    0 -0.18837692669E+02 -0.18252832980E+02  0.78791361768E+01  0.17337688821E+03  0.17120000000E+03 0.  0.
        998    1    1    2    0    0 -0.32172710002E+01 -0.28143690837E+01  0.14127783764E+04  0.14128202336E+04  0.10000000000E+02 0. -1.
</event>
<event>
 5    1  0.1147307E-008  0.3857799E+03  0.7957747E-01  0.3426371E+00
         13   -1    0    0    0    0  0.00000000000E+00  0.00000000000E+00  0.14999999963E+04  0.15000000000E+04  0.10566000000E+00 0. -1.
        994   -1    0    0    0    0 -0.00000000000E+00 -0.00000000000E+00  0.11368683772E-12  0.17120000000E+03  0.17120000000E+03 0.  0.
         13    1    1    2    0    0  0.13895059460E+02 -0.44573438545E+01  0.88119544120E+02  0.89319683226E+02  0.10566000000E+00 0. -1.
        994    1    1    2    0    0 -0.60420081262E+01  0.43256812628E+01  0.14245628495E+01  0.17136711108E+03  0.17120000000E+03 0.  0.
        998    1    1    2    0    0 -0.78530513338E+01  0.13166259169E+00  0.14104558893E+04  0.14105132057E+04  0.10000000000E+02 0. -1.
</event>
<event>
 5    1  0.1147307E-008  0.3038302E+03  0.7957747E-01  0.3869049E+00
         13   -1    0    0    0    0  0.00000000000E+00  0.00000000000E+00  0.14999999963E+04  0.15000000000E+04  0.10566000000E+00 0.  1.
        994   -1    0    0    0    0 -0.00000000000E+00 -0.00000000000E+00  0.11368683772E-12  0.17120000000E+03  0.17120000000E+03 0.  0.
         13    1    1    2    0    0 -0.40809823176E+02 -0.17010653814E+03  0.80976877533E+03  0.82844864454E+03  0.10566000000E+00 0.  1.
        994    1    1    2    0    0  0.58251459693E+01  0.94947091424E+02  0.56916664451E+02  0.20395545883E+03  0.17120000000E+03 0.  0.
        998    1    1    2    0    0  0.34984677207E+02  0.75159446714E+02  0.63331455650E+03  0.63879589663E+03  0.10000000000E+02 0.  1.
</event>
<event>
 5    1  0.1147307E-008  0.3800242E+03  0.7957747E-01  0.3451053E+00
         13   -1    0    0    0    0  0.00000000000E+00  0.00000000000E+00  0.14999999963E+04  0.15000000000E+04  0.10566000000E+00 0.  1.
        994   -1    0    0    0    0 -0.00000000000E+00 -0.00000000000E+00  0.11368683772E-12  0.17120000000E+03  0.17120000000E+03 0.  0.
         13    1    1    2    0    0 -0.18451489079E+02  0.16084923101E+02  0.67240139460E+02  0.71557177970E+02  0.10566000000E+00 0.  1.
        994    1    1    2    0    0  0.19319212015E+02 -0.21930053475E+02  0.69813147959E+01  0.17381696682E+03  0.17120000000E+03 0.  0.
        998    1    1    2    0    0 -0.86772293512E+00  0.58451303736E+01  0.14257785420E+04  0.14258258552E+04  0.10000000000E+02 0.  1.
</event>
<event>
 5    1  0.1147307E-008  0.3719992E+03  0.7957747E-01  0.3486753E+00
         13   -1    0    0    0    0  0.00000000000E+00  0.00000000000E+00  0.14999999963E+04  0.15000000000E+04  0.10566000000E+00 0. -1.
        994   -1    0    0    0    0 -0.00000000000E+00 -0.00000000000E+00  0.11368683772E-12  0.17120000000E+03  0.17120000000E+03 0.  0.
         13    1    1    2    0    0 -0.36753565061E+02  0.55348126686E+02  0.16452880053E+03  0.17743724818E+03  0.10566000000E+00 0. -1.
        994    1    1    2    0    0  0.33311403036E+02 -0.51691548931E+02  0.25435494231E+02  0.18367925895E+03  0.17120000000E+03 0.  0.
        998    1    1    2    0    0  0.34421620251E+01 -0.36565777551E+01  0.13100357015E+04  0.13100834929E+04  0.10000000000E+02 0. -1.
</event>
<event>
 5    1  0.1147307E-008  0.3804285E+03  0.7957747E-01  0.3449295E+00
         13   -1    0    0    0    0  0.00000000000E+00  0.00000000000E+00  0.14999999963E+04  0.15000000000E+04  0.10566000000E+00 0.  1.
        994   -1    0    0    0    0 -0.00000000000E+00 -0.00000000000E+00  0.11368683772E-12  0.17120000000E+03  0.17120000000E+03 0.  0.
         13    1    1    2    0    0  0.10530384507E+02 -0.11229524552E+02  0.29275770922E+02  0.33076776546E+02  0.10566000000E+00 0.  1.
        994    1    1    2    0    0 -0.75016661805E+01 -0.13401968313E+01  0.41108998327E+01  0.17141881641E+03  0.17120000000E+03 0.  0.
        998    1    1    2    0    0 -0.30287183269E+01  0.12569721383E+02  0.14666133255E+04  0.14667044070E+04  0.10000000000E+02 0.  1.
</event>
<event>
 5    1  0.1147307E-008  0.3836659E+03  0.7957747E-01  0.3435350E+00
         13   -1    0    0    0    0  0.00000000000E+00  0.00000000000E+00  0.14999999963E+04  0.15000000000E+04  0.10566000000E+00 0. -1.
        994   -1    0    0    0    0 -0.00000000000E+00 -0.00000000000E+00  0.11368683772E-12  0.17120000000E+03  0.17120000000E+03 0.  0.
         13    1    1    2    0    0 -0.15199545195E+02  0.42642393947E+01  0.52291719952E+02  0.54622752140E+02  0.10566000000E+00 0. -1.
        994    1    1    2    0    0  0.14460527926E+02 -0.78735773999E+01  0.31898599102E+01  0.17201952010E+03  0.17120000000E+03 0.  0.
        998    1    1    2    0    0  0.73901726878E+00  0.36093380052E+01  0.14445184164E+04  0.14445577278E+04  0.10000000000E+02 0. -1.
</event>
<event>
 5    1  0.1147307E-008  0.3786441E+03  0.7957747E-01  0.3457084E+00
         13   -1    0    0    0    0  0.00000000000E+00  0.00000000000E+00  0.14999999963E+04  0.15000000000E+04  0.10566000000E+00 0. -1.
        994   -1    0    0    0    0 -0.00000000000E+00 -0.00000000000E+00  0.11368683772E-12  0.17120000000E+03  0.17120000000E+03 0.  0.
         13    1    1    2    0    0 -0.31389871772E+02 -0.18099399039E+02  0.11954613089E+03  0.12491677578E+03  0.10566000000E+00 0. -1.
        994    1    1    2    0    0  0.39493451240E+02  0.20326235123E+02  0.11472776783E+02  0.17723981813E+03  0.17120000000E+03 0.  0.
        998    1    1    2    0    0 -0.81035794682E+01 -0.22268360834E+01  0.13689810886E+04  0.13690434061E+04  0.10000000000E+02 0. -1.
</event>
<event>
 5    1  0.1147307E-008  0.3840772E+03  0.7957747E-01  0.3433595E+00
         13   -1    0    0    0    0  0.00000000000E+00  0.00000000000E+00  0.14999999963E+04  0.15000000000E+04  0.10566000000E+00 0.  1.
        994   -1    0    0    0    0 -0.00000000000E+00 -0.00000000000E+00  0.11368683772E-12  0.17120000000E+03  0.17120000000E+03 0.  0.
         13    1    1    2    0    0 -0.14539032005E+02  0.15409952256E+02  0.12137516768E+03  0.12321035903E+03  0.10566000000E+00 0.  1.
        994    1    1    2    0    0 -0.99294284396E+01 -0.59530242888E+01  0.25311965737E+01  0.17160967048E+03  0.17120000000E+03 0.  0.
        998    1    1    2    0    0  0.24468460445E+02 -0.94569279669E+01  0.13760936320E+04  0.13763799705E+04  0.10000000000E+02 0.  1.
</event>
<event>
 5    1  0.1147307E-008  0.3753326E+03  0.7957747E-01  0.3471736E+00
         13   -1    0    0    0    0  0.00000000000E+00  0.00000000000E+00  0.14999999963E+04  0.15000000000E+04  0.10566000000E+00 0. -1.
        994   -1    0    0    0    0 -0.00000000000E+00 -0.00000000000E+00  0.11368683772E-12  0.17120000000E+03  0.17120000000E+03 0.  0.
         13    1    1    2    0    0  0.12117111505E+03  0.77780300083E+01  0.59579013491E+03  0.60803686804E+03  0.10566000000E+00 0. -1.
        994    1    1    2    0    0 -0.13030558082E+03 -0.53692893591E+02  0.77248646751E+02  0.23481751349E+03  0.17120000000E+03 0.  0.
        998    1    1    2    0    0  0.91344657737E+01  0.45914863583E+02  0.82696121461E+03  0.82834561847E+03  0.10000000000E+02 0. -1.
</event>
<event>
 5    1  0.1147307E-008  0.3857997E+03  0.7957747E-01  0.3426288E+00
         13   -1    0    0    0    0  0.00000000000E+00  0.00000000000E+00  0.14999999963E+04  0.15000000000E+04  0.10566000000E+00 0. -1.
        994   -1    0    0    0    0 -0.00000000000E+00 -0.00000000000E+00  0.11368683772E-12  0.17120000000E+03  0.17120000000E+03 0.  0.
         13    1    1    2    0    0  0.50194066358E+01 -0.88543343845E+01  0.40881826716E+02  0.42129901495E+02  0.10566000000E+00 0. -1.
        994    1    1    2    0    0 -0.74107248881E+01  0.10596132088E+02  0.17822470432E+01  0.17169686445E+03  0.17120000000E+03 0.  0.
        998    1    1    2    0    0  0.23913182523E+01 -0.17417977032E+01  0.14573359225E+04  0.14573732341E+04  0.10000000000E+02 0. -1.
</event>
<event>
 5    1  0.1147307E-008  0.3777625E+03  0.7957747E-01  0.3460959E+00
         13   -1    0    0    0    0  0.00000000000E+00  0.00000000000E+00  0.14999999963E+04  0.15000000000E+04  0.10566000000E+00 0.  1.
        994   -1    0    0    0    0 -0.00000000000E+00 -0.00000000000E+00  0.11368683772E-12  0.17120000000E+03  0.17120000000E+03 0.  0.
         13    1    1    2    0    0  0.80386549956E+00  0.29058328712E+02  0.75725613435E+02  0.81113576924E+02  0.10566000000E+00 0.  1.
        994    1    1    2    0    0 -0.30285948048E+01 -0.26279257864E+02  0.76272258692E+01  0.17339949929E+03  0.17120000000E+03 0.  0.
        998    1    1    2    0    0  0.22247293052E+01 -0.27790708487E+01  0.14166471570E+04  0.14166869238E+04  0.10000000000E+02 0.  1.
</event>
<event>
 5    1  0.1147307E-008  0.3814329E+03  0.7957747E-01  0.3444943E+00
         13   -1    0    0    0    0  0.00000000000E+00  0.00000000000E+00  0.14999999963E+04  0.15000000000E+04  0.10566000000E+00 0. -1.
        994   -1    0    0    0    0 -0.00000000000E+00 -0.00000000000E+00  0.11368683772E-12  0.17120000000E+03  0.17120000000E+03 0.  0.
         13    1    1    2    0    0  0.10774170262E+02 -0.29478393528E+02  0.15571642531E+03  0.15884796097E+03  0.10566000000E+00 0. -1.
        994    1    1    2    0    0 -0.42499406153E+01  0.57332823364E+01  0.35810519476E+01  0.17138610345E+03  0.17120000000E+03 0.  0.
        998    1    1    2    0    0 -0.65242296462E+01  0.23745111192E+02  0.13407025190E+04  0.13409659356E+04  0.10000000000E+02 0. -1.
</event>
<event>
 5    1  0.1147307E-008  0.3819209E+03  0.7957747E-01  0.3442837E+00
         13   -1    0    0    0    0  0.00000000000E+00  0.00000000000E+00  0.14999999963E+04  0.15000000000E+04  0.10566000000E+00 0. -1.
        994   -1    0    0    0    0 -0.00000000000E+00 -0.00000000000E+00  0.11368683772E-12  0.17120000000E+03  0.17120000000E+03 0.  0.
         13    1    1    2    0    0 -0.14255249161E+02  0.93179463594E+01  0.44291381888E+02  0.47452860046E+02  0.10566000000E+00 0. -1.
        994    1    1    2    0    0  0.10828684089E+02 -0.82387269567E+01  0.37818426041E+01  0.17178148723E+03  0.17120000000E+03 0.  0.
        998    1    1    2    0    0  0.34265650716E+01 -0.10792194027E+01  0.14519267718E+04  0.14519656527E+04  0.10000000000E+02 0. -1.
</event>
<event>
 5    1  0.1147307E-008  0.3746155E+03  0.7957747E-01  0.3474944E+00
         13   -1    0    0    0    0  0.00000000000E+00  0.00000000000E+00  0.14999999963E+04  0.15000000000E+04  0.10566000000E+00 0.  1.
        994   -1    0    0    0    0 -0.00000000000E+00 -0.00000000000E+00  0.11368683772E-12  0.17120000000E+03  0.17120000000E+03 0.  0.
         13    1    1    2    0    0 -0.11754609529E+02 -0.10221624023E+02  0.14927172696E+02  0.21575080338E+02  0.10566000000E+00 0.  1.
        994    1    1    2    0    0  0.33862756122E+00  0.32843904270E+01  0.69134326500E+01  0.17137134370E+03  0.17120000000E+03 0.  0.
        998    1    1    2    0    0  0.11415981968E+02  0.69372335960E+01  0.14781593909E+04  0.14782535760E+04  0.10000000000E+02 0.  1.
</event>
<event>
 5    1  0.1147307E-008  0.3780038E+03  0.7957747E-01  0.3459897E+00
         13   -1    0    0    0    0  0.00000000000E+00  0.00000000000E+00  0.14999999963E+04  0.15000000000E+04  0.10566000000E+00 0. -1.
        994   -1    0    0    0    0 -0.00000000000E+00 -0.00000000000E+00  0.11368683772E-12  0.17120000000E+03  0.17120000000E+03 0.  0.
         13    1    1    2    0    0  0.11086691004E+02  0.12128920566E+02  0.24443864806E+02  0.29454017081E+02  0.10566000000E+00 0. -1.
        994    1    1    2    0    0 -0.60693814906E+01 -0.27961257425E+01  0.52944925289E+01  0.17141215640E+03  0.17120000000E+03 0.  0.
        998    1    1    2    0    0 -0.50173095133E+01 -0.93327948236E+01  0.14702616389E+04  0.14703338265E+04  0.10000000000E+02 0. -1.
</event>
<event>
 5    1  0.1147307E-008  0.3846942E+03  0.7957747E-01  0.3430970E+00
         13   -1    0    0    0    0  0.00000000000E+00  0.00000000000E+00  0.14999999963E+04  0.15000000000E+04  0.10566000000E+00 0.  1.
        994   -1    0    0    0    0 -0.00000000000E+00 -0.00000000000E+00  0.11368683772E-12  0.17120000000E+03  0.17120000000E+03 0.  0.
         13    1    1    2    0    0 -0.14336108182E+02 -0.60754686230E+01  0.75875143132E+02  0.77456334965E+02  0.10566000000E+00 0.  1.
        994    1    1    2    0    0 -0.81813126013E+01  0.28890775046E+01  0.20299100222E+01  0.17143173912E+03  0.17120000000E+03 0.  0.
        998    1    1    2    0    0  0.22517420784E+02  0.31863911183E+01  0.14220949431E+04  0.14223119259E+04  0.10000000000E+02 0.  1.
</event>
<event>
 5    1  0.1147307E-008  0.3828844E+03  0.7957747E-01  0.3438695E+00
         13   -1    0    0    0    0  0.00000000000E+00  0.00000000000E+00  0.14999999963E+04  0.15000000000E+04  0.10566000000E+00 0.  1.
        994   -1    0    0    0    0 -0.00000000000E+00 -0.00000000000E+00  0.11368683772E-12  0.17120000000E+03  0.17120000000E+03 0.  0.
         13    1    1    2    0    0 -0.18304236665E+02 -0.96267294401E+01  0.78542394674E+02  0.81219689268E+02  0.10566000000E+00 0.  1.
        994    1    1    2    0    0  0.11375863224E+02  0.82497209035E+01  0.33383264886E+01  0.17180818544E+03  0.17120000000E+03 0.  0.
        998    1    1    2    0    0  0.69283734409E+01  0.13770085366E+01  0.14181192751E+04  0.14181721253E+04  0.10000000000E+02 0.  1.
</event>
<event>
 5    1  0.1147307E-008  0.3853514E+03  0.7957747E-01  0.3428183E+00
         13   -1    0    0    0    0  0.00000000000E+00  0.00000000000E+00  0.14999999963E+04  0.15000000000E+04  0.10566000000E+00 0.  1.
        994   -1    0    0    0    0 -0.00000000000E+00 -0.00000000000E+00  0.11368683772E-12  0.17120000000E+03  0.17120000000E+03 0.  0.
         13    1    1    2    0    0  0.16587542338E+02 -0.44962595522E+01  0.95741331205E+02  0.97271663786E+02  0.10566000000E+00 0.  1.
        994    1    1    2    0    0 -0.17117671613E+02  0.82237167563E+01  0.26413718725E+01  0.17227031388E+03  0.17120000000E+03 0.  0.
        998    1    1    2    0    0  0.53012927515E+00 -0.37274572041E+01  0.14016172932E+04  0.14016580223E+04  0.10000000000E+02 0.  0.
</event>
<event>
 5    1  0.1147307E-008  0.3838137E+03  0.7957747E-01  0.3434719E+00
         13   -1    0    0    0    0  0.00000000000E+00  0.00000000000E+00  0.14999999963E+04  0.15000000000E+04  0.10566000000E+00 0.  1.
        994   -1    0    0    0    0 -0.00000000000E+00 -0.00000000000E+00  0.11368683772E-12  0.17120000000E+03  0.17120000000E+03 0.  0.
         13    1    1    2    0    0 -0.18326645966E+02  0.77609608140E+01  0.85699148214E+02  0.87979847884E+02  0.10566000000E+00 0.  1.
        994    1    1    2    0    0  0.19930378478E+02  0.34875849932E+00  0.35331195331E+01  0.17239276247E+03  0.17120000000E+03 0.  0.
        998    1    1    2    0    0 -0.16037325123E+01 -0.81097193133E+01  0.14107677285E+04  0.14108273896E+04  0.10000000000E+02 0.  1.
</event>
<event>
 5    1  0.1147307E-008  0.3739425E+03  0.7957747E-01  0.3477966E+00
         13   -1    0    0    0    0  0.00000000000E+00  0.00000000000E+00  0.14999999963E+04  0.15000000000E+04  0.10566000000E+00 0. -1.
        994   -1    0    0    0    0 -0.00000000000E+00 -0.00000000000E+00  0.11368683772E-12  0.17120000000E+03  0.17120000000E+03 0.  0.
         13    1    1    2    0    0  0.38516965200E+02  0.90090276828E+01  0.11517934444E+03  0.12178264136E+03  0.10566000000E+00 0. -1.
        994    1    1    2    0    0 -0.29285154714E+01 -0.86027014146E+01  0.75045397014E+01  0.17160518871E+03  0.17120000000E+03 0.  0.
        998    1    1    2    0    0 -0.35588449728E+02 -0.40632626819E+00  0.13773161121E+04  0.13778121699E+04  0.10000000000E+02 0. -1.
</event>
<event>
 5    1  0.1147307E-008  0.3684262E+03  0.7957747E-01  0.3503155E+00
         13   -1    0    0    0    0  0.00000000000E+00  0.00000000000E+00  0.14999999963E+04  0.15000000000E+04  0.10566000000E+00 0.  1.
        994   -1    0    0    0    0 -0.00000000000E+00 -0.00000000000E+00  0.11368683772E-12  0.17120000000E+03  0.17120000000E+03 0.  0.
         13    1    1    2    0    0  0.79454954858E+02  0.38836730148E+02  0.32782345111E+03  0.33954323395E+03  0.10566000000E+00 0.  1.
        994    1    1    2    0    0 -0.75464855017E+02 -0.17211617711E+02  0.31239473435E+02  0.19046398302E+03  0.17120000000E+03 0.  0.
        998    1    1    2    0    0 -0.39900998409E+01 -0.21625112437E+02  0.11409370717E+04  0.11411927830E+04  0.10000000000E+02 0.  1.
</event>
<event>
 5    1  0.1147307E-008  0.3817713E+03  0.7957747E-01  0.3443482E+00
         13   -1    0    0    0    0  0.00000000000E+00  0.00000000000E+00  0.14999999963E+04  0.15000000000E+04  0.10566000000E+00 0. -1.
        994   -1    0    0    0    0 -0.00000000000E+00 -0.00000000000E+00  0.11368683772E-12  0.17120000000E+03  0.17120000000E+03 0.  0.
         13    1    1    2    0    0  0.68057518920E+01 -0.10131921374E+02  0.21626599694E+02  0.24833345886E+02  0.10566000000E+00 0. -1.
        994    1    1    2    0    0 -0.42652212305E+01  0.87846945299E+01  0.35586573615E+01  0.17151520927E+03  0.17120000000E+03 0.  0.
        998    1    1    2    0    0 -0.25405306615E+01  0.13472268437E+01  0.14748147392E+04  0.14748514448E+04  0.10000000000E+02 0. -1.
</event>
<event>
 5    1  0.1147307E-008  0.3740879E+03  0.7957747E-01  0.3477312E+00
         13   -1    0    0    0    0  0.00000000000E+00  0.00000000000E+00  0.14999999963E+04  0.15000000000E+04  0.10566000000E+00 0.  1.
        994   -1    0    0    0    0 -0.00000000000E+00 -0.00000000000E+00  0.11368683772E-12  0.17120000000E+03  0.17120000000E+03 0.  0.
         13    1    1    2    0    0 -0.51001456538E+01 -0.29963585686E+02  0.60795123089E+02  0.67969744066E+02  0.10566000000E+00 0.  1.
        994    1    1    2    0    0  0.19054547438E+02  0.22226760044E+02  0.10075872760E+02  0.17397720498E+03  0.17120000000E+03 0.  0.
        998    1    1    2    0    0 -0.13954401784E+02  0.77368256417E+01  0.14291290004E+04  0.14292530510E+04  0.10000000000E+02 0.  1.
</event>
<event>
 5    1  0.1147307E-008  0.3781867E+03  0.7957747E-01  0.3459092E+00
         13   -1    0    0    0    0  0.00000000000E+00  0.00000000000E+00  0.14999999963E+04  0.15000000000E+04  0.10566000000E+00 0. -1.
        994   -1    0    0    0    0 -0.00000000000E+00 -0.00000000000E+00  0.11368683772E-12  0.17120000000E+03  0.17120000000E+03 0.  0.
         13    1    1    2    0    0 -0.22845273925E+02  0.97604359805E+02  0.59581759850E+03  0.60419131030E+03  0.10566000000E+00 0. -1.
        994    1    1    2    0    0  0.28176066975E+02 -0.95224018349E+02  0.38967318222E+02  0.20171612804E+03  0.17120000000E+03 0.  0.
        998    1    1    2    0    0 -0.53307930497E+01 -0.23803414558E+01  0.86521507956E+03  0.86529256166E+03  0.10000000000E+02 0.  0.
</event>
<event>
 5    1  0.1147307E-008  0.3825590E+03  0.7957747E-01  0.3440091E+00
         13   -1    0    0    0    0  0.00000000000E+00  0.00000000000E+00  0.14999999963E+04  0.15000000000E+04  0.10566000000E+00 0.  1.
        994   -1    0    0    0    0 -0.00000000000E+00 -0.00000000000E+00  0.11368683772E-12  0.17120000000E+03  0.17120000000E+03 0.  0.
         13    1    1    2    0    0  0.80779785060E+01  0.12284860564E+02  0.38962812260E+02  0.41644728827E+02  0.10566000000E+00 0.  1.
        994    1    1    2    0    0  0.88485626293E+01 -0.19429410409E+01  0.31190378143E+01  0.17146789926E+03  0.17120000000E+03 0.  0.
        998    1    1    2    0    0 -0.16926541135E+02 -0.10341919523E+02  0.14579181462E+04  0.14580873719E+04  0.10000000000E+02 0.  1.
</event>
<event>
 5    1  0.1147307E-008  0.3698174E+03  0.7957747E-01  0.3496730E+00
         13   -1    0    0    0    0  0.00000000000E+00  0.00000000000E+00  0.14999999963E+04  0.15000000000E+04  0.10566000000E+00 0. -1.
        994   -1    0    0    0    0 -0.00000000000E+00 -0.00000000000E+00  0.11368683772E-12  0.17120000000E+03  0.17120000000E+03 0.  0.
         13    1    1    2    0    0 -0.17179003562E+02  0.47076678081E+01  0.10031381816E+02  0.20443093816E+02  0.10566000000E+00 0. -1.
        994    1    1    2    0    0  0.22366403622E+01 -0.81787334167E+01  0.11093525098E+02  0.17176845036E+03  0.17120000000E+03 0.  0.
        998    1    1    2    0    0  0.14942363200E+02  0.34710656086E+01  0.14788750894E+04  0.14789884558E+04  0.10000000000E+02 0. -1.
</event>
<event>
 5    1  0.1147307E-008  0.3727525E+03  0.7957747E-01  0.3483336E+00
         13   -1    0    0    0    0  0.00000000000E+00  0.00000000000E+00  0.14999999963E+04  0.15000000000E+04  0.10566000000E+00 0. -1.
        994   -1    0    0    0    0 -0.00000000000E+00 -0.00000000000E+00  0.11368683772E-12  0.17120000000E+03  0.17120000000E+03 0.  0.
         13    1    1    2    0    0  0.11149581050E+02 -0.74165779273E+02  0.34440099941E+03  0.35247260252E+03  0.10566000000E+00 0. -1.
        994    1    1    2    0    0 -0.12260601376E+02  0.46112649036E+02  0.15676026037E+02  0.17841489999E+03  0.17120000000E+03 0.  0.
        998    1    1    2    0    0  0.11110203261E+01  0.28053130237E+02  0.11399229708E+04  0.11403124975E+04  0.10000000000E+02 0. -1.
</event>
<event>
 5    1  0.1147307E-008  0.3715709E+03  0.7957747E-01  0.3488702E+00
         13   -1    0    0    0    0  0.00000000000E+00  0.00000000000E+00  0.14999999963E+04  0.15000000000E+04  0.10566000000E+00 0. -1.
        994   -1    0    0    0    0 -0.00000000000E+00 -0.00000000000E+00  0.11368683772E-12  0.17120000000E+03  0.17120000000E+03 0.  0.
         13    1    1    2    0    0  0.34038455683E+02 -0.75381807227E+02  0.39803046523E+03  0.40653326523E+03  0.10566000000E+00 0. -1.
        994    1    1    2    0    0 -0.14199912318E+02  0.47090258639E+02  0.16816006256E+02  0.17891715411E+03  0.17120000000E+03 0.  0.
        998    1    1    2    0    0 -0.19838543365E+02  0.28291548589E+02  0.10851535248E+04  0.10857495807E+04  0.10000000000E+02 0. -1.
</event>
<event>
 5    1  0.1147307E-008  0.3859845E+03  0.7957747E-01  0.3425508E+00
         13   -1    0    0    0    0  0.00000000000E+00  0.00000000000E+00  0.14999999963E+04  0.15000000000E+04  0.10566000000E+00 0. -1.
        994   -1    0    0    0    0 -0.00000000000E+00 -0.00000000000E+00  0.11368683772E-12  0.17120000000E+03  0.17120000000E+03 0.  0.
         13    1    1    2    0    0  0.59816244652E+01 -0.12578216536E+02  0.83227050239E+02  0.84384503424E+02  0.10566000000E+00 0. -1.
        994    1    1    2    0    0 -0.35187753530E+01  0.12492557828E+02  0.16945419365E+01  0.17169961343E+03  0.17120000000E+03 0.  0.
        998    1    1    2    0    0 -0.24628491122E+01  0.85658708229E-01  0.14150784041E+04  0.14151158831E+04  0.10000000000E+02 0.  0.
</event>
<event>
 5    1  0.1147307E-008  0.3816682E+03  0.7957747E-01  0.3443927E+00
         13   -1    0    0    0    0  0.00000000000E+00  0.00000000000E+00  0.14999999963E+04  0.15000000000E+04  0.10566000000E+00 0. -1.
        994   -1    0    0    0    0 -0.00000000000E+00 -0.00000000000E+00  0.11368683772E-12  0.17120000000E+03  0.17120000000E+03 0.  0.
         13    1    1    2    0    0  0.69842311908E+01 -0.23406176974E+02  0.96869708662E+02  0.99901852966E+02  0.10566000000E+00 0. -1.
        994    1    1    2    0    0 -0.80793265624E+01 -0.11932494387E+01  0.35151802310E+01  0.17143073194E+03  0.17120000000E+03 0.  0.
        998    1    1    2    0    0  0.10950953715E+01  0.24599426413E+02  0.13996151074E+04  0.13998674151E+04  0.10000000000E+02 0. -1.
</event>
<event>
 5    1  0.1147307E-008  0.3809259E+03  0.7957747E-01  0.3447137E+00
         13   -1    0    0    0    0  0.00000000000E+00  0.00000000000E+00  0.14999999963E+04  0.15000000000E+04  0.10566000000E+00 0.  1.
        994   -1    0    0    0    0 -0.00000000000E+00 -0.00000000000E+00  0.11368683772E-12  0.17120000000E+03  0.17120000000E+03 0.  0.
         13    1    1    2    0    0  0.27835243626E+02  0.12192791167E+02  0.11131838419E+03  0.11539176213E+03  0.10566000000E+00 0.  1.
        994    1    1    2    0    0 -0.56446836838E+02  0.27771475716E+02  0.16970120048E+02  0.18318003501E+03  0.17120000000E+03 0.  0.
        998    1    1    2    0    0  0.28611593211E+02 -0.39964266883E+02  0.13717114920E+04  0.13726282029E+04  0.10000000000E+02 0.  1.
</event>
<event>
 5    1  0.1147307E-008  0.3841007E+03  0.7957747E-01  0.3433495E+00
         13   -1    0    0    0    0  0.00000000000E+00  0.00000000000E+00  0.14999999963E+04  0.15000000000E+04  0.10566000000E+00 0. -1.
        994   -1    0    0    0    0 -0.00000000000E+00 -0.00000000000E+00  0.11368683772E-12  0.17120000000E+03  0.17120000000E+03 0.  0.
         13    1    1    2    0    0 -0.73786142063E+01  0.16034996720E+02  0.72648600826E+02  0.74762259419E+02  0.10566000000E+00 0. -1.
        994    1    1    2    0    0  0.11688860745E+02 -0.12133009117E+02  0.30139987892E+01  0.17205337417E+03  0.17120000000E+03 0.  0.
        998    1    1    2    0    0 -0.43102465383E+01 -0.39019876033E+01  0.14243373967E+04  0.14243843664E+04  0.10000000000E+02 0. -1.
</event>
<event>
 5    1  0.1147307E-008  0.3848019E+03  0.7957747E-01  0.3430513E+00
         13   -1    0    0    0    0  0.00000000000E+00  0.00000000000E+00  0.14999999963E+04  0.15000000000E+04  0.10566000000E+00 0.  1.
        994   -1    0    0    0    0 -0.00000000000E+00 -0.00000000000E+00  0.11368683772E-12  0.17120000000E+03  0.17120000000E+03 0.  0.
         13    1    1    2    0    0 -0.22606617868E+01  0.11054490763E+02  0.36178454551E+02  0.37897283484E+02  0.10566000000E+00 0.  1.
        994    1    1    2    0    0  0.25493544576E+01 -0.96985472186E+01  0.20594965827E+01  0.17150580909E+03  0.17120000000E+03 0.  0.
        998    1    1    2    0    0 -0.28869267081E+00 -0.13559435443E+01  0.14617620451E+04  0.14617969074E+04  0.10000000000E+02 0.  1.
</event>
<event>
 5    1  0.1147307E-008  0.3841677E+03  0.7957747E-01  0.3433210E+00
         13   -1    0    0    0    0  0.00000000000E+00  0.00000000000E+00  0.14999999963E+04  0.15000000000E+04  0.10566000000E+00 0.  1.
        994   -1    0    0    0    0 -0.00000000000E+00 -0.00000000000E+00  0.11368683772E-12  0.17120000000E+03  0.17120000000E+03 0.  0.
         13    1    1    2    0    0  0.93338168742E+01 -0.17292679873E+02  0.10424749470E+03  0.10608349650E+03  0.10566000000E+00 0.  1.
        994    1    1    2    0    0 -0.67510189766E+01 -0.52362893714E+01  0.22846535250E+01  0.17142827837E+03  0.17120000000E+03 0.  0.
        998    1    1    2    0    0 -0.25827978976E+01  0.22528969245E+02  0.13934678481E+04  0.13936882251E+04  0.10000000000E+02 0.  1.
</event>
<event>
 5    1  0.1147307E-008  0.3802937E+03  0.7957747E-01  0.3449881E+00
         13   -1    0    0    0    0  0.00000000000E+00  0.00000000000E+00  0.14999999963E+04  0.15000000000E+04  0.10566000000E+00 0. -1.
        994   -1    0    0    0    0 -0.00000000000E+00 -0.00000000000E+00  0.11368683772E-12  0.17120000000E+03  0.17120000000E+03 0.  0.
         13    1    1    2    0    0 -0.30089505431E+01  0.28430447194E+02  0.93332040702E+02  0.97612627752E+02  0.10566000000E+00 0. -1.
        994    1    1    2    0    0  0.14681865437E+02 -0.32296906702E+02  0.81998946188E+01  0.17502949931E+03  0.17120000000E+03 0.  0.
        998    1    1    2    0    0 -0.11672914894E+02  0.38664595080E+01  0.13984680610E+04  0.13985578729E+04  0.10000000000E+02 0. -1.
</event>
<event>
 5    1  0.1147307E-008  0.3698918E+03  0.7957747E-01  0.3496389E+00
         13   -1    0    0    0    0  0.00000000000E+00  0.00000000000E+00  0.14999999963E+04  0.15000000000E+04  0.10566000000E+00 0.  1.
        994   -1    0    0    0    0 -0.00000000000E+00 -0.00000000000E+00  0.11368683772E-12  0.17120000000E+03  0.17120000000E+03 0.  0.
         13    1    1    2    0    0 -0.10397289880E+02 -0.21501874999E+00 -0.26111524552E+00  0.10403327117E+02  0.10566000000E+00 0.  1.
        994    1    1    2    0    0  0.26152019251E+02  0.10323000785E+01  0.13279091304E+02  0.17369734604E+03  0.17120000000E+03 0.  0.
        998    1    1    2    0    0 -0.15754729371E+02 -0.81728132851E+00  0.14869820202E+04  0.14870993268E+04  0.10000000000E+02 0.  1.
</event>
<event>
 5    1  0.1147307E-008  0.3855676E+03  0.7957747E-01  0.3427268E+00
         13   -1    0    0    0    0  0.00000000000E+00  0.00000000000E+00  0.14999999963E+04  0.15000000000E+04  0.10566000000E+00 0. -1.
        994   -1    0    0    0    0 -0.00000000000E+00 -0.00000000000E+00  0.11368683772E-12  0.17120000000E+03  0.17120000000E+03 0.  0.
         13    1    1    2    0    0 -0.15478653984E+02  0.15436132077E+01  0.87345581987E+02  0.88719971414E+02  0.10566000000E+00 0. -1.
        994    1    1    2    0    0  0.14237368487E+02  0.23220653624E+00  0.20144467816E+01  0.17180295276E+03  0.17120000000E+03 0.  0.
        998    1    1    2    0    0  0.12412854971E+01 -0.17758197439E+01  0.14106399675E+04  0.14106770758E+04  0.10000000000E+02 0. -1.
</event>
<event>
 5    1  0.1147307E-008  0.3842618E+03  0.7957747E-01  0.3432809E+00
         13   -1    0    0    0    0  0.00000000000E+00  0.00000000000E+00  0.14999999963E+04  0.15000000000E+04  0.10566000000E+00 0.  1.
        994   -1    0    0    0    0 -0.00000000000E+00 -0.00000000000E+00  0.11368683772E-12  0.17120000000E+03  0.17120000000E+03 0.  0.
         13    1    1    2    0    0  0.12189431039E+01 -0.22714376680E+02  0.11807840841E+03  0.12024953400E+03  0.10566000000E+00 0.  1.
        994    1    1    2    0    0  0.47592787130E-01  0.25859758601E+02  0.42046825515E+01  0.17319309667E+03  0.17120000000E+03 0.  0.
        998    1    1    2    0    0 -0.12665358911E+01 -0.31453819206E+01  0.13777169053E+04  0.13777573693E+04  0.10000000000E+02 0.  1.
</event>
<event>
 5    1  0.1147307E-008  0.3820896E+03  0.7957747E-01  0.3442110E+00
         13   -1    0    0    0    0  0.00000000000E+00  0.00000000000E+00  0.14999999963E+04  0.15000000000E+04  0.10566000000E+00 0. -1.
        994   -1    0    0    0    0 -0.00000000000E+00 -0.00000000000E+00  0.11368683772E-12  0.17120000000E+03  0.17120000000E+03 0.  0.
         13    1    1    2    0    0 -0.81430762793E+00  0.27498882884E+02  0.12453353092E+03  0.12753612486E+03  0.10566000000E+00 0. -1.
        994    1    1    2    0    0  0.15369907030E+02 -0.13038218009E+02  0.44318663481E+01  0.17243929544E+03  0.17120000000E+03 0.  0.
        998    1    1    2    0    0 -0.14555599403E+02 -0.14460664875E+02  0.13710345990E+04  0.13712245797E+04  0.10000000000E+02 0. -1.
</event>
<event>
 5    1  0.1147307E-008  0.3715097E+03  0.7957747E-01  0.3488981E+00
         13   -1    0    0    0    0  0.00000000000E+00  0.00000000000E+00  0.14999999963E+04  0.15000000000E+04  0.10566000000E+00 0.  1.
        994   -1    0    0    0    0 -0.00000000000E+00 -0.00000000000E+00  0.11368683772E-12  0.17120000000E+03  0.17120000000E+03 0.  0.
         13    1    1    2    0    0  0.21594205146E+02  0.37151727434E+02  0.10397191208E+03  0.11250213426E+03  0.10566000000E+00 0.  1.
        994    1    1    2    0    0  0.79379513488E+01 -0.40934505453E+02  0.14486333493E+02  0.17679914781E+03  0.17120000000E+03 0.  0.
        998    1    1    2    0    0 -0.29532156495E+02  0.37827780187E+01  0.13815417507E+04  0.13818987179E+04  0.10000000000E+02 0.  1.
</event>
<event>
 5    1  0.1147307E-008  0.3724968E+03  0.7957747E-01  0.3484494E+00
         13   -1    0    0    0    0  0.00000000000E+00  0.00000000000E+00  0.14999999963E+04  0.15000000000E+04  0.10566000000E+00 0. -1.
        994   -1    0    0    0    0 -0.00000000000E+00 -0.00000000000E+00  0.11368683772E-12  0.17120000000E+03  0.17120000000E+03 0.  0.
         13    1    1    2    0    0  0.61464198415E+02  0.80781388984E+00  0.23399492881E+03  0.24193416072E+03  0.10566000000E+00 0. -1.
        994    1    1    2    0    0 -0.35907671641E+02 -0.24424392816E+01  0.12423396165E+02  0.17538274477E+03  0.17120000000E+03 0.  0.
        998    1    1    2    0    0 -0.25556526774E+02  0.16346253918E+01  0.12535816713E+04  0.12538830945E+04  0.10000000000E+02 0. -1.
</event>
<event>
 5    1  0.1147307E-008  0.3796723E+03  0.7957747E-01  0.3452587E+00
         13   -1    0    0    0    0  0.00000000000E+00  0.00000000000E+00  0.14999999963E+04  0.15000000000E+04  0.10566000000E+00 0.  1.
        994   -1    0    0    0    0 -0.00000000000E+00 -0.00000000000E+00  0.11368683772E-12  0.17120000000E+03  0.17120000000E+03 0.  0.
         13    1    1    2    0    0 -0.30105736260E+02 -0.18358917956E+02  0.13810290132E+03  0.14253360215E+03  0.10566000000E+00 0.  1.
        994    1    1    2    0    0  0.17849009902E+02  0.22611002356E+02  0.70807466386E+01  0.17375103325E+03  0.17120000000E+03 0.  0.
        998    1    1    2    0    0  0.12256726358E+02 -0.42520843998E+01  0.13548163483E+04  0.13549153646E+04  0.10000000000E+02 0.  1.
</event>
<event>
 5    1  0.1147307E-008  0.3858653E+03  0.7957747E-01  0.3426011E+00
         13   -1    0    0    0    0  0.00000000000E+00  0.00000000000E+00  0.14999999963E+04  0.15000000000E+04  0.10566000000E+00 0.  1.
        994   -1    0    0    0    0 -0.00000000000E+00 -0.00000000000E+00  0.11368683772E-12  0.17120000000E+03  0.17120000000E+03 0.  0.
         13    1    1    2    0    0  0.66955502866E+02 -0.18126489394E+03  0.11660101278E+04  0.11819135461E+04  0.10566000000E+00 0.  1.
        994    1    1    2    0    0 -0.70581081557E+02  0.18974080498E+03  0.14965244704E+03  0.30444795459E+03  0.17120000000E+03 0.  0.
        998    1    1    2    0    0  0.36255786903E+01 -0.84759110443E+01  0.18433742144E+03  0.18483849933E+03  0.10000000000E+02 0.  1.
</event>
<event>
 5    1  0.1147307E-008  0.3762279E+03  0.7957747E-01  0.3467749E+00
         13   -1    0    0    0    0  0.00000000000E+00  0.00000000000E+00  0.14999999963E+04  0.15000000000E+04  0.10566000000E+00 0.  1.
        994   -1    0    0    0    0 -0.00000000000E+00 -0.00000000000E+00  0.11368683772E-12  0.17120000000E+03  0.17120000000E+03 0.  0.
         13    1    1    2    0    0  0.87033272566E+01 -0.31562365648E+02  0.95147849341E+02  0.10062333342E+03  0.10566000000E+00 0.  1.
        994    1    1    2    0    0 -0.15942391576E+02 -0.63867141143E+01  0.70486005038E+01  0.17220357933E+03  0.17120000000E+03 0.  0.
        998    1    1    2    0    0  0.72390643194E+01  0.37949079762E+02  0.13978035464E+04  0.13983730872E+04  0.10000000000E+02 0.  1.
</event>
<event>
 5    1  0.1147307E-008  0.3830710E+03  0.7957747E-01  0.3437895E+00
         13   -1    0    0    0    0  0.00000000000E+00  0.00000000000E+00  0.14999999963E+04  0.15000000000E+04  0.10566000000E+00 0. -1.
        994   -1    0    0    0    0 -0.00000000000E+00 -0.00000000000E+00  0.11368683772E-12  0.17120000000E+03  0.17120000000E+03 0.  0.
         13    1    1    2    0    0  0.14369494215E+02  0.83053761072E+01  0.51599692621E+02  0.54203330884E+02  0.10566000000E+00 0. -1.
        994    1    1    2    0    0 -0.77315766230E+01 -0.15199986360E+02  0.35538901567E+01  0.17208395334E+03  0.17120000000E+03 0.  0.
        998    1    1    2    0    0 -0.66379175922E+01  0.68946102530E+01  0.14448464135E+04  0.14449127158E+04  0.10000000000E+02 0. -1.
</event>
<event>
 5    1  0.1147307E-008  0.3804116E+03  0.7957747E-01  0.3449368E+00
         13   -1    0    0    0    0  0.00000000000E+00  0.00000000000E+00  0.14999999963E+04  0.15000000000E+04  0.10566000000E+00 0. -1.
        994   -1    0    0    0    0 -0.00000000000E+00 -0.00000000000E+00  0.11368683772E-12  0.17120000000E+03  0.17120000000E+03 0.  0.
         13    1    1    2    0    0 -0.33886969781E+02 -0.45793170193E+01  0.14713013666E+03  0.15105159761E+03  0.10566000000E+00 0. -1.
        994    1    1    2    0    0  0.21677912366E+02 -0.55439655598E+01  0.55987038121E+01  0.17274678846E+03  0.17120000000E+03 0.  0.
        998    1    1    2    0    0  0.12209057415E+02  0.10123282579E+02  0.13472711558E+04  0.13474016139E+04  0.10000000000E+02 0. -1.
</event>
<event>
 5    1  0.1147307E-008  0.3854187E+03  0.7957747E-01  0.3427898E+00
         13   -1    0    0    0    0  0.00000000000E+00  0.00000000000E+00  0.14999999963E+04  0.15000000000E+04  0.10566000000E+00 0. -1.
        994   -1    0    0    0    0 -0.00000000000E+00 -0.00000000000E+00  0.11368683772E-12  0.17120000000E+03  0.17120000000E+03 0.  0.
         13    1    1    2    0    0  0.50762647779E+01 -0.10269679057E+02  0.48528059228E+02  0.49861994229E+02  0.10566000000E+00 0. -1.
        994    1    1    2    0    0 -0.60535609265E+01 -0.33362767800E+01  0.15793381121E+01  0.17134675559E+03  0.17120000000E+03 0.  0.
        998    1    1    2    0    0  0.97729614856E+00  0.13605955837E+02  0.14498925989E+04  0.14499912502E+04  0.10000000000E+02 0. -1.
</event>
<event>
 5    1  0.1147307E-008  0.3816462E+03  0.7957747E-01  0.3444022E+00
         13   -1    0    0    0    0  0.00000000000E+00  0.00000000000E+00  0.14999999963E+04  0.15000000000E+04  0.10566000000E+00 0. -1.
        994   -1    0    0    0    0 -0.00000000000E+00 -0.00000000000E+00  0.11368683772E-12  0.17120000000E+03  0.17120000000E+03 0.  0.
         13    1    1    2    0    0 -0.31182804299E+02  0.14484918451E+02  0.17858456838E+03  0.18186434333E+03  0.10566000000E+00 0. -1.
        994    1    1    2    0    0  0.11248924778E+01 -0.52127444657E+02  0.12396406389E+02  0.17939243786E+03  0.17120000000E+03 0.  0.
        998    1    1    2    0    0  0.30057911821E+02  0.37642526207E+02  0.13090190215E+04  0.13099432188E+04  0.10000000000E+02 0. -1.
</event>
<event>
 5    1  0.1147307E-008  0.3775459E+03  0.7957747E-01  0.3461914E+00
         13   -1    0    0    0    0  0.00000000000E+00  0.00000000000E+00  0.14999999963E+04  0.15000000000E+04  0.10566000000E+00 0.  1.
        994   -1    0    0    0    0 -0.00000000000E+00 -0.00000000000E+00  0.11368683772E-12  0.17120000000E+03  0.17120000000E+03 0.  0.
         13    1    1    2    0    0 -0.11794870121E+02  0.20567428331E+02  0.53542079743E+02  0.58556840220E+02  0.10566000000E+00 0.  1.
        994    1    1    2    0    0 -0.58780599966E+01  0.39713240570E-02  0.54935897444E+01  0.17138894694E+03  0.17120000000E+03 0.  0.
        998    1    1    2    0    0  0.17672930117E+02 -0.20571399655E+02  0.14409643268E+04  0.14412542128E+04  0.10000000000E+02 0.  1.
</event>
<event>
 5    1  0.1147307E-008  0.3851470E+03  0.7957747E-01  0.3429049E+00
         13   -1    0    0    0    0  0.00000000000E+00  0.00000000000E+00  0.14999999963E+04  0.15000000000E+04  0.10566000000E+00 0.  1.
        994   -1    0    0    0    0 -0.00000000000E+00 -0.00000000000E+00  0.11368683772E-12  0.17120000000E+03  0.17120000000E+03 0.  0.
         13    1    1    2    0    0  0.16542127225E+02  0.89065148307E+00  0.99019044044E+02  0.10039530607E+03  0.10566000000E+00 0.  1.
        994    1    1    2    0    0  0.37215338021E+01 -0.96747632408E+01  0.19104718195E+01  0.17152416961E+03  0.17120000000E+03 0.  0.
        998    1    1    2    0    0 -0.20263661027E+02  0.87841117577E+01  0.13990704804E+04  0.13992805243E+04  0.10000000000E+02 0.  1.
</event>
<event>
 5    1  0.1147307E-008  0.3705002E+03  0.7957747E-01  0.3493595E+00
         13   -1    0    0    0    0  0.00000000000E+00  0.00000000000E+00  0.14999999963E+04  0.15000000000E+04  0.10566000000E+00 0.  1.
        994   -1    0    0    0    0 -0.00000000000E+00 -0.00000000000E+00  0.11368683772E-12  0.17120000000E+03  0.17120000000E+03 0.  0.
         13    1    1    2    0    0  0.12951472660E+02 -0.23472717741E+02  0.25400134918E+02  0.36930842667E+02  0.10566000000E+00 0.  1.
        994    1    1    2    0    0 -0.23284910157E+02  0.44836591689E+02  0.20196813193E+02  0.17963813142E+03  0.17120000000E+03 0.  0.
        998    1    1    2    0    0  0.10333437497E+02 -0.21363873948E+02  0.14544030482E+04  0.14546310259E+04  0.10000000000E+02 0.  1.
</event>
<event>
 5    1  0.1147307E-008  0.3819346E+03  0.7957747E-01  0.3442778E+00
         13   -1    0    0    0    0  0.00000000000E+00  0.00000000000E+00  0.14999999963E+04  0.15000000000E+04  0.10566000000E+00 0.  1.
        994   -1    0    0    0    0 -0.00000000000E+00 -0.00000000000E+00  0.11368683772E-12  0.17120000000E+03  0.17120000000E+03 0.  0.
         13    1    1    2    0    0  0.58543394126E+01  0.15224086165E+02  0.41346323558E+02  0.44447449030E+02  0.10566000000E+00 0.  1.
        994    1    1    2    0    0 -0.11743222072E+01 -0.87795021215E+01  0.34203838786E+01  0.17146310891E+03  0.17120000000E+03 0.  0.
        998    1    1    2    0    0 -0.46800172055E+01 -0.64445840437E+01  0.14552332888E+04  0.14552894421E+04  0.10000000000E+02 0.  1.
</event>
<event>
 5    1  0.1147307E-008  0.3809386E+03  0.7957747E-01  0.3447082E+00
         13   -1    0    0    0    0  0.00000000000E+00  0.00000000000E+00  0.14999999963E+04  0.15000000000E+04  0.10566000000E+00 0. -1.
        994   -1    0    0    0    0 -0.00000000000E+00 -0.00000000000E+00  0.11368683772E-12  0.17120000000E+03  0.17120000000E+03 0.  0.
         13    1    1    2    0    0 -0.48463731226E+01  0.13002491059E+02  0.24209425047E+02  0.27904471529E+02  0.10566000000E+00 0. -1.
        994    1    1    2    0    0  0.68218432680E+01 -0.17022352033E+02  0.47816114747E+01  0.17224575996E+03  0.17120000000E+03 0.  0.
        998    1    1    2    0    0 -0.19754701454E+01  0.40198609743E+01  0.14710089598E+04  0.14710497685E+04  0.10000000000E+02 0. -1.
</event>
<event>
 5    1  0.1147307E-008  0.3844708E+03  0.7957747E-01  0.3431920E+00
         13   -1    0    0    0    0  0.00000000000E+00  0.00000000000E+00  0.14999999963E+04  0.15000000000E+04  0.10566000000E+00 0. -1.
        994   -1    0    0    0    0 -0.00000000000E+00 -0.00000000000E+00  0.11368683772E-12  0.17120000000E+03  0.17120000000E+03 0.  0.
         13    1    1    2    0    0 -0.19487562159E+02 -0.55346626793E+01  0.10398954568E+03  0.10594448709E+03  0.10566000000E+00 0. -1.
        994    1    1    2    0    0  0.16406505597E+02  0.83479014765E+01  0.30102091934E+01  0.17221313029E+03  0.17120000000E+03 0.  0.
        998    1    1    2    0    0  0.30810565621E+01 -0.28132387973E+01  0.13930002414E+04  0.13930423826E+04  0.10000000000E+02 0. -1.
</event>
<event>
 5    1  0.1147307E-008  0.3843849E+03  0.7957747E-01  0.3432285E+00
         13   -1    0    0    0    0  0.00000000000E+00  0.00000000000E+00  0.14999999963E+04  0.15000000000E+04  0.10566000000E+00 0. -1.
        994   -1    0    0    0    0 -0.00000000000E+00 -0.00000000000E+00  0.11368683772E-12  0.17120000000E+03  0.17120000000E+03 0.  0.
         13    1    1    2    0    0 -0.55972782115E+01 -0.15689511908E+02  0.86192753024E+02  0.87787767628E+02  0.10566000000E+00 0. -1.
        994    1    1    2    0    0 -0.68727656494E+01 -0.14791756413E+02  0.28129348408E+01  0.17199820804E+03  0.17120000000E+03 0.  0.
        998    1    1    2    0    0  0.12470043861E+02  0.30481268321E+02  0.14109943084E+04  0.14114140243E+04  0.10000000000E+02 0. -1.
</event>
<event>
 5    1  0.1147307E-008  0.3794968E+03  0.7957747E-01  0.3453352E+00
         13   -1    0    0    0    0  0.00000000000E+00  0.00000000000E+00  0.14999999963E+04  0.15000000000E+04  0.10566000000E+00 0.  1.
        994   -1    0    0    0    0 -0.00000000000E+00 -0.00000000000E+00  0.11368683772E-12  0.17120000000E+03  0.17120000000E+03 0.  0.
         13    1    1    2    0    0  0.53694591735E+02 -0.68214083999E+01  0.31268870084E+03  0.31733873950E+03  0.10566000000E+00 0.  1.
        994    1    1    2    0    0 -0.35763023192E+02  0.17697804776E+02  0.97373498368E+01  0.17605812138E+03  0.17120000000E+03 0.  0.
        998    1    1    2    0    0 -0.17931568544E+02 -0.10876396376E+02  0.11775739456E+04  0.11778031391E+04  0.10000000000E+02 0.  1.
</event>
<event>
 5    1  0.1147307E-008  0.3810371E+03  0.7957747E-01  0.3446655E+00
         13   -1    0    0    0    0  0.00000000000E+00  0.00000000000E+00  0.14999999963E+04  0.15000000000E+04  0.10566000000E+00 0.  1.
        994   -1    0    0    0    0 -0.00000000000E+00 -0.00000000000E+00  0.11368683772E-12  0.17120000000E+03  0.17120000000E+03 0.  0.
         13    1    1    2    0    0  0.79289853590E+02  0.57711232466E+01  0.45937388905E+03  0.46620228212E+03  0.10566000000E+00 0.  1.
        994    1    1    2    0    0 -0.10015615666E+03 -0.84698507294E+01  0.38035397953E+02  0.20213640341E+03  0.17120000000E+03 0.  0.
        998    1    1    2    0    0  0.20866303067E+02  0.26987274828E+01  0.10025907093E+04  0.10028613145E+04  0.10000000000E+02 0.  1.
</event>
<event>
 5    1  0.1147307E-008  0.3700843E+03  0.7957747E-01  0.3495503E+00
         13   -1    0    0    0    0  0.00000000000E+00  0.00000000000E+00  0.14999999963E+04  0.15000000000E+04  0.10566000000E+00 0. -1.
        994   -1    0    0    0    0 -0.00000000000E+00 -0.00000000000E+00  0.11368683772E-12  0.17120000000E+03  0.17120000000E+03 0.  0.
         13    1    1    2    0    0 -0.28432793848E+02  0.49988693442E+01  0.39783084390E+02  0.49154017418E+02  0.10566000000E+00 0. -1.
        994    1    1    2    0    0  0.34609394926E+02 -0.71801012696E+01  0.13555903683E+02  0.17533558280E+03  0.17120000000E+03 0.  0.
        998    1    1    2    0    0 -0.61766010788E+01  0.21812319254E+01  0.14466610082E+04  0.14467103998E+04  0.10000000000E+02 0. -1.
</event>
<event>
 5    1  0.1147307E-008  0.3813927E+03  0.7957747E-01  0.3445117E+00
         13   -1    0    0    0    0  0.00000000000E+00  0.00000000000E+00  0.14999999963E+04  0.15000000000E+04  0.10566000000E+00 0.  1.
        994   -1    0    0    0    0 -0.00000000000E+00 -0.00000000000E+00  0.11368683772E-12  0.17120000000E+03  0.17120000000E+03 0.  0.
         13    1    1    2    0    0  0.19663380319E+02 -0.50809924599E+01  0.56074065992E+02  0.59638721070E+02  0.10566000000E+00 0.  1.
        994    1    1    2    0    0 -0.27050713049E+02 -0.55652614473E+01  0.59739184057E+01  0.17351611139E+03  0.17120000000E+03 0.  0.
        998    1    1    2    0    0  0.73873327303E+01  0.10646253907E+02  0.14379520119E+04  0.14380451675E+04  0.10000000000E+02 0.  1.
</event>
<event>
 5    1  0.1147307E-008  0.3854418E+03  0.7957747E-01  0.3427801E+00
         13   -1    0    0    0    0  0.00000000000E+00  0.00000000000E+00  0.14999999963E+04  0.15000000000E+04  0.10566000000E+00 0.  1.
        994   -1    0    0    0    0 -0.00000000000E+00 -0.00000000000E+00  0.11368683772E-12  0.17120000000E+03  0.17120000000E+03 0.  0.
         13    1    1    2    0    0 -0.54698862504E+01 -0.13795251702E+02  0.83642613576E+02  0.84948964649E+02  0.10566000000E+00 0.  1.
        994    1    1    2    0    0 -0.99129433146E+01  0.56304108365E+01  0.18378987120E+01  0.17158900269E+03  0.17120000000E+03 0.  0.
        998    1    1    2    0    0  0.15382829565E+02  0.81648408659E+01  0.14145194840E+04  0.14146620327E+04  0.10000000000E+02 0.  1.
</event>
<event>
 5    1  0.1446457E-008  0.3862427E+03  0.7957747E-01  0.3424419E+00
         13   -1    0    0    0    0  0.00000000000E+00  0.00000000000E+00  0.14999999963E+04  0.15000000000E+04  0.10566000000E+00 0. -1.
        994   -1    0    0    0    0 -0.00000000000E+00 -0.00000000000E+00  0.11368683772E-12  0.17120000000E+03  0.17120000000E+03 0.  0.
         13    1    1    2    0    0  0.12449539489E+02  0.15376011681E+01  0.74442182728E+02  0.75491754412E+02  0.10566000000E+00 0. -1.
        994    1    1    2    0    0 -0.15137252447E+02  0.25354794551E+00  0.17655071674E+01  0.17187715879E+03  0.17120000000E+03 0.  0.
        998    1    1    2    0    0  0.26877129585E+01 -0.17911491136E+01  0.14237923064E+04  0.14238310868E+04  0.10000000000E+02 0. -1.
</event>
<event>
 5    1  0.1147307E-008  0.3810161E+03  0.7957747E-01  0.3446746E+00
         13   -1    0    0    0    0  0.00000000000E+00  0.00000000000E+00  0.14999999963E+04  0.15000000000E+04  0.10566000000E+00 0. -1.
        994   -1    0    0    0    0 -0.00000000000E+00 -0.00000000000E+00  0.11368683772E-12  0.17120000000E+03  0.17120000000E+03 0.  0.
         13    1    1    2    0    0  0.36308240556E+02  0.23336316935E+01  0.18280233232E+03  0.18638786987E+03  0.10566000000E+00 0. -1.
        994    1    1    2    0    0 -0.23594703812E+02  0.29216323541E+02  0.83341674982E+01  0.17546852127E+03  0.17120000000E+03 0.  0.
        998    1    1    2    0    0 -0.12713536744E+02 -0.31549955235E+02  0.13088634965E+04  0.13093436089E+04  0.10000000000E+02 0. -1.
</event>
<event>
 5    1  0.1147307E-008  0.3846677E+03  0.7957747E-01  0.3431083E+00
         13   -1    0    0    0    0  0.00000000000E+00  0.00000000000E+00  0.14999999963E+04  0.15000000000E+04  0.10566000000E+00 0.  1.
        994   -1    0    0    0    0 -0.00000000000E+00 -0.00000000000E+00  0.11368683772E-12  0.17120000000E+03  0.17120000000E+03 0.  0.
         13    1    1    2    0    0 -0.13592171083E+02 -0.18460851431E+02  0.12731678657E+03  0.12936431292E+03  0.10566000000E+00 0.  1.
        994    1    1    2    0    0  0.32083067897E+02  0.15285214848E+02  0.59642157947E+01  0.17495134440E+03  0.17120000000E+03 0.  0.
        998    1    1    2    0    0 -0.18490896814E+02  0.31756365829E+01  0.13667189939E+04  0.13668843427E+04  0.10000000000E+02 0.  1.
</event>
<event>
 5    1  0.1147307E-008  0.3842594E+03  0.7957747E-01  0.3432819E+00
         13   -1    0    0    0    0  0.00000000000E+00  0.00000000000E+00  0.14999999963E+04  0.15000000000E+04  0.10566000000E+00 0. -1.
        994   -1    0    0    0    0 -0.00000000000E+00 -0.00000000000E+00  0.11368683772E-12  0.17120000000E+03  0.17120000000E+03 0.  0.
         13    1    1    2    0    0 -0.19189919178E+01 -0.13449575252E+02  0.47939636852E+02  0.49827638415E+02  0.10566000000E+00 0. -1.
        994    1    1    2    0    0  0.10612392286E+02 -0.14786284325E+01  0.23768558541E+01  0.17155144609E+03  0.17120000000E+03 0.  0.
        998    1    1    2    0    0 -0.86934003678E+01  0.14928203685E+02  0.14496835036E+04  0.14498209155E+04  0.10000000000E+02 0. -1.
</event>
<event>
 5    1  0.1147307E-008  0.3842932E+03  0.7957747E-01  0.3432675E+00
         13   -1    0    0    0    0  0.00000000000E+00  0.00000000000E+00  0.14999999963E+04  0.15000000000E+04  0.10566000000E+00 0.  1.
        994   -1    0    0    0    0 -0.00000000000E+00 -0.00000000000E+00  0.11368683772E-12  0.17120000000E+03  0.17120000000E+03 0.  0.
         13    1    1    2    0    0  0.11116074711E+02 -0.88398735057E+01  0.50698481010E+02  0.52650333534E+02  0.10566000000E+00 0.  1.
        994    1    1    2    0    0 -0.37743863538E+01  0.94842035751E+01  0.23249707024E+01  0.17151979944E+03  0.17120000000E+03 0.  0.
        998    1    1    2    0    0 -0.73416883573E+01 -0.64433006941E+00  0.14469765446E+04  0.14470298670E+04  0.10000000000E+02 0.  1.
</event>
<event>
 5    1  0.1147307E-008  0.3803544E+03  0.7957747E-01  0.3449617E+00
         13   -1    0    0    0    0  0.00000000000E+00  0.00000000000E+00  0.14999999963E+04  0.15000000000E+04  0.10566000000E+00 0.  1.
        994   -1    0    0    0    0 -0.00000000000E+00 -0.00000000000E+00  0.11368683772E-12  0.17120000000E+03  0.17120000000E+03 0.  0.
         13    1    1    2    0    0 -0.16706325513E+02  0.26719395909E+02  0.12860731843E+03  0.13241178553E+03  0.10566000000E+00 0.  1.
        994    1    1    2    0    0  0.59431616061E+02  0.17325840764E+02  0.16858186264E+02  0.18282762425E+03  0.17120000000E+03 0.  0.
        998    1    1    2    0    0 -0.42725290547E+02 -0.44045236673E+02  0.13545344916E+04  0.13559605902E+04  0.10000000000E+02 0.  1.
</event>
<event>
 5    1  0.1147307E-008  0.3799396E+03  0.7957747E-01  0.3451421E+00
         13   -1    0    0    0    0  0.00000000000E+00  0.00000000000E+00  0.14999999963E+04  0.15000000000E+04  0.10566000000E+00 0. -1.
        994   -1    0    0    0    0 -0.00000000000E+00 -0.00000000000E+00  0.11368683772E-12  0.17120000000E+03  0.17120000000E+03 0.  0.
         13    1    1    2    0    0  0.21756232886E+02 -0.29336956067E+02  0.14866677423E+03  0.15308759449E+03  0.10566000000E+00 0. -1.
        994    1    1    2    0    0 -0.15895636711E+02  0.28127937589E+02  0.76617007843E+01  0.17439034893E+03  0.17120000000E+03 0.  0.
        998    1    1    2    0    0 -0.58605961742E+01  0.12090184773E+01  0.13436715213E+04  0.13437220566E+04  0.10000000000E+02 0.  0.
</event>
<event>
 5    1  0.1147307E-008  0.3836786E+03  0.7957747E-01  0.3435296E+00
         13   -1    0    0    0    0  0.00000000000E+00  0.00000000000E+00  0.14999999963E+04  0.15000000000E+04  0.10566000000E+00 0.  1.
        994   -1    0    0    0    0 -0.00000000000E+00 -0.00000000000E+00  0.11368683772E-12  0.17120000000E+03  0.17120000000E+03 0.  0.
         13    1    1    2    0    0 -0.15032955176E+02 -0.15490819369E+02  0.10177804470E+03  0.10404199524E+03  0.10566000000E+00 0.  1.
        994    1    1    2    0    0  0.16491005903E+02  0.20024653432E+01  0.31995910761E+01  0.17203383541E+03  0.17120000000E+03 0.  0.
        998    1    1    2    0    0 -0.14580507279E+01  0.13488354026E+02  0.13950223605E+04  0.13951241694E+04  0.10000000000E+02 0.  1.
</event>
<event>
 5    1  0.1147307E-008  0.3771909E+03  0.7957747E-01  0.3463482E+00
         13   -1    0    0    0    0  0.00000000000E+00  0.00000000000E+00  0.14999999963E+04  0.15000000000E+04  0.10566000000E+00 0.  1.
        994   -1    0    0    0    0 -0.00000000000E+00 -0.00000000000E+00  0.11368683772E-12  0.17120000000E+03  0.17120000000E+03 0.  0.
         13    1    1    2    0    0 -0.24609208195E+02  0.47116476448E+02  0.86601656281E+02  0.10161414033E+03  0.10566000000E+00 0.  1.
        994    1    1    2    0    0 -0.12057971628E+02 -0.61404425096E+02  0.28974444794E+02  0.18456667238E+03  0.17120000000E+03 0.  0.
        998    1    1    2    0    0  0.36667179823E+02  0.14287948648E+02  0.13844238952E+04  0.13850191873E+04  0.10000000000E+02 0.  1.
</event>
<event>
 5    1  0.1147307E-008  0.3850987E+03  0.7957747E-01  0.3429254E+00
         13   -1    0    0    0    0  0.00000000000E+00  0.00000000000E+00  0.14999999963E+04  0.15000000000E+04  0.10566000000E+00 0.  1.
        994   -1    0    0    0    0 -0.00000000000E+00 -0.00000000000E+00  0.11368683772E-12  0.17120000000E+03  0.17120000000E+03 0.  0.
         13    1    1    2    0    0  0.14981818676E+02 -0.97671412819E+01  0.10066249206E+03  0.10223893784E+03  0.10566000000E+00 0.  1.
        994    1    1    2    0    0 -0.11866308924E+02  0.41363119281E+01  0.21004867162E+01  0.17167344118E+03  0.17120000000E+03 0.  0.
        998    1    1    2    0    0 -0.31155097517E+01  0.56308293538E+01  0.13972370175E+04  0.13972876210E+04  0.10000000000E+02 0.  1.
</event>
<event>
 5    1  0.1147307E-008  0.3856487E+03  0.7957747E-01  0.3426925E+00
         13   -1    0    0    0    0  0.00000000000E+00  0.00000000000E+00  0.14999999963E+04  0.15000000000E+04  0.10566000000E+00 0. -1.
        994   -1    0    0    0    0 -0.00000000000E+00 -0.00000000000E+00  0.11368683772E-12  0.17120000000E+03  0.17120000000E+03 0.  0.
         13    1    1    2    0    0 -0.78094450921E+01  0.12604450846E+02  0.79309662775E+02  0.80683910337E+02  0.10566000000E+00 0. -1.
        994    1    1    2    0    0  0.92448858470E+01 -0.15525272112E+02  0.23806179824E+01  0.17216738753E+03  0.17120000000E+03 0.  0.
        998    1    1    2    0    0 -0.14354407549E+01  0.29208212661E+01  0.14183097155E+04  0.14183487021E+04  0.10000000000E+02 0. -1.
</event>
<event>
 5    1  0.1147307E-008  0.3818249E+03  0.7957747E-01  0.3443251E+00
         13   -1    0    0    0    0  0.00000000000E+00  0.00000000000E+00  0.14999999963E+04  0.15000000000E+04  0.10566000000E+00 0.  1.
        994   -1    0    0    0    0 -0.00000000000E+00 -0.00000000000E+00  0.11368683772E-12  0.17120000000E+03  0.17120000000E+03 0.  0.
         13    1    1    2    0    0  0.14925509188E+02  0.19845632548E+02  0.93414477479E+02  0.96658655704E+02  0.10566000000E+00 0.  1.
        994    1    1    2    0    0 -0.14809035557E+02 -0.11522789232E+02  0.43855729293E+01  0.17228103626E+03  0.17120000000E+03 0.  0.
        998    1    1    2    0    0 -0.11647363159E+00 -0.83228433165E+01  0.14021999459E+04  0.14022603080E+04  0.10000000000E+02 0.  1.
</event>
<event>
 5    1  0.1147307E-008  0.3847560E+03  0.7957747E-01  0.3430708E+00
         13   -1    0    0    0    0  0.00000000000E+00  0.00000000000E+00  0.14999999963E+04  0.15000000000E+04  0.10566000000E+00 0.  1.
        994   -1    0    0    0    0 -0.00000000000E+00 -0.00000000000E+00  0.11368683772E-12  0.17120000000E+03  0.17120000000E+03 0.  0.
         13    1    1    2    0    0  0.11216645103E+02 -0.12631636374E+02  0.76139027380E+02  0.77990602121E+02  0.10566000000E+00 0.  1.
        994    1    1    2    0    0 -0.10248101048E+02  0.19206068595E+02  0.33125949045E+01  0.17261028339E+03  0.17120000000E+03 0.  0.
        998    1    1    2    0    0 -0.96854405558E+00 -0.65744322213E+01  0.14205483740E+04  0.14205991145E+04  0.10000000000E+02 0.  1.
</event>
<event>
 5    1  0.1147307E-008  0.3742250E+03  0.7957747E-01  0.3476696E+00
         13   -1    0    0    0    0  0.00000000000E+00  0.00000000000E+00  0.14999999963E+04  0.15000000000E+04  0.10566000000E+00 0. -1.
        994   -1    0    0    0    0 -0.00000000000E+00 -0.00000000000E+00  0.11368683772E-12  0.17120000000E+03  0.17120000000E+03 0.  0.
         13    1    1    2    0    0 -0.39198385402E+02 -0.76089851366E+01  0.11449911081E+03  0.12126197926E+03  0.10566000000E+00 0. -1.
        994    1    1    2    0    0  0.19234502826E+02 -0.16572270390E+02  0.92772202508E+01  0.17332083851E+03  0.17120000000E+03 0.  0.
        998    1    1    2    0    0  0.19963882576E+02  0.24181255527E+02  0.13762236652E+04  0.13766171822E+04  0.10000000000E+02 0. -1.
</event>
<event>
 5    1  0.1147307E-008  0.3816264E+03  0.7957747E-01  0.3444107E+00
         13   -1    0    0    0    0  0.00000000000E+00  0.00000000000E+00  0.14999999963E+04  0.15000000000E+04  0.10566000000E+00 0. -1.
        994   -1    0    0    0    0 -0.00000000000E+00 -0.00000000000E+00  0.11368683772E-12  0.17120000000E+03  0.17120000000E+03 0.  0.
         13    1    1    2    0    0 -0.11770994073E+02  0.38445807331E+01  0.21829872609E+02  0.25097641416E+02  0.10566000000E+00 0. -1.
        994    1    1    2    0    0  0.78530864038E+01 -0.32725102186E+01  0.35551110862E+01  0.17144812365E+03  0.17120000000E+03 0.  0.
        998    1    1    2    0    0  0.39179076691E+01 -0.57207051451E+00  0.14746150126E+04  0.14746542349E+04  0.10000000000E+02 0. -1.
</event>
<event>
 5    1  0.1147307E-008  0.3804137E+03  0.7957747E-01  0.3449359E+00
         13   -1    0    0    0    0  0.00000000000E+00  0.00000000000E+00  0.14999999963E+04  0.15000000000E+04  0.10566000000E+00 0. -1.
        994   -1    0    0    0    0 -0.00000000000E+00 -0.00000000000E+00  0.11368683772E-12  0.17120000000E+03  0.17120000000E+03 0.  0.
         13    1    1    2    0    0  0.15769881994E+02  0.25239050817E+02  0.10634283762E+03  0.11042875143E+03  0.10566000000E+00 0. -1.
        994    1    1    2    0    0 -0.13174643523E+02 -0.23348961455E+02  0.63275780493E+01  0.17340191313E+03  0.17120000000E+03 0.  0.
        998    1    1    2    0    0 -0.25952384712E+01 -0.18900893620E+01  0.13873295806E+04  0.13873693354E+04  0.10000000000E+02 0. -1.
</event>
<event>
 5    1  0.1147307E-008  0.3687588E+03  0.7957747E-01  0.3501615E+00
         13   -1    0    0    0    0  0.00000000000E+00  0.00000000000E+00  0.14999999963E+04  0.15000000000E+04  0.10566000000E+00 0.  1.
        994   -1    0    0    0    0 -0.00000000000E+00 -0.00000000000E+00  0.11368683772E-12  0.17120000000E+03  0.17120000000E+03 0.  0.
         13    1    1    2    0    0 -0.41315416034E+02  0.54318780903E+02  0.19562178886E+03  0.20718443233E+03  0.10566000000E+00 0.  1.
        994    1    1    2    0    0  0.36359765390E+02 -0.65630029056E+02  0.29730472313E+02  0.18926878833E+03  0.17120000000E+03 0.  0.
        998    1    1    2    0    0  0.49556506442E+01  0.11311248153E+02  0.12746477351E+04  0.12747467793E+04  0.10000000000E+02 0.  1.
</event>
<event>
 5    1  0.1147307E-008  0.2609294E+03  0.7957747E-01  0.4221612E+00
         13   -1    0    0    0    0  0.00000000000E+00  0.00000000000E+00  0.14999999963E+04  0.15000000000E+04  0.10566000000E+00 0.  1.
        994   -1    0    0    0    0 -0.00000000000E+00 -0.00000000000E+00  0.11368683772E-12  0.17120000000E+03  0.17120000000E+03 0.  0.
         13    1    1    2    0    0  0.44217400556E+02  0.15986105901E+03  0.45838617013E+03  0.48747166977E+03  0.10566000000E+00 0.  1.
        994    1    1    2    0    0  0.21813665951E+02 -0.12796004292E+03  0.96163957794E+02  0.23538597109E+03  0.17120000000E+03 0.  0.
        998    1    1    2    0    0 -0.66031066507E+02 -0.31901016087E+02  0.94544986836E+03  0.94834235915E+03  0.10000000000E+02 0.  1.
</event>
<event>
 5    1  0.1147307E-008  0.3826817E+03  0.7957747E-01  0.3439564E+00
         13   -1    0    0    0    0  0.00000000000E+00  0.00000000000E+00  0.14999999963E+04  0.15000000000E+04  0.10566000000E+00 0. -1.
        994   -1    0    0    0    0 -0.00000000000E+00 -0.00000000000E+00  0.11368683772E-12  0.17120000000E+03  0.17120000000E+03 0.  0.
         13    1    1    2    0    0  0.11346989025E+02  0.69805536741E+01  0.30705257169E+02  0.33470976552E+02  0.10566000000E+00 0. -1.
        994    1    1    2    0    0 -0.88632801526E+01 -0.60989534969E+01  0.31691971272E+01  0.17156700959E+03  0.17120000000E+03 0.  0.
        998    1    1    2    0    0 -0.24837088722E+01 -0.88160017717E+00  0.14661255420E+04  0.14661620139E+04  0.10000000000E+02 0. -1.
</event>
<event>
 5    1  0.1654847E-008  0.3856635E+03  0.7957747E-01  0.3426863E+00
         13   -1    0    0    0    0  0.00000000000E+00  0.00000000000E+00  0.14999999963E+04  0.15000000000E+04  0.10566000000E+00 0. -1.
        994   -1    0    0    0    0 -0.00000000000E+00 -0.00000000000E+00  0.11368683772E-12  0.17120000000E+03  0.17120000000E+03 0.  0.
         13    1    1    2    0    0 -0.10658658222E+02 -0.12647074340E+01  0.43507483669E+02  0.44812038329E+02  0.10566000000E+00 0. -1.
        994    1    1    2    0    0  0.11375916820E+02 -0.27957447546E-02  0.17258669906E+01  0.17158621771E+03  0.17120000000E+03 0.  0.
        998    1    1    2    0    0 -0.71725859872E+00  0.12675031788E+01  0.14547666456E+04  0.14548017440E+04  0.10000000000E+02 0. -1.
</event>
<event>
 5    1  0.1147307E-008  0.3732724E+03  0.7957747E-01  0.3480985E+00
         13   -1    0    0    0    0  0.00000000000E+00  0.00000000000E+00  0.14999999963E+04  0.15000000000E+04  0.10566000000E+00 0.  1.
        994   -1    0    0    0    0 -0.00000000000E+00 -0.00000000000E+00  0.11368683772E-12  0.17120000000E+03  0.17120000000E+03 0.  0.
         13    1    1    2    0    0 -0.92502309600E+01 -0.11525556582E+02  0.10930860993E+02  0.18382059553E+02  0.10566000000E+00 0.  1.
        994    1    1    2    0    0  0.96867609708E+01  0.12050493122E+02  0.83863049209E+01  0.17210118487E+03  0.17120000000E+03 0.  0.
        998    1    1    2    0    0 -0.43653001084E+00 -0.52493653982E+00  0.14806828304E+04  0.14807167556E+04  0.10000000000E+02 0.  1.
</event>
<event>
 5    1  0.1147307E-008  0.3834246E+03  0.7957747E-01  0.3436381E+00
         13   -1    0    0    0    0  0.00000000000E+00  0.00000000000E+00  0.14999999963E+04  0.15000000000E+04  0.10566000000E+00 0. -1.
        994   -1    0    0    0    0 -0.00000000000E+00 -0.00000000000E+00  0.11368683772E-12  0.17120000000E+03  0.17120000000E+03 0.  0.
         13    1    1    2    0    0 -0.57131396613E+01  0.13690006221E+03  0.38633729361E+03  0.40991557984E+03  0.10566000000E+00 0. -1.
        994    1    1    2    0    0 -0.18901371056E+02 -0.12897029814E+03  0.83592904877E+02  0.23084153304E+03  0.17120000000E+03 0.  0.
        998    1    1    2    0    0  0.24614510718E+02 -0.79297640716E+01  0.10300697978E+04  0.10304428871E+04  0.10000000000E+02 0. -1.
</event>
<event>
 5    1  0.1147307E-008  0.3812908E+03  0.7957747E-01  0.3445557E+00
         13   -1    0    0    0    0  0.00000000000E+00  0.00000000000E+00  0.14999999963E+04  0.15000000000E+04  0.10566000000E+00 0.  1.
        994   -1    0    0    0    0 -0.00000000000E+00 -0.00000000000E+00  0.11368683772E-12  0.17120000000E+03  0.17120000000E+03 0.  0.
         13    1    1    2    0    0 -0.19822917216E+02  0.72257590364E+01  0.63667682187E+02  0.67072681173E+02  0.10566000000E+00 0.  1.
        994    1    1    2    0    0  0.74294748929E+01 -0.91221998837E+01  0.39438472140E+01  0.17164907678E+03  0.17120000000E+03 0.  0.
        998    1    1    2    0    0  0.12393442323E+02  0.18964408473E+01  0.14323884669E+04  0.14324782420E+04  0.10000000000E+02 0.  1.
</event>
<event>
 5    1  0.1147307E-008  0.3849474E+03  0.7957747E-01  0.3429895E+00
         13   -1    0    0    0    0  0.00000000000E+00  0.00000000000E+00  0.14999999963E+04  0.15000000000E+04  0.10566000000E+00 0.  1.
        994   -1    0    0    0    0 -0.00000000000E+00 -0.00000000000E+00  0.11368683772E-12  0.17120000000E+03  0.17120000000E+03 0.  0.
         13    1    1    2    0    0  0.12683166470E+02 -0.79231408104E+01  0.70199982012E+02  0.71775256952E+02  0.10566000000E+00 0.  1.
        994    1    1    2    0    0 -0.10490579570E+02 -0.90603536305E+01  0.22884945345E+01  0.17177549148E+03  0.17120000000E+03 0.  0.
        998    1    1    2    0    0 -0.21925868999E+01  0.16983494441E+02  0.14275115197E+04  0.14276492516E+04  0.10000000000E+02 0.  1.
</event>
<event>
 5    1  0.1147307E-008  0.3756582E+03  0.7957747E-01  0.3470284E+00
         13   -1    0    0    0    0  0.00000000000E+00  0.00000000000E+00  0.14999999963E+04  0.15000000000E+04  0.10566000000E+00 0.  1.
        994   -1    0    0    0    0 -0.00000000000E+00 -0.00000000000E+00  0.11368683772E-12  0.17120000000E+03  0.17120000000E+03 0.  0.
         13    1    1    2    0    0 -0.20312802728E+02 -0.30726091984E+00  0.29651217857E+02  0.35943153011E+02  0.10566000000E+00 0.  1.
        994    1    1    2    0    0  0.17484197106E+02 -0.67229887252E+01  0.75321332181E+01  0.17238639377E+03  0.17120000000E+03 0.  0.
        998    1    1    2    0    0  0.28286056224E+01  0.70302496450E+01  0.14628166452E+04  0.14628704532E+04  0.10000000000E+02 0.  1.
</event>
<event>
 5    1  0.1147307E-008  0.3688260E+03  0.7957747E-01  0.3501304E+00
         13   -1    0    0    0    0  0.00000000000E+00  0.00000000000E+00  0.14999999963E+04  0.15000000000E+04  0.10566000000E+00 0.  1.
        994   -1    0    0    0    0 -0.00000000000E+00 -0.00000000000E+00  0.11368683772E-12  0.17120000000E+03  0.17120000000E+03 0.  0.
         13    1    1    2    0    0 -0.20493072817E+02 -0.22733304367E+02  0.43518360237E+02  0.53203646517E+02  0.10566000000E+00 0.  1.
        994    1    1    2    0    0 -0.21734077194E+01  0.29680655893E+02  0.12964958324E+02  0.17425038072E+03  0.17120000000E+03 0.  0.
        998    1    1    2    0    0  0.22666480536E+02 -0.69473515256E+01  0.14435166777E+04  0.14437459728E+04  0.10000000000E+02 0.  1.
</event>
<event>
 5    1  0.1147307E-008  0.3846828E+03  0.7957747E-01  0.3431019E+00
         13   -1    0    0    0    0  0.00000000000E+00  0.00000000000E+00  0.14999999963E+04  0.15000000000E+04  0.10566000000E+00 0. -1.
        994   -1    0    0    0    0 -0.00000000000E+00 -0.00000000000E+00  0.11368683772E-12  0.17120000000E+03  0.17120000000E+03 0.  0.
         13    1    1    2    0    0 -0.20663549873E+02 -0.48315077854E+01  0.12801537821E+03  0.12976237507E+03  0.10566000000E+00 0. -1.
        994    1    1    2    0    0  0.13931923996E+02 -0.93189561240E+01  0.27131119840E+01  0.17203994427E+03  0.17120000000E+03 0.  0.
        998    1    1    2    0    0  0.67316258772E+01  0.14150463909E+02  0.13692715061E+04  0.13693976807E+04  0.10000000000E+02 0. -1.
</event>
<event>
 5    1  0.1147307E-008  0.3851992E+03  0.7957747E-01  0.3428828E+00
         13   -1    0    0    0    0  0.00000000000E+00  0.00000000000E+00  0.14999999963E+04  0.15000000000E+04  0.10566000000E+00 0.  1.
        994   -1    0    0    0    0 -0.00000000000E+00 -0.00000000000E+00  0.11368683772E-12  0.17120000000E+03  0.17120000000E+03 0.  0.
         13    1    1    2    0    0 -0.28092367176E+01  0.16343255578E+02  0.85289334268E+02  0.86886566958E+02  0.10566000000E+00 0.  1.
        994    1    1    2    0    0 -0.66961743656E+01 -0.19546415231E+02  0.29355451000E+01  0.17246726798E+03  0.17120000000E+03 0.  0.
        998    1    1    2    0    0  0.95054110832E+01  0.32031596525E+01  0.14117751169E+04  0.14118461651E+04  0.10000000000E+02 0.  1.
</event>
<event>
 5    1  0.1147307E-008  0.3688650E+03  0.7957747E-01  0.3501123E+00
         13   -1    0    0    0    0  0.00000000000E+00  0.00000000000E+00  0.14999999963E+04  0.15000000000E+04  0.10566000000E+00 0.  1.
        994   -1    0    0    0    0 -0.00000000000E+00 -0.00000000000E+00  0.11368683772E-12  0.17120000000E+03  0.17120000000E+03 0.  0.
         13    1    1    2    0    0 -0.36060215728E+02  0.41220410661E+02  0.13764395364E+03  0.14813956444E+03  0.10566000000E+00 0.  1.
        994    1    1    2    0    0  0.31431136172E+02 -0.26098214387E+02  0.16174274494E+02  0.17674863584E+03  0.17120000000E+03 0.  0.
        998    1    1    2    0    0  0.46290795561E+01 -0.15122196274E+02  0.13461817681E+04  0.13463117997E+04  0.10000000000E+02 0.  1.
</event>
<event>
 5    1  0.1147307E-008  0.3696801E+03  0.7957747E-01  0.3497362E+00
         13   -1    0    0    0    0  0.00000000000E+00  0.00000000000E+00  0.14999999963E+04  0.15000000000E+04  0.10566000000E+00 0. -1.
        994   -1    0    0    0    0 -0.00000000000E+00 -0.00000000000E+00  0.11368683772E-12  0.17120000000E+03  0.17120000000E+03 0.  0.
         13    1    1    2    0    0 -0.81911744836E+01 -0.81717682169E+01  0.27380805786E+01  0.11890390427E+02  0.10566000000E+00 0. -1.
        994    1    1    2    0    0  0.22276063321E+01  0.74637857057E+01  0.96464099675E+01  0.17164837183E+03  0.17120000000E+03 0.  0.
        998    1    1    2    0    0  0.59635681515E+01  0.70798251115E+00  0.14876155057E+04  0.14876612377E+04  0.10000000000E+02 0. -1.
</event>
<event>
 5    1  0.1147307E-008  0.3772120E+03  0.7957747E-01  0.3463388E+00
         13   -1    0    0    0    0  0.00000000000E+00  0.00000000000E+00  0.14999999963E+04  0.15000000000E+04  0.10566000000E+00 0. -1.
        994   -1    0    0    0    0 -0.00000000000E+00 -0.00000000000E+00  0.11368683772E-12  0.17120000000E+03  0.17120000000E+03 0.  0.
         13    1    1    2    0    0 -0.14760916856E+02  0.29881472119E+02  0.27942618661E+02  0.43492391796E+02  0.10566000000E+00 0. -1.
        994    1    1    2    0    0  0.57855864433E+02 -0.51101664653E+02  0.36500338670E+02  0.19131229940E+03  0.17120000000E+03 0.  0.
        998    1    1    2    0    0 -0.43094947577E+02  0.21220192534E+02  0.14355570389E+04  0.14363953088E+04  0.10000000000E+02 0. -1.
</event>
<event>
 5    1  0.1147307E-008  0.3849079E+03  0.7957747E-01  0.3430063E+00
         13   -1    0    0    0    0  0.00000000000E+00  0.00000000000E+00  0.14999999963E+04  0.15000000000E+04  0.10566000000E+00 0. -1.
        994   -1    0    0    0    0 -0.00000000000E+00 -0.00000000000E+00  0.11368683772E-12  0.17120000000E+03  0.17120000000E+03 0.  0.
         13    1    1    2    0    0  0.96904492840E+01 -0.95330264611E+01  0.67348099116E+02  0.68706339004E+02  0.10566000000E+00 0. -1.
        994    1    1    2    0    0  0.12275303928E+02 -0.18101057478E+02  0.32509909346E+01  0.17262195779E+03  0.17120000000E+03 0.  0.
        998    1    1    2    0    0 -0.21965753212E+02  0.27634083939E+02  0.14294009062E+04  0.14298717032E+04  0.10000000000E+02 0. -1.
</event>
<event>
 5    1  0.1147307E-008  0.3931586E+03  0.7957747E-01  0.3395791E+00
         13   -1    0    0    0    0  0.00000000000E+00  0.00000000000E+00  0.14999999963E+04  0.15000000000E+04  0.10566000000E+00 0.  1.
        994   -1    0    0    0    0 -0.00000000000E+00 -0.00000000000E+00  0.11368683772E-12  0.17120000000E+03  0.17120000000E+03 0.  0.
         13    1    1    2    0    0 -0.20254365982E+02  0.43537797011E+02  0.39982511386E+02  0.62485130156E+02  0.10566000000E+00 0.  1.
        994    1    1    2    0    0  0.11174145088E+02 -0.33520046593E+02  0.28520955346E+02  0.17711956396E+03  0.17120000000E+03 0.  0.
        998    1    1    2    0    0  0.90802208943E+01 -0.10017750418E+02  0.14314965295E+04  0.14315953059E+04  0.10000000000E+02 0.  1.
</event>
<event>
 5    1  0.1147307E-008  0.3756076E+03  0.7957747E-01  0.3470510E+00
         13   -1    0    0    0    0  0.00000000000E+00  0.00000000000E+00  0.14999999963E+04  0.15000000000E+04  0.10566000000E+00 0.  1.
        994   -1    0    0    0    0 -0.00000000000E+00 -0.00000000000E+00  0.11368683772E-12  0.17120000000E+03  0.17120000000E+03 0.  0.
         13    1    1    2    0    0  0.11350721690E+03 -0.68360032091E+02  0.77588443917E+03  0.78711730790E+03  0.10566000000E+00 0.  1.
        994    1    1    2    0    0 -0.94121386824E+02  0.78760222599E+02  0.59306931894E+02  0.21883500701E+03  0.17120000000E+03 0.  0.
        998    1    1    2    0    0 -0.19385830072E+02 -0.10400190508E+02  0.66480862521E+03  0.66524768510E+03  0.10000000000E+02 0.  1.
</event>
<event>
 5    1  0.1147307E-008  0.3810591E+03  0.7957747E-01  0.3446560E+00
         13   -1    0    0    0    0  0.00000000000E+00  0.00000000000E+00  0.14999999963E+04  0.15000000000E+04  0.10566000000E+00 0. -1.
        994   -1    0    0    0    0 -0.00000000000E+00 -0.00000000000E+00  0.11368683772E-12  0.17120000000E+03  0.17120000000E+03 0.  0.
         13    1    1    2    0    0 -0.19025680677E+02 -0.25349216594E+02  0.13284668761E+03  0.13657530113E+03  0.10566000000E+00 0. -1.
        994    1    1    2    0    0  0.17535904707E+02  0.18482446564E+02  0.57648246267E+01  0.17318135577E+03  0.17120000000E+03 0.  0.
        998    1    1    2    0    0  0.14897759703E+01  0.68667700300E+01  0.13613884840E+04  0.13614433431E+04  0.10000000000E+02 0. -1.
</event>
<event>
 5    1  0.1147307E-008  0.3690333E+03  0.7957747E-01  0.3500345E+00
         13   -1    0    0    0    0  0.00000000000E+00  0.00000000000E+00  0.14999999963E+04  0.15000000000E+04  0.10566000000E+00 0.  1.
        994   -1    0    0    0    0 -0.00000000000E+00 -0.00000000000E+00  0.11368683772E-12  0.17120000000E+03  0.17120000000E+03 0.  0.
         13    1    1    2    0    0 -0.18337171504E+02 -0.70243219236E+01  0.13763096623E+02  0.23979719555E+02  0.10566000000E+00 0.  1.
        994    1    1    2    0    0  0.21372719878E+02 -0.85701345438E+00  0.12024289544E+02  0.17294956249E+03  0.17120000000E+03 0.  0.
        998    1    1    2    0    0 -0.30355483740E+01  0.78813353780E+01  0.14742126101E+04  0.14742707180E+04  0.10000000000E+02 0.  1.
</event>
<event>
 5    1  0.1147307E-008  0.3815086E+03  0.7957747E-01  0.3444616E+00
         13   -1    0    0    0    0  0.00000000000E+00  0.00000000000E+00  0.14999999963E+04  0.15000000000E+04  0.10566000000E+00 0. -1.
        994   -1    0    0    0    0 -0.00000000000E+00 -0.00000000000E+00  0.11368683772E-12  0.17120000000E+03  0.17120000000E+03 0.  0.
         13    1    1    2    0    0  0.12307929810E+02 -0.21409331312E+02  0.10047529465E+03  0.10346564938E+03  0.10566000000E+00 0. -1.
        994    1    1    2    0    0 -0.25763730719E+01 -0.76505689117E+01  0.35903442486E+01  0.17142782585E+03  0.17120000000E+03 0.  0.
        998    1    1    2    0    0 -0.97315567377E+01  0.29059900224E+02  0.13959343574E+04  0.13963065248E+04  0.10000000000E+02 0. -1.
</event>
<event>
 5    1  0.1147307E-008  0.3809339E+03  0.7957747E-01  0.3447102E+00
         13   -1    0    0    0    0  0.00000000000E+00  0.00000000000E+00  0.14999999963E+04  0.15000000000E+04  0.10566000000E+00 0.  1.
        994   -1    0    0    0    0 -0.00000000000E+00 -0.00000000000E+00  0.11368683772E-12  0.17120000000E+03  0.17120000000E+03 0.  0.
         13    1    1    2    0    0  0.31557764256E+02 -0.27034217335E+01  0.23067381753E+02  0.39183111654E+02  0.10566000000E+00 0.  1.
        994    1    1    2    0    0 -0.21288317656E+02  0.23870435694E+01  0.18511422002E+02  0.17352522350E+03  0.17120000000E+03 0.  0.
        998    1    1    2    0    0 -0.10269446601E+02  0.31637816405E+00  0.14584211925E+04  0.14584916648E+04  0.10000000000E+02 0.  1.
</event>
<event>
 5    1  0.1147307E-008  0.3855012E+03  0.7957747E-01  0.3427549E+00
         13   -1    0    0    0    0  0.00000000000E+00  0.00000000000E+00  0.14999999963E+04  0.15000000000E+04  0.10566000000E+00 0.  1.
        994   -1    0    0    0    0 -0.00000000000E+00 -0.00000000000E+00  0.11368683772E-12  0.17120000000E+03  0.17120000000E+03 0.  0.
         13    1    1    2    0    0  0.80294464011E+01 -0.89578265030E+01  0.64401550468E+02  0.65515536569E+02  0.10566000000E+00 0.  1.
        994    1    1    2    0    0  0.18138995503E+02 -0.11099082474E+02  0.28676820454E+01  0.17253949226E+03  0.17120000000E+03 0.  0.
        998    1    1    2    0    0 -0.26168441904E+02  0.20056908977E+02  0.14327307638E+04  0.14331449712E+04  0.10000000000E+02 0.  1.
</event>
<event>
 5    1  0.1147307E-008  0.3779213E+03  0.7957747E-01  0.3460260E+00
         13   -1    0    0    0    0  0.00000000000E+00  0.00000000000E+00  0.14999999963E+04  0.15000000000E+04  0.10566000000E+00 0.  1.
        994   -1    0    0    0    0 -0.00000000000E+00 -0.00000000000E+00  0.11368683772E-12  0.17120000000E+03  0.17120000000E+03 0.  0.
         13    1    1    2    0    0 -0.19840710842E+02 -0.19900341681E+02  0.75092662759E+02  0.80178529358E+02  0.10566000000E+00 0.  1.
        994    1    1    2    0    0  0.40694247960E+01  0.16904614462E+02  0.62044381094E+01  0.17219251221E+03  0.17120000000E+03 0.  0.
        998    1    1    2    0    0  0.15771286046E+02  0.29957272193E+01  0.14187028954E+04  0.14188289584E+04  0.10000000000E+02 0.  1.
</event>
<event>
 5    1  0.1147307E-008  0.3768408E+03  0.7957747E-01  0.3465031E+00
         13   -1    0    0    0    0  0.00000000000E+00  0.00000000000E+00  0.14999999963E+04  0.15000000000E+04  0.10566000000E+00 0. -1.
        994   -1    0    0    0    0 -0.00000000000E+00 -0.00000000000E+00  0.11368683772E-12  0.17120000000E+03  0.17120000000E+03 0.  0.
         13    1    1    2    0    0  0.45623768990E+02  0.35740692860E+02  0.30993253977E+03  0.31530479824E+03  0.10566000000E+00 0. -1.
        994    1    1    2    0    0 -0.98490156016E+00 -0.42966069435E+02  0.12001799713E+02  0.17691957594E+03  0.17120000000E+03 0.  0.
        998    1    1    2    0    0 -0.44638867430E+02  0.72253765747E+01  0.11780656568E+04  0.11789756258E+04  0.10000000000E+02 0. -1.
</event>
<event>
 5    1  0.1147307E-008  0.3961830E+03  0.7957747E-01  0.3383586E+00
         13   -1    0    0    0    0  0.00000000000E+00  0.00000000000E+00  0.14999999963E+04  0.15000000000E+04  0.10566000000E+00 0. -1.
        994   -1    0    0    0    0 -0.00000000000E+00 -0.00000000000E+00  0.11368683772E-12  0.17120000000E+03  0.17120000000E+03 0.  0.
         13    1    1    2    0    0  0.54140825052E+02  0.11444392230E+03  0.39646293088E+03  0.41618686550E+03  0.10566000000E+00 0. -1.
        994    1    1    2    0    0 -0.43800959753E+02 -0.14562433232E+02  0.33774294985E+02  0.18050133390E+03  0.17120000000E+03 0.  0.
        998    1    1    2    0    0 -0.10339865300E+02 -0.99881489066E+02  0.10697627704E+04  0.10745118006E+04  0.10000000000E+02 0. -1.
</event>
<event>
 5    1  0.1147307E-008  0.3738596E+03  0.7957747E-01  0.3478339E+00
         13   -1    0    0    0    0  0.00000000000E+00  0.00000000000E+00  0.14999999963E+04  0.15000000000E+04  0.10566000000E+00 0.  1.
        994   -1    0    0    0    0 -0.00000000000E+00 -0.00000000000E+00  0.11368683772E-12  0.17120000000E+03  0.17120000000E+03 0.  0.
         13    1    1    2    0    0  0.71678054159E+02 -0.84204386905E+02  0.52207232055E+03  0.53365498337E+03  0.10566000000E+00 0.  1.
        994    1    1    2    0    0 -0.58912268097E+02  0.19568865214E+02  0.26779954012E+02  0.18406575389E+03  0.17120000000E+03 0.  0.
        998    1    1    2    0    0 -0.12765786062E+02  0.64635521692E+02  0.95114772171E+03  0.95347926274E+03  0.10000000000E+02 0.  1.
</event>
<event>
 5    1  0.1147307E-008  0.3856223E+03  0.7957747E-01  0.3427037E+00
         13   -1    0    0    0    0  0.00000000000E+00  0.00000000000E+00  0.14999999963E+04  0.15000000000E+04  0.10566000000E+00 0. -1.
        994   -1    0    0    0    0 -0.00000000000E+00 -0.00000000000E+00  0.11368683772E-12  0.17120000000E+03  0.17120000000E+03 0.  0.
         13    1    1    2    0    0  0.66051930169E+01 -0.13102319351E+02  0.88553721776E+02  0.89761195132E+02  0.10566000000E+00 0. -1.
        994    1    1    2    0    0 -0.77199094228E+01 -0.34409036323E+01  0.15559952388E+01  0.17141557088E+03  0.17120000000E+03 0.  0.
        998    1    1    2    0    0  0.11147164060E+01  0.16543222983E+02  0.14098902793E+04  0.14100232340E+04  0.10000000000E+02 0. -1.
</event>
<event>
 5    1  0.1147307E-008  0.3807594E+03  0.7957747E-01  0.3447859E+00
         13   -1    0    0    0    0  0.00000000000E+00  0.00000000000E+00  0.14999999963E+04  0.15000000000E+04  0.10566000000E+00 0. -1.
        994   -1    0    0    0    0 -0.00000000000E+00 -0.00000000000E+00  0.11368683772E-12  0.17120000000E+03  0.17120000000E+03 0.  0.
         13    1    1    2    0    0 -0.23019758961E+02  0.25259316199E+02  0.13773789103E+03  0.14191434088E+03  0.10566000000E+00 0. -1.
        994    1    1    2    0    0  0.30620315596E+02 -0.24420764417E+02  0.88824102143E+01  0.17584741873E+03  0.17120000000E+03 0.  0.
        998    1    1    2    0    0 -0.76005566351E+01 -0.83855178206E+00  0.13533796950E+04  0.13534382404E+04  0.10000000000E+02 0. -1.
</event>
<event>
 5    1  0.1147307E-008  0.3773426E+03  0.7957747E-01  0.3462812E+00
         13   -1    0    0    0    0  0.00000000000E+00  0.00000000000E+00  0.14999999963E+04  0.15000000000E+04  0.10566000000E+00 0.  1.
        994   -1    0    0    0    0 -0.00000000000E+00 -0.00000000000E+00  0.11368683772E-12  0.17120000000E+03  0.17120000000E+03 0.  0.
         13    1    1    2    0    0 -0.26326762755E+02 -0.51534786439E+02  0.24100640157E+03  0.24785687283E+03  0.10566000000E+00 0.  1.
        994    1    1    2    0    0  0.38100602266E+02  0.54903570499E+02  0.20693918347E+02  0.18494252135E+03  0.17120000000E+03 0.  0.
        998    1    1    2    0    0 -0.11773839511E+02 -0.33687840595E+01  0.12382996764E+04  0.12384006058E+04  0.10000000000E+02 0.  1.
</event>
<event>
 5    1  0.1147307E-008  0.3777921E+03  0.7957747E-01  0.3460829E+00
         13   -1    0    0    0    0  0.00000000000E+00  0.00000000000E+00  0.14999999963E+04  0.15000000000E+04  0.10566000000E+00 0.  1.
        994   -1    0    0    0    0 -0.00000000000E+00 -0.00000000000E+00  0.11368683772E-12  0.17120000000E+03  0.17120000000E+03 0.  0.
         13    1    1    2    0    0  0.19518988679E+02  0.51716223893E+02  0.23478553232E+03  0.24120492549E+03  0.10566000000E+00 0.  1.
        994    1    1    2    0    0 -0.11931481120E+02 -0.61044158463E+02  0.18392518072E+02  0.18307505085E+03  0.17120000000E+03 0.  0.
        998    1    1    2    0    0 -0.75875075592E+01  0.93279345697E+01  0.12468219459E+04  0.12469200237E+04  0.10000000000E+02 0.  1.
</event>
<event>
 5    1  0.1147307E-008  0.3819787E+03  0.7957747E-01  0.3442588E+00
         13   -1    0    0    0    0  0.00000000000E+00  0.00000000000E+00  0.14999999963E+04  0.15000000000E+04  0.10566000000E+00 0.  1.
        994   -1    0    0    0    0 -0.00000000000E+00 -0.00000000000E+00  0.11368683772E-12  0.17120000000E+03  0.17120000000E+03 0.  0.
         13    1    1    2    0    0  0.20724166730E+02 -0.23180418352E+02  0.16375131832E+03  0.16667731788E+03  0.10566000000E+00 0.  1.
        994    1    1    2    0    0 -0.61769824826E+01  0.71508540486E+01  0.34342420031E+01  0.17149496740E+03  0.17120000000E+03 0.  0.
        998    1    1    2    0    0 -0.14547184247E+02  0.16029564303E+02  0.13328144360E+04  0.13330277147E+04  0.10000000000E+02 0.  1.
</event>
<event>
 5    1  0.1147307E-008  0.3835062E+03  0.7957747E-01  0.3436032E+00
         13   -1    0    0    0    0  0.00000000000E+00  0.00000000000E+00  0.14999999963E+04  0.15000000000E+04  0.10566000000E+00 0. -1.
        994   -1    0    0    0    0 -0.00000000000E+00 -0.00000000000E+00  0.11368683772E-12  0.17120000000E+03  0.17120000000E+03 0.  0.
         13    1    1    2    0    0 -0.11302128899E+01  0.11105268032E+02  0.25370850744E+02  0.27718145514E+02  0.10566000000E+00 0. -1.
        994    1    1    2    0    0  0.45290184354E+01 -0.83576689273E+01  0.26722762774E+01  0.17148452904E+03  0.17120000000E+03 0.  0.
        998    1    1    2    0    0 -0.33988055455E+01 -0.27475991049E+01  0.14719568693E+04  0.14719973255E+04  0.10000000000E+02 0. -1.
</event>
<event>
 5    1  0.1147307E-008  0.3820562E+03  0.7957747E-01  0.3442254E+00
         13   -1    0    0    0    0  0.00000000000E+00  0.00000000000E+00  0.14999999963E+04  0.15000000000E+04  0.10566000000E+00 0.  1.
        994   -1    0    0    0    0 -0.00000000000E+00 -0.00000000000E+00  0.11368683772E-12  0.17120000000E+03  0.17120000000E+03 0.  0.
         13    1    1    2    0    0  0.19962959011E+01 -0.27785656363E+02  0.15157386930E+03  0.15411254626E+03  0.10566000000E+00 0.  1.
        994    1    1    2    0    0  0.30140809634E+02 -0.63316131288E+01  0.62546984035E+01  0.17406067615E+03  0.17120000000E+03 0.  0.
        998    1    1    2    0    0 -0.32137105535E+02  0.34117269492E+02  0.13421714286E+04  0.13430267776E+04  0.10000000000E+02 0.  1.
</event>
<event>
 5    1  0.1147307E-008  0.3854664E+03  0.7957747E-01  0.3427697E+00
         13   -1    0    0    0    0  0.00000000000E+00  0.00000000000E+00  0.14999999963E+04  0.15000000000E+04  0.10566000000E+00 0.  1.
        994   -1    0    0    0    0 -0.00000000000E+00 -0.00000000000E+00  0.11368683772E-12  0.17120000000E+03  0.17120000000E+03 0.  0.
         13    1    1    2    0    0  0.14076658882E+02  0.40592938250E+01  0.77470272918E+02  0.78843417871E+02  0.10566000000E+00 0.  1.
        994    1    1    2    0    0 -0.99803173500E+01  0.22577252859E+01  0.17426555011E+01  0.17151437522E+03  0.17120000000E+03 0.  0.
        998    1    1    2    0    0 -0.40963415316E+01 -0.63170191109E+01  0.14207870679E+04  0.14208422069E+04  0.10000000000E+02 0.  1.
</event>
<event>
 5    1  0.1147307E-008  0.3718864E+03  0.7957747E-01  0.3487266E+00
         13   -1    0    0    0    0  0.00000000000E+00  0.00000000000E+00  0.14999999963E+04  0.15000000000E+04  0.10566000000E+00 0.  1.
        994   -1    0    0    0    0 -0.00000000000E+00 -0.00000000000E+00  0.11368683772E-12  0.17120000000E+03  0.17120000000E+03 0.  0.
         13    1    1    2    0    0 -0.74363185904E+02 -0.24312128339E+02  0.38370437036E+03  0.39159930797E+03  0.10566000000E+00 0.  1.
        994    1    1    2    0    0  0.39756071490E+02  0.49655365030E+01  0.13820906937E+02  0.17636796546E+03  0.17120000000E+03 0.  0.
        998    1    1    2    0    0  0.34607114413E+02  0.19346591836E+02  0.11024747190E+04  0.11032327266E+04  0.10000000000E+02 0.  1.
</event>
<event>
 5    1  0.1147307E-008  0.3835501E+03  0.7957747E-01  0.3435845E+00
         13   -1    0    0    0    0  0.00000000000E+00  0.00000000000E+00  0.14999999963E+04  0.15000000000E+04  0.10566000000E+00 0.  1.
        994   -1    0    0    0    0 -0.00000000000E+00 -0.00000000000E+00  0.11368683772E-12  0.17120000000E+03  0.17120000000E+03 0.  0.
         13    1    1    2    0    0  0.12451388180E+02  0.26037206901E+01  0.33362683084E+02  0.35705688841E+02  0.10566000000E+00 0.  1.
        994    1    1    2    0    0 -0.11990119955E+02  0.26308381051E+01  0.28497659342E+01  0.17166317442E+03  0.17120000000E+03 0.  0.
        998    1    1    2    0    0 -0.46126822504E+00 -0.52345587952E+01  0.14637875473E+04  0.14638311367E+04  0.10000000000E+02 0.  1.
</event>
<event>
 5    1  0.1147307E-008  0.3719074E+03  0.7957747E-01  0.3487171E+00
         13   -1    0    0    0    0  0.00000000000E+00  0.00000000000E+00  0.14999999963E+04  0.15000000000E+04  0.10566000000E+00 0.  1.
        994   -1    0    0    0    0 -0.00000000000E+00 -0.00000000000E+00  0.11368683772E-12  0.17120000000E+03  0.17120000000E+03 0.  0.
         13    1    1    2    0    0 -0.25928655496E+02  0.33949855647E+02  0.89787458539E+02  0.99431819601E+02  0.10566000000E+00 0.  1.
        994    1    1    2    0    0  0.20063465683E+02 -0.78132302341E+02  0.30970791094E+02  0.19177025115E+03  0.17120000000E+03 0.  0.
        998    1    1    2    0    0  0.58651898130E+01  0.44182446694E+02  0.13792417466E+04  0.13799979293E+04  0.10000000000E+02 0.  1.
</event>
<event>
 5    1  0.1147307E-008  0.2554157E+03  0.7957747E-01  0.4276685E+00
         13   -1    0    0    0    0  0.00000000000E+00  0.00000000000E+00  0.14999999963E+04  0.15000000000E+04  0.10566000000E+00 0.  1.
        994   -1    0    0    0    0 -0.00000000000E+00 -0.00000000000E+00  0.11368683772E-12  0.17120000000E+03  0.17120000000E+03 0.  0.
         13    1    1    2    0    0 -0.33064340164E+02  0.17754221714E+03  0.37674759440E+03  0.41779570427E+03  0.10566000000E+00 0.  1.
        994    1    1    2    0    0  0.35697555776E+02 -0.13548477677E+03  0.12477021033E+03  0.25398323883E+03  0.17120000000E+03 0.  0.
        998    1    1    2    0    0 -0.26332156117E+01 -0.42057440377E+02  0.99848219155E+03  0.99942105689E+03  0.10000000000E+02 0.  1.
</event>
<event>
 5    1  0.1147307E-008  0.3832082E+03  0.7957747E-01  0.3437307E+00
         13   -1    0    0    0    0  0.00000000000E+00  0.00000000000E+00  0.14999999963E+04  0.15000000000E+04  0.10566000000E+00 0. -1.
        994   -1    0    0    0    0 -0.00000000000E+00 -0.00000000000E+00  0.11368683772E-12  0.17120000000E+03  0.17120000000E+03 0.  0.
         13    1    1    2    0    0  0.12766945337E+02 -0.20016186141E+02  0.11158384617E+03  0.11408158700E+03  0.10566000000E+00 0. -1.
        994    1    1    2    0    0 -0.20052066334E+02  0.40063170388E+01  0.39066962828E+01  0.17246112088E+03  0.17120000000E+03 0.  0.
        998    1    1    2    0    0  0.72851209971E+01  0.16009869102E+02  0.13845094538E+04  0.13846572921E+04  0.10000000000E+02 0. -1.
</event>
<event>
 5    1  0.1147307E-008  0.3806738E+03  0.7957747E-01  0.3448230E+00
         13   -1    0    0    0    0  0.00000000000E+00  0.00000000000E+00  0.14999999963E+04  0.15000000000E+04  0.10566000000E+00 0.  1.
        994   -1    0    0    0    0 -0.00000000000E+00 -0.00000000000E+00  0.11368683772E-12  0.17120000000E+03  0.17120000000E+03 0.  0.
         13    1    1    2    0    0 -0.86899189502E+00 -0.12890530644E+02  0.20578421223E+02  0.24298220331E+02  0.10566000000E+00 0.  1.
        994    1    1    2    0    0  0.28503686073E+01  0.65292692534E+01  0.39627134304E+01  0.17139398781E+03  0.17120000000E+03 0.  0.
        998    1    1    2    0    0 -0.19813767123E+01  0.63612613909E+01  0.14754588616E+04  0.14755077919E+04  0.10000000000E+02 0.  1.
</event>
<event>
 5    1  0.1147307E-008  0.3796325E+03  0.7957747E-01  0.3452760E+00
         13   -1    0    0    0    0  0.00000000000E+00  0.00000000000E+00  0.14999999963E+04  0.15000000000E+04  0.10566000000E+00 0. -1.
        994   -1    0    0    0    0 -0.00000000000E+00 -0.00000000000E+00  0.11368683772E-12  0.17120000000E+03  0.17120000000E+03 0.  0.
         13    1    1    2    0    0  0.18159008762E+02  0.27320653701E+01  0.35562196374E+02  0.40023677434E+02  0.10566000000E+00 0. -1.
        994    1    1    2    0    0 -0.25896603286E+02 -0.12896851456E+02  0.71251046659E+01  0.17377332924E+03  0.17120000000E+03 0.  0.
        998    1    1    2    0    0  0.77375945240E+01  0.10164786086E+02  0.14573126952E+04  0.14574029933E+04  0.10000000000E+02 0. -1.
</event>
<event>
 5    1  0.1147307E-008  0.3750175E+03  0.7957747E-01  0.3473145E+00
         13   -1    0    0    0    0  0.00000000000E+00  0.00000000000E+00  0.14999999963E+04  0.15000000000E+04  0.10566000000E+00 0. -1.
        994   -1    0    0    0    0 -0.00000000000E+00 -0.00000000000E+00  0.11368683772E-12  0.17120000000E+03  0.17120000000E+03 0.  0.
         13    1    1    2    0    0  0.25595154303E+02 -0.25316449845E+02  0.10339860411E+03  0.10948660673E+03  0.10566000000E+00 0. -1.
        994    1    1    2    0    0 -0.98474155836E+01 -0.70961819924E+01  0.71706652222E+01  0.17177946860E+03  0.17120000000E+03 0.  0.
        998    1    1    2    0    0 -0.15747738720E+02  0.32412631838E+02  0.13894307269E+04  0.13899339247E+04  0.10000000000E+02 0. -1.
</event>
<event>
 5    1  0.1147307E-008  0.3747759E+03  0.7957747E-01  0.3474226E+00
         13   -1    0    0    0    0  0.00000000000E+00  0.00000000000E+00  0.14999999963E+04  0.15000000000E+04  0.10566000000E+00 0. -1.
        994   -1    0    0    0    0 -0.00000000000E+00 -0.00000000000E+00  0.11368683772E-12  0.17120000000E+03  0.17120000000E+03 0.  0.
         13    1    1    2    0    0  0.25816742178E+02  0.89072490563E+00  0.44849574058E+02  0.51757057729E+02  0.10566000000E+00 0. -1.
        994    1    1    2    0    0 -0.28762045445E+02  0.43061463638E+01  0.96764401782E+01  0.17392202750E+03  0.17120000000E+03 0.  0.
        998    1    1    2    0    0  0.29453032663E+01 -0.51968712694E+01  0.14454739820E+04  0.14455209148E+04  0.10000000000E+02 0. -1.
</event>
<event>
 5    1  0.1147307E-008  0.3765296E+03  0.7957747E-01  0.3466410E+00
         13   -1    0    0    0    0  0.00000000000E+00  0.00000000000E+00  0.14999999963E+04  0.15000000000E+04  0.10566000000E+00 0.  1.
        994   -1    0    0    0    0 -0.00000000000E+00 -0.00000000000E+00  0.11368683772E-12  0.17120000000E+03  0.17120000000E+03 0.  0.
         13    1    1    2    0    0 -0.31219503725E+02  0.58621039503E+02  0.38410308795E+03  0.38980286944E+03  0.10566000000E+00 0.  1.
        994    1    1    2    0    0  0.18437827228E+02 -0.29241707260E+02  0.99472893139E+01  0.17493833051E+03  0.17120000000E+03 0.  0.
        998    1    1    2    0    0  0.12781676497E+02 -0.29379332243E+02  0.11059496190E+04  0.11064588000E+04  0.10000000000E+02 0.  1.
</event>
<event>
 5    1  0.1147307E-008  0.3813011E+03  0.7957747E-01  0.3445513E+00
         13   -1    0    0    0    0  0.00000000000E+00  0.00000000000E+00  0.14999999963E+04  0.15000000000E+04  0.10566000000E+00 0.  1.
        994   -1    0    0    0    0 -0.00000000000E+00 -0.00000000000E+00  0.11368683772E-12  0.17120000000E+03  0.17120000000E+03 0.  0.
         13    1    1    2    0    0  0.37059935487E+02  0.26004002073E+02  0.53496806030E+02  0.70082568172E+02  0.10566000000E+00 0.  1.
        994    1    1    2    0    0 -0.34659438849E+02 -0.11502250982E+02  0.21914559902E+02  0.17641787442E+03  0.17120000000E+03 0.  0.
        998    1    1    2    0    0 -0.24004966385E+01 -0.14501751090E+02  0.14245886303E+04  0.14246995574E+04  0.10000000000E+02 0.  1.
</event>
<event>
 5    1  0.1147307E-008  0.3809297E+03  0.7957747E-01  0.3447120E+00
         13   -1    0    0    0    0  0.00000000000E+00  0.00000000000E+00  0.14999999963E+04  0.15000000000E+04  0.10566000000E+00 0. -1.
        994   -1    0    0    0    0 -0.00000000000E+00 -0.00000000000E+00  0.11368683772E-12  0.17120000000E+03  0.17120000000E+03 0.  0.
         13    1    1    2    0    0 -0.21257329960E+02  0.21822805221E+02  0.10802361628E+03  0.11223734558E+03  0.10566000000E+00 0. -1.
        994    1    1    2    0    0  0.27729473847E+02 -0.36298433081E+02  0.10649675865E+02  0.17750874784E+03  0.17120000000E+03 0.  0.
        998    1    1    2    0    0 -0.64721438863E+01  0.14475627860E+02  0.13813267041E+04  0.13814539066E+04  0.10000000000E+02 0. -1.
</event>
<event>
 5    1  0.1147307E-008  0.3766475E+03  0.7957747E-01  0.3465887E+00
         13   -1    0    0    0    0  0.00000000000E+00  0.00000000000E+00  0.14999999963E+04  0.15000000000E+04  0.10566000000E+00 0.  1.
        994   -1    0    0    0    0 -0.00000000000E+00 -0.00000000000E+00  0.11368683772E-12  0.17120000000E+03  0.17120000000E+03 0.  0.
         13    1    1    2    0    0 -0.17782523371E+02 -0.64590669425E+02  0.27481994094E+03  0.28286778505E+03  0.10566000000E+00 0.  1.
        994    1    1    2    0    0  0.60853384479E+02  0.72364685181E+02  0.36679387415E+02  0.19898391775E+03  0.17120000000E+03 0.  0.
        998    1    1    2    0    0 -0.43070861108E+02 -0.77740157567E+01  0.11885006679E+04  0.11893482972E+04  0.10000000000E+02 0. -1.
</event>
<event>
 5    1  0.1147307E-008  0.3837394E+03  0.7957747E-01  0.3435036E+00
         13   -1    0    0    0    0  0.00000000000E+00  0.00000000000E+00  0.14999999963E+04  0.15000000000E+04  0.10566000000E+00 0. -1.
        994   -1    0    0    0    0 -0.00000000000E+00 -0.00000000000E+00  0.11368683772E-12  0.17120000000E+03  0.17120000000E+03 0.  0.
         13    1    1    2    0    0  0.11540939887E+02 -0.25411705472E+01  0.29981701561E+02  0.32226765797E+02  0.10566000000E+00 0. -1.
        994    1    1    2    0    0 -0.11086293703E+02 -0.15064950237E+01  0.26707679482E+01  0.17158597972E+03  0.17120000000E+03 0.  0.
        998    1    1    2    0    0 -0.45464618373E+00  0.40476655709E+01  0.14673475268E+04  0.14673872545E+04  0.10000000000E+02 0. -1.
</event>
<event>
 5    1  0.1147307E-008  0.3755986E+03  0.7957747E-01  0.3470550E+00
         13   -1    0    0    0    0  0.00000000000E+00  0.00000000000E+00  0.14999999963E+04  0.15000000000E+04  0.10566000000E+00 0.  1.
        994   -1    0    0    0    0 -0.00000000000E+00 -0.00000000000E+00  0.11368683772E-12  0.17120000000E+03  0.17120000000E+03 0.  0.
         13    1    1    2    0    0 -0.37027003716E+02 -0.33162998463E+02  0.24484887292E+03  0.24984348142E+03  0.10566000000E+00 0.  1.
        994    1    1    2    0    0 -0.23861137075E+02  0.20036252185E+02  0.96720189183E+01  0.17428078843E+03  0.17120000000E+03 0.  0.
        998    1    1    2    0    0  0.60888140791E+02  0.13126746278E+02  0.12454791044E+04  0.12470757302E+04  0.10000000000E+02 0.  1.
</event>
<event>
 5    1  0.1147307E-008  0.3832299E+03  0.7957747E-01  0.3437214E+00
         13   -1    0    0    0    0  0.00000000000E+00  0.00000000000E+00  0.14999999963E+04  0.15000000000E+04  0.10566000000E+00 0.  1.
        994   -1    0    0    0    0 -0.00000000000E+00 -0.00000000000E+00  0.11368683772E-12  0.17120000000E+03  0.17120000000E+03 0.  0.
         13    1    1    2    0    0 -0.16949876157E+02 -0.14424643674E+02  0.13426691468E+03  0.13609917042E+03  0.10566000000E+00 0.  1.
        994    1    1    2    0    0 -0.33024237584E+02  0.10885604108E-01  0.61271718202E+01  0.17446370001E+03  0.17120000000E+03 0.  0.
        998    1    1    2    0    0  0.49974113741E+02  0.14413758069E+02  0.13596059098E+04  0.13606371296E+04  0.10000000000E+02 0.  1.
</event>
<event>
 5    1  0.1147307E-008  0.3756625E+03  0.7957747E-01  0.3470265E+00
         13   -1    0    0    0    0  0.00000000000E+00  0.00000000000E+00  0.14999999963E+04  0.15000000000E+04  0.10566000000E+00 0.  1.
        994   -1    0    0    0    0 -0.00000000000E+00 -0.00000000000E+00  0.11368683772E-12  0.17120000000E+03  0.17120000000E+03 0.  0.
         13    1    1    2    0    0 -0.64207650687E+02  0.61966494453E+02  0.47703942354E+03  0.48531339526E+03  0.10566000000E+00 0.  1.
        994    1    1    2    0    0  0.67699094158E+02 -0.43437948863E+02  0.28608833548E+02  0.19130584964E+03  0.17120000000E+03 0.  0.
        998    1    1    2    0    0 -0.34914434706E+01 -0.18528545589E+02  0.99435173919E+03  0.99458075510E+03  0.10000000000E+02 0.  0.
</event>
<event>
 5    1  0.1147307E-008  0.3814552E+03  0.7957747E-01  0.3444847E+00
         13   -1    0    0    0    0  0.00000000000E+00  0.00000000000E+00  0.14999999963E+04  0.15000000000E+04  0.10566000000E+00 0. -1.
        994   -1    0    0    0    0 -0.00000000000E+00 -0.00000000000E+00  0.11368683772E-12  0.17120000000E+03  0.17120000000E+03 0.  0.
         13    1    1    2    0    0 -0.19542649438E+02 -0.77815119646E+01  0.63089976651E+02  0.66504311089E+02  0.10566000000E+00 0. -1.
        994    1    1    2    0    0  0.16074857930E+02  0.36677275784E+01  0.43053441991E+01  0.17204600917E+03  0.17120000000E+03 0.  0.
        998    1    1    2    0    0  0.34677915085E+01  0.41137843862E+01  0.14326046754E+04  0.14326496797E+04  0.10000000000E+02 0. -1.
</event>
<event>
 5    1  0.1147307E-008  0.3754377E+03  0.7957747E-01  0.3471268E+00
         13   -1    0    0    0    0  0.00000000000E+00  0.00000000000E+00  0.14999999963E+04  0.15000000000E+04  0.10566000000E+00 0. -1.
        994   -1    0    0    0    0 -0.00000000000E+00 -0.00000000000E+00  0.11368683772E-12  0.17120000000E+03  0.17120000000E+03 0.  0.
         13    1    1    2    0    0 -0.81779442394E+02 -0.18992964057E+01  0.48411700651E+03  0.49097940046E+03  0.10566000000E+00 0. -1.
        994    1    1    2    0    0  0.53124504770E+02  0.93853868072E+01  0.16397042802E+02  0.18024594726E+03  0.17120000000E+03 0.  0.
        998    1    1    2    0    0  0.28654937624E+02 -0.74860904015E+01  0.99948594697E+03  0.99997465227E+03  0.10000000000E+02 0. -1.
</event>
<event>
 5    1  0.1147307E-008  0.3719265E+03  0.7957747E-01  0.3487084E+00
         13   -1    0    0    0    0  0.00000000000E+00  0.00000000000E+00  0.14999999963E+04  0.15000000000E+04  0.10566000000E+00 0.  1.
        994   -1    0    0    0    0 -0.00000000000E+00 -0.00000000000E+00  0.11368683772E-12  0.17120000000E+03  0.17120000000E+03 0.  0.
         13    1    1    2    0    0 -0.92669991246E+01  0.13309439274E+02  0.12456995764E+02  0.20450094232E+02  0.10566000000E+00 0.  1.
        994    1    1    2    0    0  0.39641894049E+01 -0.27182424819E+01  0.83449614581E+01  0.17147064478E+03  0.17120000000E+03 0.  0.
        998    1    1    2    0    0  0.53028097197E+01 -0.10591196792E+02  0.14791980391E+04  0.14792792610E+04  0.10000000000E+02 0.  1.
</event>
<event>
 5    1  0.1147307E-008  0.3842428E+03  0.7957747E-01  0.3432890E+00
         13   -1    0    0    0    0  0.00000000000E+00  0.00000000000E+00  0.14999999963E+04  0.15000000000E+04  0.10566000000E+00 0. -1.
        994   -1    0    0    0    0 -0.00000000000E+00 -0.00000000000E+00  0.11368683772E-12  0.17120000000E+03  0.17120000000E+03 0.  0.
         13    1    1    2    0    0  0.67614137419E+01  0.14090436141E+02  0.68024667736E+02  0.69797017780E+02  0.10566000000E+00 0. -1.
        994    1    1    2    0    0  0.49471486566E+01  0.78793363368E+01  0.22919757450E+01  0.17146793104E+03  0.17120000000E+03 0.  0.
        998    1    1    2    0    0 -0.11708562399E+02 -0.21969772478E+02  0.14296833528E+04  0.14299350512E+04  0.10000000000E+02 0. -1.
</event>
<event>
 5    1  0.1147307E-008  0.3797418E+03  0.7957747E-01  0.3452284E+00
         13   -1    0    0    0    0  0.00000000000E+00  0.00000000000E+00  0.14999999963E+04  0.15000000000E+04  0.10566000000E+00 0.  1.
        994   -1    0    0    0    0 -0.00000000000E+00 -0.00000000000E+00  0.11368683772E-12  0.17120000000E+03  0.17120000000E+03 0.  0.
         13    1    1    2    0    0 -0.11511879382E+02 -0.20115171393E+01  0.14084508247E+02  0.18301751411E+02  0.10566000000E+00 0.  1.
        994    1    1    2    0    0  0.10799439465E+02  0.15133054615E+01  0.46615282758E+01  0.17161027892E+03  0.17120000000E+03 0.  0.
        998    1    1    2    0    0  0.71243991637E+00  0.49821167774E+00  0.14812539598E+04  0.14812879697E+04  0.10000000000E+02 0.  1.
</event>
<event>
 5    1  0.1147307E-008  0.3849637E+03  0.7957747E-01  0.3429826E+00
         13   -1    0    0    0    0  0.00000000000E+00  0.00000000000E+00  0.14999999963E+04  0.15000000000E+04  0.10566000000E+00 0. -1.
        994   -1    0    0    0    0 -0.00000000000E+00 -0.00000000000E+00  0.11368683772E-12  0.17120000000E+03  0.17120000000E+03 0.  0.
         13    1    1    2    0    0  0.13744490928E+02 -0.23258288007E+01  0.55722137994E+02  0.57439431902E+02  0.10566000000E+00 0. -1.
        994    1    1    2    0    0 -0.17401710483E+02  0.10688110008E+02  0.30210788969E+01  0.17244019874E+03  0.17120000000E+03 0.  0.
        998    1    1    2    0    0  0.36572195551E+01 -0.83622812078E+01  0.14412567794E+04  0.14413203694E+04  0.10000000000E+02 0. -1.
</event>
<event>
 5    1  0.1147307E-008  0.3731711E+03  0.7957747E-01  0.3481443E+00
         13   -1    0    0    0    0  0.00000000000E+00  0.00000000000E+00  0.14999999963E+04  0.15000000000E+04  0.10566000000E+00 0. -1.
        994   -1    0    0    0    0 -0.00000000000E+00 -0.00000000000E+00  0.11368683772E-12  0.17120000000E+03  0.17120000000E+03 0.  0.
         13    1    1    2    0    0  0.41301065333E+02 -0.36000949877E+02  0.21291633559E+03  0.21985273143E+03  0.10566000000E+00 0. -1.
        994    1    1    2    0    0 -0.95105766903E+01  0.14300583628E+02  0.86303759588E+01  0.17227559650E+03  0.17120000000E+03 0.  0.
        998    1    1    2    0    0 -0.31790488643E+02  0.21700366249E+02  0.12784532847E+04  0.12790716721E+04  0.10000000000E+02 0. -1.
</event>
<event>
 5    1  0.1147307E-008  0.3750066E+03  0.7957747E-01  0.3473193E+00
         13   -1    0    0    0    0  0.00000000000E+00  0.00000000000E+00  0.14999999963E+04  0.15000000000E+04  0.10566000000E+00 0. -1.
        994   -1    0    0    0    0 -0.00000000000E+00 -0.00000000000E+00  0.11368683772E-12  0.17120000000E+03  0.17120000000E+03 0.  0.
         13    1    1    2    0    0  0.23943198494E+02  0.28400418021E+02  0.95762391311E+02  0.10271468859E+03  0.10566000000E+00 0. -1.
        994    1    1    2    0    0 -0.24736644447E+02 -0.25773333044E+02  0.11025491830E+02  0.17523460773E+03  0.17120000000E+03 0.  0.
        998    1    1    2    0    0  0.79344595290E+00 -0.26270849771E+01  0.13932121131E+04  0.13932507037E+04  0.10000000000E+02 0. -1.
</event>
<event>
 5    1  0.1147307E-008  0.3853115E+03  0.7957747E-01  0.3428352E+00
         13   -1    0    0    0    0  0.00000000000E+00  0.00000000000E+00  0.14999999963E+04  0.15000000000E+04  0.10566000000E+00 0.  1.
        994   -1    0    0    0    0 -0.00000000000E+00 -0.00000000000E+00  0.11368683772E-12  0.17120000000E+03  0.17120000000E+03 0.  0.
         13    1    1    2    0    0 -0.99182222886E+01 -0.35609876138E+01  0.36311007490E+02  0.37809419397E+02  0.10566000000E+00 0.  1.
        994    1    1    2    0    0  0.14424332240E+02  0.19035035048E+01  0.21713504645E+01  0.17183084545E+03  0.17120000000E+03 0.  0.
        998    1    1    2    0    0 -0.45061099512E+01  0.16574841090E+01  0.14615176383E+04  0.14615597352E+04  0.10000000000E+02 0.  1.
</event>
<event>
 5    1  0.1147307E-008  0.3838388E+03  0.7957747E-01  0.3434612E+00
         13   -1    0    0    0    0  0.00000000000E+00  0.00000000000E+00  0.14999999963E+04  0.15000000000E+04  0.10566000000E+00 0.  1.
        994   -1    0    0    0    0 -0.00000000000E+00 -0.00000000000E+00  0.11368683772E-12  0.17120000000E+03  0.17120000000E+03 0.  0.
         13    1    1    2    0    0 -0.34562361223E+02 -0.33156972720E+01  0.20147963586E+03  0.20444951820E+03  0.10566000000E+00 0.  1.
        994    1    1    2    0    0  0.52652668190E+02  0.14057315781E+01  0.11420246405E+02  0.17948298409E+03  0.17120000000E+03 0.  0.
        998    1    1    2    0    0 -0.18090306967E+02  0.19099656939E+01  0.12871001140E+04  0.12872674977E+04  0.10000000000E+02 0.  1.
</event>
<event>
 5    1  0.1147307E-008  0.3758303E+03  0.7957747E-01  0.3469518E+00
         13   -1    0    0    0    0  0.00000000000E+00  0.00000000000E+00  0.14999999963E+04  0.15000000000E+04  0.10566000000E+00 0.  1.
        994   -1    0    0    0    0 -0.00000000000E+00 -0.00000000000E+00  0.11368683772E-12  0.17120000000E+03  0.17120000000E+03 0.  0.
         13    1    1    2    0    0 -0.12170823018E+02 -0.21766768610E+02  0.46986951673E+02  0.53194980405E+02  0.10566000000E+00 0.  1.
        994    1    1    2    0    0  0.13790035674E+02  0.13428962662E+02  0.75098473525E+01  0.17244227999E+03  0.17120000000E+03 0.  0.
        998    1    1    2    0    0 -0.16192126565E+01  0.83378059482E+01  0.14455031973E+04  0.14455627396E+04  0.10000000000E+02 0.  1.
</event>
<event>
 5    1  0.1147307E-008  0.3853563E+03  0.7957747E-01  0.3428162E+00
         13   -1    0    0    0    0  0.00000000000E+00  0.00000000000E+00  0.14999999963E+04  0.15000000000E+04  0.10566000000E+00 0. -1.
        994   -1    0    0    0    0 -0.00000000000E+00 -0.00000000000E+00  0.11368683772E-12  0.17120000000E+03  0.17120000000E+03 0.  0.
         13    1    1    2    0    0 -0.97789471445E+01 -0.51538908991E+01  0.41320031849E+02  0.42773199491E+02  0.10566000000E+00 0. -1.
        994    1    1    2    0    0  0.81442232196E+01  0.80435092554E+01  0.18838536120E+01  0.17159258526E+03  0.17120000000E+03 0.  0.
        998    1    1    2    0    0  0.16347239248E+01 -0.28896183563E+01  0.14567961108E+04  0.14568342152E+04  0.10000000000E+02 0. -1.
</event>
<event>
 5    1  0.1147307E-008  0.3836775E+03  0.7957747E-01  0.3435300E+00
         13   -1    0    0    0    0  0.00000000000E+00  0.00000000000E+00  0.14999999963E+04  0.15000000000E+04  0.10566000000E+00 0. -1.
        994   -1    0    0    0    0 -0.00000000000E+00 -0.00000000000E+00  0.11368683772E-12  0.17120000000E+03  0.17120000000E+03 0.  0.
         13    1    1    2    0    0 -0.20144304943E+02 -0.36024777534E+01  0.10434130734E+03  0.10632916086E+03  0.10566000000E+00 0. -1.
        994    1    1    2    0    0  0.73217138991E+00 -0.33275180231E+02  0.59555186700E+01  0.17450696805E+03  0.17120000000E+03 0.  0.
        998    1    1    2    0    0  0.19412133553E+02  0.36877657984E+02  0.13897031703E+04  0.13903638711E+04  0.10000000000E+02 0. -1.
</event>
<event>
 5    1  0.1147307E-008  0.3813776E+03  0.7957747E-01  0.3445182E+00
         13   -1    0    0    0    0  0.00000000000E+00  0.00000000000E+00  0.14999999963E+04  0.15000000000E+04  0.10566000000E+00 0.  1.
        994   -1    0    0    0    0 -0.00000000000E+00 -0.00000000000E+00  0.11368683772E-12  0.17120000000E+03  0.17120000000E+03 0.  0.
         13    1    1    2    0    0  0.13610023561E+02 -0.16508943177E+02  0.74939251019E+02  0.77933820986E+02  0.10566000000E+00 0.  1.
        994    1    1    2    0    0  0.12718580382E+02 -0.77293030124E+01  0.41767898408E+01  0.17189645135E+03  0.17120000000E+03 0.  0.
        998    1    1    2    0    0 -0.26328603944E+02  0.24238246189E+02  0.14208839554E+04  0.14213697277E+04  0.10000000000E+02 0.  1.
</event>
<event>
 5    1  0.1147307E-008  0.3793506E+03  0.7957747E-01  0.3453991E+00
         13   -1    0    0    0    0  0.00000000000E+00  0.00000000000E+00  0.14999999963E+04  0.15000000000E+04  0.10566000000E+00 0.  1.
        994   -1    0    0    0    0 -0.00000000000E+00 -0.00000000000E+00  0.11368683772E-12  0.17120000000E+03  0.17120000000E+03 0.  0.
         13    1    1    2    0    0 -0.25929553302E+02 -0.21824312687E+02  0.12418735759E+03  0.12872899172E+03  0.10566000000E+00 0.  1.
        994    1    1    2    0    0  0.18320737594E+02  0.16339058157E+02  0.64827396967E+01  0.17307247084E+03  0.17120000000E+03 0.  0.
        998    1    1    2    0    0  0.76088157086E+01  0.54852545303E+01  0.13693298990E+04  0.13693985374E+04  0.10000000000E+02 0.  1.
</event>
<event>
 5    1  0.1147307E-008  0.3717725E+03  0.7957747E-01  0.3487784E+00
         13   -1    0    0    0    0  0.00000000000E+00  0.00000000000E+00  0.14999999963E+04  0.15000000000E+04  0.10566000000E+00 0. -1.
        994   -1    0    0    0    0 -0.00000000000E+00 -0.00000000000E+00  0.11368683772E-12  0.17120000000E+03  0.17120000000E+03 0.  0.
         13    1    1    2    0    0  0.48142139561E+02 -0.19250224182E+02  0.18591567762E+03  0.19301006990E+03  0.10566000000E+00 0. -1.
        994    1    1    2    0    0 -0.12655840543E+02 -0.28171015352E+02  0.11630353483E+02  0.17435160317E+03  0.17120000000E+03 0.  0.
        998    1    1    2    0    0 -0.35486299018E+02  0.47421239535E+02  0.13024539652E+04  0.13038383269E+04  0.10000000000E+02 0. -1.
</event>
<event>
 5    1  0.1147307E-008  0.3829466E+03  0.7957747E-01  0.3438428E+00
         13   -1    0    0    0    0  0.00000000000E+00  0.00000000000E+00  0.14999999963E+04  0.15000000000E+04  0.10566000000E+00 0.  1.
        994   -1    0    0    0    0 -0.00000000000E+00 -0.00000000000E+00  0.11368683772E-12  0.17120000000E+03  0.17120000000E+03 0.  0.
         13    1    1    2    0    0 -0.58714597580E+02  0.11447396422E+02  0.88781584434E+02  0.10705432150E+03  0.10566000000E+00 0.  1.
        994    1    1    2    0    0  0.57239424543E+02 -0.11833674669E+02  0.30578842467E+02  0.18346905239E+03  0.17120000000E+03 0.  0.
        998    1    1    2    0    0  0.14751730367E+01  0.38627824720E+00  0.13806395694E+04  0.13806766261E+04  0.10000000000E+02 0.  1.
</event>
<event>
 5    1  0.1147307E-008  0.3773228E+03  0.7957747E-01  0.3462899E+00
         13   -1    0    0    0    0  0.00000000000E+00  0.00000000000E+00  0.14999999963E+04  0.15000000000E+04  0.10566000000E+00 0.  1.
        994   -1    0    0    0    0 -0.00000000000E+00 -0.00000000000E+00  0.11368683772E-12  0.17120000000E+03  0.17120000000E+03 0.  0.
         13    1    1    2    0    0  0.14378882446E+02 -0.12571303465E+02  0.30219172679E+02  0.35749118767E+02  0.10566000000E+00 0.  1.
        994    1    1    2    0    0 -0.17081405513E+02  0.13527656409E+02  0.70936911993E+01  0.17272675634E+03  0.17120000000E+03 0.  0.
        998    1    1    2    0    0  0.27025230669E+01 -0.95635294459E+00  0.14626871324E+04  0.14627241249E+04  0.10000000000E+02 0.  1.
</event>
<event>
 5    1  0.1147307E-008  0.3835991E+03  0.7957747E-01  0.3435635E+00
         13   -1    0    0    0    0  0.00000000000E+00  0.00000000000E+00  0.14999999963E+04  0.15000000000E+04  0.10566000000E+00 0.  1.
        994   -1    0    0    0    0 -0.00000000000E+00 -0.00000000000E+00  0.11368683772E-12  0.17120000000E+03  0.17120000000E+03 0.  0.
         13    1    1    2    0    0  0.92562664164E+01 -0.96561031310E+01  0.38299923483E+02  0.40568634417E+02  0.10566000000E+00 0.  1.
        994    1    1    2    0    0  0.10916585249E+02  0.18755285591E+02  0.38845834305E+01  0.17261362217E+03  0.17120000000E+03 0.  0.
        998    1    1    2    0    0 -0.20172851665E+02 -0.90991824604E+01  0.14578154894E+04  0.14580177434E+04  0.10000000000E+02 0.  1.
</event>
<event>
 5    1  0.1147307E-008  0.3784104E+03  0.7957747E-01  0.3458109E+00
         13   -1    0    0    0    0  0.00000000000E+00  0.00000000000E+00  0.14999999963E+04  0.15000000000E+04  0.10566000000E+00 0.  1.
        994   -1    0    0    0    0 -0.00000000000E+00 -0.00000000000E+00  0.11368683772E-12  0.17120000000E+03  0.17120000000E+03 0.  0.
         13    1    1    2    0    0  0.41846026707E+02  0.76703637853E+01  0.16790572370E+03  0.17321162677E+03  0.10566000000E+00 0.  1.
        994    1    1    2    0    0 -0.35757729876E+02 -0.13398753280E+02  0.98535891906E+01  0.17568345128E+03  0.17120000000E+03 0.  0.
        998    1    1    2    0    0 -0.60882968301E+01  0.57283894949E+01  0.13222406834E+04  0.13223049219E+04  0.10000000000E+02 0.  1.
</event>
<event>
 5    1  0.1147307E-008  0.3733964E+03  0.7957747E-01  0.3480426E+00
         13   -1    0    0    0    0  0.00000000000E+00  0.00000000000E+00  0.14999999963E+04  0.15000000000E+04  0.10566000000E+00 0. -1.
        994   -1    0    0    0    0 -0.00000000000E+00 -0.00000000000E+00  0.11368683772E-12  0.17120000000E+03  0.17120000000E+03 0.  0.
         13    1    1    2    0    0 -0.28613388090E+02 -0.29000673535E+02  0.12904688638E+03  0.13532507192E+03  0.10566000000E+00 0. -1.
        994    1    1    2    0    0  0.38323426183E+02 -0.53506407309E+02  0.22456408753E+02  0.18478460680E+03  0.17120000000E+03 0.  0.
        998    1    1    2    0    0 -0.97100380928E+01  0.82507080844E+02  0.13484967011E+04  0.13510903213E+04  0.10000000000E+02 0.  1.
</event>
<event>
 5    1  0.1147307E-008  0.3821900E+03  0.7957747E-01  0.3441678E+00
         13   -1    0    0    0    0  0.00000000000E+00  0.00000000000E+00  0.14999999963E+04  0.15000000000E+04  0.10566000000E+00 0.  1.
        994   -1    0    0    0    0 -0.00000000000E+00 -0.00000000000E+00  0.11368683772E-12  0.17120000000E+03  0.17120000000E+03 0.  0.
         13    1    1    2    0    0 -0.83262601624E+01 -0.61502450975E+01  0.16734300827E+02  0.19677401029E+02  0.10566000000E+00 0.  1.
        994    1    1    2    0    0 -0.60943293897E+01  0.10157090395E+02  0.34974954491E+01  0.17164492364E+03  0.17120000000E+03 0.  0.
        998    1    1    2    0    0  0.14420589552E+02 -0.40068452980E+01  0.14797682000E+04  0.14798776753E+04  0.10000000000E+02 0.  1.
</event>
<event>
 5    1  0.1147307E-008  0.3918226E+03  0.7957747E-01  0.3401242E+00
         13   -1    0    0    0    0  0.00000000000E+00  0.00000000000E+00  0.14999999963E+04  0.15000000000E+04  0.10566000000E+00 0. -1.
        994   -1    0    0    0    0 -0.00000000000E+00 -0.00000000000E+00  0.11368683772E-12  0.17120000000E+03  0.17120000000E+03 0.  0.
         13    1    1    2    0    0  0.71917807928E+02 -0.13140796145E+02  0.94475186471E+02  0.11945887846E+03  0.10566000000E+00 0. -1.
        994    1    1    2    0    0 -0.10214181345E+03 -0.21244713163E+02  0.65521810565E+02  0.21091902605E+03  0.17120000000E+03 0.  0.
        998    1    1    2    0    0  0.30224005521E+02  0.34385509308E+02  0.13400029992E+04  0.13408220955E+04  0.10000000000E+02 0. -1.
</event>
<event>
 5    1  0.1147307E-008  0.3834964E+03  0.7957747E-01  0.3436074E+00
         13   -1    0    0    0    0  0.00000000000E+00  0.00000000000E+00  0.14999999963E+04  0.15000000000E+04  0.10566000000E+00 0. -1.
        994   -1    0    0    0    0 -0.00000000000E+00 -0.00000000000E+00  0.11368683772E-12  0.17120000000E+03  0.17120000000E+03 0.  0.
         13    1    1    2    0    0  0.12027661426E+02 -0.16158586274E+02  0.91659679674E+02  0.93847070235E+02  0.10566000000E+00 0. -1.
        994    1    1    2    0    0 -0.13103842300E+02 -0.89134057691E+01  0.32089458242E+01  0.17196190514E+03  0.17120000000E+03 0.  0.
        998    1    1    2    0    0  0.10761808740E+01  0.25071992043E+02  0.14051313708E+04  0.14053910246E+04  0.10000000000E+02 0. -1.
</event>
<event>
 5    1  0.1147307E-008  0.3710107E+03  0.7957747E-01  0.3491259E+00
         13   -1    0    0    0    0  0.00000000000E+00  0.00000000000E+00  0.14999999963E+04  0.15000000000E+04  0.10566000000E+00 0.  1.
        994   -1    0    0    0    0 -0.00000000000E+00 -0.00000000000E+00  0.11368683772E-12  0.17120000000E+03  0.17120000000E+03 0.  0.
         13    1    1    2    0    0  0.35243008947E+02 -0.10745980827E+02  0.72107759539E+02  0.80975835490E+02  0.10566000000E+00 0.  1.
        994    1    1    2    0    0 -0.32228145177E+02  0.80505799400E+01  0.12553370836E+02  0.17484419435E+03  0.17120000000E+03 0.  0.
        998    1    1    2    0    0 -0.30148637697E+01  0.26954008874E+01  0.14153388659E+04  0.14153799702E+04  0.10000000000E+02 0.  1.
</event>
<event>
 5    1  0.1147307E-008  0.3708285E+03  0.7957747E-01  0.3492092E+00
         13   -1    0    0    0    0  0.00000000000E+00  0.00000000000E+00  0.14999999963E+04  0.15000000000E+04  0.10566000000E+00 0. -1.
        994   -1    0    0    0    0 -0.00000000000E+00 -0.00000000000E+00  0.11368683772E-12  0.17120000000E+03  0.17120000000E+03 0.  0.
         13    1    1    2    0    0 -0.88007711844E+01 -0.17899008161E+02  0.18193298005E+02  0.26996950252E+02  0.10566000000E+00 0. -1.
        994    1    1    2    0    0  0.17637888643E+02  0.20422984716E+02  0.11351395076E+02  0.17368502408E+03  0.17120000000E+03 0.  0.
        998    1    1    2    0    0 -0.88371174585E+01 -0.25239765553E+01  0.14704553032E+04  0.14705180257E+04  0.10000000000E+02 0. -1.
</event>
<event>
 5    1  0.1147307E-008  0.3818759E+03  0.7957747E-01  0.3443031E+00
         13   -1    0    0    0    0  0.00000000000E+00  0.00000000000E+00  0.14999999963E+04  0.15000000000E+04  0.10566000000E+00 0.  1.
        994   -1    0    0    0    0 -0.00000000000E+00 -0.00000000000E+00  0.11368683772E-12  0.17120000000E+03  0.17120000000E+03 0.  0.
         13    1    1    2    0    0  0.16958250132E+02 -0.16911708384E+01  0.43674011824E+02  0.46881475864E+02  0.10566000000E+00 0.  1.
        994    1    1    2    0    0 -0.15780266830E+02 -0.81391116676E+00  0.40191546610E+01  0.17197462858E+03  0.17120000000E+03 0.  0.
        998    1    1    2    0    0 -0.11779833013E+01  0.25050820051E+01  0.14523068298E+04  0.14523438956E+04  0.10000000000E+02 0.  1.
</event>
<event>
 5    1  0.1147307E-008  0.3856570E+03  0.7957747E-01  0.3426891E+00
         13   -1    0    0    0    0  0.00000000000E+00  0.00000000000E+00  0.14999999963E+04  0.15000000000E+04  0.10566000000E+00 0. -1.
        994   -1    0    0    0    0 -0.00000000000E+00 -0.00000000000E+00  0.11368683772E-12  0.17120000000E+03  0.17120000000E+03 0.  0.
         13    1    1    2    0    0  0.10394449592E+02  0.27227154214E+00  0.40864632026E+02  0.42166906796E+02  0.10566000000E+00 0. -1.
        994    1    1    2    0    0 -0.10533042038E+02  0.13719311311E+00  0.16685264476E+01  0.17153188560E+03  0.17120000000E+03 0.  0.
        998    1    1    2    0    0  0.13859244602E+00 -0.40946465526E+00  0.14574668378E+04  0.14575012076E+04  0.10000000000E+02 0. -1.
</event>
<event>
 5    1  0.1147307E-008  0.3802713E+03  0.7957747E-01  0.3449978E+00
         13   -1    0    0    0    0  0.00000000000E+00  0.00000000000E+00  0.14999999963E+04  0.15000000000E+04  0.10566000000E+00 0. -1.
        994   -1    0    0    0    0 -0.00000000000E+00 -0.00000000000E+00  0.11368683772E-12  0.17120000000E+03  0.17120000000E+03 0.  0.
         13    1    1    2    0    0  0.15850009794E+01 -0.25997687486E+02  0.87506356013E+02  0.91300413413E+02  0.10566000000E+00 0. -1.
        994    1    1    2    0    0 -0.66356663868E+01  0.61952592815E+01  0.42715660799E+01  0.17149373045E+03  0.17120000000E+03 0.  0.
        998    1    1    2    0    0  0.50506654073E+01  0.19802428204E+02  0.14082220742E+04  0.14084058561E+04  0.10000000000E+02 0. -1.
</event>
<event>
 5    1  0.1147307E-008  0.3755057E+03  0.7957747E-01  0.3470964E+00
         13   -1    0    0    0    0  0.00000000000E+00  0.00000000000E+00  0.14999999963E+04  0.15000000000E+04  0.10566000000E+00 0. -1.
        994   -1    0    0    0    0 -0.00000000000E+00 -0.00000000000E+00  0.11368683772E-12  0.17120000000E+03  0.17120000000E+03 0.  0.
         13    1    1    2    0    0 -0.37537033997E+01  0.97775934255E+01  0.58089971836E+01  0.11976945968E+02  0.10566000000E+00 0. -1.
        994    1    1    2    0    0 -0.38991458013E+01  0.78543106595E+01  0.66802721011E+01  0.17155453818E+03  0.17120000000E+03 0.  0.
        998    1    1    2    0    0  0.76528492011E+01 -0.17631904085E+02  0.14875107270E+04  0.14876685159E+04  0.10000000000E+02 0. -1.
</event>
<event>
 5    1  0.1147307E-008  0.3776030E+03  0.7957747E-01  0.3461662E+00
         13   -1    0    0    0    0  0.00000000000E+00  0.00000000000E+00  0.14999999963E+04  0.15000000000E+04  0.10566000000E+00 0.  1.
        994   -1    0    0    0    0 -0.00000000000E+00 -0.00000000000E+00  0.11368683772E-12  0.17120000000E+03  0.17120000000E+03 0.  0.
         13    1    1    2    0    0  0.30721629462E+02 -0.23140692813E+03  0.10552303914E+04  0.10807424184E+04  0.10566000000E+00 0.  1.
        994    1    1    2    0    0 -0.59742723058E+01  0.23315933686E+03  0.21836907971E+03  0.36248236270E+03  0.17120000000E+03 0.  0.
        998    1    1    2    0    0 -0.24747357157E+02 -0.17524087237E+01  0.22640052519E+03  0.22797521889E+03  0.10000000000E+02 0. -1.
</event>
<event>
 5    1  0.1147307E-008  0.3832099E+03  0.7957747E-01  0.3437300E+00
         13   -1    0    0    0    0  0.00000000000E+00  0.00000000000E+00  0.14999999963E+04  0.15000000000E+04  0.10566000000E+00 0. -1.
        994   -1    0    0    0    0 -0.00000000000E+00 -0.00000000000E+00  0.11368683772E-12  0.17120000000E+03  0.17120000000E+03 0.  0.
         13    1    1    2    0    0  0.67766293365E+00 -0.17960952276E+02  0.62629577576E+02  0.65157733119E+02  0.10566000000E+00 0. -1.
        994    1    1    2    0    0  0.29847104037E+00  0.13950350751E+02  0.31658213946E+01  0.17179686783E+03  0.17120000000E+03 0.  0.
        998    1    1    2    0    0 -0.97613397401E+00  0.40106015258E+01  0.14342045973E+04  0.14342453991E+04  0.10000000000E+02 0. -1.
</event>
<event>
 5    1  0.1147307E-008  0.3702837E+03  0.7957747E-01  0.3494588E+00
         13   -1    0    0    0    0  0.00000000000E+00  0.00000000000E+00  0.14999999963E+04  0.15000000000E+04  0.10566000000E+00 0. -1.
        994   -1    0    0    0    0 -0.00000000000E+00 -0.00000000000E+00  0.11368683772E-12  0.17120000000E+03  0.17120000000E+03 0.  0.
         13    1    1    2    0    0  0.20709763512E+02  0.24284380888E+02  0.40799841764E+02  0.51800228878E+02  0.10566000000E+00 0. -1.
        994    1    1    2    0    0 -0.21129913694E+02 -0.20413587862E+02  0.14115514891E+02  0.17427528678E+03  0.17120000000E+03 0.  0.
        998    1    1    2    0    0  0.42015018147E+00 -0.38707930265E+01  0.14450846396E+04  0.14451244843E+04  0.10000000000E+02 0. -1.
</event>
<event>
 5    1  0.1147307E-008  0.3817870E+03  0.7957747E-01  0.3443414E+00
         13   -1    0    0    0    0  0.00000000000E+00  0.00000000000E+00  0.14999999963E+04  0.15000000000E+04  0.10566000000E+00 0.  1.
        994   -1    0    0    0    0 -0.00000000000E+00 -0.00000000000E+00  0.11368683772E-12  0.17120000000E+03  0.17120000000E+03 0.  0.
         13    1    1    2    0    0 -0.26603128068E+02 -0.66897436218E+01  0.10697784324E+03  0.11043889351E+03  0.10566000000E+00 0.  1.
        994    1    1    2    0    0  0.28714594935E+02  0.64601431867E+01  0.61179718963E+01  0.17381924805E+03  0.17120000000E+03 0.  0.
        998    1    1    2    0    0 -0.21114668672E+01  0.22960043516E+00  0.13869041811E+04  0.13869418584E+04  0.10000000000E+02 0.  1.
</event>
<event>
 5    1  0.1147307E-008  0.3832648E+03  0.7957747E-01  0.3437065E+00
         13   -1    0    0    0    0  0.00000000000E+00  0.00000000000E+00  0.14999999963E+04  0.15000000000E+04  0.10566000000E+00 0.  1.
        994   -1    0    0    0    0 -0.00000000000E+00 -0.00000000000E+00  0.11368683772E-12  0.17120000000E+03  0.17120000000E+03 0.  0.
         13    1    1    2    0    0  0.23026944950E+02 -0.58295314050E+01  0.10509889661E+03  0.10774976966E+03  0.10566000000E+00 0.  1.
        994    1    1    2    0    0 -0.24933958440E+02  0.32792287534E+01  0.45885742572E+01  0.17309809542E+03  0.17120000000E+03 0.  0.
        998    1    1    2    0    0  0.19070134909E+01  0.25503026516E+01  0.13903125254E+04  0.13903521349E+04  0.10000000000E+02 0.  1.
</event>
<event>
 5    1  0.1147307E-008  0.3857419E+03  0.7957747E-01  0.3426532E+00
         13   -1    0    0    0    0  0.00000000000E+00  0.00000000000E+00  0.14999999963E+04  0.15000000000E+04  0.10566000000E+00 0. -1.
        994   -1    0    0    0    0 -0.00000000000E+00 -0.00000000000E+00  0.11368683772E-12  0.17120000000E+03  0.17120000000E+03 0.  0.
         13    1    1    2    0    0  0.12792057735E+02 -0.10469833294E+01  0.65200440098E+02  0.66451798081E+02  0.10566000000E+00 0. -1.
        994    1    1    2    0    0 -0.95131662634E+01  0.34265267615E+01  0.15977515471E+01  0.17150578482E+03  0.17120000000E+03 0.  0.
        998    1    1    2    0    0 -0.32788914718E+01 -0.23795434320E+01  0.14332018046E+04  0.14332424171E+04  0.10000000000E+02 0. -1.
</event>
<event>
 5    1  0.1147307E-008  0.3832048E+03  0.7957747E-01  0.3437322E+00
         13   -1    0    0    0    0  0.00000000000E+00  0.00000000000E+00  0.14999999963E+04  0.15000000000E+04  0.10566000000E+00 0.  1.
        994   -1    0    0    0    0 -0.00000000000E+00 -0.00000000000E+00  0.11368683772E-12  0.17120000000E+03  0.17120000000E+03 0.  0.
         13    1    1    2    0    0  0.29033821316E+01  0.22945128512E+02  0.10961282391E+03  0.11202629549E+03  0.10566000000E+00 0.  1.
        994    1    1    2    0    0  0.12992708023E+02 -0.10274249761E+02  0.34321682704E+01  0.17203368987E+03  0.17120000000E+03 0.  0.
        998    1    1    2    0    0 -0.15896090155E+02 -0.12670878752E+02  0.13869550041E+04  0.13871400146E+04  0.10000000000E+02 0.  1.
</event>
<event>
 5    1  0.1147307E-008  0.3843780E+03  0.7957747E-01  0.3432315E+00
         13   -1    0    0    0    0  0.00000000000E+00  0.00000000000E+00  0.14999999963E+04  0.15000000000E+04  0.10566000000E+00 0. -1.
        994   -1    0    0    0    0 -0.00000000000E+00 -0.00000000000E+00  0.11368683772E-12  0.17120000000E+03  0.17120000000E+03 0.  0.
         13    1    1    2    0    0  0.15964852506E+02  0.12263946651E+02  0.94332759950E+02  0.96457045709E+02  0.10566000000E+00 0. -1.
        994    1    1    2    0    0 -0.22248848391E+02 -0.15610258990E+02  0.43772751968E+01  0.17339922716E+03  0.17120000000E+03 0.  0.
        998    1    1    2    0    0  0.62839958855E+01  0.33463123394E+01  0.14012899611E+04  0.14013437271E+04  0.10000000000E+02 0. -1.
</event>
<event>
 5    1  0.1147307E-008  0.3757547E+03  0.7957747E-01  0.3469854E+00
         13   -1    0    0    0    0  0.00000000000E+00  0.00000000000E+00  0.14999999963E+04  0.15000000000E+04  0.10566000000E+00 0. -1.
        994   -1    0    0    0    0 -0.00000000000E+00 -0.00000000000E+00  0.11368683772E-12  0.17120000000E+03  0.17120000000E+03 0.  0.
         13    1    1    2    0    0  0.51264165106E+02  0.87020689313E+02  0.50173572673E+03  0.51180012273E+03  0.10566000000E+00 0. -1.
        994    1    1    2    0    0 -0.56553961377E+02 -0.88911746454E+02  0.44921276825E+02  0.20598788876E+03  0.17120000000E+03 0.  0.
        998    1    1    2    0    0  0.52897962709E+01  0.18910571406E+01  0.95334299273E+03  0.95341198850E+03  0.10000000000E+02 0.  0.
</event>
<event>
 5    1  0.1147307E-008  0.3727321E+03  0.7957747E-01  0.3483428E+00
         13   -1    0    0    0    0  0.00000000000E+00  0.00000000000E+00  0.14999999963E+04  0.15000000000E+04  0.10566000000E+00 0.  1.
        994   -1    0    0    0    0 -0.00000000000E+00 -0.00000000000E+00  0.11368683772E-12  0.17120000000E+03  0.17120000000E+03 0.  0.
         13    1    1    2    0    0 -0.41531986536E+00  0.25746808742E+02  0.41372191722E+02  0.48731304753E+02  0.10566000000E+00 0.  1.
        994    1    1    2    0    0  0.92973018432E+01  0.27807762281E+01  0.81706439329E+01  0.17166936815E+03  0.17120000000E+03 0.  0.
        998    1    1    2    0    0 -0.88819819778E+01 -0.28527584970E+02  0.14504571606E+04  0.14507993271E+04  0.10000000000E+02 0.  1.
</event>
<event>
 5    1  0.1147307E-008  0.4349129E+03  0.7957747E-01  0.3242145E+00
         13   -1    0    0    0    0  0.00000000000E+00  0.00000000000E+00  0.14999999963E+04  0.15000000000E+04  0.10566000000E+00 0. -1.
        994   -1    0    0    0    0 -0.00000000000E+00 -0.00000000000E+00  0.11368683772E-12  0.17120000000E+03  0.17120000000E+03 0.  0.
         13    1    1    2    0    0  0.10463719111E+03 -0.43980486464E+02  0.98914794505E+02  0.15055687526E+03  0.10566000000E+00 0. -1.
        994    1    1    2    0    0 -0.11142223835E+03  0.69005831793E+02  0.13527934448E+03  0.25453223973E+03  0.17120000000E+03 0.  0.
        998    1    1    2    0    0  0.67850472350E+01 -0.25025345329E+02  0.12658058573E+04  0.12661108850E+04  0.10000000000E+02 0.  1.
</event>
<event>
 5    1  0.1147307E-008  0.3853259E+03  0.7957747E-01  0.3428291E+00
         13   -1    0    0    0    0  0.00000000000E+00  0.00000000000E+00  0.14999999963E+04  0.15000000000E+04  0.10566000000E+00 0. -1.
        994   -1    0    0    0    0 -0.00000000000E+00 -0.00000000000E+00  0.11368683772E-12  0.17120000000E+03  0.17120000000E+03 0.  0.
         13    1    1    2    0    0 -0.85734412513E+01 -0.60628749611E+01  0.37377700113E+02  0.38824811364E+02  0.10566000000E+00 0. -1.
        994    1    1    2    0    0  0.12949692620E+01  0.12092692782E+02  0.19544822835E+01  0.17164256513E+03  0.17120000000E+03 0.  0.
        998    1    1    2    0    0  0.72784719893E+01 -0.60298178207E+01  0.14606678139E+04  0.14607326235E+04  0.10000000000E+02 0. -1.
</event>
<event>
 5    1  0.1147307E-008  0.3856098E+03  0.7957747E-01  0.3427090E+00
         13   -1    0    0    0    0  0.00000000000E+00  0.00000000000E+00  0.14999999963E+04  0.15000000000E+04  0.10566000000E+00 0. -1.
        994   -1    0    0    0    0 -0.00000000000E+00 -0.00000000000E+00  0.11368683772E-12  0.17120000000E+03  0.17120000000E+03 0.  0.
         13    1    1    2    0    0  0.12386169308E+02  0.51301668723E+01  0.72583170640E+02  0.73810999359E+02  0.10566000000E+00 0. -1.
        994    1    1    2    0    0  0.23448322203E+01 -0.68046692704E+01  0.14977299040E+01  0.17135776888E+03  0.17120000000E+03 0.  0.
        998    1    1    2    0    0 -0.14731001528E+02  0.16745023981E+01  0.14259190957E+04  0.14260312318E+04  0.10000000000E+02 0. -1.
</event>
<event>
 5    1  0.1147307E-008  0.3774284E+03  0.7957747E-01  0.3462433E+00
         13   -1    0    0    0    0  0.00000000000E+00  0.00000000000E+00  0.14999999963E+04  0.15000000000E+04  0.10566000000E+00 0.  1.
        994   -1    0    0    0    0 -0.00000000000E+00 -0.00000000000E+00  0.11368683772E-12  0.17120000000E+03  0.17120000000E+03 0.  0.
         13    1    1    2    0    0  0.16334443076E+02  0.76737783004E+01  0.27230578776E+02  0.32668279546E+02  0.10566000000E+00 0.  1.
        994    1    1    2    0    0 -0.17672677604E+02 -0.64423282091E+01  0.66307954707E+01  0.17235786775E+03  0.17120000000E+03 0.  0.
        998    1    1    2    0    0  0.13382345287E+01 -0.12314500913E+01  0.14661386220E+04  0.14661738527E+04  0.10000000000E+02 0.  1.
</event>
<event>
 5    1  0.1147307E-008  0.3805322E+03  0.7957747E-01  0.3448844E+00
         13   -1    0    0    0    0  0.00000000000E+00  0.00000000000E+00  0.14999999963E+04  0.15000000000E+04  0.10566000000E+00 0.  1.
        994   -1    0    0    0    0 -0.00000000000E+00 -0.00000000000E+00  0.11368683772E-12  0.17120000000E+03  0.17120000000E+03 0.  0.
         13    1    1    2    0    0 -0.11980329194E+02  0.68737260900E+01  0.23073562627E+02  0.26891947759E+02  0.10566000000E+00 0.  1.
        994    1    1    2    0    0  0.95731669383E+01 -0.38221400020E+01  0.42193959517E+01  0.17156193512E+03  0.17120000000E+03 0.  0.
        998    1    1    2    0    0  0.24071622553E+01 -0.30515860880E+01  0.14727070377E+04  0.14727461171E+04  0.10000000000E+02 0.  1.
</event>
<event>
 5    1  0.1147307E-008  0.3852227E+03  0.7957747E-01  0.3428728E+00
         13   -1    0    0    0    0  0.00000000000E+00  0.00000000000E+00  0.14999999963E+04  0.15000000000E+04  0.10566000000E+00 0. -1.
        994   -1    0    0    0    0 -0.00000000000E+00 -0.00000000000E+00  0.11368683772E-12  0.17120000000E+03  0.17120000000E+03 0.  0.
         13    1    1    2    0    0  0.10308349615E+02 -0.61657835149E+01  0.46317257492E+02  0.47849539849E+02  0.10566000000E+00 0. -1.
        994    1    1    2    0    0 -0.17423318051E+02 -0.41683833320E+01  0.25750265831E+01  0.17215405367E+03  0.17120000000E+03 0.  0.
        998    1    1    2    0    0  0.71149684362E+01  0.10334166847E+02  0.14511077122E+04  0.14511964065E+04  0.10000000000E+02 0. -1.
</event>
<event>
 5    1  0.1147307E-008  0.3744604E+03  0.7957747E-01  0.3475640E+00
         13   -1    0    0    0    0  0.00000000000E+00  0.00000000000E+00  0.14999999963E+04  0.15000000000E+04  0.10566000000E+00 0.  1.
        994   -1    0    0    0    0 -0.00000000000E+00 -0.00000000000E+00  0.11368683772E-12  0.17120000000E+03  0.17120000000E+03 0.  0.
         13    1    1    2    0    0  0.88194502092E+02  0.11349436582E+03  0.79208659628E+03  0.80502200494E+03  0.10566000000E+00 0.  1.
        994    1    1    2    0    0 -0.92940939639E+02 -0.95555128109E+02  0.70102510806E+02  0.22801886499E+03  0.17120000000E+03 0.  0.
        998    1    1    2    0    0  0.47464375467E+01 -0.17939237710E+02  0.63781088919E+03  0.63815913007E+03  0.10000000000E+02 0.  1.
</event>
<event>
 5    1  0.1147307E-008  0.3831774E+03  0.7957747E-01  0.3437439E+00
         13   -1    0    0    0    0  0.00000000000E+00  0.00000000000E+00  0.14999999963E+04  0.15000000000E+04  0.10566000000E+00 0. -1.
        994   -1    0    0    0    0 -0.00000000000E+00 -0.00000000000E+00  0.11368683772E-12  0.17120000000E+03  0.17120000000E+03 0.  0.
         13    1    1    2    0    0  0.94299206061E+00  0.10204328255E+02  0.19699103905E+02  0.22205481482E+02  0.10566000000E+00 0. -1.
        994    1    1    2    0    0  0.95531338413E+00 -0.83094976290E+01  0.27692182025E+01  0.17142657012E+03  0.17120000000E+03 0.  0.
        998    1    1    2    0    0 -0.18983054447E+01 -0.18948306256E+01  0.14775316742E+04  0.14775679484E+04  0.10000000000E+02 0. -1.
</event>
<event>
 5    1  0.1147307E-008  0.3851600E+03  0.7957747E-01  0.3428994E+00
         13   -1    0    0    0    0  0.00000000000E+00  0.00000000000E+00  0.14999999963E+04  0.15000000000E+04  0.10566000000E+00 0. -1.
        994   -1    0    0    0    0 -0.00000000000E+00 -0.00000000000E+00  0.11368683772E-12  0.17120000000E+03  0.17120000000E+03 0.  0.
         13    1    1    2    0    0 -0.24629382195E+01 -0.12210575692E+02  0.48554232900E+02  0.50126728598E+02  0.10566000000E+00 0. -1.
        994    1    1    2    0    0  0.34138081198E+01  0.13360161944E+02  0.21759839675E+01  0.17176822442E+03  0.17120000000E+03 0.  0.
        998    1    1    2    0    0 -0.95086990022E+00 -0.11495862517E+01  0.14492697794E+04  0.14493050470E+04  0.10000000000E+02 0. -1.
</event>
<event>
 5    1  0.1147307E-008  0.3818088E+03  0.7957747E-01  0.3443320E+00
         13   -1    0    0    0    0  0.00000000000E+00  0.00000000000E+00  0.14999999963E+04  0.15000000000E+04  0.10566000000E+00 0.  1.
        994   -1    0    0    0    0 -0.00000000000E+00 -0.00000000000E+00  0.11368683772E-12  0.17120000000E+03  0.17120000000E+03 0.  0.
         13    1    1    2    0    0  0.16755940861E+02  0.14514774600E+03  0.86595345496E+03  0.87819361592E+03  0.10566000000E+00 0.  1.
        994    1    1    2    0    0 -0.10080358448E+02 -0.16096906334E+03  0.95117824327E+02  0.25371143743E+03  0.17120000000E+03 0.  0.
        998    1    1    2    0    0 -0.66755824130E+01  0.15821317332E+02  0.53892871699E+03  0.53929494665E+03  0.10000000000E+02 0. -1.
</event>
<event>
 5    1  0.1147307E-008  0.3717678E+03  0.7957747E-01  0.3487805E+00
         13   -1    0    0    0    0  0.00000000000E+00  0.00000000000E+00  0.14999999963E+04  0.15000000000E+04  0.10566000000E+00 0.  1.
        994   -1    0    0    0    0 -0.00000000000E+00 -0.00000000000E+00  0.11368683772E-12  0.17120000000E+03  0.17120000000E+03 0.  0.
         13    1    1    2    0    0  0.26745955164E+02 -0.53510821084E+01  0.25692108316E+02  0.37470999335E+02  0.10566000000E+00 0.  1.
        994    1    1    2    0    0 -0.30151865873E+02  0.87114200739E+01  0.15349573308E+02  0.17472857023E+03  0.17120000000E+03 0.  0.
        998    1    1    2    0    0  0.34059107085E+01 -0.33603379655E+01  0.14589583147E+04  0.14590004304E+04  0.10000000000E+02 0.  1.
</event>
<event>
 5    1  0.1147307E-008  0.3724811E+03  0.7957747E-01  0.3484565E+00
         13   -1    0    0    0    0  0.00000000000E+00  0.00000000000E+00  0.14999999963E+04  0.15000000000E+04  0.10566000000E+00 0.  1.
        994   -1    0    0    0    0 -0.00000000000E+00 -0.00000000000E+00  0.11368683772E-12  0.17120000000E+03  0.17120000000E+03 0.  0.
         13    1    1    2    0    0 -0.67046881847E+01 -0.16665926413E+02  0.75415793497E+01  0.19483134501E+02  0.10566000000E+00 0.  1.
        994    1    1    2    0    0  0.44880852178E+01  0.20833992810E+02  0.13860176557E+02  0.17307727367E+03  0.17120000000E+03 0.  0.
        998    1    1    2    0    0  0.22166029669E+01 -0.41680663974E+01  0.14785982404E+04  0.14786395918E+04  0.10000000000E+02 0.  1.
</event>
<event>
 5    1  0.1147307E-008  0.3776229E+03  0.7957747E-01  0.3461575E+00
         13   -1    0    0    0    0  0.00000000000E+00  0.00000000000E+00  0.14999999963E+04  0.15000000000E+04  0.10566000000E+00 0.  1.
        994   -1    0    0    0    0 -0.00000000000E+00 -0.00000000000E+00  0.11368683772E-12  0.17120000000E+03  0.17120000000E+03 0.  0.
         13    1    1    2    0    0 -0.43462322424E+02  0.40747158511E+02  0.24025625973E+03  0.24753259563E+03  0.10566000000E+00 0.  1.
        994    1    1    2    0    0  0.32839290759E+02 -0.84440977075E+02  0.33515509117E+02  0.19657422766E+03  0.17120000000E+03 0.  0.
        998    1    1    2    0    0  0.10623031666E+02  0.43693818563E+02  0.12262282274E+04  0.12270931767E+04  0.10000000000E+02 0.  1.
</event>
<event>
 5    1  0.1147307E-008  0.3823773E+03  0.7957747E-01  0.3440872E+00
         13   -1    0    0    0    0  0.00000000000E+00  0.00000000000E+00  0.14999999963E+04  0.15000000000E+04  0.10566000000E+00 0. -1.
        994   -1    0    0    0    0 -0.00000000000E+00 -0.00000000000E+00  0.11368683772E-12  0.17120000000E+03  0.17120000000E+03 0.  0.
         13    1    1    2    0    0  0.91502662591E+01  0.75382892072E+01  0.23401443619E+02  0.26233411983E+02  0.10566000000E+00 0. -1.
        994    1    1    2    0    0  0.38291491592E+01 -0.48161956176E+01  0.30634924114E+01  0.17133792082E+03  0.17120000000E+03 0.  0.
        998    1    1    2    0    0 -0.12979415418E+02 -0.27220935896E+01  0.14735350602E+04  0.14736286672E+04  0.10000000000E+02 0. -1.
</event>
<event>
 5    1  0.1147307E-008  0.3827605E+03  0.7957747E-01  0.3439226E+00
         13   -1    0    0    0    0  0.00000000000E+00  0.00000000000E+00  0.14999999963E+04  0.15000000000E+04  0.10566000000E+00 0.  1.
        994   -1    0    0    0    0 -0.00000000000E+00 -0.00000000000E+00  0.11368683772E-12  0.17120000000E+03  0.17120000000E+03 0.  0.
         13    1    1    2    0    0  0.10948934816E+02 -0.26714078992E+01  0.21748448922E+02  0.24495342176E+02  0.10566000000E+00 0.  1.
        994    1    1    2    0    0 -0.13173934077E+02  0.10260112069E+01  0.33247582758E+01  0.17174137316E+03  0.17120000000E+03 0.  0.
        998    1    1    2    0    0  0.22249992606E+01  0.16453966923E+01  0.14749267891E+04  0.14749632847E+04  0.10000000000E+02 0.  1.
</event>
<event>
 5    1  0.1147307E-008  0.3729735E+03  0.7957747E-01  0.3482336E+00
         13   -1    0    0    0    0  0.00000000000E+00  0.00000000000E+00  0.14999999963E+04  0.15000000000E+04  0.10566000000E+00 0.  1.
        994   -1    0    0    0    0 -0.00000000000E+00 -0.00000000000E+00  0.11368683772E-12  0.17120000000E+03  0.17120000000E+03 0.  0.
         13    1    1    2    0    0 -0.84273305440E+02 -0.55896594582E+02  0.50062731700E+03  0.51073881876E+03  0.10566000000E+00 0.  1.
        994    1    1    2    0    0  0.14693014597E+03 -0.23333001075E+02  0.87729814532E+02  0.24318482085E+03  0.17120000000E+03 0.  0.
        998    1    1    2    0    0 -0.62656840529E+02  0.79229595657E+02  0.91164286474E+03  0.91727636039E+03  0.10000000000E+02 0.  1.
</event>
<event>
 5    1  0.1147307E-008  0.3754957E+03  0.7957747E-01  0.3471009E+00
         13   -1    0    0    0    0  0.00000000000E+00  0.00000000000E+00  0.14999999963E+04  0.15000000000E+04  0.10566000000E+00 0. -1.
        994   -1    0    0    0    0 -0.00000000000E+00 -0.00000000000E+00  0.11368683772E-12  0.17120000000E+03  0.17120000000E+03 0.  0.
         13    1    1    2    0    0  0.40513003256E+02  0.16013600259E+02  0.14372916001E+03  0.15018595616E+03  0.10566000000E+00 0. -1.
        994    1    1    2    0    0 -0.27963485333E+02 -0.60695250515E+01  0.92080017173E+01  0.17381893724E+03  0.17120000000E+03 0.  0.
        998    1    1    2    0    0 -0.12549517923E+02 -0.99440752073E+01  0.13470628345E+04  0.13471951066E+04  0.10000000000E+02 0. -1.
</event>
<event>
 5    1  0.1147307E-008  0.3792269E+03  0.7957747E-01  0.3454531E+00
         13   -1    0    0    0    0  0.00000000000E+00  0.00000000000E+00  0.14999999963E+04  0.15000000000E+04  0.10566000000E+00 0. -1.
        994   -1    0    0    0    0 -0.00000000000E+00 -0.00000000000E+00  0.11368683772E-12  0.17120000000E+03  0.17120000000E+03 0.  0.
         13    1    1    2    0    0 -0.19131497848E+00  0.29051814053E+02  0.97203751009E+02  0.10145257451E+03  0.10566000000E+00 0. -1.
        994    1    1    2    0    0 -0.97889959627E+01 -0.60419470880E+01  0.49675110231E+01  0.17165793233E+03  0.17120000000E+03 0.  0.
        998    1    1    2    0    0  0.99803109412E+01 -0.23009866966E+02  0.13978287342E+04  0.13980894932E+04  0.10000000000E+02 0. -1.
</event>
<event>
 5    1  0.1147307E-008  0.3733663E+03  0.7957747E-01  0.3480561E+00
         13   -1    0    0    0    0  0.00000000000E+00  0.00000000000E+00  0.14999999963E+04  0.15000000000E+04  0.10566000000E+00 0. -1.
        994   -1    0    0    0    0 -0.00000000000E+00 -0.00000000000E+00  0.11368683772E-12  0.17120000000E+03  0.17120000000E+03 0.  0.
         13    1    1    2    0    0  0.20925717150E+02 -0.14424614938E+02  0.39163882711E+02  0.46688071575E+02  0.10566000000E+00 0. -1.
        994    1    1    2    0    0 -0.18844361230E+02  0.15186334247E+02  0.95246850306E+01  0.17316435639E+03  0.17120000000E+03 0.  0.
        998    1    1    2    0    0 -0.20813559192E+01 -0.76171930908E+00  0.14513114285E+04  0.14513475720E+04  0.10000000000E+02 0. -1.
</event>
<event>
 5    1  0.1147307E-008  0.3687417E+03  0.7957747E-01  0.3501694E+00
         13   -1    0    0    0    0  0.00000000000E+00  0.00000000000E+00  0.14999999963E+04  0.15000000000E+04  0.10566000000E+00 0.  1.
        994   -1    0    0    0    0 -0.00000000000E+00 -0.00000000000E+00  0.11368683772E-12  0.17120000000E+03  0.17120000000E+03 0.  0.
         13    1    1    2    0    0 -0.14735127853E+03 -0.87876200347E+02  0.81434834696E+03  0.83222464950E+03  0.10566000000E+00 0.  1.
        994    1    1    2    0    0  0.12513463562E+03  0.86574562344E+02  0.95240870367E+02  0.24806066852E+03  0.17120000000E+03 0.  0.
        998    1    1    2    0    0  0.22216642907E+02  0.13016380037E+01  0.59041077895E+03  0.59091468199E+03  0.10000000000E+02 0.  1.
</event>
<event>
 5    1  0.1147307E-008  0.3791459E+03  0.7957747E-01  0.3454886E+00
         13   -1    0    0    0    0  0.00000000000E+00  0.00000000000E+00  0.14999999963E+04  0.15000000000E+04  0.10566000000E+00 0.  1.
        994   -1    0    0    0    0 -0.00000000000E+00 -0.00000000000E+00  0.11368683772E-12  0.17120000000E+03  0.17120000000E+03 0.  0.
         13    1    1    2    0    0  0.10785195508E+02 -0.35254971590E-01  0.11290297784E+02  0.15614213818E+02  0.10566000000E+00 0.  1.
        994    1    1    2    0    0  0.15016493176E+02  0.67264551828E+01  0.54730631298E+01  0.17207595615E+03  0.17120000000E+03 0.  0.
        998    1    1    2    0    0 -0.25801688684E+02 -0.66912002112E+01  0.14832366354E+04  0.14835098300E+04  0.10000000000E+02 0.  1.
</event>
<event>
 5    1  0.1147307E-008  0.3808534E+03  0.7957747E-01  0.3447451E+00
         13   -1    0    0    0    0  0.00000000000E+00  0.00000000000E+00  0.14999999963E+04  0.15000000000E+04  0.10566000000E+00 0. -1.
        994   -1    0    0    0    0 -0.00000000000E+00 -0.00000000000E+00  0.11368683772E-12  0.17120000000E+03  0.17120000000E+03 0.  0.
         13    1    1    2    0    0  0.10633028887E+02  0.10946453043E+02  0.30606313254E+02  0.34200054277E+02  0.10566000000E+00 0. -1.
        994    1    1    2    0    0  0.28816735965E+01 -0.87389991822E+01  0.39852662678E+01  0.17149342989E+03  0.17120000000E+03 0.  0.
        998    1    1    2    0    0 -0.13514702483E+02 -0.22074538609E+01  0.14654084168E+04  0.14655065158E+04  0.10000000000E+02 0. -1.
</event>
<event>
 5    1  0.1147307E-008  0.3746268E+03  0.7957747E-01  0.3474893E+00
         13   -1    0    0    0    0  0.00000000000E+00  0.00000000000E+00  0.14999999963E+04  0.15000000000E+04  0.10566000000E+00 0. -1.
        994   -1    0    0    0    0 -0.00000000000E+00 -0.00000000000E+00  0.11368683772E-12  0.17120000000E+03  0.17120000000E+03 0.  0.
         13    1    1    2    0    0 -0.35999937379E+02  0.35902234274E+02  0.17044637079E+03  0.17786776660E+03  0.10566000000E+00 0. -1.
        994    1    1    2    0    0 -0.12971562875E+02 -0.83132235923E+02  0.31360175951E+02  0.19331872834E+03  0.17120000000E+03 0.  0.
        998    1    1    2    0    0  0.48971500254E+02  0.47230001649E+02  0.12981934495E+04  0.13000135051E+04  0.10000000000E+02 0. -1.
</event>
<event>
 5    1  0.1147307E-008  0.3847201E+03  0.7957747E-01  0.3430860E+00
         13   -1    0    0    0    0  0.00000000000E+00  0.00000000000E+00  0.14999999963E+04  0.15000000000E+04  0.10566000000E+00 0. -1.
        994   -1    0    0    0    0 -0.00000000000E+00 -0.00000000000E+00  0.11368683772E-12  0.17120000000E+03  0.17120000000E+03 0.  0.
         13    1    1    2    0    0 -0.56715454398E+02 -0.26719870799E+02  0.10049011309E+03  0.11844352349E+03  0.10566000000E+00 0. -1.
        994    1    1    2    0    0  0.21421708949E+02  0.31545430910E+02  0.24324880745E+02  0.17707383671E+03  0.17120000000E+03 0.  0.
        998    1    1    2    0    0  0.35293745449E+02 -0.48255601104E+01  0.13751850024E+04  0.13756826398E+04  0.10000000000E+02 0. -1.
</event>
<event>
 5    1  0.1147307E-008  0.3827862E+03  0.7957747E-01  0.3439116E+00
         13   -1    0    0    0    0  0.00000000000E+00  0.00000000000E+00  0.14999999963E+04  0.15000000000E+04  0.10566000000E+00 0. -1.
        994   -1    0    0    0    0 -0.00000000000E+00 -0.00000000000E+00  0.11368683772E-12  0.17120000000E+03  0.17120000000E+03 0.  0.
         13    1    1    2    0    0  0.62462434534E+01  0.88496272262E+01  0.21534972657E+02  0.24105967533E+02  0.10566000000E+00 0. -1.
        994    1    1    2    0    0  0.32678232706E+01  0.88404344583E+01  0.30275642056E+01  0.17148597055E+03  0.17120000000E+03 0.  0.
        998    1    1    2    0    0 -0.95140667241E+01 -0.17690061684E+02  0.14754374594E+04  0.14756080619E+04  0.10000000000E+02 0. -1.
</event>
<event>
 5    1  0.1147307E-008  0.3739599E+03  0.7957747E-01  0.3477888E+00
         13   -1    0    0    0    0  0.00000000000E+00  0.00000000000E+00  0.14999999963E+04  0.15000000000E+04  0.10566000000E+00 0. -1.
        994   -1    0    0    0    0 -0.00000000000E+00 -0.00000000000E+00  0.11368683772E-12  0.17120000000E+03  0.17120000000E+03 0.  0.
         13    1    1    2    0    0  0.67290621382E+02  0.22071578671E+02  0.16541156742E+03  0.17993382148E+03  0.10566000000E+00 0. -1.
        994    1    1    2    0    0 -0.69018192982E+02 -0.26848458706E+02  0.32755693696E+02  0.18938512657E+03  0.17120000000E+03 0.  0.
        998    1    1    2    0    0  0.17275715998E+01  0.47768800350E+01  0.13018327352E+04  0.13018810520E+04  0.10000000000E+02 0. -1.
</event>
<event>
 5    1  0.1147307E-008  0.3810302E+03  0.7957747E-01  0.3446685E+00
         13   -1    0    0    0    0  0.00000000000E+00  0.00000000000E+00  0.14999999963E+04  0.15000000000E+04  0.10566000000E+00 0. -1.
        994   -1    0    0    0    0 -0.00000000000E+00 -0.00000000000E+00  0.11368683772E-12  0.17120000000E+03  0.17120000000E+03 0.  0.
         13    1    1    2    0    0 -0.13097446840E+02 -0.15909134653E+00  0.22501849744E+02  0.26036759202E+02  0.10566000000E+00 0. -1.
        994    1    1    2    0    0  0.56208524920E+01  0.92341078387E+01  0.40034253679E+01  0.17158767481E+03  0.17120000000E+03 0.  0.
        998    1    1    2    0    0  0.74765943475E+01 -0.90750164921E+01  0.14734947212E+04  0.14735755660E+04  0.10000000000E+02 0. -1.
</event>
<event>
 5    1  0.1147307E-008  0.3991740E+03  0.7957747E-01  0.3371696E+00
         13   -1    0    0    0    0  0.00000000000E+00  0.00000000000E+00  0.14999999963E+04  0.15000000000E+04  0.10566000000E+00 0. -1.
        994   -1    0    0    0    0 -0.00000000000E+00 -0.00000000000E+00  0.11368683772E-12  0.17120000000E+03  0.17120000000E+03 0.  0.
         13    1    1    2    0    0  0.26866884548E+02 -0.18659250566E+02  0.79867697987E+01  0.33671898860E+02  0.10566000000E+00 0. -1.
        994    1    1    2    0    0 -0.43781312261E+02  0.30972262617E+01  0.34838246217E+02  0.18013755720E+03  0.17120000000E+03 0.  0.
        998    1    1    2    0    0  0.16914427713E+02  0.15562024305E+02  0.14571749803E+04  0.14573905439E+04  0.10000000000E+02 0. -1.
</event>
<event>
 5    1  0.1147307E-008  0.3814646E+03  0.7957747E-01  0.3444806E+00
         13   -1    0    0    0    0  0.00000000000E+00  0.00000000000E+00  0.14999999963E+04  0.15000000000E+04  0.10566000000E+00 0.  1.
        994   -1    0    0    0    0 -0.00000000000E+00 -0.00000000000E+00  0.11368683772E-12  0.17120000000E+03  0.17120000000E+03 0.  0.
         13    1    1    2    0    0  0.75066836286E+01  0.14376334604E+02  0.37255781365E+02  0.40632914059E+02  0.10566000000E+00 0.  1.
        994    1    1    2    0    0 -0.66508929219E+01 -0.10717206116E+02  0.39251228304E+01  0.17170888001E+03  0.17120000000E+03 0.  0.
        998    1    1    2    0    0 -0.85579070671E+00 -0.36591284875E+01  0.14588190921E+04  0.14588582059E+04  0.10000000000E+02 0.  1.
</event>
<event>
 5    1  0.1147307E-008  0.3720497E+03  0.7957747E-01  0.3486524E+00
         13   -1    0    0    0    0  0.00000000000E+00  0.00000000000E+00  0.14999999963E+04  0.15000000000E+04  0.10566000000E+00 0.  1.
        994   -1    0    0    0    0 -0.00000000000E+00 -0.00000000000E+00  0.11368683772E-12  0.17120000000E+03  0.17120000000E+03 0.  0.
         13    1    1    2    0    0 -0.29474242423E+02  0.38143400362E+02  0.98918464539E+02  0.11003873749E+03  0.10566000000E+00 0.  1.
        994    1    1    2    0    0  0.20218349692E+02  0.14975624920E+01  0.13475347907E+02  0.17292209043E+03  0.17120000000E+03 0.  0.
        998    1    1    2    0    0  0.92558927300E+01 -0.39640962854E+02  0.13876061838E+04  0.13882391721E+04  0.10000000000E+02 0.  1.
</event>
<event>
 5    1  0.1147307E-008  0.3764873E+03  0.7957747E-01  0.3466598E+00
         13   -1    0    0    0    0  0.00000000000E+00  0.00000000000E+00  0.14999999963E+04  0.15000000000E+04  0.10566000000E+00 0. -1.
        994   -1    0    0    0    0 -0.00000000000E+00 -0.00000000000E+00  0.11368683772E-12  0.17120000000E+03  0.17120000000E+03 0.  0.
         13    1    1    2    0    0 -0.11664110722E+02  0.15393746478E+02  0.28411845339E+02  0.34354956399E+02  0.10566000000E+00 0. -1.
        994    1    1    2    0    0  0.70715249606E+01 -0.21943116699E+02  0.77167118355E+01  0.17291759447E+03  0.17120000000E+03 0.  0.
        998    1    1    2    0    0  0.45925857618E+01  0.65493702209E+01  0.14638714391E+04  0.14639274491E+04  0.10000000000E+02 0. -1.
</event>
<event>
 5    1  0.1147307E-008  0.3839402E+03  0.7957747E-01  0.3434179E+00
         13   -1    0    0    0    0  0.00000000000E+00  0.00000000000E+00  0.14999999963E+04  0.15000000000E+04  0.10566000000E+00 0. -1.
        994   -1    0    0    0    0 -0.00000000000E+00 -0.00000000000E+00  0.11368683772E-12  0.17120000000E+03  0.17120000000E+03 0.  0.
         13    1    1    2    0    0 -0.18711459872E+02  0.51748507896E+01  0.90266376115E+02  0.92330534669E+02  0.10566000000E+00 0. -1.
        994    1    1    2    0    0  0.50190611757E+01 -0.66420027854E+01  0.23859538080E+01  0.17141890197E+03  0.17120000000E+03 0.  0.
        998    1    1    2    0    0  0.13692398697E+02  0.14671519959E+01  0.14073476664E+04  0.14074505634E+04  0.10000000000E+02 0. -1.
</event>
<event>
 5    1  0.1147307E-008  0.3785289E+03  0.7957747E-01  0.3457589E+00
         13   -1    0    0    0    0  0.00000000000E+00  0.00000000000E+00  0.14999999963E+04  0.15000000000E+04  0.10566000000E+00 0.  1.
        994   -1    0    0    0    0 -0.00000000000E+00 -0.00000000000E+00  0.11368683772E-12  0.17120000000E+03  0.17120000000E+03 0.  0.
         13    1    1    2    0    0 -0.16786725507E+02 -0.11400539597E+01  0.27227220669E+02  0.32006664707E+02  0.10566000000E+00 0.  1.
        994    1    1    2    0    0  0.96700756264E+01 -0.12398754509E+02  0.57085610814E+01  0.17201531079E+03  0.17120000000E+03 0.  0.
        998    1    1    2    0    0  0.71166498802E+01  0.13538808469E+02  0.14670642145E+04  0.14671780245E+04  0.10000000000E+02 0.  1.
</event>
<event>
 5    1  0.1147307E-008  0.3858533E+03  0.7957747E-01  0.3426061E+00
         13   -1    0    0    0    0  0.00000000000E+00  0.00000000000E+00  0.14999999963E+04  0.15000000000E+04  0.10566000000E+00 0. -1.
        994   -1    0    0    0    0 -0.00000000000E+00 -0.00000000000E+00  0.11368683772E-12  0.17120000000E+03  0.17120000000E+03 0.  0.
         13    1    1    2    0    0 -0.44640579111E+01 -0.11133904032E+02  0.60077183893E+02  0.61263127741E+02  0.10566000000E+00 0. -1.
        994    1    1    2    0    0 -0.26931247550E+01  0.10012344399E+02  0.15597094454E+01  0.17152076450E+03  0.17120000000E+03 0.  0.
        998    1    1    2    0    0  0.71571826662E+01  0.11215596333E+01  0.14383631029E+04  0.14384161078E+04  0.10000000000E+02 0. -1.
</event>
<event>
 5    1  0.1147307E-008  0.4331535E+03  0.7957747E-01  0.3248032E+00
         13   -1    0    0    0    0  0.00000000000E+00  0.00000000000E+00  0.14999999963E+04  0.15000000000E+04  0.10566000000E+00 0. -1.
        994   -1    0    0    0    0 -0.00000000000E+00 -0.00000000000E+00  0.11368683772E-12  0.17120000000E+03  0.17120000000E+03 0.  0.
         13    1    1    2    0    0  0.47585319107E+02  0.10822793865E+03  0.12202763970E+03  0.16990704904E+03  0.10566000000E+00 0. -1.
        994    1    1    2    0    0 -0.50865713443E+02 -0.94737293038E+02  0.10426580113E+03  0.22747147685E+03  0.17120000000E+03 0.  0.
        998    1    1    2    0    0  0.32803943362E+01 -0.13490645610E+02  0.12737065555E+04  0.12738214741E+04  0.10000000000E+02 0. -1.
</event>
<event>
 5    1  0.1147307E-008  0.3845566E+03  0.7957747E-01  0.3431555E+00
         13   -1    0    0    0    0  0.00000000000E+00  0.00000000000E+00  0.14999999963E+04  0.15000000000E+04  0.10566000000E+00 0. -1.
        994   -1    0    0    0    0 -0.00000000000E+00 -0.00000000000E+00  0.11368683772E-12  0.17120000000E+03  0.17120000000E+03 0.  0.
         13    1    1    2    0    0  0.87104141619E+01  0.18320186325E+02  0.10610157467E+03  0.10802340419E+03  0.10566000000E+00 0. -1.
        994    1    1    2    0    0  0.16018505054E+02 -0.29629288310E+02  0.55956971630E+01  0.17457158720E+03  0.17120000000E+03 0.  0.
        998    1    1    2    0    0 -0.24728919216E+02  0.11309101985E+02  0.13883027244E+04  0.13886050086E+04  0.10000000000E+02 0. -1.
</event>
<event>
 5    1  0.1147307E-008  0.3735673E+03  0.7957747E-01  0.3479655E+00
         13   -1    0    0    0    0  0.00000000000E+00  0.00000000000E+00  0.14999999963E+04  0.15000000000E+04  0.10566000000E+00 0. -1.
        994   -1    0    0    0    0 -0.00000000000E+00 -0.00000000000E+00  0.11368683772E-12  0.17120000000E+03  0.17120000000E+03 0.  0.
         13    1    1    2    0    0 -0.14544742378E+02  0.70810674111E+01  0.14131917389E+02  0.21480533040E+02  0.10566000000E+00 0. -1.
        994    1    1    2    0    0  0.19216781436E+02 -0.44868151236E+01  0.87475563458E+01  0.17255542860E+03  0.17120000000E+03 0.  0.
        998    1    1    2    0    0 -0.46720390577E+01 -0.25942522875E+01  0.14771205225E+04  0.14771640384E+04  0.10000000000E+02 0. -1.
</event>
<event>
 5    1  0.1147307E-008  0.3727588E+03  0.7957747E-01  0.3483307E+00
         13   -1    0    0    0    0  0.00000000000E+00  0.00000000000E+00  0.14999999963E+04  0.15000000000E+04  0.10566000000E+00 0.  1.
        994   -1    0    0    0    0 -0.00000000000E+00 -0.00000000000E+00  0.11368683772E-12  0.17120000000E+03  0.17120000000E+03 0.  0.
         13    1    1    2    0    0  0.66478372232E+02  0.19255402285E+02  0.24750145648E+03  0.25699635525E+03  0.10566000000E+00 0.  1.
        994    1    1    2    0    0 -0.73764527654E+02 -0.78410721634E+01  0.26923039236E+02  0.18851254068E+03  0.17120000000E+03 0.  0.
        998    1    1    2    0    0  0.72861554222E+01 -0.11414330122E+02  0.12255755006E+04  0.12256911041E+04  0.10000000000E+02 0.  1.
</event>
<event>
 5    1  0.1147307E-008  0.3791453E+03  0.7957747E-01  0.3454888E+00
         13   -1    0    0    0    0  0.00000000000E+00  0.00000000000E+00  0.14999999963E+04  0.15000000000E+04  0.10566000000E+00 0.  1.
        994   -1    0    0    0    0 -0.00000000000E+00 -0.00000000000E+00  0.11368683772E-12  0.17120000000E+03  0.17120000000E+03 0.  0.
         13    1    1    2    0    0  0.17702309653E+02 -0.85822745905E+01  0.39110126924E+02  0.43779451758E+02  0.10566000000E+00 0.  1.
        994    1    1    2    0    0 -0.22828605774E+02  0.92352253830E+01  0.66008546703E+01  0.17308797160E+03  0.17120000000E+03 0.  0.
        998    1    1    2    0    0  0.51262961211E+01 -0.65295079245E+00  0.14542890147E+04  0.14543325766E+04  0.10000000000E+02 0.  1.
</event>
<event>
 5    1  0.1147307E-008  0.3857388E+03  0.7957747E-01  0.3426545E+00
         13   -1    0    0    0    0  0.00000000000E+00  0.00000000000E+00  0.14999999963E+04  0.15000000000E+04  0.10566000000E+00 0. -1.
        994   -1    0    0    0    0 -0.00000000000E+00 -0.00000000000E+00  0.11368683772E-12  0.17120000000E+03  0.17120000000E+03 0.  0.
         13    1    1    2    0    0  0.19306211601E+01 -0.11354608001E+02  0.51512257420E+02  0.52784261380E+02  0.10566000000E+00 0. -1.
        994    1    1    2    0    0 -0.40774452297E+01  0.11367449323E+02  0.17424167237E+01  0.17163426371E+03  0.17120000000E+03 0.  0.
        998    1    1    2    0    0  0.21468240696E+01 -0.12841321789E-01  0.14467453221E+04  0.14467814749E+04  0.10000000000E+02 0. -1.
</event>
<event>
 5    1  0.1147307E-008  0.3770839E+03  0.7957747E-01  0.3463955E+00
         13   -1    0    0    0    0  0.00000000000E+00  0.00000000000E+00  0.14999999963E+04  0.15000000000E+04  0.10566000000E+00 0. -1.
        994   -1    0    0    0    0 -0.00000000000E+00 -0.00000000000E+00  0.11368683772E-12  0.17120000000E+03  0.17120000000E+03 0.  0.
         13    1    1    2    0    0 -0.14933175555E+02  0.42099497377E+01  0.19059075911E+02  0.24576064525E+02  0.10566000000E+00 0. -1.
        994    1    1    2    0    0  0.10407324089E+02 -0.20410275071E+01  0.59922429842E+01  0.17163282077E+03  0.17120000000E+03 0.  0.
        998    1    1    2    0    0  0.45258514660E+01 -0.21689222306E+01  0.14749486774E+04  0.14749911147E+04  0.10000000000E+02 0. -1.
</event>
<event>
 5    1  0.1147307E-008  0.3825551E+03  0.7957747E-01  0.3440108E+00
         13   -1    0    0    0    0  0.00000000000E+00  0.00000000000E+00  0.14999999963E+04  0.15000000000E+04  0.10566000000E+00 0. -1.
        994   -1    0    0    0    0 -0.00000000000E+00 -0.00000000000E+00  0.11368683772E-12  0.17120000000E+03  0.17120000000E+03 0.  0.
         13    1    1    2    0    0  0.84712417256E+01  0.11015111269E+02  0.31138901593E+02  0.34098929149E+02  0.10566000000E+00 0. -1.
        994    1    1    2    0    0 -0.52493840694E+01 -0.27335619273E+02  0.54215128996E+01  0.17353277764E+03  0.17120000000E+03 0.  0.
        998    1    1    2    0    0 -0.32218576562E+01  0.16320508004E+02  0.14634395818E+04  0.14635682932E+04  0.10000000000E+02 0. -1.
</event>
<event>
 5    1  0.1147307E-008  0.3779411E+03  0.7957747E-01  0.3460173E+00
         13   -1    0    0    0    0  0.00000000000E+00  0.00000000000E+00  0.14999999963E+04  0.15000000000E+04  0.10566000000E+00 0.  1.
        994   -1    0    0    0    0 -0.00000000000E+00 -0.00000000000E+00  0.11368683772E-12  0.17120000000E+03  0.17120000000E+03 0.  0.
         13    1    1    2    0    0  0.15521344057E+02  0.26944434546E+02  0.10103902926E+03  0.10571570968E+03  0.10566000000E+00 0.  1.
        994    1    1    2    0    0 -0.29595321274E+01  0.36797525490E+01  0.52511503066E+01  0.17134559810E+03  0.17120000000E+03 0.  0.
        998    1    1    2    0    0 -0.12561811930E+02 -0.30624187095E+02  0.13937098167E+04  0.13941386922E+04  0.10000000000E+02 0.  1.
</event>
<event>
 5    1  0.1147307E-008  0.3793059E+03  0.7957747E-01  0.3454186E+00
         13   -1    0    0    0    0  0.00000000000E+00  0.00000000000E+00  0.14999999963E+04  0.15000000000E+04  0.10566000000E+00 0.  1.
        994   -1    0    0    0    0 -0.00000000000E+00 -0.00000000000E+00  0.11368683772E-12  0.17120000000E+03  0.17120000000E+03 0.  0.
         13    1    1    2    0    0 -0.39301562668E+01 -0.10441717301E+02  0.10639240008E+02  0.15416879725E+02  0.10566000000E+00 0.  1.
        994    1    1    2    0    0  0.55376276346E+02  0.35528530229E+02  0.19127338610E+02  0.18440201605E+03  0.17120000000E+03 0.  0.
        998    1    1    2    0    0 -0.51446120080E+02 -0.25086812928E+02  0.14702334177E+04  0.14713811042E+04  0.10000000000E+02 0.  1.
</event>
<event>
 5    1  0.1147307E-008  0.3686001E+03  0.7957747E-01  0.3502349E+00
         13   -1    0    0    0    0  0.00000000000E+00  0.00000000000E+00  0.14999999963E+04  0.15000000000E+04  0.10566000000E+00 0. -1.
        994   -1    0    0    0    0 -0.00000000000E+00 -0.00000000000E+00  0.11368683772E-12  0.17120000000E+03  0.17120000000E+03 0.  0.
         13    1    1    2    0    0 -0.98163815906E+02  0.10236413104E+03  0.77536653101E+03  0.78823081559E+03  0.10566000000E+00 0. -1.
        994    1    1    2    0    0  0.11286826563E+03 -0.46946187627E+02  0.64150791799E+02  0.21992715614E+03  0.17120000000E+03 0.  0.
        998    1    1    2    0    0 -0.14704449727E+02 -0.55417943411E+02  0.66048267347E+03  0.66304202827E+03  0.10000000000E+02 0. -1.
</event>
<event>
 5    1  0.1147307E-008  0.3839338E+03  0.7957747E-01  0.3434207E+00
         13   -1    0    0    0    0  0.00000000000E+00  0.00000000000E+00  0.14999999963E+04  0.15000000000E+04  0.10566000000E+00 0. -1.
        994   -1    0    0    0    0 -0.00000000000E+00 -0.00000000000E+00  0.11368683772E-12  0.17120000000E+03  0.17120000000E+03 0.  0.
         13    1    1    2    0    0 -0.20212417269E+02 -0.94553968413E+01  0.10123067515E+03  0.10366102014E+03  0.10566000000E+00 0. -1.
        994    1    1    2    0    0  0.30228929788E+02  0.11902360567E+02  0.56512584330E+01  0.17434687008E+03  0.17120000000E+03 0.  0.
        998    1    1    2    0    0 -0.10016512519E+02 -0.24469637257E+01  0.13931180627E+04  0.13931921098E+04  0.10000000000E+02 0. -1.
</event>
<event>
 5    1  0.1147307E-008  0.3688586E+03  0.7957747E-01  0.3501153E+00
         13   -1    0    0    0    0  0.00000000000E+00  0.00000000000E+00  0.14999999963E+04  0.15000000000E+04  0.10566000000E+00 0.  1.
        994   -1    0    0    0    0 -0.00000000000E+00 -0.00000000000E+00  0.11368683772E-12  0.17120000000E+03  0.17120000000E+03 0.  0.
         13    1    1    2    0    0  0.49549636398E+02 -0.40571977811E+02  0.28808958457E+03  0.29512179139E+03  0.10566000000E+00 0.  1.
        994    1    1    2    0    0  0.41725393946E+02  0.18136670514E+02  0.17579126883E+02  0.17801239569E+03  0.17120000000E+03 0.  0.
        998    1    1    2    0    0 -0.91275030344E+02  0.22435307297E+02  0.11943312848E+04  0.11980658129E+04  0.10000000000E+02 0.  1.
</event>
<event>
 5    1  0.1147307E-008  0.3737519E+03  0.7957747E-01  0.3478824E+00
         13   -1    0    0    0    0  0.00000000000E+00  0.00000000000E+00  0.14999999963E+04  0.15000000000E+04  0.10566000000E+00 0. -1.
        994   -1    0    0    0    0 -0.00000000000E+00 -0.00000000000E+00  0.11368683772E-12  0.17120000000E+03  0.17120000000E+03 0.  0.
         13    1    1    2    0    0  0.11591963418E+02 -0.12409266257E+02  0.16607766693E+02  0.23752738441E+02  0.10566000000E+00 0. -1.
        994    1    1    2    0    0 -0.31825955968E+01  0.10192510613E+02  0.77103448643E+01  0.17170586945E+03  0.17120000000E+03 0.  0.
        998    1    1    2    0    0 -0.84093678208E+01  0.22167556433E+01  0.14756818847E+04  0.14757413921E+04  0.10000000000E+02 0. -1.
</event>
<event>
 5    1  0.1147307E-008  0.3852526E+03  0.7957747E-01  0.3428602E+00
         13   -1    0    0    0    0  0.00000000000E+00  0.00000000000E+00  0.14999999963E+04  0.15000000000E+04  0.10566000000E+00 0. -1.
        994   -1    0    0    0    0 -0.00000000000E+00 -0.00000000000E+00  0.11368683772E-12  0.17120000000E+03  0.17120000000E+03 0.  0.
         13    1    1    2    0    0  0.15857030038E+01  0.13880736276E+02  0.63032588605E+02  0.64562432450E+02  0.10566000000E+00 0. -1.
        994    1    1    2    0    0  0.74106620258E+01 -0.15094328211E+02  0.24344671548E+01  0.17204105117E+03  0.17120000000E+03 0.  0.
        998    1    1    2    0    0 -0.89963650296E+01  0.12135919353E+01  0.14345329405E+04  0.14345965164E+04  0.10000000000E+02 0. -1.
</event>
<event>
 5    1  0.1147307E-008  0.3772322E+03  0.7957747E-01  0.3463300E+00
         13   -1    0    0    0    0  0.00000000000E+00  0.00000000000E+00  0.14999999963E+04  0.15000000000E+04  0.10566000000E+00 0.  1.
        994   -1    0    0    0    0 -0.00000000000E+00 -0.00000000000E+00  0.11368683772E-12  0.17120000000E+03  0.17120000000E+03 0.  0.
         13    1    1    2    0    0  0.20644310906E+02 -0.23417728879E+02  0.97037271055E+02  0.10193537529E+03  0.10566000000E+00 0.  1.
        994    1    1    2    0    0  0.37803832739E+02  0.25139263235E+02  0.12522473317E+02  0.17755946796E+03  0.17120000000E+03 0.  0.
        998    1    1    2    0    0 -0.58448143645E+02 -0.17215343558E+01  0.13904402519E+04  0.13917051567E+04  0.10000000000E+02 0.  1.
</event>
<event>
 5    1  0.1147307E-008  0.3746045E+03  0.7957747E-01  0.3474994E+00
         13   -1    0    0    0    0  0.00000000000E+00  0.00000000000E+00  0.14999999963E+04  0.15000000000E+04  0.10566000000E+00 0. -1.
        994   -1    0    0    0    0 -0.00000000000E+00 -0.00000000000E+00  0.11368683772E-12  0.17120000000E+03  0.17120000000E+03 0.  0.
         13    1    1    2    0    0  0.32811187394E+02  0.43224434064E+01  0.81063921653E+02  0.87559283306E+02  0.10566000000E+00 0. -1.
        994    1    1    2    0    0 -0.81178901704E+01  0.43411897394E+01  0.71704954045E+01  0.17159720882E+03  0.17120000000E+03 0.  0.
        998    1    1    2    0    0 -0.24693297224E+02 -0.86636331458E+01  0.14117655792E+04  0.14120435079E+04  0.10000000000E+02 0. -1.
</event>
<event>
 5    1  0.1147307E-008  0.3839662E+03  0.7957747E-01  0.3434069E+00
         13   -1    0    0    0    0  0.00000000000E+00  0.00000000000E+00  0.14999999963E+04  0.15000000000E+04  0.10566000000E+00 0. -1.
        994   -1    0    0    0    0 -0.00000000000E+00 -0.00000000000E+00  0.11368683772E-12  0.17120000000E+03  0.17120000000E+03 0.  0.
         13    1    1    2    0    0  0.21725526841E+01  0.16633894990E+02  0.93011401437E+02  0.94512107208E+02  0.10566000000E+00 0. -1.
        994    1    1    2    0    0  0.13335515835E+02  0.37453205079E+02  0.73772634991E+01  0.17591032536E+03  0.17120000000E+03 0.  0.
        998    1    1    2    0    0 -0.15508068519E+02 -0.54087100068E+02  0.13996113313E+04  0.14007775674E+04  0.10000000000E+02 0. -1.
</event>
<event>
 5    1  0.1147307E-008  0.3832783E+03  0.7957747E-01  0.3437007E+00
         13   -1    0    0    0    0  0.00000000000E+00  0.00000000000E+00  0.14999999963E+04  0.15000000000E+04  0.10566000000E+00 0. -1.
        994   -1    0    0    0    0 -0.00000000000E+00 -0.00000000000E+00  0.11368683772E-12  0.17120000000E+03  0.17120000000E+03 0.  0.
         13    1    1    2    0    0 -0.26699525259E+02 -0.15695966875E+01  0.13173960366E+03  0.13442716474E+03  0.10566000000E+00 0. -1.
        994    1    1    2    0    0  0.27480966345E+02 -0.14270989913E+00  0.49889391148E+01  0.17346340649E+03  0.17120000000E+03 0.  0.
        998    1    1    2    0    0 -0.78144108569E+00  0.17123065867E+01  0.13632714535E+04  0.13633094288E+04  0.10000000000E+02 0. -1.
</event>
<event>
 5    1  0.1147307E-008  0.3731336E+03  0.7957747E-01  0.3481612E+00
         13   -1    0    0    0    0  0.00000000000E+00  0.00000000000E+00  0.14999999963E+04  0.15000000000E+04  0.10566000000E+00 0.  1.
        994   -1    0    0    0    0 -0.00000000000E+00 -0.00000000000E+00  0.11368683772E-12  0.17120000000E+03  0.17120000000E+03 0.  0.
         13    1    1    2    0    0 -0.10303671907E+03 -0.13761533028E+02  0.46224692556E+03  0.47379127960E+03  0.10566000000E+00 0.  1.
        994    1    1    2    0    0  0.10369496409E+03  0.50365908560E+02  0.54561317566E+02  0.21348477158E+03  0.17120000000E+03 0.  0.
        998    1    1    2    0    0 -0.65824502223E+00 -0.36604375532E+02  0.98319175315E+03  0.98392394882E+03  0.10000000000E+02 0.  1.
</event>
<event>
 5    1  0.1147307E-008  0.3715135E+03  0.7957747E-01  0.3488964E+00
         13   -1    0    0    0    0  0.00000000000E+00  0.00000000000E+00  0.14999999963E+04  0.15000000000E+04  0.10566000000E+00 0. -1.
        994   -1    0    0    0    0 -0.00000000000E+00 -0.00000000000E+00  0.11368683772E-12  0.17120000000E+03  0.17120000000E+03 0.  0.
         13    1    1    2    0    0  0.79542857412E+02  0.49363852223E+02  0.38030676540E+03  0.39165942226E+03  0.10566000000E+00 0. -1.
        994    1    1    2    0    0 -0.71098630371E+02 -0.62982387611E+02  0.40182518570E+02  0.19986463216E+03  0.17120000000E+03 0.  0.
        998    1    1    2    0    0 -0.84442270405E+01  0.13618535388E+02  0.10795107123E+04  0.10796759456E+04  0.10000000000E+02 0. -1.
</event>
<event>
 5    1  0.1147307E-008  0.3696731E+03  0.7957747E-01  0.3497395E+00
         13   -1    0    0    0    0  0.00000000000E+00  0.00000000000E+00  0.14999999963E+04  0.15000000000E+04  0.10566000000E+00 0. -1.
        994   -1    0    0    0    0 -0.00000000000E+00 -0.00000000000E+00  0.11368683772E-12  0.17120000000E+03  0.17120000000E+03 0.  0.
         13    1    1    2    0    0 -0.51862930806E+02  0.61959231135E+02  0.29547350078E+03  0.30632223351E+03  0.10566000000E+00 0. -1.
        994    1    1    2    0    0  0.47070344402E+02 -0.51960479679E+02  0.26653371218E+02  0.18691000767E+03  0.17120000000E+03 0.  0.
        998    1    1    2    0    0  0.47925864038E+01 -0.99987514564E+01  0.11778731243E+04  0.11779677588E+04  0.10000000000E+02 0. -1.
</event>
<event>
 5    1  0.1147307E-008  0.2410885E+03  0.7957747E-01  0.4433586E+00
         13   -1    0    0    0    0  0.00000000000E+00  0.00000000000E+00  0.14999999963E+04  0.15000000000E+04  0.10566000000E+00 0. -1.
        994   -1    0    0    0    0 -0.00000000000E+00 -0.00000000000E+00  0.11368683772E-12  0.17120000000E+03  0.17120000000E+03 0.  0.
         13    1    1    2    0    0  0.11172809729E+02  0.95942653040E+02  0.18722670031E+01  0.96609217456E+02  0.10566000000E+00 0. -1.
        994    1    1    2    0    0 -0.77716954710E+02 -0.98311804114E+02  0.26428279773E+03  0.33890997780E+03  0.17120000000E+03 0.  0.
        998    1    1    2    0    0  0.66544144981E+02  0.23691510742E+01  0.12338449315E+04  0.12356808047E+04  0.10000000000E+02 0. -1.
</event>
<event>
 5    1  0.1147307E-008  0.3842249E+03  0.7957747E-01  0.3432966E+00
         13   -1    0    0    0    0  0.00000000000E+00  0.00000000000E+00  0.14999999963E+04  0.15000000000E+04  0.10566000000E+00 0.  1.
        994   -1    0    0    0    0 -0.00000000000E+00 -0.00000000000E+00  0.11368683772E-12  0.17120000000E+03  0.17120000000E+03 0.  0.
         13    1    1    2    0    0  0.48765007532E+02  0.17341669708E+03  0.10578174408E+04  0.10730466560E+04  0.10566000000E+00 0.  1.
        994    1    1    2    0    0 -0.44189341709E+02 -0.18785959207E+03  0.13637469575E+03  0.29180716559E+03  0.17120000000E+03 0.  0.
        998    1    1    2    0    0 -0.45756658222E+01  0.14442894984E+02  0.30580785977E+03  0.30634617842E+03  0.10000000000E+02 0.  1.
</event>
<event>
 5    1  0.1147307E-008  0.3763007E+03  0.7957747E-01  0.3467426E+00
         13   -1    0    0    0    0  0.00000000000E+00  0.00000000000E+00  0.14999999963E+04  0.15000000000E+04  0.10566000000E+00 0. -1.
        994   -1    0    0    0    0 -0.00000000000E+00 -0.00000000000E+00  0.11368683772E-12  0.17120000000E+03  0.17120000000E+03 0.  0.
         13    1    1    2    0    0  0.30715010194E+02  0.23463591115E+02  0.11397102329E+03  0.12034682079E+03  0.10566000000E+00 0. -1.
        994    1    1    2    0    0 -0.31227873277E+02 -0.21922413197E+02  0.10955042153E+02  0.17574192789E+03  0.17120000000E+03 0.  0.
        998    1    1    2    0    0  0.51286308242E+00 -0.15411779180E+01  0.13750739308E+04  0.13751112513E+04  0.10000000000E+02 0.  0.
</event>
<event>
 5    1  0.1147307E-008  0.3716213E+03  0.7957747E-01  0.3488473E+00
         13   -1    0    0    0    0  0.00000000000E+00  0.00000000000E+00  0.14999999963E+04  0.15000000000E+04  0.10566000000E+00 0. -1.
        994   -1    0    0    0    0 -0.00000000000E+00 -0.00000000000E+00  0.11368683772E-12  0.17120000000E+03  0.17120000000E+03 0.  0.
         13    1    1    2    0    0  0.13899359081E+02  0.12904733546E+01  0.76626333852E+01  0.15924340451E+02  0.10566000000E+00 0. -1.
        994    1    1    2    0    0 -0.14213946230E+02 -0.78976897308E+01  0.93337717649E+01  0.17222360194E+03  0.17120000000E+03 0.  0.
        998    1    1    2    0    0  0.31458714829E+00  0.66072163762E+01  0.14830035911E+04  0.14830520576E+04  0.10000000000E+02 0. -1.
</event>
<event>
 5    1  0.1147307E-008  0.3852558E+03  0.7957747E-01  0.3428588E+00
         13   -1    0    0    0    0  0.00000000000E+00  0.00000000000E+00  0.14999999963E+04  0.15000000000E+04  0.10566000000E+00 0.  1.
        994   -1    0    0    0    0 -0.00000000000E+00 -0.00000000000E+00  0.11368683772E-12  0.17120000000E+03  0.17120000000E+03 0.  0.
         13    1    1    2    0    0 -0.28818502024E+01  0.16252054998E+02  0.93976613970E+02  0.95415142874E+02  0.10566000000E+00 0.  1.
        994    1    1    2    0    0  0.22066356552E+01 -0.61197836147E+01  0.16422669115E+01  0.17133142745E+03  0.17120000000E+03 0.  0.
        998    1    1    2    0    0  0.67521454719E+00 -0.10132271384E+02  0.14043811154E+04  0.14044534297E+04  0.10000000000E+02 0.  1.
</event>
<event>
 5    1  0.1147307E-008  0.3816972E+03  0.7957747E-01  0.3443802E+00
         13   -1    0    0    0    0  0.00000000000E+00  0.00000000000E+00  0.14999999963E+04  0.15000000000E+04  0.10566000000E+00 0.  1.
        994   -1    0    0    0    0 -0.00000000000E+00 -0.00000000000E+00  0.11368683772E-12  0.17120000000E+03  0.17120000000E+03 0.  0.
         13    1    1    2    0    0  0.85439452641E+02  0.68417126741E+02  0.27309971304E+03  0.29421806152E+03  0.10566000000E+00 0.  1.
        994    1    1    2    0    0 -0.93602792773E+02 -0.60950485566E+02  0.64306261622E+02  0.21429227655E+03  0.17120000000E+03 0.  0.
        998    1    1    2    0    0  0.81633401318E+01 -0.74666411742E+01  0.11625940216E+04  0.11626896619E+04  0.10000000000E+02 0.  0.
</event>
<event>
 5    1  0.1147307E-008  0.3752712E+03  0.7957747E-01  0.3472011E+00
         13   -1    0    0    0    0  0.00000000000E+00  0.00000000000E+00  0.14999999963E+04  0.15000000000E+04  0.10566000000E+00 0.  1.
        994   -1    0    0    0    0 -0.00000000000E+00 -0.00000000000E+00  0.11368683772E-12  0.17120000000E+03  0.17120000000E+03 0.  0.
         13    1    1    2    0    0  0.25502239459E+02  0.24804489394E+02  0.91570441922E+02  0.98238403434E+02  0.10566000000E+00 0.  1.
        994    1    1    2    0    0 -0.15032425883E+02 -0.26825075929E+02  0.97574560034E+01  0.17421310649E+03  0.17120000000E+03 0.  0.
        998    1    1    2    0    0 -0.10469813576E+02  0.20205865352E+01  0.13986720984E+04  0.13987484901E+04  0.10000000000E+02 0.  1.
</event>
<event>
 5    1  0.1147307E-008  0.3800244E+03  0.7957747E-01  0.3451052E+00
         13   -1    0    0    0    0  0.00000000000E+00  0.00000000000E+00  0.14999999963E+04  0.15000000000E+04  0.10566000000E+00 0. -1.
        994   -1    0    0    0    0 -0.00000000000E+00 -0.00000000000E+00  0.11368683772E-12  0.17120000000E+03  0.17120000000E+03 0.  0.
         13    1    1    2    0    0 -0.14430467340E+01 -0.26846797417E+02  0.90645455800E+02  0.94548626308E+02  0.10566000000E+00 0. -1.
        994    1    1    2    0    0  0.16394443569E+02  0.58628213423E+01  0.51348158801E+01  0.17215968398E+03  0.17120000000E+03 0.  0.
        998    1    1    2    0    0 -0.14951396835E+02  0.20983976075E+02  0.14042197246E+04  0.14044916897E+04  0.10000000000E+02 0. -1.
</event>
<event>
 5    1  0.1147307E-008  0.3814604E+03  0.7957747E-01  0.3444824E+00
         13   -1    0    0    0    0  0.00000000000E+00  0.00000000000E+00  0.14999999963E+04  0.15000000000E+04  0.10566000000E+00 0.  1.
        994   -1    0    0    0    0 -0.00000000000E+00 -0.00000000000E+00  0.11368683772E-12  0.17120000000E+03  0.17120000000E+03 0.  0.
         13    1    1    2    0    0 -0.14490963984E+02  0.46091705564E+01  0.33016985497E+02  0.36350584393E+02  0.10566000000E+00 0.  1.
        994    1    1    2    0    0  0.68941929250E+01 -0.46012145867E+01  0.36263668358E+01  0.17143888593E+03  0.17120000000E+03 0.  0.
        998    1    1    2    0    0  0.75967710589E+01 -0.79559697200E-02  0.14633566439E+04  0.14634105297E+04  0.10000000000E+02 0.  1.
</event>
<event>
 5    1  0.1147307E-008  0.3839756E+03  0.7957747E-01  0.3434028E+00
         13   -1    0    0    0    0  0.00000000000E+00  0.00000000000E+00  0.14999999963E+04  0.15000000000E+04  0.10566000000E+00 0.  1.
        994   -1    0    0    0    0 -0.00000000000E+00 -0.00000000000E+00  0.11368683772E-12  0.17120000000E+03  0.17120000000E+03 0.  0.
         13    1    1    2    0    0  0.14036024644E+01 -0.31727170946E+02  0.18947212491E+03  0.19211527986E+03  0.10566000000E+00 0.  1.
        994    1    1    2    0    0 -0.45919232719E+01  0.41713073694E+02  0.79721831797E+01  0.17644846834E+03  0.17120000000E+03 0.  0.
        998    1    1    2    0    0  0.31883208075E+01 -0.99859027475E+01  0.13025556882E+04  0.13026362518E+04  0.10000000000E+02 0.  1.
</event>
<event>
 5    1  0.1147307E-008  0.3743764E+03  0.7957747E-01  0.3476016E+00
         13   -1    0    0    0    0  0.00000000000E+00  0.00000000000E+00  0.14999999963E+04  0.15000000000E+04  0.10566000000E+00 0. -1.
        994   -1    0    0    0    0 -0.00000000000E+00 -0.00000000000E+00  0.11368683772E-12  0.17120000000E+03  0.17120000000E+03 0.  0.
         13    1    1    2    0    0 -0.74590938133E+02  0.14380419431E+03  0.85500848143E+03  0.87022006919E+03  0.10566000000E+00 0. -1.
        994    1    1    2    0    0  0.70376822582E+02 -0.13475347422E+03  0.90317828140E+02  0.24612628070E+03  0.17120000000E+03 0.  0.
        998    1    1    2    0    0  0.42141155513E+01 -0.90507200848E+01  0.55467368671E+03  0.55485365011E+03  0.10000000000E+02 0.  0.
</event>
<event>
 5    1  0.1147307E-008  0.3752362E+03  0.7957747E-01  0.3472167E+00
         13   -1    0    0    0    0  0.00000000000E+00  0.00000000000E+00  0.14999999963E+04  0.15000000000E+04  0.10566000000E+00 0.  1.
        994   -1    0    0    0    0 -0.00000000000E+00 -0.00000000000E+00  0.11368683772E-12  0.17120000000E+03  0.17120000000E+03 0.  0.
         13    1    1    2    0    0  0.29129643301E+02  0.80793830283E+00  0.25902031441E+02  0.38988655786E+02  0.10566000000E+00 0.  1.
        994    1    1    2    0    0 -0.11359408339E+02  0.62859648667E+01  0.14335230291E+02  0.17228896755E+03  0.17120000000E+03 0.  0.
        998    1    1    2    0    0 -0.17770234962E+02 -0.70939031695E+01  0.14597627345E+04  0.14599223767E+04  0.10000000000E+02 0.  1.
</event>
<event>
 5    1  0.1147307E-008  0.3815357E+03  0.7957747E-01  0.3444499E+00
         13   -1    0    0    0    0  0.00000000000E+00  0.00000000000E+00  0.14999999963E+04  0.15000000000E+04  0.10566000000E+00 0.  1.
        994   -1    0    0    0    0 -0.00000000000E+00 -0.00000000000E+00  0.11368683772E-12  0.17120000000E+03  0.17120000000E+03 0.  0.
         13    1    1    2    0    0 -0.15533036262E+02 -0.37453685417E+01  0.36381118604E+02  0.39735374113E+02  0.10566000000E+00 0.  1.
        994    1    1    2    0    0  0.14616836455E+02 -0.24052362608E+01  0.40901093403E+01  0.17188835349E+03  0.17120000000E+03 0.  0.
        998    1    1    2    0    0  0.91619980678E+00  0.61506048025E+01  0.14595287683E+04  0.14595762724E+04  0.10000000000E+02 0.  1.
</event>
<event>
 5    1  0.1147307E-008  0.3777778E+03  0.7957747E-01  0.3460892E+00
         13   -1    0    0    0    0  0.00000000000E+00  0.00000000000E+00  0.14999999963E+04  0.15000000000E+04  0.10566000000E+00 0. -1.
        994   -1    0    0    0    0 -0.00000000000E+00 -0.00000000000E+00  0.11368683772E-12  0.17120000000E+03  0.17120000000E+03 0.  0.
         13    1    1    2    0    0  0.74241859490E+01 -0.21879586296E+02  0.47787781324E+02  0.53080298053E+02  0.10566000000E+00 0. -1.
        994    1    1    2    0    0  0.10293542370E+01  0.22392850262E+02  0.69532137593E+01  0.17280129194E+03  0.17120000000E+03 0.  0.
        998    1    1    2    0    0 -0.84535401860E+01 -0.51326396605E+00  0.14452590012E+04  0.14453184100E+04  0.10000000000E+02 0. -1.
</event>
<event>
 5    1  0.1147307E-008  0.3767785E+03  0.7957747E-01  0.3465307E+00
         13   -1    0    0    0    0  0.00000000000E+00  0.00000000000E+00  0.14999999963E+04  0.15000000000E+04  0.10566000000E+00 0. -1.
        994   -1    0    0    0    0 -0.00000000000E+00 -0.00000000000E+00  0.11368683772E-12  0.17120000000E+03  0.17120000000E+03 0.  0.
         13    1    1    2    0    0 -0.12214583202E+03 -0.75847475608E+02  0.48542801813E+03  0.50627345949E+03  0.10566000000E+00 0. -1.
        994    1    1    2    0    0  0.11940702573E+03  0.63328730395E+02  0.83262406293E+02  0.23347512542E+03  0.17120000000E+03 0.  0.
        998    1    1    2    0    0  0.27388062867E+01  0.12518745213E+02  0.93130957185E+03  0.93145141509E+03  0.10000000000E+02 0.  0.
</event>
<event>
 5    1  0.1147307E-008  0.3712662E+03  0.7957747E-01  0.3490092E+00
         13   -1    0    0    0    0  0.00000000000E+00  0.00000000000E+00  0.14999999963E+04  0.15000000000E+04  0.10566000000E+00 0. -1.
        994   -1    0    0    0    0 -0.00000000000E+00 -0.00000000000E+00  0.11368683772E-12  0.17120000000E+03  0.17120000000E+03 0.  0.
         13    1    1    2    0    0 -0.82429840283E+02  0.57242902669E+02  0.33574164332E+03  0.35041959235E+03  0.10566000000E+00 0. -1.
        994    1    1    2    0    0  0.81118946078E+02 -0.54325932632E+02  0.45877951167E+02  0.20235072714E+03  0.17120000000E+03 0.  0.
        998    1    1    2    0    0  0.13108942056E+01 -0.29169700366E+01  0.11183804018E+04  0.11184296805E+04  0.10000000000E+02 0. -1.
</event>
<event>
 5    1  0.1147307E-008  0.3907529E+03  0.7957747E-01  0.3405634E+00
         13   -1    0    0    0    0  0.00000000000E+00  0.00000000000E+00  0.14999999963E+04  0.15000000000E+04  0.10566000000E+00 0. -1.
        994   -1    0    0    0    0 -0.00000000000E+00 -0.00000000000E+00  0.11368683772E-12  0.17120000000E+03  0.17120000000E+03 0.  0.
         13    1    1    2    0    0  0.47620377012E+02 -0.67529287432E+02  0.13864526628E+03  0.16140144360E+03  0.10566000000E+00 0. -1.
        994    1    1    2    0    0 -0.46191681123E+02  0.53540264472E+02  0.41486843088E+02  0.18981788502E+03  0.17120000000E+03 0.  0.
        998    1    1    2    0    0 -0.14286958892E+01  0.13989022959E+02  0.13198678869E+04  0.13199806714E+04  0.10000000000E+02 0. -1.
</event>
<event>
 5    1  0.1147307E-008  0.3790246E+03  0.7957747E-01  0.3455417E+00
         13   -1    0    0    0    0  0.00000000000E+00  0.00000000000E+00  0.14999999963E+04  0.15000000000E+04  0.10566000000E+00 0. -1.
        994   -1    0    0    0    0 -0.00000000000E+00 -0.00000000000E+00  0.11368683772E-12  0.17120000000E+03  0.17120000000E+03 0.  0.
         13    1    1    2    0    0  0.74915544656E+01  0.14199095502E+02  0.25072803069E+02  0.29772375101E+02  0.10566000000E+00 0. -1.
        994    1    1    2    0    0 -0.12682702422E+02 -0.19742497769E+02  0.64751595120E+01  0.17292190390E+03  0.17120000000E+03 0.  0.
        998    1    1    2    0    0  0.51911479561E+01  0.55434022672E+01  0.14684520337E+04  0.14685057210E+04  0.10000000000E+02 0. -1.
</event>
<event>
 5    1  0.1147307E-008  0.3800547E+03  0.7957747E-01  0.3450920E+00
         13   -1    0    0    0    0  0.00000000000E+00  0.00000000000E+00  0.14999999963E+04  0.15000000000E+04  0.10566000000E+00 0. -1.
        994   -1    0    0    0    0 -0.00000000000E+00 -0.00000000000E+00  0.11368683772E-12  0.17120000000E+03  0.17120000000E+03 0.  0.
         13    1    1    2    0    0 -0.55242180424E+01  0.11032966461E+02  0.16256518652E+02  0.20409039581E+02  0.10566000000E+00 0. -1.
        994    1    1    2    0    0  0.18148145370E+02 -0.14900704415E+02  0.59506095943E+01  0.17290528022E+03  0.17120000000E+03 0.  0.
        998    1    1    2    0    0 -0.12623927328E+02  0.38677379538E+01  0.14777928680E+04  0.14778856802E+04  0.10000000000E+02 0. -1.
</event>
<event>
 5    1  0.1147307E-008  0.3807636E+03  0.7957747E-01  0.3447840E+00
         13   -1    0    0    0    0  0.00000000000E+00  0.00000000000E+00  0.14999999963E+04  0.15000000000E+04  0.10566000000E+00 0.  1.
        994   -1    0    0    0    0 -0.00000000000E+00 -0.00000000000E+00  0.11368683772E-12  0.17120000000E+03  0.17120000000E+03 0.  0.
         13    1    1    2    0    0  0.67623563782E+01  0.13184452778E+02  0.28116981641E+02  0.31782622287E+02  0.10566000000E+00 0.  1.
        994    1    1    2    0    0 -0.19367359942E+01 -0.64969395491E+01  0.39014545594E+01  0.17137859411E+03  0.17120000000E+03 0.  0.
        998    1    1    2    0    0 -0.48256203839E+01 -0.66875132284E+01  0.14679815601E+04  0.14680387836E+04  0.10000000000E+02 0.  1.
</event>
<event>
 5    1  0.1147307E-008  0.3719532E+03  0.7957747E-01  0.3486962E+00
         13   -1    0    0    0    0  0.00000000000E+00  0.00000000000E+00  0.14999999963E+04  0.15000000000E+04  0.10566000000E+00 0.  1.
        994   -1    0    0    0    0 -0.00000000000E+00 -0.00000000000E+00  0.11368683772E-12  0.17120000000E+03  0.17120000000E+03 0.  0.
         13    1    1    2    0    0  0.15160252679E+01 -0.39722226765E+02  0.52936714651E+02  0.66200155241E+02  0.10566000000E+00 0.  1.
        994    1    1    2    0    0 -0.50620281806E+02  0.75943852099E+02  0.41906050506E+02  0.19848284226E+03  0.17120000000E+03 0.  0.
        998    1    1    2    0    0  0.49104256538E+02 -0.36221625334E+02  0.14051572311E+04  0.14065170025E+04  0.10000000000E+02 0.  1.
</event>
<event>
 5    1  0.1147307E-008  0.3752369E+03  0.7957747E-01  0.3472164E+00
         13   -1    0    0    0    0  0.00000000000E+00  0.00000000000E+00  0.14999999963E+04  0.15000000000E+04  0.10566000000E+00 0.  1.
        994   -1    0    0    0    0 -0.00000000000E+00 -0.00000000000E+00  0.11368683772E-12  0.17120000000E+03  0.17120000000E+03 0.  0.
         13    1    1    2    0    0 -0.39072329606E+02 -0.33603036780E+02  0.20836566136E+03  0.21464405656E+03  0.10566000000E+00 0.  1.
        994    1    1    2    0    0  0.23212984731E+02  0.91448046900E+01  0.86741928637E+01  0.17322572481E+03  0.17120000000E+03 0.  0.
        998    1    1    2    0    0  0.15859344875E+02  0.24458232090E+02  0.12829601421E+04  0.12833302186E+04  0.10000000000E+02 0.  1.
</event>
<event>
 5    1  0.1147307E-008  0.3724691E+03  0.7957747E-01  0.3484620E+00
         13   -1    0    0    0    0  0.00000000000E+00  0.00000000000E+00  0.14999999963E+04  0.15000000000E+04  0.10566000000E+00 0. -1.
        994   -1    0    0    0    0 -0.00000000000E+00 -0.00000000000E+00  0.11368683772E-12  0.17120000000E+03  0.17120000000E+03 0.  0.
         13    1    1    2    0    0 -0.22298561631E+02  0.21639680830E+02  0.56625378752E+02  0.64590605509E+02  0.10566000000E+00 0. -1.
        994    1    1    2    0    0  0.33860007071E+02 -0.56684944631E+00  0.11926188760E+02  0.17492425611E+03  0.17120000000E+03 0.  0.
        998    1    1    2    0    0 -0.11561445440E+02 -0.21072831383E+02  0.14314484288E+04  0.14316851384E+04  0.10000000000E+02 0. -1.
</event>
<event>
 5    1  0.1147307E-008  0.3838512E+03  0.7957747E-01  0.3434559E+00
         13   -1    0    0    0    0  0.00000000000E+00  0.00000000000E+00  0.14999999963E+04  0.15000000000E+04  0.10566000000E+00 0.  1.
        994   -1    0    0    0    0 -0.00000000000E+00 -0.00000000000E+00  0.11368683772E-12  0.17120000000E+03  0.17120000000E+03 0.  0.
         13    1    1    2    0    0 -0.10936711057E+02 -0.73469828551E+01  0.39764287195E+02  0.41890327117E+02  0.10566000000E+00 0.  1.
        994    1    1    2    0    0  0.91783404088E+01 -0.70916790765E+01  0.26457703405E+01  0.17161286066E+03  0.17120000000E+03 0.  0.
        998    1    1    2    0    0  0.17583706486E+01  0.14438661932E+02  0.14575899387E+04  0.14576968122E+04  0.10000000000E+02 0.  1.
</event>
<event>
 5    1  0.1147307E-008  0.3810096E+03  0.7957747E-01  0.3446774E+00
         13   -1    0    0    0    0  0.00000000000E+00  0.00000000000E+00  0.14999999963E+04  0.15000000000E+04  0.10566000000E+00 0. -1.
        994   -1    0    0    0    0 -0.00000000000E+00 -0.00000000000E+00  0.11368683772E-12  0.17120000000E+03  0.17120000000E+03 0.  0.
         13    1    1    2    0    0 -0.11148534517E+01  0.21211298328E+02  0.61633351188E+02  0.65190821575E+02  0.10566000000E+00 0. -1.
        994    1    1    2    0    0 -0.26312848839E+02 -0.12865210076E+02  0.64879145931E+01  0.17380855180E+03  0.17120000000E+03 0.  0.
        998    1    1    2    0    0  0.27427702291E+02 -0.83460882521E+01  0.14318787305E+04  0.14322006266E+04  0.10000000000E+02 0. -1.
</event>
<event>
 5    1  0.1147307E-008  0.3775768E+03  0.7957747E-01  0.3461778E+00
         13   -1    0    0    0    0  0.00000000000E+00  0.00000000000E+00  0.14999999963E+04  0.15000000000E+04  0.10566000000E+00 0. -1.
        994   -1    0    0    0    0 -0.00000000000E+00 -0.00000000000E+00  0.11368683772E-12  0.17120000000E+03  0.17120000000E+03 0.  0.
         13    1    1    2    0    0 -0.60095193565E+01 -0.83705065462E+02  0.20368898199E+03  0.22029948900E+03  0.10566000000E+00 0. -1.
        994    1    1    2    0    0 -0.18567893895E+02  0.80392508227E+02  0.39879249566E+02  0.19418423368E+03  0.17120000000E+03 0.  0.
        998    1    1    2    0    0  0.24577413251E+02  0.33125572350E+01  0.12564317647E+04  0.12567162773E+04  0.10000000000E+02 0. -1.
</event>
<event>
 5    1  0.1147307E-008  0.3835605E+03  0.7957747E-01  0.3435800E+00
         13   -1    0    0    0    0  0.00000000000E+00  0.00000000000E+00  0.14999999963E+04  0.15000000000E+04  0.10566000000E+00 0.  1.
        994   -1    0    0    0    0 -0.00000000000E+00 -0.00000000000E+00  0.11368683772E-12  0.17120000000E+03  0.17120000000E+03 0.  0.
         13    1    1    2    0    0  0.66665564931E+01 -0.14713639862E+02  0.54050092682E+02  0.56412390983E+02  0.10566000000E+00 0.  1.
        994    1    1    2    0    0 -0.89305316603E+01  0.11508849571E+02  0.30479626236E+01  0.17184568103E+03  0.17120000000E+03 0.  0.
        998    1    1    2    0    0  0.22639751672E+01  0.32047902912E+01  0.14429019410E+04  0.14429419280E+04  0.10000000000E+02 0.  1.
</event>
<event>
 5    1  0.1147307E-008  0.3774947E+03  0.7957747E-01  0.3462140E+00
         13   -1    0    0    0    0  0.00000000000E+00  0.00000000000E+00  0.14999999963E+04  0.15000000000E+04  0.10566000000E+00 0. -1.
        994   -1    0    0    0    0 -0.00000000000E+00 -0.00000000000E+00  0.11368683772E-12  0.17120000000E+03  0.17120000000E+03 0.  0.
         13    1    1    2    0    0  0.25546646896E+02  0.12721405913E+01  0.16447497481E+02  0.30410209581E+02  0.10566000000E+00 0. -1.
        994    1    1    2    0    0  0.55103352584E+01 -0.80455994882E+01  0.15299476794E+02  0.17215867523E+03  0.17120000000E+03 0.  0.
        998    1    1    2    0    0 -0.31056982155E+02  0.67734588969E+01  0.14682530220E+04  0.14686311152E+04  0.10000000000E+02 0. -1.
</event>
<event>
 5    1  0.1147307E-008  0.3795911E+03  0.7957747E-01  0.3452941E+00
         13   -1    0    0    0    0  0.00000000000E+00  0.00000000000E+00  0.14999999963E+04  0.15000000000E+04  0.10566000000E+00 0. -1.
        994   -1    0    0    0    0 -0.00000000000E+00 -0.00000000000E+00  0.11368683772E-12  0.17120000000E+03  0.17120000000E+03 0.  0.
         13    1    1    2    0    0  0.11981006137E+02  0.14455989567E+02  0.41173959099E+02  0.45252913877E+02  0.10566000000E+00 0. -1.
        994    1    1    2    0    0 -0.54885606109E+01  0.95871762119E+01  0.47483368209E+01  0.17162174964E+03  0.17120000000E+03 0.  0.
        998    1    1    2    0    0 -0.64924455265E+01 -0.24043165779E+02  0.14540777004E+04  0.14543253365E+04  0.10000000000E+02 0. -1.
</event>
<event>
 5    1  0.1147307E-008  0.4272461E+03  0.7957747E-01  0.3268144E+00
         13   -1    0    0    0    0  0.00000000000E+00  0.00000000000E+00  0.14999999963E+04  0.15000000000E+04  0.10566000000E+00 0.  1.
        994   -1    0    0    0    0 -0.00000000000E+00 -0.00000000000E+00  0.11368683772E-12  0.17120000000E+03  0.17120000000E+03 0.  0.
         13    1    1    2    0    0 -0.64715340562E+02  0.34155511942E+02  0.43846562520E+02  0.85306544350E+02  0.10566000000E+00 0.  1.
        994    1    1    2    0    0  0.60998087290E+02 -0.31558912045E+02  0.66327659642E+02  0.19602430976E+03  0.17120000000E+03 0.  0.
        998    1    1    2    0    0  0.37172532719E+01 -0.25965998965E+01  0.13898257741E+04  0.13898691459E+04  0.10000000000E+02 0.  1.
</event>
<event>
 5    1  0.1147307E-008  0.3856600E+03  0.7957747E-01  0.3426878E+00
         13   -1    0    0    0    0  0.00000000000E+00  0.00000000000E+00  0.14999999963E+04  0.15000000000E+04  0.10566000000E+00 0. -1.
        994   -1    0    0    0    0 -0.00000000000E+00 -0.00000000000E+00  0.11368683772E-12  0.17120000000E+03  0.17120000000E+03 0.  0.
         13    1    1    2    0    0  0.95807836902E+01 -0.42105958932E+01  0.43010694472E+02  0.44265692550E+02  0.10566000000E+00 0. -1.
        994    1    1    2    0    0 -0.12178732210E+01  0.74322733823E+01  0.14889849249E+01  0.17137204842E+03  0.17120000000E+03 0.  0.
        998    1    1    2    0    0 -0.83629104692E+01 -0.32216774890E+01  0.14555003169E+04  0.14555622590E+04  0.10000000000E+02 0. -1.
</event>
<event>
 5    1  0.1147307E-008  0.3848401E+03  0.7957747E-01  0.3430350E+00
         13   -1    0    0    0    0  0.00000000000E+00  0.00000000000E+00  0.14999999963E+04  0.15000000000E+04  0.10566000000E+00 0. -1.
        994   -1    0    0    0    0 -0.00000000000E+00 -0.00000000000E+00  0.11368683772E-12  0.17120000000E+03  0.17120000000E+03 0.  0.
         13    1    1    2    0    0  0.19249168169E+02  0.75683548647E+01  0.11833845637E+03  0.12013247642E+03  0.10566000000E+00 0. -1.
        994    1    1    2    0    0 -0.17881817215E+02 -0.81137014452E+01  0.29792845963E+01  0.17234821634E+03  0.17120000000E+03 0.  0.
        998    1    1    2    0    0 -0.13673509543E+01  0.54534658057E+00  0.13786822553E+04  0.13787193072E+04  0.10000000000E+02 0.  0.
</event>
<event>
 5    1  0.1147307E-008  0.3801045E+03  0.7957747E-01  0.3450704E+00
         13   -1    0    0    0    0  0.00000000000E+00  0.00000000000E+00  0.14999999963E+04  0.15000000000E+04  0.10566000000E+00 0.  1.
        994   -1    0    0    0    0 -0.00000000000E+00 -0.00000000000E+00  0.11368683772E-12  0.17120000000E+03  0.17120000000E+03 0.  0.
         13    1    1    2    0    0  0.42084469772E+01  0.14946943481E+02  0.28780095314E+02  0.32702097726E+02  0.10566000000E+00 0.  1.
        994    1    1    2    0    0  0.67282882438E+01 -0.25220489144E+01  0.42529591665E+01  0.17140349546E+03  0.17120000000E+03 0.  0.
        998    1    1    2    0    0 -0.10936735221E+02 -0.12424894566E+02  0.14669669418E+04  0.14670944068E+04  0.10000000000E+02 0.  1.
</event>
<event>
 5    1  0.1147307E-008  0.3709566E+03  0.7957747E-01  0.3491506E+00
         13   -1    0    0    0    0  0.00000000000E+00  0.00000000000E+00  0.14999999963E+04  0.15000000000E+04  0.10566000000E+00 0. -1.
        994   -1    0    0    0    0 -0.00000000000E+00 -0.00000000000E+00  0.11368683772E-12  0.17120000000E+03  0.17120000000E+03 0.  0.
         13    1    1    2    0    0 -0.10129691096E+02 -0.54466498719E+02  0.14380846462E+03  0.15411066084E+03  0.10566000000E+00 0. -1.
        994    1    1    2    0    0 -0.69587597088E+01  0.75859411012E+02  0.29042961237E+02  0.18962069553E+03  0.17120000000E+03 0.  0.
        998    1    1    2    0    0  0.17088450805E+02 -0.21392912293E+02  0.13271485704E+04  0.13274686436E+04  0.10000000000E+02 0. -1.
</event>
<event>
 5    1  0.1299029E-008  0.3860190E+03  0.7957747E-01  0.3425362E+00
         13   -1    0    0    0    0  0.00000000000E+00  0.00000000000E+00  0.14999999963E+04  0.15000000000E+04  0.10566000000E+00 0.  1.
        994   -1    0    0    0    0 -0.00000000000E+00 -0.00000000000E+00  0.11368683772E-12  0.17120000000E+03  0.17120000000E+03 0.  0.
         13    1    1    2    0    0  0.66385252035E+00 -0.12134182408E+02  0.62335466817E+02  0.63509059749E+02  0.10566000000E+00 0.  1.
        994    1    1    2    0    0 -0.58589428476E+01  0.16508091532E+02  0.21315060363E+01  0.17210702372E+03  0.17120000000E+03 0.  0.
        998    1    1    2    0    0  0.51950903273E+01 -0.43739091237E+01  0.14355330234E+04  0.14355839165E+04  0.10000000000E+02 0.  1.
</event>
<event>
 5    1  0.1147307E-008  0.3820347E+03  0.7957747E-01  0.3442346E+00
         13   -1    0    0    0    0  0.00000000000E+00  0.00000000000E+00  0.14999999963E+04  0.15000000000E+04  0.10566000000E+00 0. -1.
        994   -1    0    0    0    0 -0.00000000000E+00 -0.00000000000E+00  0.11368683772E-12  0.17120000000E+03  0.17120000000E+03 0.  0.
         13    1    1    2    0    0 -0.17461529955E+03 -0.11359821617E+03  0.93671622994E+03  0.95960010637E+03  0.10566000000E+00 0. -1.
        994    1    1    2    0    0  0.19518534310E+03  0.12087225710E+03  0.20423786236E+03  0.35175270449E+03  0.17120000000E+03 0.  0.
        998    1    1    2    0    0 -0.20570043554E+02 -0.72740409329E+01  0.35904590398E+03  0.35984718914E+03  0.10000000000E+02 0.  1.
</event>
<event>
 5    1  0.1147307E-008  0.3744532E+03  0.7957747E-01  0.3475672E+00
         13   -1    0    0    0    0  0.00000000000E+00  0.00000000000E+00  0.14999999963E+04  0.15000000000E+04  0.10566000000E+00 0. -1.
        994   -1    0    0    0    0 -0.00000000000E+00 -0.00000000000E+00  0.11368683772E-12  0.17120000000E+03  0.17120000000E+03 0.  0.
         13    1    1    2    0    0  0.22527184867E+02 -0.55883661351E+01  0.39508729559E+02  0.45821990021E+02  0.10566000000E+00 0. -1.
        994    1    1    2    0    0  0.17892463644E+02 -0.24535079827E+01  0.80712785898E+01  0.17233904228E+03  0.17120000000E+03 0.  0.
        998    1    1    2    0    0 -0.40419648512E+02  0.80418741178E+01  0.14524199881E+04  0.14530389677E+04  0.10000000000E+02 0. -1.
</event>
<event>
 5    1  0.1147307E-008  0.3840814E+03  0.7957747E-01  0.3433578E+00
         13   -1    0    0    0    0  0.00000000000E+00  0.00000000000E+00  0.14999999963E+04  0.15000000000E+04  0.10566000000E+00 0.  1.
        994   -1    0    0    0    0 -0.00000000000E+00 -0.00000000000E+00  0.11368683772E-12  0.17120000000E+03  0.17120000000E+03 0.  0.
         13    1    1    2    0    0  0.91332901996E+01 -0.49665684340E+01  0.25058908572E+02  0.27130128174E+02  0.10566000000E+00 0.  1.
        994    1    1    2    0    0 -0.73060121959E+01  0.66739824437E+01  0.24099700173E+01  0.17150267581E+03  0.17120000000E+03 0.  0.
        998    1    1    2    0    0 -0.18272780037E+01 -0.17074140097E+01  0.14725311177E+04  0.14725671960E+04  0.10000000000E+02 0.  1.
</event>
<event>
 5    1  0.1147307E-008  0.3787463E+03  0.7957747E-01  0.3456636E+00
         13   -1    0    0    0    0  0.00000000000E+00  0.00000000000E+00  0.14999999963E+04  0.15000000000E+04  0.10566000000E+00 0.  1.
        994   -1    0    0    0    0 -0.00000000000E+00 -0.00000000000E+00  0.11368683772E-12  0.17120000000E+03  0.17120000000E+03 0.  0.
         13    1    1    2    0    0 -0.12326788691E+02  0.14535923973E+02  0.35844828198E+02  0.40596867832E+02  0.10566000000E+00 0.  1.
        994    1    1    2    0    0  0.61507566555E+01 -0.15803044389E+02  0.57332616574E+01  0.17213331551E+03  0.17120000000E+03 0.  0.
        998    1    1    2    0    0  0.61760320359E+01  0.12671204159E+01  0.14584219064E+04  0.14584698167E+04  0.10000000000E+02 0.  1.
</event>
<event>
 5    1  0.1147307E-008  0.3685488E+03  0.7957747E-01  0.3502587E+00
         13   -1    0    0    0    0  0.00000000000E+00  0.00000000000E+00  0.14999999963E+04  0.15000000000E+04  0.10566000000E+00 0.  1.
        994   -1    0    0    0    0 -0.00000000000E+00 -0.00000000000E+00  0.11368683772E-12  0.17120000000E+03  0.17120000000E+03 0.  0.
         13    1    1    2    0    0  0.16668689590E+02  0.48341197169E+01  0.10366796929E+02  0.20216220435E+02  0.10566000000E+00 0.  1.
        994    1    1    2    0    0 -0.19267849831E+02 -0.73699904921E+01  0.11509819439E+02  0.17282211300E+03  0.17120000000E+03 0.  0.
        998    1    1    2    0    0  0.25991602415E+01  0.25358707752E+01  0.14781233799E+04  0.14781616666E+04  0.10000000000E+02 0.  1.
</event>
<event>
 5    1  0.1147307E-008  0.3760209E+03  0.7957747E-01  0.3468670E+00
         13   -1    0    0    0    0  0.00000000000E+00  0.00000000000E+00  0.14999999963E+04  0.15000000000E+04  0.10566000000E+00 0.  1.
        994   -1    0    0    0    0 -0.00000000000E+00 -0.00000000000E+00  0.11368683772E-12  0.17120000000E+03  0.17120000000E+03 0.  0.
         13    1    1    2    0    0 -0.39793543947E+02 -0.15660668102E+02  0.56022802522E+02  0.70479417079E+02  0.10566000000E+00 0.  1.
        994    1    1    2    0    0  0.49012309118E+02  0.13302817644E+02  0.23427729679E+02  0.18010405304E+03  0.17120000000E+03 0.  0.
        998    1    1    2    0    0 -0.92187651713E+01  0.23578504579E+01  0.14205494641E+04  0.14206165299E+04  0.10000000000E+02 0.  1.
</event>
<event>
 5    1  0.1147307E-008  0.3851293E+03  0.7957747E-01  0.3429124E+00
         13   -1    0    0    0    0  0.00000000000E+00  0.00000000000E+00  0.14999999963E+04  0.15000000000E+04  0.10566000000E+00 0.  1.
        994   -1    0    0    0    0 -0.00000000000E+00 -0.00000000000E+00  0.11368683772E-12  0.17120000000E+03  0.17120000000E+03 0.  0.
         13    1    1    2    0    0  0.11510609903E+02  0.25512070277E+01  0.41094769404E+02  0.42752707914E+02  0.10566000000E+00 0.  1.
        994    1    1    2    0    0 -0.22010159628E+02 -0.59975920495E+01  0.32785699193E+01  0.17274434074E+03  0.17120000000E+03 0.  0.
        998    1    1    2    0    0  0.10499549725E+02  0.34463850217E+01  0.14556266570E+04  0.14557029513E+04  0.10000000000E+02 0.  1.
</event>
<event>
 5    1  0.1147307E-008  0.3743928E+03  0.7957747E-01  0.3475943E+00
         13   -1    0    0    0    0  0.00000000000E+00  0.00000000000E+00  0.14999999963E+04  0.15000000000E+04  0.10566000000E+00 0. -1.
        994   -1    0    0    0    0 -0.00000000000E+00 -0.00000000000E+00  0.11368683772E-12  0.17120000000E+03  0.17120000000E+03 0.  0.
         13    1    1    2    0    0  0.46867158569E+02 -0.60101423183E+02  0.37825717997E+03  0.38585906363E+03  0.10566000000E+00 0. -1.
        994    1    1    2    0    0 -0.43704512474E+02  0.34727815591E+02  0.17680021489E+02  0.18093680871E+03  0.17120000000E+03 0.  0.
        998    1    1    2    0    0 -0.31626460951E+01  0.25373607593E+02  0.11040627948E+04  0.11044041277E+04  0.10000000000E+02 0. -1.
</event>
<event>
 5    1  0.1147307E-008  0.3818369E+03  0.7957747E-01  0.3443199E+00
         13   -1    0    0    0    0  0.00000000000E+00  0.00000000000E+00  0.14999999963E+04  0.15000000000E+04  0.10566000000E+00 0. -1.
        994   -1    0    0    0    0 -0.00000000000E+00 -0.00000000000E+00  0.11368683772E-12  0.17120000000E+03  0.17120000000E+03 0.  0.
         13    1    1    2    0    0  0.21082227905E+02  0.63499987364E-01  0.74847517491E+02  0.77760056612E+02  0.10566000000E+00 0. -1.
        994    1    1    2    0    0  0.49736929204E+01 -0.97377080945E+01  0.36061131295E+01  0.17158672627E+03  0.17120000000E+03 0.  0.
        998    1    1    2    0    0 -0.26055920825E+02  0.96742081071E+01  0.14215463657E+04  0.14218532171E+04  0.10000000000E+02 0. -1.
</event>
<event>
 5    1  0.1147307E-008  0.3346456E+03  0.7957747E-01  0.3676028E+00
         13   -1    0    0    0    0  0.00000000000E+00  0.00000000000E+00  0.14999999963E+04  0.15000000000E+04  0.10566000000E+00 0. -1.
        994   -1    0    0    0    0 -0.00000000000E+00 -0.00000000000E+00  0.11368683772E-12  0.17120000000E+03  0.17120000000E+03 0.  0.
         13    1    1    2    0    0  0.18050964825E+02  0.31361765518E+03  0.55331885577E+03  0.63627324185E+03  0.10566000000E+00 0. -1.
        994    1    1    2    0    0 -0.48914119502E+02 -0.25560327573E+03  0.54465322011E+03  0.62744098991E+03  0.17120000000E+03 0.  0.
        998    1    1    2    0    0  0.30863154677E+02 -0.58014379452E+02  0.40202792040E+03  0.40748576824E+03  0.10000000000E+02 0. -1.
</event>
<event>
 5    1  0.1147307E-008  0.3753552E+03  0.7957747E-01  0.3471636E+00
         13   -1    0    0    0    0  0.00000000000E+00  0.00000000000E+00  0.14999999963E+04  0.15000000000E+04  0.10566000000E+00 0.  1.
        994   -1    0    0    0    0 -0.00000000000E+00 -0.00000000000E+00  0.11368683772E-12  0.17120000000E+03  0.17120000000E+03 0.  0.
         13    1    1    2    0    0  0.45054979634E+02 -0.17290707067E+02  0.16028742782E+03  0.16739471444E+03  0.10566000000E+00 0.  1.
        994    1    1    2    0    0 -0.39178421046E+02  0.29499628787E+02  0.14706479780E+02  0.17869218596E+03  0.17120000000E+03 0.  0.
        998    1    1    2    0    0 -0.58765585878E+01 -0.12208921720E+02  0.13250060887E+04  0.13251130996E+04  0.10000000000E+02 0.  1.
</event>
<event>
 5    1  0.1147307E-008  0.3825370E+03  0.7957747E-01  0.3440186E+00
         13   -1    0    0    0    0  0.00000000000E+00  0.00000000000E+00  0.14999999963E+04  0.15000000000E+04  0.10566000000E+00 0.  1.
        994   -1    0    0    0    0 -0.00000000000E+00 -0.00000000000E+00  0.11368683772E-12  0.17120000000E+03  0.17120000000E+03 0.  0.
         13    1    1    2    0    0  0.35295418928E+02  0.71554033224E+01  0.21427184475E+03  0.21727724458E+03  0.10566000000E+00 0.  1.
        994    1    1    2    0    0 -0.24383240618E+02 -0.15522895108E+02  0.56326412760E+01  0.17371433258E+03  0.17120000000E+03 0.  0.
        998    1    1    2    0    0 -0.10912178309E+02  0.83674917857E+01  0.12800955103E+04  0.12802084228E+04  0.10000000000E+02 0.  1.
</event>
<event>
 5    1  0.1147307E-008  0.3813133E+03  0.7957747E-01  0.3445460E+00
         13   -1    0    0    0    0  0.00000000000E+00  0.00000000000E+00  0.14999999963E+04  0.15000000000E+04  0.10566000000E+00 0. -1.
        994   -1    0    0    0    0 -0.00000000000E+00 -0.00000000000E+00  0.11368683772E-12  0.17120000000E+03  0.17120000000E+03 0.  0.
         13    1    1    2    0    0  0.20170629631E+02 -0.24885033979E+02  0.15397995441E+03  0.15727668848E+03  0.10566000000E+00 0. -1.
        994    1    1    2    0    0 -0.51040809863E+01  0.11209859695E+02  0.39767970527E+01  0.17168857712E+03  0.17120000000E+03 0.  0.
        998    1    1    2    0    0 -0.15066548645E+02  0.13675174284E+02  0.13420432448E+04  0.13422347344E+04  0.10000000000E+02 0. -1.
</event>
<event>
 5    1  0.1147307E-008  0.3818674E+03  0.7957747E-01  0.3443067E+00
         13   -1    0    0    0    0  0.00000000000E+00  0.00000000000E+00  0.14999999963E+04  0.15000000000E+04  0.10566000000E+00 0.  1.
        994   -1    0    0    0    0 -0.00000000000E+00 -0.00000000000E+00  0.11368683772E-12  0.17120000000E+03  0.17120000000E+03 0.  0.
         13    1    1    2    0    0  0.19494037900E+02 -0.23412171370E+02  0.15741593631E+03  0.16033694350E+03  0.10566000000E+00 0.  1.
        994    1    1    2    0    0 -0.50086527728E+00  0.77735927204E+01  0.33950632193E+01  0.17141075248E+03  0.17120000000E+03 0.  0.
        998    1    1    2    0    0 -0.18993172622E+02  0.15638578649E+02  0.13391889967E+04  0.13394523040E+04  0.10000000000E+02 0.  1.
</event>
<event>
 5    1  0.1147307E-008  0.3853839E+03  0.7957747E-01  0.3428046E+00
         13   -1    0    0    0    0  0.00000000000E+00  0.00000000000E+00  0.14999999963E+04  0.15000000000E+04  0.10566000000E+00 0. -1.
        994   -1    0    0    0    0 -0.00000000000E+00 -0.00000000000E+00  0.11368683772E-12  0.17120000000E+03  0.17120000000E+03 0.  0.
         13    1    1    2    0    0  0.11184252405E+02 -0.10460229124E+02  0.74827128760E+02  0.76378100642E+02  0.10566000000E+00 0. -1.
        994    1    1    2    0    0 -0.13626146242E+02  0.18427245335E+02  0.31667400072E+01  0.17275619663E+03  0.17120000000E+03 0.  0.
        998    1    1    2    0    0  0.24418938372E+01 -0.79670162112E+01  0.14220061275E+04  0.14220657027E+04  0.10000000000E+02 0. -1.
</event>
<event>
 5    1  0.1147307E-008  0.3843397E+03  0.7957747E-01  0.3432477E+00
         13   -1    0    0    0    0  0.00000000000E+00  0.00000000000E+00  0.14999999963E+04  0.15000000000E+04  0.10566000000E+00 0. -1.
        994   -1    0    0    0    0 -0.00000000000E+00 -0.00000000000E+00  0.11368683772E-12  0.17120000000E+03  0.17120000000E+03 0.  0.
         13    1    1    2    0    0  0.16257184399E+02 -0.24301240152E+00  0.70371674867E+02  0.72225611020E+02  0.10566000000E+00 0. -1.
        994    1    1    2    0    0 -0.37224205196E+01  0.32155416199E+02  0.54192915497E+01  0.17431762942E+03  0.17120000000E+03 0.  0.
        998    1    1    2    0    0 -0.12534763879E+02 -0.31912403797E+02  0.14242090299E+04  0.14246567596E+04  0.10000000000E+02 0. -1.
</event>
<event>
 5    1  0.1147307E-008  0.3800801E+03  0.7957747E-01  0.3450810E+00
         13   -1    0    0    0    0  0.00000000000E+00  0.00000000000E+00  0.14999999963E+04  0.15000000000E+04  0.10566000000E+00 0. -1.
        994   -1    0    0    0    0 -0.00000000000E+00 -0.00000000000E+00  0.11368683772E-12  0.17120000000E+03  0.17120000000E+03 0.  0.
         13    1    1    2    0    0  0.39433064953E+02 -0.99922766841E+01  0.23121325033E+03  0.23476454267E+03  0.10566000000E+00 0. -1.
        994    1    1    2    0    0 -0.10483354070E+02 -0.13841155401E+02  0.51008898370E+01  0.17215381893E+03  0.17120000000E+03 0.  0.
        998    1    1    2    0    0 -0.28949710883E+02  0.23833432085E+02  0.12636858561E+04  0.12642816384E+04  0.10000000000E+02 0. -1.
</event>
<event>
 5    1  0.1147307E-008  0.3710806E+03  0.7957747E-01  0.3490939E+00
         13   -1    0    0    0    0  0.00000000000E+00  0.00000000000E+00  0.14999999963E+04  0.15000000000E+04  0.10566000000E+00 0. -1.
        994   -1    0    0    0    0 -0.00000000000E+00 -0.00000000000E+00  0.11368683772E-12  0.17120000000E+03  0.17120000000E+03 0.  0.
         13    1    1    2    0    0  0.26696372876E+02  0.83841695885E+02  0.37656823051E+03  0.38671148119E+03  0.10566000000E+00 0. -1.
        994    1    1    2    0    0 -0.16932286863E+02 -0.69728125491E+02  0.26656324306E+02  0.18753323292E+03  0.17120000000E+03 0.  0.
        998    1    1    2    0    0 -0.97640860131E+01 -0.14113570394E+02  0.10967754415E+04  0.10969552859E+04  0.10000000000E+02 0. -1.
</event>
<event>
 5    1  0.1147307E-008  0.3818565E+03  0.7957747E-01  0.3443114E+00
         13   -1    0    0    0    0  0.00000000000E+00  0.00000000000E+00  0.14999999963E+04  0.15000000000E+04  0.10566000000E+00 0. -1.
        994   -1    0    0    0    0 -0.00000000000E+00 -0.00000000000E+00  0.11368683772E-12  0.17120000000E+03  0.17120000000E+03 0.  0.
         13    1    1    2    0    0  0.15216769344E+02 -0.74543992183E+01  0.44397906123E+02  0.47521609496E+02  0.10566000000E+00 0. -1.
        994    1    1    2    0    0 -0.10727887569E+02 -0.46607437000E+01  0.36536049511E+01  0.17163798802E+03  0.17120000000E+03 0.  0.
        998    1    1    2    0    0 -0.44888817756E+01  0.12115142918E+02  0.14519484852E+04  0.14520404025E+04  0.10000000000E+02 0. -1.
</event>
<event>
 5    1  0.1147307E-008  0.3852810E+03  0.7957747E-01  0.3428481E+00
         13   -1    0    0    0    0  0.00000000000E+00  0.00000000000E+00  0.14999999963E+04  0.15000000000E+04  0.10566000000E+00 0.  1.
        994   -1    0    0    0    0 -0.00000000000E+00 -0.00000000000E+00  0.11368683772E-12  0.17120000000E+03  0.17120000000E+03 0.  0.
         13    1    1    2    0    0 -0.13602419388E+02 -0.30137773855E+01  0.64815371727E+02  0.66295944397E+02  0.10566000000E+00 0.  1.
        994    1    1    2    0    0  0.93723152462E+01  0.54375331063E+01  0.18765596592E+01  0.17155281559E+03  0.17120000000E+03 0.  0.
        998    1    1    2    0    0  0.42301041414E+01 -0.24237557208E+01  0.14333080649E+04  0.14333512400E+04  0.10000000000E+02 0.  1.
</event>
<event>
 5    1  0.1147307E-008  0.3826524E+03  0.7957747E-01  0.3439690E+00
         13   -1    0    0    0    0  0.00000000000E+00  0.00000000000E+00  0.14999999963E+04  0.15000000000E+04  0.10566000000E+00 0. -1.
        994   -1    0    0    0    0 -0.00000000000E+00 -0.00000000000E+00  0.11368683772E-12  0.17120000000E+03  0.17120000000E+03 0.  0.
         13    1    1    2    0    0  0.10234441618E+02 -0.11836370172E+02  0.42494138651E+02  0.45283622181E+02  0.10566000000E+00 0. -1.
        994    1    1    2    0    0 -0.65016497704E+01  0.10525141423E+02  0.33075183932E+01  0.17167827390E+03  0.17120000000E+03 0.  0.
        998    1    1    2    0    0 -0.37327918477E+01  0.13112287486E+01  0.14541983392E+04  0.14542381039E+04  0.10000000000E+02 0. -1.
</event>
<event>
 5    1  0.1147307E-008  0.3819354E+03  0.7957747E-01  0.3442774E+00
         13   -1    0    0    0    0  0.00000000000E+00  0.00000000000E+00  0.14999999963E+04  0.15000000000E+04  0.10566000000E+00 0.  1.
        994   -1    0    0    0    0 -0.00000000000E+00 -0.00000000000E+00  0.11368683772E-12  0.17120000000E+03  0.17120000000E+03 0.  0.
         13    1    1    2    0    0  0.32759351196E+02 -0.80309519311E+01  0.19215026760E+03  0.19508820514E+03  0.10566000000E+00 0.  1.
        994    1    1    2    0    0 -0.76486633039E+01  0.17093702314E+02  0.43251071898E+01  0.17227548654E+03  0.17120000000E+03 0.  0.
        998    1    1    2    0    0 -0.25110687892E+02 -0.90627503826E+01  0.13035246215E+04  0.13038363083E+04  0.10000000000E+02 0.  1.
</event>
<event>
 5    1  0.1147307E-008  0.3836382E+03  0.7957747E-01  0.3435469E+00
         13   -1    0    0    0    0  0.00000000000E+00  0.00000000000E+00  0.14999999963E+04  0.15000000000E+04  0.10566000000E+00 0. -1.
        994   -1    0    0    0    0 -0.00000000000E+00 -0.00000000000E+00  0.11368683772E-12  0.17120000000E+03  0.17120000000E+03 0.  0.
         13    1    1    2    0    0 -0.67518707012E+01  0.99196961373E+01  0.30207127672E+02  0.32503382219E+02  0.10566000000E+00 0. -1.
        994    1    1    2    0    0  0.40589466939E+01 -0.10172076614E+02  0.27040876662E+01  0.17157126298E+03  0.17120000000E+03 0.  0.
        998    1    1    2    0    0  0.26929240073E+01  0.25238047714E+00  0.14670887809E+04  0.14671253548E+04  0.10000000000E+02 0. -1.
</event>
<event>
 5    1  0.1147307E-008  0.3801384E+03  0.7957747E-01  0.3450556E+00
         13   -1    0    0    0    0  0.00000000000E+00  0.00000000000E+00  0.14999999963E+04  0.15000000000E+04  0.10566000000E+00 0. -1.
        994   -1    0    0    0    0 -0.00000000000E+00 -0.00000000000E+00  0.11368683772E-12  0.17120000000E+03  0.17120000000E+03 0.  0.
         13    1    1    2    0    0  0.18223093007E+02  0.21782583750E+02  0.97344800993E+02  0.10140307450E+03  0.10566000000E+00 0. -1.
        994    1    1    2    0    0 -0.13560100780E+02 -0.12570914365E+02  0.52065394245E+01  0.17227435176E+03  0.17120000000E+03 0.  0.
        998    1    1    2    0    0 -0.46629922264E+01 -0.92116693856E+01  0.13974486559E+04  0.13975225737E+04  0.10000000000E+02 0. -1.
</event>
<event>
 5    1  0.1147307E-008  0.3846824E+03  0.7957747E-01  0.3431020E+00
         13   -1    0    0    0    0  0.00000000000E+00  0.00000000000E+00  0.14999999963E+04  0.15000000000E+04  0.10566000000E+00 0. -1.
        994   -1    0    0    0    0 -0.00000000000E+00 -0.00000000000E+00  0.11368683772E-12  0.17120000000E+03  0.17120000000E+03 0.  0.
         13    1    1    2    0    0 -0.28361769701E+01  0.99007044529E+01  0.28591844022E+02  0.30390336574E+02  0.10566000000E+00 0. -1.
        994    1    1    2    0    0  0.92746186427E+01 -0.10797796741E+02  0.24551715291E+01  0.17180826183E+03  0.17120000000E+03 0.  0.
        998    1    1    2    0    0 -0.64384416726E+01  0.89709228807E+00  0.14689529807E+04  0.14690014016E+04  0.10000000000E+02 0. -1.
</event>
<event>
 5    1  0.1147307E-008  0.3753732E+03  0.7957747E-01  0.3471555E+00
         13   -1    0    0    0    0  0.00000000000E+00  0.00000000000E+00  0.14999999963E+04  0.15000000000E+04  0.10566000000E+00 0. -1.
        994   -1    0    0    0    0 -0.00000000000E+00 -0.00000000000E+00  0.11368683772E-12  0.17120000000E+03  0.17120000000E+03 0.  0.
         13    1    1    2    0    0  0.74437975405E+02 -0.37496379869E+02  0.49362894659E+03  0.50061615911E+03  0.10566000000E+00 0. -1.
        994    1    1    2    0    0 -0.49060995922E+02  0.25528505433E+02  0.16942924655E+02  0.18070746694E+03  0.17120000000E+03 0.  0.
        998    1    1    2    0    0 -0.25376979483E+02  0.11967874436E+02  0.98942812503E+03  0.98987637395E+03  0.10000000000E+02 0. -1.
</event>
<event>
 5    1  0.1147307E-008  0.3821809E+03  0.7957747E-01  0.3441717E+00
         13   -1    0    0    0    0  0.00000000000E+00  0.00000000000E+00  0.14999999963E+04  0.15000000000E+04  0.10566000000E+00 0.  1.
        994   -1    0    0    0    0 -0.00000000000E+00 -0.00000000000E+00  0.11368683772E-12  0.17120000000E+03  0.17120000000E+03 0.  0.
         13    1    1    2    0    0  0.16287673734E+02  0.32451193808E+02  0.19188003246E+03  0.19528524347E+03  0.10566000000E+00 0.  1.
        994    1    1    2    0    0 -0.21181804913E+02 -0.29373029742E+02  0.74011828254E+01  0.17514468660E+03  0.17120000000E+03 0.  0.
        998    1    1    2    0    0  0.48941311792E+01 -0.30781640662E+01  0.13007187810E+04  0.13007700699E+04  0.10000000000E+02 0.  1.
</event>
<event>
 5    1  0.1147307E-008  0.3791944E+03  0.7957747E-01  0.3454674E+00
         13   -1    0    0    0    0  0.00000000000E+00  0.00000000000E+00  0.14999999963E+04  0.15000000000E+04  0.10566000000E+00 0. -1.
        994   -1    0    0    0    0 -0.00000000000E+00 -0.00000000000E+00  0.11368683772E-12  0.17120000000E+03  0.17120000000E+03 0.  0.
         13    1    1    2    0    0 -0.37139785362E+02 -0.14020291305E+02  0.18471100378E+03  0.18892881809E+03  0.10566000000E+00 0. -1.
        994    1    1    2    0    0  0.12513735108E+02  0.26803099526E+01  0.50895209942E+01  0.17175308105E+03  0.17120000000E+03 0.  0.
        998    1    1    2    0    0  0.24626050254E+02  0.11339981352E+02  0.13101994715E+04  0.13105181009E+04  0.10000000000E+02 0. -1.
</event>
<event>
 5    1  0.1147307E-008  0.3786490E+03  0.7957747E-01  0.3457062E+00
         13   -1    0    0    0    0  0.00000000000E+00  0.00000000000E+00  0.14999999963E+04  0.15000000000E+04  0.10566000000E+00 0. -1.
        994   -1    0    0    0    0 -0.00000000000E+00 -0.00000000000E+00  0.11368683772E-12  0.17120000000E+03  0.17120000000E+03 0.  0.
         13    1    1    2    0    0 -0.28242772306E+02 -0.25366344225E+02  0.15306712016E+03  0.15770434377E+03  0.10566000000E+00 0. -1.
        994    1    1    2    0    0 -0.20620547877E+02  0.52272288788E+02  0.15493751503E+02  0.18085103125E+03  0.17120000000E+03 0.  0.
        998    1    1    2    0    0  0.48863320182E+02 -0.26905944564E+02  0.13314391246E+04  0.13326446250E+04  0.10000000000E+02 0. -1.
</event>
<event>
 5    1  0.1147307E-008  0.3841573E+03  0.7957747E-01  0.3433254E+00
         13   -1    0    0    0    0  0.00000000000E+00  0.00000000000E+00  0.14999999963E+04  0.15000000000E+04  0.10566000000E+00 0.  1.
        994   -1    0    0    0    0 -0.00000000000E+00 -0.00000000000E+00  0.11368683772E-12  0.17120000000E+03  0.17120000000E+03 0.  0.
         13    1    1    2    0    0 -0.18747249140E+02 -0.98135638846E+01  0.11745180921E+03  0.11934280052E+03  0.10566000000E+00 0.  1.
        994    1    1    2    0    0  0.83631088398E+01 -0.81148892555E+01  0.24970285581E+01  0.17161430060E+03  0.17120000000E+03 0.  0.
        998    1    1    2    0    0  0.10384140300E+02  0.17928453140E+02  0.13800511585E+04  0.13802428989E+04  0.10000000000E+02 0.  1.
</event>
<event>
 5    1  0.1147307E-008  0.3811636E+03  0.7957747E-01  0.3446108E+00
         13   -1    0    0    0    0  0.00000000000E+00  0.00000000000E+00  0.14999999963E+04  0.15000000000E+04  0.10566000000E+00 0.  1.
        994   -1    0    0    0    0 -0.00000000000E+00 -0.00000000000E+00  0.11368683772E-12  0.17120000000E+03  0.17120000000E+03 0.  0.
         13    1    1    2    0    0  0.51085680511E+01  0.26060126778E+02  0.93062413085E+02  0.96777329827E+02  0.10566000000E+00 0.  1.
        994    1    1    2    0    0 -0.53055971842E+00 -0.26945067129E+02  0.59694105690E+01  0.17341104924E+03  0.17120000000E+03 0.  0.
        998    1    1    2    0    0 -0.45780083326E+01  0.88494035027E+00  0.14009681726E+04  0.14010116209E+04  0.10000000000E+02 0.  1.
</event>
<event>
 5    1  0.1147307E-008  0.3850330E+03  0.7957747E-01  0.3429532E+00
         13   -1    0    0    0    0  0.00000000000E+00  0.00000000000E+00  0.14999999963E+04  0.15000000000E+04  0.10566000000E+00 0. -1.
        994   -1    0    0    0    0 -0.00000000000E+00 -0.00000000000E+00  0.11368683772E-12  0.17120000000E+03  0.17120000000E+03 0.  0.
         13    1    1    2    0    0 -0.14221295115E+02  0.52862839332E+01  0.73530015735E+02  0.75079054406E+02  0.10566000000E+00 0. -1.
        994    1    1    2    0    0  0.12155566124E+02  0.15398142191E+02  0.28803273471E+01  0.17234441348E+03  0.17120000000E+03 0.  0.
        998    1    1    2    0    0  0.20657289912E+01 -0.20684426124E+02  0.14235896532E+04  0.14237765321E+04  0.10000000000E+02 0. -1.
</event>
<event>
 5    1  0.1147307E-008  0.3796869E+03  0.7957747E-01  0.3452523E+00
         13   -1    0    0    0    0  0.00000000000E+00  0.00000000000E+00  0.14999999963E+04  0.15000000000E+04  0.10566000000E+00 0. -1.
        994   -1    0    0    0    0 -0.00000000000E+00 -0.00000000000E+00  0.11368683772E-12  0.17120000000E+03  0.17120000000E+03 0.  0.
         13    1    1    2    0    0 -0.34703355858E+01  0.15432787514E+02  0.27622176293E+02  0.31830958935E+02  0.10566000000E+00 0. -1.
        994    1    1    2    0    0 -0.13170955945E+02 -0.11511060680E+02  0.53158722318E+01  0.17217339253E+03  0.17120000000E+03 0.  0.
        998    1    1    2    0    0  0.16641291531E+02 -0.39217268340E+01  0.14670619478E+04  0.14671956485E+04  0.10000000000E+02 0. -1.
</event>
<event>
 5    1  0.1147307E-008  0.3795601E+03  0.7957747E-01  0.3453076E+00
         13   -1    0    0    0    0  0.00000000000E+00  0.00000000000E+00  0.14999999963E+04  0.15000000000E+04  0.10566000000E+00 0.  1.
        994   -1    0    0    0    0 -0.00000000000E+00 -0.00000000000E+00  0.11368683772E-12  0.17120000000E+03  0.17120000000E+03 0.  0.
         13    1    1    2    0    0  0.38461539666E+02  0.91838322623E+00  0.16139567037E+03  0.16591777192E+03  0.10566000000E+00 0.  1.
        994    1    1    2    0    0 -0.29077642979E+02 -0.47257870331E+01  0.72661616143E+01  0.17386799444E+03  0.17120000000E+03 0.  0.
        998    1    1    2    0    0 -0.93838966870E+01  0.38074038069E+01  0.13313381643E+04  0.13314142336E+04  0.10000000000E+02 0.  1.
</event>
<event>
 5    1  0.1147307E-008  0.3792552E+03  0.7957747E-01  0.3454408E+00
         13   -1    0    0    0    0  0.00000000000E+00  0.00000000000E+00  0.14999999963E+04  0.15000000000E+04  0.10566000000E+00 0.  1.
        994   -1    0    0    0    0 -0.00000000000E+00 -0.00000000000E+00  0.11368683772E-12  0.17120000000E+03  0.17120000000E+03 0.  0.
         13    1    1    2    0    0  0.13271251366E+02  0.19856214911E+02  0.60652200035E+02  0.65185089680E+02  0.10566000000E+00 0.  1.
        994    1    1    2    0    0 -0.76262244131E+01 -0.17895087633E+02  0.57786716086E+01  0.17239845274E+03  0.17120000000E+03 0.  0.
        998    1    1    2    0    0 -0.56450269532E+01 -0.19611272779E+01  0.14335691246E+04  0.14336164576E+04  0.10000000000E+02 0.  1.
</event>
<event>
 5    1  0.1147307E-008  0.3761864E+03  0.7957747E-01  0.3467934E+00
         13   -1    0    0    0    0  0.00000000000E+00  0.00000000000E+00  0.14999999963E+04  0.15000000000E+04  0.10566000000E+00 0.  1.
        994   -1    0    0    0    0 -0.00000000000E+00 -0.00000000000E+00  0.11368683772E-12  0.17120000000E+03  0.17120000000E+03 0.  0.
         13    1    1    2    0    0 -0.10280285136E+02 -0.13651626043E+01  0.60344235217E+01  0.11998890061E+02  0.10566000000E+00 0.  1.
        994    1    1    2    0    0  0.99185909758E+01  0.15518211662E+01  0.64120607919E+01  0.17161393044E+03  0.17120000000E+03 0.  0.
        998    1    1    2    0    0  0.36169416058E+00 -0.18665856191E+00  0.14875535120E+04  0.14875871795E+04  0.10000000000E+02 0.  0.
</event>
<event>
 5    1  0.1147307E-008  0.3812009E+03  0.7957747E-01  0.3445946E+00
         13   -1    0    0    0    0  0.00000000000E+00  0.00000000000E+00  0.14999999963E+04  0.15000000000E+04  0.10566000000E+00 0. -1.
        994   -1    0    0    0    0 -0.00000000000E+00 -0.00000000000E+00  0.11368683772E-12  0.17120000000E+03  0.17120000000E+03 0.  0.
         13    1    1    2    0    0 -0.30330016919E+02 -0.35975487402E+01  0.12708035877E+03  0.13069920058E+03  0.10566000000E+00 0. -1.
        994    1    1    2    0    0  0.24143053446E+02 -0.60364555653E+01  0.55930517273E+01  0.17308971100E+03  0.17120000000E+03 0.  0.
        998    1    1    2    0    0  0.61869634729E+01  0.96340043055E+01  0.13673265858E+04  0.13674110884E+04  0.10000000000E+02 0. -1.
</event>
<event>
 5    1  0.1147307E-008  0.3800700E+03  0.7957747E-01  0.3450854E+00
         13   -1    0    0    0    0  0.00000000000E+00  0.00000000000E+00  0.14999999963E+04  0.15000000000E+04  0.10566000000E+00 0.  1.
        994   -1    0    0    0    0 -0.00000000000E+00 -0.00000000000E+00  0.11368683772E-12  0.17120000000E+03  0.17120000000E+03 0.  0.
         13    1    1    2    0    0  0.33013062089E+02  0.62791349210E+01  0.15991351072E+03  0.16340633978E+03  0.10566000000E+00 0.  1.
        994    1    1    2    0    0  0.30086764285E+01  0.44067306618E+01  0.41929727439E+01  0.17133444613E+03  0.17120000000E+03 0.  0.
        998    1    1    2    0    0 -0.36021738517E+02 -0.10685865583E+02  0.13358935128E+04  0.13364592141E+04  0.10000000000E+02 0.  1.
</event>
<event>
 5    1  0.1147307E-008  0.3783480E+03  0.7957747E-01  0.3458383E+00
         13   -1    0    0    0    0  0.00000000000E+00  0.00000000000E+00  0.14999999963E+04  0.15000000000E+04  0.10566000000E+00 0. -1.
        994   -1    0    0    0    0 -0.00000000000E+00 -0.00000000000E+00  0.11368683772E-12  0.17120000000E+03  0.17120000000E+03 0.  0.
         13    1    1    2    0    0  0.30265203578E+02 -0.91177296815E+01  0.10217031876E+03  0.10694812173E+03  0.10566000000E+00 0. -1.
        994    1    1    2    0    0 -0.14963397674E+02 -0.70285992798E+01  0.58885823856E+01  0.17209712339E+03  0.17120000000E+03 0.  0.
        998    1    1    2    0    0 -0.15301805904E+02  0.16146328961E+02  0.13919410951E+04  0.13921547549E+04  0.10000000000E+02 0. -1.
</event>
<event>
 5    1  0.1147307E-008  0.3759030E+03  0.7957747E-01  0.3469194E+00
         13   -1    0    0    0    0  0.00000000000E+00  0.00000000000E+00  0.14999999963E+04  0.15000000000E+04  0.10566000000E+00 0. -1.
        994   -1    0    0    0    0 -0.00000000000E+00 -0.00000000000E+00  0.11368683772E-12  0.17120000000E+03  0.17120000000E+03 0.  0.
         13    1    1    2    0    0  0.12588962525E+02 -0.58518630044E+02  0.24881605285E+03  0.25591473455E+03  0.10566000000E+00 0. -1.
        994    1    1    2    0    0  0.93972045052E+00  0.56392307718E+02  0.17072895316E+02  0.18105772339E+03  0.17120000000E+03 0.  0.
        998    1    1    2    0    0 -0.13528682976E+02  0.21263223260E+01  0.12341110481E+04  0.12342275421E+04  0.10000000000E+02 0. -1.
</event>
<event>
 5    1  0.1147307E-008  0.3737621E+03  0.7957747E-01  0.3478778E+00
         13   -1    0    0    0    0  0.00000000000E+00  0.00000000000E+00  0.14999999963E+04  0.15000000000E+04  0.10566000000E+00 0. -1.
        994   -1    0    0    0    0 -0.00000000000E+00 -0.00000000000E+00  0.11368683772E-12  0.17120000000E+03  0.17120000000E+03 0.  0.
         13    1    1    2    0    0 -0.33215199368E+02 -0.20597400183E+02  0.94523865553E+02  0.10228526134E+03  0.10566000000E+00 0. -1.
        994    1    1    2    0    0  0.40734240323E+02  0.15522822090E+02  0.13830002748E+02  0.17720311881E+03  0.17120000000E+03 0.  0.
        998    1    1    2    0    0 -0.75190409540E+01  0.50745780931E+01  0.13916461280E+04  0.13917116199E+04  0.10000000000E+02 0. -1.
</event>
<event>
 5    1  0.1147307E-008  0.3852835E+03  0.7957747E-01  0.3428471E+00
         13   -1    0    0    0    0  0.00000000000E+00  0.00000000000E+00  0.14999999963E+04  0.15000000000E+04  0.10566000000E+00 0. -1.
        994   -1    0    0    0    0 -0.00000000000E+00 -0.00000000000E+00  0.11368683772E-12  0.17120000000E+03  0.17120000000E+03 0.  0.
         13    1    1    2    0    0 -0.10148010364E+02  0.27470172210E+01  0.36408012043E+02  0.37895682114E+02  0.10566000000E+00 0. -1.
        994    1    1    2    0    0  0.98964289756E+01 -0.46087406973E+01  0.18811117668E+01  0.17155803210E+03  0.17120000000E+03 0.  0.
        998    1    1    2    0    0  0.25158138884E+00  0.18617234762E+01  0.14617108725E+04  0.14617462858E+04  0.10000000000E+02 0. -1.
</event>
<event>
 5    1  0.1147307E-008  0.3790554E+03  0.7957747E-01  0.3455282E+00
         13   -1    0    0    0    0  0.00000000000E+00  0.00000000000E+00  0.14999999963E+04  0.15000000000E+04  0.10566000000E+00 0. -1.
        994   -1    0    0    0    0 -0.00000000000E+00 -0.00000000000E+00  0.11368683772E-12  0.17120000000E+03  0.17120000000E+03 0.  0.
         13    1    1    2    0    0  0.47751569094E+02 -0.15887678688E+02  0.23835080928E+03  0.24360572681E+03  0.10566000000E+00 0. -1.
        994    1    1    2    0    0 -0.43135312735E+02  0.18231073271E+02  0.12000200743E+02  0.17789455319E+03  0.17120000000E+03 0.  0.
        998    1    1    2    0    0 -0.46162563595E+01 -0.23433945831E+01  0.12496489863E+04  0.12496997200E+04  0.10000000000E+02 0. -1.
</event>
<event>
 5    1  0.1147307E-008  0.3825994E+03  0.7957747E-01  0.3439918E+00
         13   -1    0    0    0    0  0.00000000000E+00  0.00000000000E+00  0.14999999963E+04  0.15000000000E+04  0.10566000000E+00 0.  1.
        994   -1    0    0    0    0 -0.00000000000E+00 -0.00000000000E+00  0.11368683772E-12  0.17120000000E+03  0.17120000000E+03 0.  0.
         13    1    1    2    0    0  0.11902367272E+02 -0.72704853238E+01  0.33834764054E+02  0.36596840384E+02  0.10566000000E+00 0.  1.
        994    1    1    2    0    0 -0.85943932734E+01 -0.20917881593E+01  0.30860653396E+01  0.17145612550E+03  0.17120000000E+03 0.  0.
        998    1    1    2    0    0 -0.33079739982E+01  0.93622734831E+01  0.14630791669E+04  0.14631470341E+04  0.10000000000E+02 0.  1.
</event>
<event>
 5    1  0.1147307E-008  0.3811220E+03  0.7957747E-01  0.3446288E+00
         13   -1    0    0    0    0  0.00000000000E+00  0.00000000000E+00  0.14999999963E+04  0.15000000000E+04  0.10566000000E+00 0. -1.
        994   -1    0    0    0    0 -0.00000000000E+00 -0.00000000000E+00  0.11368683772E-12  0.17120000000E+03  0.17120000000E+03 0.  0.
         13    1    1    2    0    0  0.95763014397E+01 -0.11379826726E+02  0.29049095578E+02  0.32635366146E+02  0.10566000000E+00 0. -1.
        994    1    1    2    0    0 -0.80191325656E+01  0.14513011742E+02  0.44840627045E+01  0.17205952695E+03  0.17120000000E+03 0.  0.
        998    1    1    2    0    0 -0.15571688741E+01 -0.31331850162E+01  0.14664668380E+04  0.14665051069E+04  0.10000000000E+02 0. -1.
</event>
<event>
 5    1  0.1147307E-008  0.3830941E+03  0.7957747E-01  0.3437796E+00
         13   -1    0    0    0    0  0.00000000000E+00  0.00000000000E+00  0.14999999963E+04  0.15000000000E+04  0.10566000000E+00 0.  1.
        994   -1    0    0    0    0 -0.00000000000E+00 -0.00000000000E+00  0.11368683772E-12  0.17120000000E+03  0.17120000000E+03 0.  0.
         13    1    1    2    0    0  0.28958439154E+02 -0.12417109876E+00  0.15343211684E+03  0.15614106525E+03  0.10566000000E+00 0.  1.
        994    1    1    2    0    0 -0.24577556130E+02  0.20235434043E+02  0.59404457824E+01  0.17423621309E+03  0.17120000000E+03 0.  0.
        998    1    1    2    0    0 -0.43808830237E+01 -0.20111262944E+02  0.13406274337E+04  0.13408227217E+04  0.10000000000E+02 0.  1.
</event>
<event>
 5    1  0.1147307E-008  0.3729876E+03  0.7957747E-01  0.3482272E+00
         13   -1    0    0    0    0  0.00000000000E+00  0.00000000000E+00  0.14999999963E+04  0.15000000000E+04  0.10566000000E+00 0.  1.
        994   -1    0    0    0    0 -0.00000000000E+00 -0.00000000000E+00  0.11368683772E-12  0.17120000000E+03  0.17120000000E+03 0.  0.
         13    1    1    2    0    0  0.19987582554E+02 -0.30301171957E+01  0.22841238081E+02  0.30502760329E+02  0.10566000000E+00 0. -1.
        994    1    1    2    0    0 -0.20526692019E+02  0.42277475259E+01  0.92204429910E+01  0.17272427595E+03  0.17120000000E+03 0.  0.
        998    1    1    2    0    0  0.53910946488E+00 -0.11976303302E+01  0.14679383152E+04  0.14679729637E+04  0.10000000000E+02 0.  1.
</event>
<event>
 5    1  0.1147307E-008  0.3837406E+03  0.7957747E-01  0.3435031E+00
         13   -1    0    0    0    0  0.00000000000E+00  0.00000000000E+00  0.14999999963E+04  0.15000000000E+04  0.10566000000E+00 0. -1.
        994   -1    0    0    0    0 -0.00000000000E+00 -0.00000000000E+00  0.11368683772E-12  0.17120000000E+03  0.17120000000E+03 0.  0.
         13    1    1    2    0    0  0.22740145245E+02  0.86772847813E+01  0.13801327602E+03  0.14014308759E+03  0.10566000000E+00 0. -1.
        994    1    1    2    0    0 -0.68020989915E+01 -0.48445826910E+01  0.24870028630E+01  0.17142159641E+03  0.17120000000E+03 0.  0.
        998    1    1    2    0    0 -0.15938046253E+02 -0.38327020903E+01  0.13594997174E+04  0.13596353160E+04  0.10000000000E+02 0. -1.
</event>
<event>
 5    1  0.1147307E-008  0.3871917E+03  0.7957747E-01  0.3420430E+00
         13   -1    0    0    0    0  0.00000000000E+00  0.00000000000E+00  0.14999999963E+04  0.15000000000E+04  0.10566000000E+00 0.  1.
        994   -1    0    0    0    0 -0.00000000000E+00 -0.00000000000E+00  0.11368683772E-12  0.17120000000E+03  0.17120000000E+03 0.  0.
         13    1    1    2    0    0 -0.18202630425E+02 -0.13999845519E+02  0.34016730821E+01  0.23214520730E+02  0.10566000000E+00 0.  1.
        994    1    1    2    0    0  0.31997444881E+02  0.40239173639E+02  0.30238718468E+02  0.18129216108E+03  0.17120000000E+03 0.  0.
        998    1    1    2    0    0 -0.13794814456E+02 -0.26239328120E+02  0.14663596047E+04  0.14666933182E+04  0.10000000000E+02 0.  1.
</event>
<event>
 5    1  0.1147307E-008  0.3752133E+03  0.7957747E-01  0.3472270E+00
         13   -1    0    0    0    0  0.00000000000E+00  0.00000000000E+00  0.14999999963E+04  0.15000000000E+04  0.10566000000E+00 0. -1.
        994   -1    0    0    0    0 -0.00000000000E+00 -0.00000000000E+00  0.11368683772E-12  0.17120000000E+03  0.17120000000E+03 0.  0.
         13    1    1    2    0    0  0.24477671416E+02  0.14730020178E+02  0.58852164984E+02  0.65419556554E+02  0.10566000000E+00 0. -1.
        994    1    1    2    0    0 -0.22255532963E+02 -0.62180132962E+01  0.83851330177E+01  0.17295584087E+03  0.17120000000E+03 0.  0.
        998    1    1    2    0    0 -0.22221384534E+01 -0.85120068816E+01  0.14327626983E+04  0.14328246026E+04  0.10000000000E+02 0. -1.
</event>
<event>
 5    1  0.1147307E-008  0.3825173E+03  0.7957747E-01  0.3440270E+00
         13   -1    0    0    0    0  0.00000000000E+00  0.00000000000E+00  0.14999999963E+04  0.15000000000E+04  0.10566000000E+00 0.  1.
        994   -1    0    0    0    0 -0.00000000000E+00 -0.00000000000E+00  0.11368683772E-12  0.17120000000E+03  0.17120000000E+03 0.  0.
         13    1    1    2    0    0 -0.14141703217E+02 -0.39013702052E+02  0.23901029871E+03  0.24258604818E+03  0.10566000000E+00 0.  1.
        994    1    1    2    0    0  0.92162116102E+01  0.47939591311E+02  0.10809268656E+02  0.17835196455E+03  0.17120000000E+03 0.  0.
        998    1    1    2    0    0  0.49254916065E+01 -0.89258892592E+01  0.12501804289E+04  0.12502619873E+04  0.10000000000E+02 0.  1.
</event>
<event>
 5    1  0.1147307E-008  0.3790466E+03  0.7957747E-01  0.3455320E+00
         13   -1    0    0    0    0  0.00000000000E+00  0.00000000000E+00  0.14999999963E+04  0.15000000000E+04  0.10566000000E+00 0.  1.
        994   -1    0    0    0    0 -0.00000000000E+00 -0.00000000000E+00  0.11368683772E-12  0.17120000000E+03  0.17120000000E+03 0.  0.
         13    1    1    2    0    0 -0.15931409300E+02 -0.37082472622E+02  0.16411509856E+03  0.16900501861E+03  0.10566000000E+00 0.  1.
        994    1    1    2    0    0  0.12043858184E+02  0.31513219654E+02  0.84413625595E+01  0.17469640561E+03  0.17120000000E+03 0.  0.
        998    1    1    2    0    0  0.38875511155E+01  0.55692529689E+01  0.13274435352E+04  0.13274985758E+04  0.10000000000E+02 0.  1.
</event>
<event>
 5    1  0.1147307E-008  0.3754092E+03  0.7957747E-01  0.3471395E+00
         13   -1    0    0    0    0  0.00000000000E+00  0.00000000000E+00  0.14999999963E+04  0.15000000000E+04  0.10566000000E+00 0.  1.
        994   -1    0    0    0    0 -0.00000000000E+00 -0.00000000000E+00  0.11368683772E-12  0.17120000000E+03  0.17120000000E+03 0.  0.
         13    1    1    2    0    0  0.30158539582E+02  0.16244692650E+02  0.36524834857E+02  0.50074966544E+02  0.10566000000E+00 0.  1.
        994    1    1    2    0    0 -0.33050204127E+02 -0.75669979306E+00  0.17732570629E+02  0.17526201142E+03  0.17120000000E+03 0.  0.
        998    1    1    2    0    0  0.28916645446E+01 -0.15487992857E+02  0.14457425908E+04  0.14458630220E+04  0.10000000000E+02 0.  1.
</event>
<event>
 5    1  0.1147307E-008  0.3808229E+03  0.7957747E-01  0.3447583E+00
         13   -1    0    0    0    0  0.00000000000E+00  0.00000000000E+00  0.14999999963E+04  0.15000000000E+04  0.10566000000E+00 0.  1.
        994   -1    0    0    0    0 -0.00000000000E+00 -0.00000000000E+00  0.11368683772E-12  0.17120000000E+03  0.17120000000E+03 0.  0.
         13    1    1    2    0    0 -0.37814648533E+02  0.13904691049E+03  0.79935009471E+03  0.81223431104E+03  0.10566000000E+00 0.  1.
        994    1    1    2    0    0  0.51493122025E+02 -0.15445762767E+03  0.97832601707E+02  0.25571343007E+03  0.17120000000E+03 0.  0.
        998    1    1    2    0    0 -0.13678473492E+02  0.15410717180E+02  0.60281729986E+03  0.60325225889E+03  0.10000000000E+02 0. -1.
</event>
<event>
 5    1  0.1147307E-008  0.3856904E+03  0.7957747E-01  0.3426750E+00
         13   -1    0    0    0    0  0.00000000000E+00  0.00000000000E+00  0.14999999963E+04  0.15000000000E+04  0.10566000000E+00 0.  1.
        994   -1    0    0    0    0 -0.00000000000E+00 -0.00000000000E+00  0.11368683772E-12  0.17120000000E+03  0.17120000000E+03 0.  0.
         13    1    1    2    0    0  0.17055709891E+02  0.32282931997E+00  0.96597256522E+02  0.98092010838E+02  0.10566000000E+00 0.  1.
        994    1    1    2    0    0 -0.30435148337E+02 -0.13015745678E+02  0.48914071205E+01  0.17443931252E+03  0.17120000000E+03 0.  0.
        998    1    1    2    0    0  0.13379438446E+02  0.12692916358E+02  0.13985113326E+04  0.13986686766E+04  0.10000000000E+02 0.  1.
</event>
<event>
 5    1  0.1147307E-008  0.3824634E+03  0.7957747E-01  0.3440502E+00
         13   -1    0    0    0    0  0.00000000000E+00  0.00000000000E+00  0.14999999963E+04  0.15000000000E+04  0.10566000000E+00 0.  1.
        994   -1    0    0    0    0 -0.00000000000E+00 -0.00000000000E+00  0.11368683772E-12  0.17120000000E+03  0.17120000000E+03 0.  0.
         13    1    1    2    0    0  0.17067651870E+02 -0.85552597029E+01  0.62500158285E+02  0.65351190950E+02  0.10566000000E+00 0.  1.
        994    1    1    2    0    0 -0.76043457448E+01  0.89488706155E+01  0.33522035666E+01  0.17163503613E+03  0.17120000000E+03 0.  0.
        998    1    1    2    0    0 -0.94633061248E+01 -0.39361091259E+00  0.14341476344E+04  0.14342137729E+04  0.10000000000E+02 0.  1.
</event>
<event>
 5    1  0.1147307E-008  0.3693461E+03  0.7957747E-01  0.3498902E+00
         13   -1    0    0    0    0  0.00000000000E+00  0.00000000000E+00  0.14999999963E+04  0.15000000000E+04  0.10566000000E+00 0.  1.
        994   -1    0    0    0    0 -0.00000000000E+00 -0.00000000000E+00  0.11368683772E-12  0.17120000000E+03  0.17120000000E+03 0.  0.
         13    1    1    2    0    0 -0.24803480453E+02 -0.29923583444E+02  0.90643289773E+02  0.98624797255E+02  0.10566000000E+00 0.  1.
        994    1    1    2    0    0  0.23174099995E+01 -0.38303877240E+02  0.14731642146E+02  0.17606538184E+03  0.17120000000E+03 0.  0.
        998    1    1    2    0    0  0.22486070453E+02  0.68227460684E+02  0.13946250644E+04  0.13965098209E+04  0.10000000000E+02 0.  1.
</event>
<event>
 5    1  0.1147307E-008  0.3720855E+03  0.7957747E-01  0.3486361E+00
         13   -1    0    0    0    0  0.00000000000E+00  0.00000000000E+00  0.14999999963E+04  0.15000000000E+04  0.10566000000E+00 0.  1.
        994   -1    0    0    0    0 -0.00000000000E+00 -0.00000000000E+00  0.11368683772E-12  0.17120000000E+03  0.17120000000E+03 0.  0.
         13    1    1    2    0    0 -0.20767366970E+02 -0.26185381008E+01  0.22973355154E+02  0.31079357839E+02  0.10566000000E+00 0.  1.
        994    1    1    2    0    0  0.19737870863E+02  0.95183754119E+01  0.98332535463E+01  0.17287659151E+03  0.17120000000E+03 0.  0.
        998    1    1    2    0    0  0.10294961067E+01 -0.68998373111E+01  0.14671933876E+04  0.14672440507E+04  0.10000000000E+02 0.  1.
</event>
<event>
 5    1  0.1147307E-008  0.3812428E+03  0.7957747E-01  0.3445765E+00
         13   -1    0    0    0    0  0.00000000000E+00  0.00000000000E+00  0.14999999963E+04  0.15000000000E+04  0.10566000000E+00 0. -1.
        994   -1    0    0    0    0 -0.00000000000E+00 -0.00000000000E+00  0.11368683772E-12  0.17120000000E+03  0.17120000000E+03 0.  0.
         13    1    1    2    0    0 -0.10694789915E+02  0.13838142295E+02  0.41738773690E+02  0.45254934611E+02  0.10566000000E+00 0. -1.
        994    1    1    2    0    0  0.10711204389E+02 -0.11180426845E+02  0.43056141023E+01  0.17195263928E+03  0.17120000000E+03 0.  0.
        998    1    1    2    0    0 -0.16414473379E-01 -0.26577154493E+01  0.14539556085E+04  0.14539924261E+04  0.10000000000E+02 0. -1.
</event>
<event>
 5    1  0.1147307E-008  0.3806779E+03  0.7957747E-01  0.3448212E+00
         13   -1    0    0    0    0  0.00000000000E+00  0.00000000000E+00  0.14999999963E+04  0.15000000000E+04  0.10566000000E+00 0. -1.
        994   -1    0    0    0    0 -0.00000000000E+00 -0.00000000000E+00  0.11368683772E-12  0.17120000000E+03  0.17120000000E+03 0.  0.
         13    1    1    2    0    0  0.13858588977E+02  0.87810850377E+01  0.33674437969E+02  0.37458602209E+02  0.10566000000E+00 0. -1.
        994    1    1    2    0    0 -0.18239246068E+02  0.19605216799E+01  0.49145413235E+01  0.17225012760E+03  0.17120000000E+03 0.  0.
        998    1    1    2    0    0  0.43806570902E+01 -0.10741606718E+02  0.14614110170E+04  0.14614912702E+04  0.10000000000E+02 0. -1.
</event>
<event>
 5    1  0.1147307E-008  0.3840418E+03  0.7957747E-01  0.3433746E+00
         13   -1    0    0    0    0  0.00000000000E+00  0.00000000000E+00  0.14999999963E+04  0.15000000000E+04  0.10566000000E+00 0.  1.
        994   -1    0    0    0    0 -0.00000000000E+00 -0.00000000000E+00  0.11368683772E-12  0.17120000000E+03  0.17120000000E+03 0.  0.
         13    1    1    2    0    0  0.97927312665E+01  0.31477271748E+01  0.24101664331E+02  0.26205097969E+02  0.10566000000E+00 0.  1.
        994    1    1    2    0    0 -0.10523798869E+02 -0.46003549417E+01  0.25419197118E+01  0.17160365662E+03  0.17120000000E+03 0.  0.
        998    1    1    2    0    0  0.73106760275E+00  0.14526277669E+01  0.14733564122E+04  0.14733912454E+04  0.10000000000E+02 0.  1.
</event>
<event>
 5    1  0.1147307E-008  0.3735155E+03  0.7957747E-01  0.3479889E+00
         13   -1    0    0    0    0  0.00000000000E+00  0.00000000000E+00  0.14999999963E+04  0.15000000000E+04  0.10566000000E+00 0. -1.
        994   -1    0    0    0    0 -0.00000000000E+00 -0.00000000000E+00  0.11368683772E-12  0.17120000000E+03  0.17120000000E+03 0.  0.
         13    1    1    2    0    0 -0.19714062352E+02  0.30958370703E+02  0.82929928815E+02  0.90688749182E+02  0.10566000000E+00 0. -1.
        994    1    1    2    0    0  0.21496604817E+02 -0.31668520125E+02  0.12464428263E+02  0.17586870432E+03  0.17120000000E+03 0.  0.
        998    1    1    2    0    0 -0.17825424655E+01  0.71014942261E+00  0.14046056392E+04  0.14046425465E+04  0.10000000000E+02 0. -1.
</event>
<event>
 5    1  0.1147307E-008  0.3837877E+03  0.7957747E-01  0.3434830E+00
         13   -1    0    0    0    0  0.00000000000E+00  0.00000000000E+00  0.14999999963E+04  0.15000000000E+04  0.10566000000E+00 0.  1.
        994   -1    0    0    0    0 -0.00000000000E+00 -0.00000000000E+00  0.11368683772E-12  0.17120000000E+03  0.17120000000E+03 0.  0.
         13    1    1    2    0    0  0.17421417884E+02  0.15397718998E+02  0.13617543135E+03  0.13814613573E+03  0.10566000000E+00 0.  1.
        994    1    1    2    0    0 -0.67484703422E+01  0.84580129040E+01  0.26198891009E+01  0.17156160309E+03  0.17120000000E+03 0.  0.
        998    1    1    2    0    0 -0.10672947542E+02 -0.23855731902E+02  0.13612046758E+04  0.13614922612E+04  0.10000000000E+02 0.  1.
</event>
<event>
 5    1  0.1147307E-008  0.3980671E+03  0.7957747E-01  0.3376076E+00
         13   -1    0    0    0    0  0.00000000000E+00  0.00000000000E+00  0.14999999963E+04  0.15000000000E+04  0.10566000000E+00 0.  1.
        994   -1    0    0    0    0 -0.00000000000E+00 -0.00000000000E+00  0.11368683772E-12  0.17120000000E+03  0.17120000000E+03 0.  0.
         13    1    1    2    0    0 -0.81676771573E+01 -0.43553234337E+02  0.26355051755E+02  0.51557686997E+02  0.10566000000E+00 0.  1.
        994    1    1    2    0    0  0.84210128821E+01  0.40072441231E+02  0.33167973046E+02  0.17912640353E+03  0.17120000000E+03 0.  0.
        998    1    1    2    0    0 -0.25333572476E+00  0.34807931058E+01  0.14404769715E+04  0.14405159095E+04  0.10000000000E+02 0.  1.
</event>
<event>
 5    1  0.1147307E-008  0.3798192E+03  0.7957747E-01  0.3451946E+00
         13   -1    0    0    0    0  0.00000000000E+00  0.00000000000E+00  0.14999999963E+04  0.15000000000E+04  0.10566000000E+00 0.  1.
        994   -1    0    0    0    0 -0.00000000000E+00 -0.00000000000E+00  0.11368683772E-12  0.17120000000E+03  0.17120000000E+03 0.  0.
         13    1    1    2    0    0  0.53023705771E+02 -0.15805693429E+02  0.85386926005E+02  0.10174611351E+03  0.10566000000E+00 0.  1.
        994    1    1    2    0    0 -0.51227962605E+02  0.39907930055E+01  0.25850988885E+02  0.18060438590E+03  0.17120000000E+03 0.  0.
        998    1    1    2    0    0 -0.17957431657E+01  0.11814900424E+02  0.13887620814E+04  0.13888495006E+04  0.10000000000E+02 0.  1.
</event>
<event>
 5    1  0.1147307E-008  0.3788321E+03  0.7957747E-01  0.3456260E+00
         13   -1    0    0    0    0  0.00000000000E+00  0.00000000000E+00  0.14999999963E+04  0.15000000000E+04  0.10566000000E+00 0. -1.
        994   -1    0    0    0    0 -0.00000000000E+00 -0.00000000000E+00  0.11368683772E-12  0.17120000000E+03  0.17120000000E+03 0.  0.
         13    1    1    2    0    0  0.54324717375E+02  0.51206754761E+02  0.43910575086E+03  0.44540675595E+03  0.10566000000E+00 0. -1.
        994    1    1    2    0    0 -0.40983040310E+02 -0.59318068104E+02  0.22371163217E+02  0.18710465451E+03  0.17120000000E+03 0.  0.
        998    1    1    2    0    0 -0.13341677065E+02  0.81113133431E+01  0.10385230822E+04  0.10386885895E+04  0.10000000000E+02 0. -1.
</event>
<event>
 5    1  0.1147307E-008  0.3812868E+03  0.7957747E-01  0.3445575E+00
         13   -1    0    0    0    0  0.00000000000E+00  0.00000000000E+00  0.14999999963E+04  0.15000000000E+04  0.10566000000E+00 0.  1.
        994   -1    0    0    0    0 -0.00000000000E+00 -0.00000000000E+00  0.11368683772E-12  0.17120000000E+03  0.17120000000E+03 0.  0.
         13    1    1    2    0    0 -0.10135836037E+02 -0.46217218820E+01  0.15964494139E+02  0.19467196061E+02  0.10566000000E+00 0.  1.
        994    1    1    2    0    0  0.20269168533E+02 -0.36378428048E+01  0.48979011107E+01  0.17250363048E+03  0.17120000000E+03 0.  0.
        998    1    1    2    0    0 -0.10133332496E+02  0.82595646868E+01  0.14791376010E+04  0.14792291735E+04  0.10000000000E+02 0.  1.
</event>
<event>
 5    1  0.1147307E-008  0.3832278E+03  0.7957747E-01  0.3437223E+00
         13   -1    0    0    0    0  0.00000000000E+00  0.00000000000E+00  0.14999999963E+04  0.15000000000E+04  0.10566000000E+00 0. -1.
        994   -1    0    0    0    0 -0.00000000000E+00 -0.00000000000E+00  0.11368683772E-12  0.17120000000E+03  0.17120000000E+03 0.  0.
         13    1    1    2    0    0  0.10622853472E+02 -0.20621653451E+02  0.97456821278E+02  0.10017954275E+03  0.10566000000E+00 0. -1.
        994    1    1    2    0    0  0.99215922853E+01  0.37968119884E+02  0.76231617430E+01  0.17580548545E+03  0.17120000000E+03 0.  0.
        998    1    1    2    0    0 -0.20544445757E+02 -0.17346466433E+02  0.13949200133E+04  0.13952149718E+04  0.10000000000E+02 0. -1.
</event>
<event>
 5    1  0.1147307E-008  0.3850846E+03  0.7957747E-01  0.3429314E+00
         13   -1    0    0    0    0  0.00000000000E+00  0.00000000000E+00  0.14999999963E+04  0.15000000000E+04  0.10566000000E+00 0. -1.
        994   -1    0    0    0    0 -0.00000000000E+00 -0.00000000000E+00  0.11368683772E-12  0.17120000000E+03  0.17120000000E+03 0.  0.
         13    1    1    2    0    0  0.12298021852E+02 -0.12037213710E+02  0.90991228742E+02  0.92604269488E+02  0.10566000000E+00 0. -1.
        994    1    1    2    0    0 -0.89730274944E+01  0.11515715153E+02  0.22891777305E+01  0.17183657135E+03  0.17120000000E+03 0.  0.
        998    1    1    2    0    0 -0.33249943571E+01  0.52149855727E+00  0.14067195898E+04  0.14067591592E+04  0.10000000000E+02 0. -1.
</event>
<event>
 5    1  0.1147307E-008  0.3842917E+03  0.7957747E-01  0.3432682E+00
         13   -1    0    0    0    0  0.00000000000E+00  0.00000000000E+00  0.14999999963E+04  0.15000000000E+04  0.10566000000E+00 0. -1.
        994   -1    0    0    0    0 -0.00000000000E+00 -0.00000000000E+00  0.11368683772E-12  0.17120000000E+03  0.17120000000E+03 0.  0.
         13    1    1    2    0    0 -0.11366579278E+02 -0.18863094954E+02  0.12693682442E+03  0.12883316356E+03  0.10566000000E+00 0. -1.
        994    1    1    2    0    0 -0.18241840120E+01  0.11463790267E+02  0.24264933510E+01  0.17161023864E+03  0.17120000000E+03 0.  0.
        998    1    1    2    0    0  0.13190763290E+02  0.73993046874E+01  0.13706366785E+04  0.13707565978E+04  0.10000000000E+02 0. -1.
</event>
<event>
 5    1  0.1147307E-008  0.3847728E+03  0.7957747E-01  0.3430636E+00
         13   -1    0    0    0    0  0.00000000000E+00  0.00000000000E+00  0.14999999963E+04  0.15000000000E+04  0.10566000000E+00 0.  1.
        994   -1    0    0    0    0 -0.00000000000E+00 -0.00000000000E+00  0.11368683772E-12  0.17120000000E+03  0.17120000000E+03 0.  0.
         13    1    1    2    0    0 -0.39271649186E+02  0.64977892144E+01  0.36521805043E+02  0.54021635501E+02  0.10566000000E+00 0.  1.
        994    1    1    2    0    0 -0.75748857653E+00 -0.32298640115E+02  0.22833044832E+02  0.17571159290E+03  0.17120000000E+03 0.  0.
        998    1    1    2    0    0  0.40029137763E+02  0.25800850901E+02  0.14406451464E+04  0.14414667716E+04  0.10000000000E+02 0.  1.
</event>
<event>
 5    1  0.1147307E-008  0.3900396E+03  0.7957747E-01  0.3408576E+00
         13   -1    0    0    0    0  0.00000000000E+00  0.00000000000E+00  0.14999999963E+04  0.15000000000E+04  0.10566000000E+00 0.  1.
        994   -1    0    0    0    0 -0.00000000000E+00 -0.00000000000E+00  0.11368683772E-12  0.17120000000E+03  0.17120000000E+03 0.  0.
         13    1    1    2    0    0 -0.23154983175E+02 -0.63337399641E+01  0.36054254742E+01  0.24275085266E+02  0.10566000000E+00 0.  1.
        994    1    1    2    0    0  0.17078019348E+02  0.12978904040E+02  0.23688195316E+02  0.17415705927E+03  0.17120000000E+03 0.  0.
        998    1    1    2    0    0  0.60769638277E+01 -0.66451640759E+01  0.14727063755E+04  0.14727678555E+04  0.10000000000E+02 0.  1.
</event>
<event>
 5    1  0.1147307E-008  0.3800086E+03  0.7957747E-01  0.3451121E+00
         13   -1    0    0    0    0  0.00000000000E+00  0.00000000000E+00  0.14999999963E+04  0.15000000000E+04  0.10566000000E+00 0.  1.
        994   -1    0    0    0    0 -0.00000000000E+00 -0.00000000000E+00  0.11368683772E-12  0.17120000000E+03  0.17120000000E+03 0.  0.
         13    1    1    2    0    0  0.42368804717E+02  0.34314934768E+01  0.19303865371E+03  0.19766341025E+03  0.10566000000E+00 0.  1.
        994    1    1    2    0    0 -0.39978517983E+02 -0.26874106673E+02  0.11925158189E+02  0.17824743731E+03  0.17120000000E+03 0.  0.
        998    1    1    2    0    0 -0.23902867337E+01  0.23442613196E+02  0.12950361844E+04  0.12952891524E+04  0.10000000000E+02 0.  1.
</event>
<event>
 5    1  0.1147307E-008  0.3854581E+03  0.7957747E-01  0.3427732E+00
         13   -1    0    0    0    0  0.00000000000E+00  0.00000000000E+00  0.14999999963E+04  0.15000000000E+04  0.10566000000E+00 0.  1.
        994   -1    0    0    0    0 -0.00000000000E+00 -0.00000000000E+00  0.11368683772E-12  0.17120000000E+03  0.17120000000E+03 0.  0.
         13    1    1    2    0    0  0.12206302030E+02 -0.33335009908E+01  0.55058825220E+02  0.56494171706E+02  0.10566000000E+00 0.  1.
        994    1    1    2    0    0 -0.17735295113E+02 -0.77696006539E+01  0.26349492993E+01  0.17231160827E+03  0.17120000000E+03 0.  0.
        998    1    1    2    0    0  0.55289930824E+01  0.11103101645E+02  0.14423062218E+04  0.14423942200E+04  0.10000000000E+02 0.  1.
</event>
<event>
 5    1  0.1147307E-008  0.3805712E+03  0.7957747E-01  0.3448675E+00
         13   -1    0    0    0    0  0.00000000000E+00  0.00000000000E+00  0.14999999963E+04  0.15000000000E+04  0.10566000000E+00 0.  1.
        994   -1    0    0    0    0 -0.00000000000E+00 -0.00000000000E+00  0.11368683772E-12  0.17120000000E+03  0.17120000000E+03 0.  0.
         13    1    1    2    0    0  0.34721923548E+02  0.19457350551E+01  0.15682065927E+03  0.16063040869E+03  0.10566000000E+00 0.  1.
        994    1    1    2    0    0 -0.20699601951E+02  0.13974858232E+02  0.59291438103E+01  0.17311373409E+03  0.17120000000E+03 0.  0.
        998    1    1    2    0    0 -0.14022321597E+02 -0.15920593288E+02  0.13372501932E+04  0.13374558572E+04  0.10000000000E+02 0.  1.
</event>
<event>
 5    1  0.1147307E-008  0.3842838E+03  0.7957747E-01  0.3432715E+00
         13   -1    0    0    0    0  0.00000000000E+00  0.00000000000E+00  0.14999999963E+04  0.15000000000E+04  0.10566000000E+00 0. -1.
        994   -1    0    0    0    0 -0.00000000000E+00 -0.00000000000E+00  0.11368683772E-12  0.17120000000E+03  0.17120000000E+03 0.  0.
         13    1    1    2    0    0 -0.16110359581E+02 -0.40860849663E+01  0.69176930972E+02  0.71145616301E+02  0.10566000000E+00 0. -1.
        994    1    1    2    0    0  0.16973408867E+02 -0.19993722163E+02  0.42567468533E+01  0.17324954669E+03  0.17120000000E+03 0.  0.
        998    1    1    2    0    0 -0.86304928556E+00  0.24079807129E+02  0.14265663185E+04  0.14268048370E+04  0.10000000000E+02 0. -1.
</event>
<event>
 5    1  0.1147307E-008  0.3767640E+03  0.7957747E-01  0.3465371E+00
         13   -1    0    0    0    0  0.00000000000E+00  0.00000000000E+00  0.14999999963E+04  0.15000000000E+04  0.10566000000E+00 0. -1.
        994   -1    0    0    0    0 -0.00000000000E+00 -0.00000000000E+00  0.11368683772E-12  0.17120000000E+03  0.17120000000E+03 0.  0.
         13    1    1    2    0    0  0.44927512519E+02 -0.16563080394E+02  0.18642358849E+03  0.19247488803E+03  0.10566000000E+00 0. -1.
        994    1    1    2    0    0 -0.41077412345E+02 -0.49488670468E+01  0.11582093792E+02  0.17650900823E+03  0.17120000000E+03 0.  0.
        998    1    1    2    0    0 -0.38501001741E+01  0.21511947441E+02  0.13019943140E+04  0.13022161037E+04  0.10000000000E+02 0. -1.
</event>
<event>
 5    1  0.1147307E-008  0.3780335E+03  0.7957747E-01  0.3459766E+00
         13   -1    0    0    0    0  0.00000000000E+00  0.00000000000E+00  0.14999999963E+04  0.15000000000E+04  0.10566000000E+00 0.  1.
        994   -1    0    0    0    0 -0.00000000000E+00 -0.00000000000E+00  0.11368683772E-12  0.17120000000E+03  0.17120000000E+03 0.  0.
         13    1    1    2    0    0 -0.50663309191E+01  0.15102597861E+02  0.22158772278E+02  0.27290630700E+02  0.10566000000E+00 0.  1.
        994    1    1    2    0    0  0.14797277906E+01 -0.18784245835E+02  0.63246832714E+01  0.17234987411E+03  0.17120000000E+03 0.  0.
        998    1    1    2    0    0  0.35866031285E+01  0.36816479743E+01  0.14715165407E+04  0.14715594952E+04  0.10000000000E+02 0.  1.
</event>
<event>
 5    1  0.2410486E-008  0.3854973E+03  0.7957747E-01  0.3427566E+00
         13   -1    0    0    0    0  0.00000000000E+00  0.00000000000E+00  0.14999999963E+04  0.15000000000E+04  0.10566000000E+00 0.  1.
        994   -1    0    0    0    0 -0.00000000000E+00 -0.00000000000E+00  0.11368683772E-12  0.17120000000E+03  0.17120000000E+03 0.  0.
         13    1    1    2    0    0  0.29119118871E+01  0.10775170588E+02  0.45442409608E+02  0.46793239758E+02  0.10566000000E+00 0.  1.
        994    1    1    2    0    0 -0.28017562953E+01 -0.60652405633E+01  0.15300214435E+01  0.17133714701E+03  0.17120000000E+03 0.  0.
        998    1    1    2    0    0 -0.11015559181E+00 -0.47099300250E+01  0.14530275652E+04  0.14530696132E+04  0.10000000000E+02 0.  1.
</event>
<event>
 5    1  0.1147307E-008  0.3776803E+03  0.7957747E-01  0.3461321E+00
         13   -1    0    0    0    0  0.00000000000E+00  0.00000000000E+00  0.14999999963E+04  0.15000000000E+04  0.10566000000E+00 0.  1.
        994   -1    0    0    0    0 -0.00000000000E+00 -0.00000000000E+00  0.11368683772E-12  0.17120000000E+03  0.17120000000E+03 0.  0.
         13    1    1    2    0    0 -0.41515863572E+01 -0.11247579146E+02  0.11184115561E+02  0.16396320040E+02  0.10566000000E+00 0.  1.
        994    1    1    2    0    0  0.13277136453E+02  0.38571279652E+01  0.59529297455E+01  0.17186051659E+03  0.17120000000E+03 0.  0.
        998    1    1    2    0    0 -0.91255500958E+01  0.73904511812E+01  0.14828629510E+04  0.14829431634E+04  0.10000000000E+02 0.  1.
</event>
<event>
 5    1  0.1147307E-008  0.3764609E+03  0.7957747E-01  0.3466715E+00
         13   -1    0    0    0    0  0.00000000000E+00  0.00000000000E+00  0.14999999963E+04  0.15000000000E+04  0.10566000000E+00 0. -1.
        994   -1    0    0    0    0 -0.00000000000E+00 -0.00000000000E+00  0.11368683772E-12  0.17120000000E+03  0.17120000000E+03 0.  0.
         13    1    1    2    0    0 -0.67252922659E+02 -0.60381357810E+02  0.29760843307E+03  0.31102998983E+03  0.10566000000E+00 0. -1.
        994    1    1    2    0    0  0.16379413494E+02  0.45496515122E+02  0.22808311933E+02  0.17935405534E+03  0.17120000000E+03 0.  0.
        998    1    1    2    0    0  0.50873509165E+02  0.14884842687E+02  0.11795832513E+04  0.11808159548E+04  0.10000000000E+02 0. -1.
</event>
<event>
 5    1  0.1147307E-008  0.3786234E+03  0.7957747E-01  0.3457174E+00
         13   -1    0    0    0    0  0.00000000000E+00  0.00000000000E+00  0.14999999963E+04  0.15000000000E+04  0.10566000000E+00 0.  1.
        994   -1    0    0    0    0 -0.00000000000E+00 -0.00000000000E+00  0.11368683772E-12  0.17120000000E+03  0.17120000000E+03 0.  0.
         13    1    1    2    0    0 -0.11335186214E+02  0.36257568102E+01  0.12480070093E+02  0.17245169541E+02  0.10566000000E+00 0.  1.
        994    1    1    2    0    0  0.92989461248E+01 -0.53809412956E+01  0.52173644538E+01  0.17161610012E+03  0.17120000000E+03 0.  0.
        998    1    1    2    0    0  0.20362400895E+01  0.17551844854E+01  0.14823025617E+04  0.14823387303E+04  0.10000000000E+02 0.  1.
</event>
<event>
 5    1  0.1147307E-008  0.3794292E+03  0.7957747E-01  0.3453648E+00
         13   -1    0    0    0    0  0.00000000000E+00  0.00000000000E+00  0.14999999963E+04  0.15000000000E+04  0.10566000000E+00 0. -1.
        994   -1    0    0    0    0 -0.00000000000E+00 -0.00000000000E+00  0.11368683772E-12  0.17120000000E+03  0.17120000000E+03 0.  0.
         13    1    1    2    0    0  0.15516616884E+02 -0.11499813972E+02  0.40132529178E+02  0.44538098109E+02  0.10566000000E+00 0. -1.
        994    1    1    2    0    0 -0.12171559012E+02  0.93531033663E+01  0.52111289908E+01  0.17196576187E+03  0.17120000000E+03 0.  0.
        998    1    1    2    0    0 -0.33450578719E+01  0.21467106060E+01  0.14546563381E+04  0.14546961400E+04  0.10000000000E+02 0. -1.
</event>
<event>
 5    1  0.1147307E-008  0.3807036E+03  0.7957747E-01  0.3448101E+00
         13   -1    0    0    0    0  0.00000000000E+00  0.00000000000E+00  0.14999999963E+04  0.15000000000E+04  0.10566000000E+00 0.  1.
        994   -1    0    0    0    0 -0.00000000000E+00 -0.00000000000E+00  0.11368683772E-12  0.17120000000E+03  0.17120000000E+03 0.  0.
         13    1    1    2    0    0 -0.11336863735E+00  0.14548563048E+02  0.26231202948E+02  0.29996011590E+02  0.10566000000E+00 0.  1.
        994    1    1    2    0    0 -0.23378527315E+01 -0.13538222618E+02  0.44081538098E+01  0.17180692898E+03  0.17120000000E+03 0.  0.
        998    1    1    2    0    0  0.24512213689E+01 -0.10103404297E+01  0.14693606395E+04  0.14693970594E+04  0.10000000000E+02 0.  1.
</event>
<event>
 5    1  0.1147307E-008  0.3762233E+03  0.7957747E-01  0.3467770E+00
         13   -1    0    0    0    0  0.00000000000E+00  0.00000000000E+00  0.14999999963E+04  0.15000000000E+04  0.10566000000E+00 0.  1.
        994   -1    0    0    0    0 -0.00000000000E+00 -0.00000000000E+00  0.11368683772E-12  0.17120000000E+03  0.17120000000E+03 0.  0.
         13    1    1    2    0    0 -0.40332695156E+02 -0.27846922468E+02  0.86818940029E+02  0.99698128875E+02  0.10566000000E+00 0.  1.
        994    1    1    2    0    0 -0.40549555460E+01  0.10783779887E+02  0.14742622058E+02  0.17221938764E+03  0.17120000000E+03 0.  0.
        998    1    1    2    0    0  0.44387650702E+02  0.17063142581E+02  0.13984384342E+04  0.13992824835E+04  0.10000000000E+02 0.  1.
</event>
<event>
 5    1  0.1147307E-008  0.3270210E+03  0.7957747E-01  0.3720195E+00
         13   -1    0    0    0    0  0.00000000000E+00  0.00000000000E+00  0.14999999963E+04  0.15000000000E+04  0.10566000000E+00 0.  1.
        994   -1    0    0    0    0 -0.00000000000E+00 -0.00000000000E+00  0.11368683772E-12  0.17120000000E+03  0.17120000000E+03 0.  0.
         13    1    1    2    0    0 -0.79667686026E+02 -0.19314343187E+03  0.83066857212E+03  0.85654049136E+03  0.10566000000E+00 0.  1.
        994    1    1    2    0    0  0.60353802547E+02  0.18523462714E+03  0.15985904838E+03  0.30466178612E+03  0.17120000000E+03 0.  0.
        998    1    1    2    0    0  0.19313883479E+02  0.79088047322E+01  0.50947237579E+03  0.50999772252E+03  0.10000000000E+02 0.  0.
</event>
<event>
 5    1  0.1147307E-008  0.3814646E+03  0.7957747E-01  0.3444806E+00
         13   -1    0    0    0    0  0.00000000000E+00  0.00000000000E+00  0.14999999963E+04  0.15000000000E+04  0.10566000000E+00 0.  1.
        994   -1    0    0    0    0 -0.00000000000E+00 -0.00000000000E+00  0.11368683772E-12  0.17120000000E+03  0.17120000000E+03 0.  0.
         13    1    1    2    0    0 -0.35128104943E+02  0.19824407661E+02  0.22604706332E+03  0.22961767549E+03  0.10566000000E+00 0.  1.
        994    1    1    2    0    0  0.15601538401E+02 -0.33976661625E+02  0.80599215701E+01  0.17542013531E+03  0.17120000000E+03 0.  0.
        998    1    1    2    0    0  0.19526566541E+02  0.14152253965E+02  0.12658930114E+04  0.12661621892E+04  0.10000000000E+02 0.  1.
</event>
<event>
 5    1  0.1147307E-008  0.3854763E+03  0.7957747E-01  0.3427655E+00
         13   -1    0    0    0    0  0.00000000000E+00  0.00000000000E+00  0.14999999963E+04  0.15000000000E+04  0.10566000000E+00 0. -1.
        994   -1    0    0    0    0 -0.00000000000E+00 -0.00000000000E+00  0.11368683772E-12  0.17120000000E+03  0.17120000000E+03 0.  0.
         13    1    1    2    0    0  0.13795429877E+02  0.89353891997E+01  0.96979825999E+02  0.98362863320E+02  0.10566000000E+00 0. -1.
        994    1    1    2    0    0 -0.83291507571E+01 -0.74484458151E+01  0.18039070580E+01  0.17157373977E+03  0.17120000000E+03 0.  0.
        998    1    1    2    0    0 -0.54662791203E+01 -0.14869433845E+01  0.14012162632E+04  0.14012633969E+04  0.10000000000E+02 0. -1.
</event>
<event>
 5    1  0.1147307E-008  0.3703086E+03  0.7957747E-01  0.3494474E+00
         13   -1    0    0    0    0  0.00000000000E+00  0.00000000000E+00  0.14999999963E+04  0.15000000000E+04  0.10566000000E+00 0.  1.
        994   -1    0    0    0    0 -0.00000000000E+00 -0.00000000000E+00  0.11368683772E-12  0.17120000000E+03  0.17120000000E+03 0.  0.
         13    1    1    2    0    0  0.72271268508E+02 -0.84923062652E+01  0.24493674225E+03  0.25551765964E+03  0.10566000000E+00 0.  1.
        994    1    1    2    0    0 -0.68713221878E+02  0.16376653824E+02  0.26545036632E+02  0.18709297320E+03  0.17120000000E+03 0.  0.
        998    1    1    2    0    0 -0.35580466305E+01 -0.78843475593E+01  0.12285182174E+04  0.12285893672E+04  0.10000000000E+02 0.  1.
</event>
<event>
 5    1  0.1147307E-008  0.3784268E+03  0.7957747E-01  0.3458037E+00
         13   -1    0    0    0    0  0.00000000000E+00  0.00000000000E+00  0.14999999963E+04  0.15000000000E+04  0.10566000000E+00 0. -1.
        994   -1    0    0    0    0 -0.00000000000E+00 -0.00000000000E+00  0.11368683772E-12  0.17120000000E+03  0.17120000000E+03 0.  0.
         13    1    1    2    0    0  0.85437343307E+02  0.72325160835E+01  0.44032828380E+03  0.44859877129E+03  0.10566000000E+00 0. -1.
        994    1    1    2    0    0 -0.10001669860E+03 -0.41824775116E+02  0.45496834669E+02  0.20768257938E+03  0.17120000000E+03 0.  0.
        998    1    1    2    0    0  0.14579355298E+02  0.34592259033E+02  0.10141748778E+04  0.10149186493E+04  0.10000000000E+02 0. -1.
</event>
<event>
 5    1  0.1147307E-008  0.3772137E+03  0.7957747E-01  0.3463381E+00
         13   -1    0    0    0    0  0.00000000000E+00  0.00000000000E+00  0.14999999963E+04  0.15000000000E+04  0.10566000000E+00 0.  1.
        994   -1    0    0    0    0 -0.00000000000E+00 -0.00000000000E+00  0.11368683772E-12  0.17120000000E+03  0.17120000000E+03 0.  0.
         13    1    1    2    0    0  0.58430705570E+02  0.15654491292E+02  0.27732077722E+03  0.28384156688E+03  0.10566000000E+00 0.  1.
        994    1    1    2    0    0 -0.57086227690E+02 -0.58303003635E+01  0.16738157869E+02  0.18133514751E+03  0.17120000000E+03 0.  0.
        998    1    1    2    0    0 -0.13444778794E+01 -0.98241909281E+01  0.12059410612E+04  0.12060232856E+04  0.10000000000E+02 0.  0.
</event>
<event>
 5    1  0.1147307E-008  0.3718945E+03  0.7957747E-01  0.3487229E+00
         13   -1    0    0    0    0  0.00000000000E+00  0.00000000000E+00  0.14999999963E+04  0.15000000000E+04  0.10566000000E+00 0.  1.
        994   -1    0    0    0    0 -0.00000000000E+00 -0.00000000000E+00  0.11368683772E-12  0.17120000000E+03  0.17120000000E+03 0.  0.
         13    1    1    2    0    0 -0.79268385691E+02 -0.15676823060E+01  0.29692680919E+03  0.30732958819E+03  0.10566000000E+00 0.  1.
        994    1    1    2    0    0  0.81859052260E+02 -0.12921362450E+02  0.32257236833E+02  0.19291924573E+03  0.17120000000E+03 0.  0.
        998    1    1    2    0    0 -0.25906665688E+01  0.14489044756E+02  0.11708159503E+04  0.11709511661E+04  0.10000000000E+02 0.  1.
</event>
<event>
 5    1  0.1147307E-008  0.3798448E+03  0.7957747E-01  0.3451834E+00
         13   -1    0    0    0    0  0.00000000000E+00  0.00000000000E+00  0.14999999963E+04  0.15000000000E+04  0.10566000000E+00 0. -1.
        994   -1    0    0    0    0 -0.00000000000E+00 -0.00000000000E+00  0.11368683772E-12  0.17120000000E+03  0.17120000000E+03 0.  0.
         13    1    1    2    0    0 -0.15928703204E+01 -0.98744672648E+01  0.10066159426E+02  0.14190879791E+02  0.10566000000E+00 0. -1.
        994    1    1    2    0    0 -0.36756937420E+01  0.54184659262E+01  0.43548975949E+01  0.17138049956E+03  0.17120000000E+03 0.  0.
        998    1    1    2    0    0  0.52685640624E+01  0.44560013386E+01  0.14855789393E+04  0.14856286206E+04  0.10000000000E+02 0. -1.
</event>
<event>
 5    1  0.1147307E-008  0.3815037E+03  0.7957747E-01  0.3444637E+00
         13   -1    0    0    0    0  0.00000000000E+00  0.00000000000E+00  0.14999999963E+04  0.15000000000E+04  0.10566000000E+00 0.  1.
        994   -1    0    0    0    0 -0.00000000000E+00 -0.00000000000E+00  0.11368683772E-12  0.17120000000E+03  0.17120000000E+03 0.  0.
         13    1    1    2    0    0  0.29331848036E+02  0.13639156689E+02  0.14145591302E+03  0.14510744432E+03  0.10566000000E+00 0.  1.
        994    1    1    2    0    0 -0.32636035041E+02 -0.55209172779E+01  0.70289403674E+01  0.17451199762E+03  0.17120000000E+03 0.  0.
        998    1    1    2    0    0  0.33041870051E+01 -0.81182394110E+01  0.13515151429E+04  0.13515805581E+04  0.10000000000E+02 0.  1.
</event>
<event>
 5    1  0.1147307E-008  0.3798489E+03  0.7957747E-01  0.3451817E+00
         13   -1    0    0    0    0  0.00000000000E+00  0.00000000000E+00  0.14999999963E+04  0.15000000000E+04  0.10566000000E+00 0. -1.
        994   -1    0    0    0    0 -0.00000000000E+00 -0.00000000000E+00  0.11368683772E-12  0.17120000000E+03  0.17120000000E+03 0.  0.
         13    1    1    2    0    0 -0.19578646886E+02  0.10189164229E+02  0.78676217398E+01  0.23431882500E+02  0.10566000000E+00 0. -1.
        994    1    1    2    0    0  0.15745435320E+02 -0.97925044696E+01  0.17490357052E+02  0.17308715858E+03  0.17120000000E+03 0.  0.
        998    1    1    2    0    0  0.38332115662E+01 -0.39665975981E+00  0.14746420175E+04  0.14746809589E+04  0.10000000000E+02 0. -1.
</event>
<event>
 5    1  0.1147307E-008  0.3832518E+03  0.7957747E-01  0.3437121E+00
         13   -1    0    0    0    0  0.00000000000E+00  0.00000000000E+00  0.14999999963E+04  0.15000000000E+04  0.10566000000E+00 0. -1.
        994   -1    0    0    0    0 -0.00000000000E+00 -0.00000000000E+00  0.11368683772E-12  0.17120000000E+03  0.17120000000E+03 0.  0.
         13    1    1    2    0    0  0.67721441561E+01  0.58476655365E+02  0.89398882848E+02  0.10703995786E+03  0.10566000000E+00 0. -1.
        994    1    1    2    0    0  0.59090535033E+02 -0.46188371042E+02  0.39058036441E+02  0.19094508939E+03  0.17120000000E+03 0.  0.
        998    1    1    2    0    0 -0.65862679189E+02 -0.12288284323E+02  0.13715430770E+04  0.13732149528E+04  0.10000000000E+02 0. -1.
</event>
<event>
 5    1  0.1147307E-008  0.3708702E+03  0.7957747E-01  0.3491901E+00
         13   -1    0    0    0    0  0.00000000000E+00  0.00000000000E+00  0.14999999963E+04  0.15000000000E+04  0.10566000000E+00 0.  1.
        994   -1    0    0    0    0 -0.00000000000E+00 -0.00000000000E+00  0.11368683772E-12  0.17120000000E+03  0.17120000000E+03 0.  0.
         13    1    1    2    0    0  0.20276937533E+02  0.66549680318E+02  0.37780596233E+03  0.38415800198E+03  0.10566000000E+00 0.  1.
        994    1    1    2    0    0  0.37245427507E+02 -0.13718543634E+02  0.14265427430E+02  0.17631892334E+03  0.17120000000E+03 0.  0.
        998    1    1    2    0    0 -0.57522365040E+02 -0.52831136684E+02  0.11079286065E+04  0.11107230747E+04  0.10000000000E+02 0.  1.
</event>
<event>
 5    1  0.1147307E-008  0.3140094E+03  0.7957747E-01  0.3800817E+00
         13   -1    0    0    0    0  0.00000000000E+00  0.00000000000E+00  0.14999999963E+04  0.15000000000E+04  0.10566000000E+00 0. -1.
        994   -1    0    0    0    0 -0.00000000000E+00 -0.00000000000E+00  0.11368683772E-12  0.17120000000E+03  0.17120000000E+03 0.  0.
         13    1    1    2    0    0  0.68704340184E+02  0.18991892689E+03  0.71090069098E+03  0.73903267096E+03  0.10566000000E+00 0. -1.
        994    1    1    2    0    0 -0.63228573958E+02 -0.19466653703E+03  0.17758632046E+03  0.32052964670E+03  0.17120000000E+03 0.  0.
        998    1    1    2    0    0 -0.54757662257E+01  0.47476101355E+01  0.61151298484E+03  0.61163768233E+03  0.10000000000E+02 0.  0.
</event>
<event>
 5    1  0.1147307E-008  0.4360718E+03  0.7957747E-01  0.3238292E+00
         13   -1    0    0    0    0  0.00000000000E+00  0.00000000000E+00  0.14999999963E+04  0.15000000000E+04  0.10566000000E+00 0. -1.
        994   -1    0    0    0    0 -0.00000000000E+00 -0.00000000000E+00  0.11368683772E-12  0.17120000000E+03  0.17120000000E+03 0.  0.
         13    1    1    2    0    0 -0.70109275121E+02  0.52545273204E+02  0.86152039237E+02  0.12287595869E+03  0.10566000000E+00 0. -1.
        994    1    1    2    0    0 -0.30213401782E+02  0.91974236829E+02  0.96194837735E+02  0.21894062367E+03  0.17120000000E+03 0.  0.
        998    1    1    2    0    0  0.10032267690E+03 -0.14451951003E+03  0.13176531193E+04  0.13293834176E+04  0.10000000000E+02 0. -1.
</event>
<event>
 5    1  0.1147307E-008  0.3713678E+03  0.7957747E-01  0.3489628E+00
         13   -1    0    0    0    0  0.00000000000E+00  0.00000000000E+00  0.14999999963E+04  0.15000000000E+04  0.10566000000E+00 0. -1.
        994   -1    0    0    0    0 -0.00000000000E+00 -0.00000000000E+00  0.11368683772E-12  0.17120000000E+03  0.17120000000E+03 0.  0.
         13    1    1    2    0    0 -0.28181410254E+02 -0.24201503337E+02  0.76364960460E+02  0.84920686512E+02  0.10566000000E+00 0. -1.
        994    1    1    2    0    0  0.21365799845E+02  0.18191863733E+02  0.11270598013E+02  0.17385024501E+03  0.17120000000E+03 0.  0.
        998    1    1    2    0    0  0.68156104090E+01  0.60096396047E+01  0.14123644378E+04  0.14124290685E+04  0.10000000000E+02 0. -1.
</event>
<event>
 5    1  0.1147307E-008  0.3785914E+03  0.7957747E-01  0.3457315E+00
         13   -1    0    0    0    0  0.00000000000E+00  0.00000000000E+00  0.14999999963E+04  0.15000000000E+04  0.10566000000E+00 0.  1.
        994   -1    0    0    0    0 -0.00000000000E+00 -0.00000000000E+00  0.11368683772E-12  0.17120000000E+03  0.17120000000E+03 0.  0.
         13    1    1    2    0    0  0.74830076648E+00 -0.26030573357E+02  0.64696295703E+02  0.69740752398E+02  0.10566000000E+00 0.  1.
        994    1    1    2    0    0 -0.42428011664E+01  0.29747329043E+02  0.78843073565E+01  0.17399571043E+03  0.17120000000E+03 0.  0.
        998    1    1    2    0    0  0.34945003999E+01 -0.37167556853E+01  0.14274193932E+04  0.14274635372E+04  0.10000000000E+02 0.  1.
</event>
<event>
 5    1  0.1147307E-008  0.3715962E+03  0.7957747E-01  0.3488587E+00
         13   -1    0    0    0    0  0.00000000000E+00  0.00000000000E+00  0.14999999963E+04  0.15000000000E+04  0.10566000000E+00 0. -1.
        994   -1    0    0    0    0 -0.00000000000E+00 -0.00000000000E+00  0.11368683772E-12  0.17120000000E+03  0.17120000000E+03 0.  0.
         13    1    1    2    0    0  0.28828981633E+01 -0.13492330556E+02  0.72274682839E+01  0.15575671654E+02  0.10566000000E+00 0. -1.
        994    1    1    2    0    0  0.72542898753E+00  0.23070663826E+02  0.10271361766E+02  0.17305410324E+03  0.17120000000E+03 0.  0.
        998    1    1    2    0    0 -0.36083271508E+01 -0.95783332704E+01  0.14825011662E+04  0.14825702251E+04  0.10000000000E+02 0. -1.
</event>
<event>
 5    1  0.1147307E-008  0.3846745E+03  0.7957747E-01  0.3431054E+00
         13   -1    0    0    0    0  0.00000000000E+00  0.00000000000E+00  0.14999999963E+04  0.15000000000E+04  0.10566000000E+00 0. -1.
        994   -1    0    0    0    0 -0.00000000000E+00 -0.00000000000E+00  0.11368683772E-12  0.17120000000E+03  0.17120000000E+03 0.  0.
         13    1    1    2    0    0 -0.39472499213E+01  0.13743000364E+02  0.56797311175E+02  0.58569587345E+02  0.10566000000E+00 0. -1.
        994    1    1    2    0    0 -0.21077603885E+02 -0.16800358007E+02  0.41872639944E+01  0.17335942603E+03  0.17120000000E+03 0.  0.
        998    1    1    2    0    0  0.25024853806E+02  0.30573576427E+01  0.14390154211E+04  0.14392709866E+04  0.10000000000E+02 0. -1.
</event>
<event>
 5    1  0.1147307E-008  0.3850053E+03  0.7957747E-01  0.3429650E+00
         13   -1    0    0    0    0  0.00000000000E+00  0.00000000000E+00  0.14999999963E+04  0.15000000000E+04  0.10566000000E+00 0.  1.
        994   -1    0    0    0    0 -0.00000000000E+00 -0.00000000000E+00  0.11368683772E-12  0.17120000000E+03  0.17120000000E+03 0.  0.
         13    1    1    2    0    0 -0.95872969585E+01 -0.15674235222E+02  0.95280220518E+02  0.97035712492E+02  0.10566000000E+00 0.  1.
        994    1    1    2    0    0  0.22590811442E+02  0.13477716307E+02  0.39065221843E+01  0.17325326697E+03  0.17120000000E+03 0.  0.
        998    1    1    2    0    0 -0.13003514484E+02  0.21965189152E+01  0.14008132536E+04  0.14009110205E+04  0.10000000000E+02 0.  1.
</event>
<event>
 5    1  0.1147307E-008  0.3954275E+03  0.7957747E-01  0.3386617E+00
         13   -1    0    0    0    0  0.00000000000E+00  0.00000000000E+00  0.14999999963E+04  0.15000000000E+04  0.10566000000E+00 0.  1.
        994   -1    0    0    0    0 -0.00000000000E+00 -0.00000000000E+00  0.11368683772E-12  0.17120000000E+03  0.17120000000E+03 0.  0.
         13    1    1    2    0    0 -0.35364561647E+02 -0.17997442577E+02  0.22659502040E+02  0.45694905149E+02  0.10566000000E+00 0.  1.
        994    1    1    2    0    0  0.14607899887E+02 -0.23789761314E+00  0.25895443139E+02  0.17376265798E+03  0.17120000000E+03 0.  0.
        998    1    1    2    0    0  0.20756661760E+02  0.18235340190E+02  0.14514450511E+04  0.14517424369E+04  0.10000000000E+02 0.  1.
</event>
<event>
 5    1  0.1147307E-008  0.3760145E+03  0.7957747E-01  0.3468698E+00
         13   -1    0    0    0    0  0.00000000000E+00  0.00000000000E+00  0.14999999963E+04  0.15000000000E+04  0.10566000000E+00 0.  1.
        994   -1    0    0    0    0 -0.00000000000E+00 -0.00000000000E+00  0.11368683772E-12  0.17120000000E+03  0.17120000000E+03 0.  0.
         13    1    1    2    0    0 -0.68065093078E+02 -0.46755592451E+02  0.41218905407E+03  0.42037931655E+03  0.10566000000E+00 0.  1.
        994    1    1    2    0    0  0.64112207028E+02  0.46166729446E+02  0.27605262562E+02  0.19056031202E+03  0.17120000000E+03 0.  0.
        998    1    1    2    0    0  0.39528860498E+01  0.58886300531E+00  0.10602056796E+04  0.10602603714E+04  0.10000000000E+02 0.  1.
</event>
<event>
 5    1  0.1147307E-008  0.3817778E+03  0.7957747E-01  0.3443454E+00
         13   -1    0    0    0    0  0.00000000000E+00  0.00000000000E+00  0.14999999963E+04  0.15000000000E+04  0.10566000000E+00 0.  1.
        994   -1    0    0    0    0 -0.00000000000E+00 -0.00000000000E+00  0.11368683772E-12  0.17120000000E+03  0.17120000000E+03 0.  0.
         13    1    1    2    0    0 -0.24402286934E+02 -0.16955506233E+01  0.83734172924E+02  0.87233992106E+02  0.10566000000E+00 0.  1.
        994    1    1    2    0    0  0.31090492258E+02  0.14359893606E+02  0.71459663139E+01  0.17473788967E+03  0.17120000000E+03 0.  0.
        998    1    1    2    0    0 -0.66882053239E+01 -0.12664342983E+02  0.14091198570E+04  0.14092281182E+04  0.10000000000E+02 0.  1.
</event>
<event>
 5    1  0.1147307E-008  0.3747968E+03  0.7957747E-01  0.3474132E+00
         13   -1    0    0    0    0  0.00000000000E+00  0.00000000000E+00  0.14999999963E+04  0.15000000000E+04  0.10566000000E+00 0. -1.
        994   -1    0    0    0    0 -0.00000000000E+00 -0.00000000000E+00  0.11368683772E-12  0.17120000000E+03  0.17120000000E+03 0.  0.
         13    1    1    2    0    0  0.91750142268E+01 -0.11859341069E+02  0.14139615133E+02  0.20609821368E+02  0.10566000000E+00 0. -1.
        994    1    1    2    0    0 -0.31193981275E+00 -0.89199880019E+01  0.70541234151E+01  0.17157757473E+03  0.17120000000E+03 0.  0.
        998    1    1    2    0    0 -0.88630744140E+01  0.20779329071E+02  0.14788062577E+04  0.14790126039E+04  0.10000000000E+02 0. -1.
</event>
<event>
 5    1  0.1147307E-008  0.3830987E+03  0.7957747E-01  0.3437776E+00
         13   -1    0    0    0    0  0.00000000000E+00  0.00000000000E+00  0.14999999963E+04  0.15000000000E+04  0.10566000000E+00 0. -1.
        994   -1    0    0    0    0 -0.00000000000E+00 -0.00000000000E+00  0.11368683772E-12  0.17120000000E+03  0.17120000000E+03 0.  0.
         13    1    1    2    0    0 -0.29120344622E+02 -0.73089563727E+01  0.17374493398E+03  0.17631996076E+03  0.10566000000E+00 0. -1.
        994    1    1    2    0    0  0.16930694078E+02  0.64991806126E+01  0.36661333814E+01  0.17219688814E+03  0.17120000000E+03 0.  0.
        998    1    1    2    0    0  0.12189650545E+02  0.80977576011E+00  0.13225889289E+04  0.13226831511E+04  0.10000000000E+02 0. -1.
</event>
<event>
 5    1  0.1147307E-008  0.3781365E+03  0.7957747E-01  0.3459313E+00
         13   -1    0    0    0    0  0.00000000000E+00  0.00000000000E+00  0.14999999963E+04  0.15000000000E+04  0.10566000000E+00 0.  1.
        994   -1    0    0    0    0 -0.00000000000E+00 -0.00000000000E+00  0.11368683772E-12  0.17120000000E+03  0.17120000000E+03 0.  0.
         13    1    1    2    0    0 -0.29855018651E+02  0.41174468917E+01  0.83589017932E+02  0.88856122976E+02  0.10566000000E+00 0.  1.
        994    1    1    2    0    0  0.30349821370E+02  0.36793033243E+01  0.82270442825E+01  0.17410276617E+03  0.17120000000E+03 0.  0.
        998    1    1    2    0    0 -0.49480271971E+00 -0.77967502160E+01  0.14081839341E+04  0.14082411109E+04  0.10000000000E+02 0.  1.
</event>
<event>
 5    1  0.1147307E-008  0.3852908E+03  0.7957747E-01  0.3428440E+00
         13   -1    0    0    0    0  0.00000000000E+00  0.00000000000E+00  0.14999999963E+04  0.15000000000E+04  0.10566000000E+00 0. -1.
        994   -1    0    0    0    0 -0.00000000000E+00 -0.00000000000E+00  0.11368683772E-12  0.17120000000E+03  0.17120000000E+03 0.  0.
         13    1    1    2    0    0  0.58483252527E+01 -0.12966808777E+02  0.66923858649E+02  0.68418967097E+02  0.10566000000E+00 0. -1.
        994    1    1    2    0    0 -0.10167892251E+02  0.90678133647E+01  0.20958983520E+01  0.17175402197E+03  0.17120000000E+03 0.  0.
        998    1    1    2    0    0  0.43195669987E+01  0.38989954118E+01  0.14309802393E+04  0.14310270109E+04  0.10000000000E+02 0. -1.
</event>
<event>
 5    1  0.1147307E-008  0.3833306E+03  0.7957747E-01  0.3436783E+00
         13   -1    0    0    0    0  0.00000000000E+00  0.00000000000E+00  0.14999999963E+04  0.15000000000E+04  0.10566000000E+00 0. -1.
        994   -1    0    0    0    0 -0.00000000000E+00 -0.00000000000E+00  0.11368683772E-12  0.17120000000E+03  0.17120000000E+03 0.  0.
         13    1    1    2    0    0  0.98829414037E+01 -0.18237833507E+02  0.97253412214E+02  0.99441080309E+02  0.10566000000E+00 0. -1.
        994    1    1    2    0    0  0.87391370834E+01 -0.26189552650E+00  0.27140115735E+01  0.17144458861E+03  0.17120000000E+03 0.  0.
        998    1    1    2    0    0 -0.18622078487E+02  0.18499729034E+02  0.14000325725E+04  0.14003143311E+04  0.10000000000E+02 0. -1.
</event>
<event>
 5    1  0.1147307E-008  0.3816620E+03  0.7957747E-01  0.3443954E+00
         13   -1    0    0    0    0  0.00000000000E+00  0.00000000000E+00  0.14999999963E+04  0.15000000000E+04  0.10566000000E+00 0. -1.
        994   -1    0    0    0    0 -0.00000000000E+00 -0.00000000000E+00  0.11368683772E-12  0.17120000000E+03  0.17120000000E+03 0.  0.
         13    1    1    2    0    0 -0.46728581350E+01  0.12642616030E+02  0.26170631479E+02  0.29437806631E+02  0.10566000000E+00 0. -1.
        994    1    1    2    0    0  0.29243629516E+01 -0.10326505380E+02  0.36795913653E+01  0.17157554606E+03  0.17120000000E+03 0.  0.
        998    1    1    2    0    0  0.17484951834E+01 -0.23161106499E+01  0.14701497734E+04  0.14701866473E+04  0.10000000000E+02 0. -1.
</event>
<event>
 5    1  0.1627694E-008  0.3860617E+03  0.7957747E-01  0.3425182E+00
         13   -1    0    0    0    0  0.00000000000E+00  0.00000000000E+00  0.14999999963E+04  0.15000000000E+04  0.10566000000E+00 0.  1.
        994   -1    0    0    0    0 -0.00000000000E+00 -0.00000000000E+00  0.11368683772E-12  0.17120000000E+03  0.17120000000E+03 0.  0.
         13    1    1    2    0    0  0.13626583289E+02  0.17040314204E+01  0.80402671943E+02  0.81567078621E+02  0.10566000000E+00 0.  1.
        994    1    1    2    0    0 -0.17731954001E+02 -0.53785537920E+00  0.21360354081E+01  0.17212993385E+03  0.17120000000E+03 0.  0.
        998    1    1    2    0    0  0.41053707119E+01 -0.11661760412E+01  0.14174612889E+04  0.14175029875E+04  0.10000000000E+02 0.  1.
</event>
<event>
 5    1  0.1147307E-008  0.3837074E+03  0.7957747E-01  0.3435173E+00
         13   -1    0    0    0    0  0.00000000000E+00  0.00000000000E+00  0.14999999963E+04  0.15000000000E+04  0.10566000000E+00 0. -1.
        994   -1    0    0    0    0 -0.00000000000E+00 -0.00000000000E+00  0.11368683772E-12  0.17120000000E+03  0.17120000000E+03 0.  0.
         13    1    1    2    0    0 -0.20525853311E+03 -0.50996242642E+02  0.11848770148E+04  0.12036050987E+04  0.10566000000E+00 0. -1.
        994    1    1    2    0    0  0.21059595390E+03  0.39000118585E+02  0.17232694323E+03  0.32384823670E+03  0.17120000000E+03 0.  0.
        998    1    1    2    0    0 -0.53374207921E+01  0.11996124057E+02  0.14279603822E+03  0.14374666460E+03  0.10000000000E+02 0. -1.
</event>
<event>
 5    1  0.1147307E-008  0.3744144E+03  0.7957747E-01  0.3475846E+00
         13   -1    0    0    0    0  0.00000000000E+00  0.00000000000E+00  0.14999999963E+04  0.15000000000E+04  0.10566000000E+00 0. -1.
        994   -1    0    0    0    0 -0.00000000000E+00 -0.00000000000E+00  0.11368683772E-12  0.17120000000E+03  0.17120000000E+03 0.  0.
         13    1    1    2    0    0 -0.59773792745E+01 -0.20332604989E+02  0.30111666544E+02  0.36822106332E+02  0.10566000000E+00 0. -1.
        994    1    1    2    0    0 -0.60005541181E+01  0.60858057774E+01  0.72285859649E+01  0.17156554472E+03  0.17120000000E+03 0.  0.
        998    1    1    2    0    0  0.11977933393E+02  0.14246799212E+02  0.14626597438E+04  0.14628123489E+04  0.10000000000E+02 0. -1.
</event>
<event>
 5    1  0.1147307E-008  0.3780712E+03  0.7957747E-01  0.3459600E+00
         13   -1    0    0    0    0  0.00000000000E+00  0.00000000000E+00  0.14999999963E+04  0.15000000000E+04  0.10566000000E+00 0. -1.
        994   -1    0    0    0    0 -0.00000000000E+00 -0.00000000000E+00  0.11368683772E-12  0.17120000000E+03  0.17120000000E+03 0.  0.
         13    1    1    2    0    0  0.12528666475E+01  0.72312215716E+02  0.42511877892E+03  0.43122687019E+03  0.10566000000E+00 0. -1.
        994    1    1    2    0    0 -0.30278997277E+02 -0.60383771475E+02  0.20618505892E+02  0.18519605913E+03  0.17120000000E+03 0.  0.
        998    1    1    2    0    0  0.29026130629E+02 -0.11928444241E+02  0.10542627115E+04  0.10547770707E+04  0.10000000000E+02 0.  1.
</event>
<event>
 5    1  0.1147307E-008  0.3815815E+03  0.7957747E-01  0.3444301E+00
         13   -1    0    0    0    0  0.00000000000E+00  0.00000000000E+00  0.14999999963E+04  0.15000000000E+04  0.10566000000E+00 0. -1.
        994   -1    0    0    0    0 -0.00000000000E+00 -0.00000000000E+00  0.11368683772E-12  0.17120000000E+03  0.17120000000E+03 0.  0.
         13    1    1    2    0    0 -0.74510721699E+01  0.17062706113E+02  0.48850950199E+02  0.52278876382E+02  0.10566000000E+00 0. -1.
        994    1    1    2    0    0  0.14576118147E+02 -0.17393786444E+02  0.50515116442E+01  0.17277142355E+03  0.17120000000E+03 0.  0.
        998    1    1    2    0    0 -0.71250459770E+01  0.33108033183E+00  0.14460975344E+04  0.14461497001E+04  0.10000000000E+02 0. -1.
</event>
<event>
 5    1  0.1147307E-008  0.3782455E+03  0.7957747E-01  0.3458834E+00
         13   -1    0    0    0    0  0.00000000000E+00  0.00000000000E+00  0.14999999963E+04  0.15000000000E+04  0.10566000000E+00 0. -1.
        994   -1    0    0    0    0 -0.00000000000E+00 -0.00000000000E+00  0.11368683772E-12  0.17120000000E+03  0.17120000000E+03 0.  0.
         13    1    1    2    0    0 -0.84295341167E+02  0.11593886615E+02  0.17594924448E+03  0.19544377848E+03  0.10566000000E+00 0. -1.
        994    1    1    2    0    0  0.11638782425E+03 -0.15261583849E+02  0.66815061430E+02  0.21806589373E+03  0.17120000000E+03 0.  0.
        998    1    1    2    0    0 -0.32092483085E+02  0.36676972340E+01  0.12572356904E+04  0.12576903278E+04  0.10000000000E+02 0. -1.
</event>
<event>
 5    1  0.1147307E-008  0.3766354E+03  0.7957747E-01  0.3465941E+00
         13   -1    0    0    0    0  0.00000000000E+00  0.00000000000E+00  0.14999999963E+04  0.15000000000E+04  0.10566000000E+00 0.  1.
        994   -1    0    0    0    0 -0.00000000000E+00 -0.00000000000E+00  0.11368683772E-12  0.17120000000E+03  0.17120000000E+03 0.  0.
         13    1    1    2    0    0 -0.76011934785E+01 -0.65600417778E+01  0.59918492523E+01  0.11692977034E+02  0.10566000000E+00 0.  1.
        994    1    1    2    0    0  0.70889337865E+01 -0.22382880512E+01  0.60281444936E+01  0.17146731887E+03  0.17120000000E+03 0.  0.
        998    1    1    2    0    0  0.51225969206E+00  0.87983298290E+01  0.14879800025E+04  0.14880397041E+04  0.10000000000E+02 0.  1.
</event>
<event>
 5    1  0.1147307E-008  0.3853401E+03  0.7957747E-01  0.3428231E+00
         13   -1    0    0    0    0  0.00000000000E+00  0.00000000000E+00  0.14999999963E+04  0.15000000000E+04  0.10566000000E+00 0.  1.
        994   -1    0    0    0    0 -0.00000000000E+00 -0.00000000000E+00  0.11368683772E-12  0.17120000000E+03  0.17120000000E+03 0.  0.
         13    1    1    2    0    0 -0.96800049803E+01 -0.67554497761E+01  0.47341678125E+02  0.48791231280E+02  0.10566000000E+00 0.  1.
        994    1    1    2    0    0  0.11075922700E+02  0.85540250688E+00  0.18668797791E+01  0.17157019851E+03  0.17120000000E+03 0.  0.
        998    1    1    2    0    0 -0.13959177200E+01  0.59000472692E+01  0.14507914384E+04  0.14508385702E+04  0.10000000000E+02 0.  1.
</event>
<event>
 5    1  0.1147307E-008  0.3832589E+03  0.7957747E-01  0.3437090E+00
         13   -1    0    0    0    0  0.00000000000E+00  0.00000000000E+00  0.14999999963E+04  0.15000000000E+04  0.10566000000E+00 0.  1.
        994   -1    0    0    0    0 -0.00000000000E+00 -0.00000000000E+00  0.11368683772E-12  0.17120000000E+03  0.17120000000E+03 0.  0.
         13    1    1    2    0    0 -0.49358982105E+01  0.12435693429E+02  0.34481740380E+02  0.36986634692E+02  0.10566000000E+00 0.  1.
        994    1    1    2    0    0 -0.13432850555E+01 -0.14892640076E+02  0.32368925339E+01  0.17188226382E+03  0.17120000000E+03 0.  0.
        998    1    1    2    0    0  0.62791832660E+01  0.24569466472E+01  0.14622813634E+04  0.14623311015E+04  0.10000000000E+02 0.  1.
</event>
<event>
 5    1  0.1147307E-008  0.3686224E+03  0.7957747E-01  0.3502246E+00
         13   -1    0    0    0    0  0.00000000000E+00  0.00000000000E+00  0.14999999963E+04  0.15000000000E+04  0.10566000000E+00 0.  1.
        994   -1    0    0    0    0 -0.00000000000E+00 -0.00000000000E+00  0.11368683772E-12  0.17120000000E+03  0.17120000000E+03 0.  0.
         13    1    1    2    0    0  0.14575732989E+02  0.91945573646E+01  0.10466412620E+02  0.20163056179E+02  0.10566000000E+00 0.  1.
        994    1    1    2    0    0  0.50566750511E+01 -0.26948274013E+02  0.12607122819E+02  0.17383946324E+03  0.17120000000E+03 0.  0.
        998    1    1    2    0    0 -0.19632408040E+02  0.17753716649E+02  0.14769264608E+04  0.14771974806E+04  0.10000000000E+02 0.  1.
</event>
<event>
 5    1  0.1147307E-008  0.3798530E+03  0.7957747E-01  0.3451799E+00
         13   -1    0    0    0    0  0.00000000000E+00  0.00000000000E+00  0.14999999963E+04  0.15000000000E+04  0.10566000000E+00 0.  1.
        994   -1    0    0    0    0 -0.00000000000E+00 -0.00000000000E+00  0.11368683772E-12  0.17120000000E+03  0.17120000000E+03 0.  0.
         13    1    1    2    0    0  0.33818637759E+02  0.12086120672E+02  0.15065411839E+03  0.15487559241E+03  0.10566000000E+00 0.  1.
        994    1    1    2    0    0 -0.28688376758E+02  0.12310099956E+02  0.74736842185E+01  0.17418340184E+03  0.17120000000E+03 0.  0.
        998    1    1    2    0    0 -0.51302610006E+01 -0.24396220628E+02  0.13418721937E+04  0.13421410057E+04  0.10000000000E+02 0.  1.
</event>
<event>
 5    1  0.1147307E-008  0.3841279E+03  0.7957747E-01  0.3433379E+00
         13   -1    0    0    0    0  0.00000000000E+00  0.00000000000E+00  0.14999999963E+04  0.15000000000E+04  0.10566000000E+00 0. -1.
        994   -1    0    0    0    0 -0.00000000000E+00 -0.00000000000E+00  0.11368683772E-12  0.17120000000E+03  0.17120000000E+03 0.  0.
         13    1    1    2    0    0 -0.13986928458E+02 -0.59573366130E+00  0.44881768725E+02  0.47014608306E+02  0.10566000000E+00 0. -1.
        994    1    1    2    0    0  0.19325937514E+02 -0.92111529747E+00  0.32992861615E+01  0.17232140205E+03  0.17120000000E+03 0.  0.
        998    1    1    2    0    0 -0.53390090567E+01  0.15168489588E+01  0.14518189414E+04  0.14518639896E+04  0.10000000000E+02 0. -1.
</event>
<event>
 5    1  0.1147307E-008  0.3630640E+03  0.7957747E-01  0.3528387E+00
         13   -1    0    0    0    0  0.00000000000E+00  0.00000000000E+00  0.14999999963E+04  0.15000000000E+04  0.10566000000E+00 0. -1.
        994   -1    0    0    0    0 -0.00000000000E+00 -0.00000000000E+00  0.11368683772E-12  0.17120000000E+03  0.17120000000E+03 0.  0.
         13    1    1    2    0    0  0.16085748913E+03  0.22974086840E+03  0.92202931578E+03  0.96373962705E+03  0.10566000000E+00 0. -1.
        994    1    1    2    0    0 -0.14768465586E+03 -0.24369009478E+03  0.36616366821E+03  0.49455120239E+03  0.17120000000E+03 0.  0.
        998    1    1    2    0    0 -0.13172833264E+02  0.13949226378E+02  0.21180701229E+03  0.21290917055E+03  0.10000000000E+02 0. -1.
</event>
<event>
 5    1  0.1147307E-008  0.3686736E+03  0.7957747E-01  0.3502009E+00
         13   -1    0    0    0    0  0.00000000000E+00  0.00000000000E+00  0.14999999963E+04  0.15000000000E+04  0.10566000000E+00 0. -1.
        994   -1    0    0    0    0 -0.00000000000E+00 -0.00000000000E+00  0.11368683772E-12  0.17120000000E+03  0.17120000000E+03 0.  0.
         13    1    1    2    0    0  0.27046978504E+02  0.68051633315E+02  0.30083376803E+03  0.30961836346E+03  0.10566000000E+00 0. -1.
        994    1    1    2    0    0  0.27614866076E+01 -0.26511227876E+02  0.12435847303E+02  0.17370826494E+03  0.17120000000E+03 0.  0.
        998    1    1    2    0    0 -0.29808465111E+02 -0.41540405439E+02  0.11867303809E+04  0.11878733716E+04  0.10000000000E+02 0. -1.
</event>
<event>
 5    1  0.1147307E-008  0.3841742E+03  0.7957747E-01  0.3433182E+00
         13   -1    0    0    0    0  0.00000000000E+00  0.00000000000E+00  0.14999999963E+04  0.15000000000E+04  0.10566000000E+00 0. -1.
        994   -1    0    0    0    0 -0.00000000000E+00 -0.00000000000E+00  0.11368683772E-12  0.17120000000E+03  0.17120000000E+03 0.  0.
         13    1    1    2    0    0 -0.20777278301E+01  0.21965619770E+02  0.12877511500E+03  0.13065162384E+03  0.10566000000E+00 0. -1.
        994    1    1    2    0    0  0.75531632326E+01 -0.32837440973E+01  0.22643954216E+01  0.17141295382E+03  0.17120000000E+03 0.  0.
        998    1    1    2    0    0 -0.54754354025E+01 -0.18681875673E+02  0.13689604859E+04  0.13691354223E+04  0.10000000000E+02 0. -1.
</event>
<event>
 5    1  0.1147307E-008  0.3822454E+03  0.7957747E-01  0.3441439E+00
         13   -1    0    0    0    0  0.00000000000E+00  0.00000000000E+00  0.14999999963E+04  0.15000000000E+04  0.10566000000E+00 0.  1.
        994   -1    0    0    0    0 -0.00000000000E+00 -0.00000000000E+00  0.11368683772E-12  0.17120000000E+03  0.17120000000E+03 0.  0.
         13    1    1    2    0    0  0.17070755411E+01  0.99900586139E+01  0.15859083861E+02  0.18821187076E+02  0.10566000000E+00 0.  1.
        994    1    1    2    0    0 -0.95394304291E+01 -0.61725744666E+01  0.34324667416E+01  0.17161096479E+03  0.17120000000E+03 0.  0.
        998    1    1    2    0    0  0.78323548880E+01 -0.38174841472E+01  0.14807084457E+04  0.14807678481E+04  0.10000000000E+02 0.  1.
</event>
<event>
 5    1  0.1147307E-008  0.3839070E+03  0.7957747E-01  0.3434321E+00
         13   -1    0    0    0    0  0.00000000000E+00  0.00000000000E+00  0.14999999963E+04  0.15000000000E+04  0.10566000000E+00 0. -1.
        994   -1    0    0    0    0 -0.00000000000E+00 -0.00000000000E+00  0.11368683772E-12  0.17120000000E+03  0.17120000000E+03 0.  0.
         13    1    1    2    0    0  0.13259684526E+02 -0.15209932053E+01  0.42341865046E+02  0.44395690710E+02  0.10566000000E+00 0. -1.
        994    1    1    2    0    0  0.20550005253E+01  0.81715872617E+01  0.24080982645E+01  0.17142414300E+03  0.17120000000E+03 0.  0.
        998    1    1    2    0    0 -0.15314685051E+02 -0.66505940564E+01  0.14552500330E+04  0.14553801663E+04  0.10000000000E+02 0. -1.
</event>
<event>
 5    1  0.1147307E-008  0.2975254E+03  0.7957747E-01  0.3913845E+00
         13   -1    0    0    0    0  0.00000000000E+00  0.00000000000E+00  0.14999999963E+04  0.15000000000E+04  0.10566000000E+00 0. -1.
        994   -1    0    0    0    0 -0.00000000000E+00 -0.00000000000E+00  0.11368683772E-12  0.17120000000E+03  0.17120000000E+03 0.  0.
         13    1    1    2    0    0  0.59837254081E+02 -0.21815398522E+03  0.58046497001E+03  0.62298575490E+03  0.10566000000E+00 0. -1.
        994    1    1    2    0    0 -0.49666611373E+02  0.18635383347E+03  0.19618604992E+03  0.32402612505E+03  0.17120000000E+03 0.  0.
        998    1    1    2    0    0 -0.10170642708E+02  0.31800151746E+02  0.72334897635E+03  0.72418812004E+03  0.10000000000E+02 0. -1.
</event>
<event>
 5    1  0.1147307E-008  0.3813998E+03  0.7957747E-01  0.3445086E+00
         13   -1    0    0    0    0  0.00000000000E+00  0.00000000000E+00  0.14999999963E+04  0.15000000000E+04  0.10566000000E+00 0. -1.
        994   -1    0    0    0    0 -0.00000000000E+00 -0.00000000000E+00  0.11368683772E-12  0.17120000000E+03  0.17120000000E+03 0.  0.
         13    1    1    2    0    0 -0.14998428954E+02 -0.30715499156E+02  0.17675526467E+03  0.18003007947E+03  0.10566000000E+00 0. -1.
        994    1    1    2    0    0  0.55922196580E+01  0.13135763794E+02  0.41066953806E+01  0.17184331863E+03  0.17120000000E+03 0.  0.
        998    1    1    2    0    0  0.94062092960E+01  0.17579735362E+02  0.13191380362E+04  0.13193266019E+04  0.10000000000E+02 0. -1.
</event>
<event>
 5    1  0.1147307E-008  0.3810952E+03  0.7957747E-01  0.3446404E+00
         13   -1    0    0    0    0  0.00000000000E+00  0.00000000000E+00  0.14999999963E+04  0.15000000000E+04  0.10566000000E+00 0.  1.
        994   -1    0    0    0    0 -0.00000000000E+00 -0.00000000000E+00  0.11368683772E-12  0.17120000000E+03  0.17120000000E+03 0.  0.
         13    1    1    2    0    0  0.85903929149E+02  0.38591042392E+02  0.33806676257E+03  0.35093859964E+03  0.10566000000E+00 0.  1.
        994    1    1    2    0    0 -0.25107080762E+02  0.31867617345E+02  0.22941954733E+02  0.17743078602E+03  0.17120000000E+03 0.  0.
        998    1    1    2    0    0 -0.60796848387E+02 -0.70458659737E+02  0.11389912790E+04  0.11428306143E+04  0.10000000000E+02 0.  1.
</event>
<event>
 5    1  0.1147307E-008  0.3846721E+03  0.7957747E-01  0.3431064E+00
         13   -1    0    0    0    0  0.00000000000E+00  0.00000000000E+00  0.14999999963E+04  0.15000000000E+04  0.10566000000E+00 0.  1.
        994   -1    0    0    0    0 -0.00000000000E+00 -0.00000000000E+00  0.11368683772E-12  0.17120000000E+03  0.17120000000E+03 0.  0.
         13    1    1    2    0    0 -0.44140820862E+01  0.11206482917E+02  0.39833336083E+02  0.41614603297E+02  0.10566000000E+00 0.  1.
        994    1    1    2    0    0  0.42629568556E+01 -0.90193919648E+01  0.21207305645E+01  0.17150352688E+03  0.17120000000E+03 0.  0.
        998    1    1    2    0    0  0.15112523059E+00 -0.21870909526E+01  0.14580459296E+04  0.14580818698E+04  0.10000000000E+02 0.  1.
</event>
<event>
 5    1  0.1147307E-008  0.3839729E+03  0.7957747E-01  0.3434040E+00
         13   -1    0    0    0    0  0.00000000000E+00  0.00000000000E+00  0.14999999963E+04  0.15000000000E+04  0.10566000000E+00 0.  1.
        994   -1    0    0    0    0 -0.00000000000E+00 -0.00000000000E+00  0.11368683772E-12  0.17120000000E+03  0.17120000000E+03 0.  0.
         13    1    1    2    0    0 -0.94144980336E+01 -0.15846748317E+02  0.78724643462E+02  0.80853774542E+02  0.10566000000E+00 0.  1.
        994    1    1    2    0    0  0.10130892024E+02  0.82162287816E+01  0.27025332726E+01  0.17171745711E+03  0.17120000000E+03 0.  0.
        998    1    1    2    0    0 -0.71639399063E+00  0.76305195352E+01  0.14185728195E+04  0.14186287684E+04  0.10000000000E+02 0.  1.
</event>
<event>
 5    1  0.1147307E-008  0.3841832E+03  0.7957747E-01  0.3433144E+00
         13   -1    0    0    0    0  0.00000000000E+00  0.00000000000E+00  0.14999999963E+04  0.15000000000E+04  0.10566000000E+00 0.  1.
        994   -1    0    0    0    0 -0.00000000000E+00 -0.00000000000E+00  0.11368683772E-12  0.17120000000E+03  0.17120000000E+03 0.  0.
         13    1    1    2    0    0 -0.30110165722E+01 -0.23663382340E+02  0.14267305544E+03  0.14465349563E+03  0.10566000000E+00 0.  1.
        994    1    1    2    0    0 -0.11276500840E+02  0.13630800337E+02  0.30688209676E+01  0.17213894345E+03  0.17120000000E+03 0.  0.
        998    1    1    2    0    0  0.14287517412E+02  0.10032582002E+02  0.13542581199E+04  0.13544075609E+04  0.10000000000E+02 0.  1.
</event>
<event>
 5    1  0.1147307E-008  0.3825570E+03  0.7957747E-01  0.3440100E+00
         13   -1    0    0    0    0  0.00000000000E+00  0.00000000000E+00  0.14999999963E+04  0.15000000000E+04  0.10566000000E+00 0.  1.
        994   -1    0    0    0    0 -0.00000000000E+00 -0.00000000000E+00  0.11368683772E-12  0.17120000000E+03  0.17120000000E+03 0.  0.
         13    1    1    2    0    0 -0.17545095945E+02  0.11741909391E+02  0.83194035603E+02  0.85831005772E+02  0.10566000000E+00 0.  1.
        994    1    1    2    0    0  0.43829910034E+01  0.57727408958E+01  0.30220872336E+01  0.17138001097E+03  0.17120000000E+03 0.  0.
        998    1    1    2    0    0  0.13162104941E+02 -0.17514650287E+02  0.14137838734E+04  0.14139889833E+04  0.10000000000E+02 0.  1.
</event>
<event>
 5    1  0.1147307E-008  0.3815505E+03  0.7957747E-01  0.3444435E+00
         13   -1    0    0    0    0  0.00000000000E+00  0.00000000000E+00  0.14999999963E+04  0.15000000000E+04  0.10566000000E+00 0. -1.
        994   -1    0    0    0    0 -0.00000000000E+00 -0.00000000000E+00  0.11368683772E-12  0.17120000000E+03  0.17120000000E+03 0.  0.
         13    1    1    2    0    0 -0.17711335328E+02  0.56693627736E+02  0.33018556166E+03  0.33548528301E+03  0.10566000000E+00 0. -1.
        994    1    1    2    0    0  0.50405768154E+02 -0.69801682232E+02  0.28412847987E+02  0.19372595654E+03  0.17120000000E+03 0.  0.
        998    1    1    2    0    0 -0.32694432825E+02  0.13108054495E+02  0.11414015866E+04  0.11419887605E+04  0.10000000000E+02 0. -1.
</event>
<event>
 5    1  0.1147307E-008  0.3787817E+03  0.7957747E-01  0.3456480E+00
         13   -1    0    0    0    0  0.00000000000E+00  0.00000000000E+00  0.14999999963E+04  0.15000000000E+04  0.10566000000E+00 0. -1.
        994   -1    0    0    0    0 -0.00000000000E+00 -0.00000000000E+00  0.11368683772E-12  0.17120000000E+03  0.17120000000E+03 0.  0.
         13    1    1    2    0    0 -0.15745429382E+03  0.10218607759E+03  0.94211862802E+03  0.96063591933E+03  0.10566000000E+00 0. -1.
        994    1    1    2    0    0  0.15634871421E+03 -0.11363556501E+03  0.14251896611E+03  0.29492212153E+03  0.17120000000E+03 0.  0.
        998    1    1    2    0    0  0.11055796176E+01  0.11449487422E+02  0.41536240215E+03  0.41564195913E+03  0.10000000000E+02 0. -1.
</event>
<event>
 5    1  0.1147307E-008  0.3825916E+03  0.7957747E-01  0.3439951E+00
         13   -1    0    0    0    0  0.00000000000E+00  0.00000000000E+00  0.14999999963E+04  0.15000000000E+04  0.10566000000E+00 0. -1.
        994   -1    0    0    0    0 -0.00000000000E+00 -0.00000000000E+00  0.11368683772E-12  0.17120000000E+03  0.17120000000E+03 0.  0.
         13    1    1    2    0    0  0.21181110841E+02  0.12780809812E+02  0.10616678220E+03  0.10901094148E+03  0.10566000000E+00 0. -1.
        994    1    1    2    0    0 -0.73524176798E+01 -0.20737187821E+02  0.44367701986E+01  0.17266503391E+03  0.17120000000E+03 0.  0.
        998    1    1    2    0    0 -0.13828693161E+02  0.79563780096E+01  0.13893964439E+04  0.13895240246E+04  0.10000000000E+02 0. -1.
</event>
<event>
 5    1  0.1147307E-008  0.3807269E+03  0.7957747E-01  0.3448000E+00
         13   -1    0    0    0    0  0.00000000000E+00  0.00000000000E+00  0.14999999963E+04  0.15000000000E+04  0.10566000000E+00 0.  1.
        994   -1    0    0    0    0 -0.00000000000E+00 -0.00000000000E+00  0.11368683772E-12  0.17120000000E+03  0.17120000000E+03 0.  0.
         13    1    1    2    0    0 -0.33681697310E+02  0.23905504609E+02  0.19726347434E+03  0.20154111084E+03  0.10566000000E+00 0.  1.
        994    1    1    2    0    0  0.26252572683E+02 -0.35217008747E+02  0.10228084749E+02  0.17704092463E+03  0.17120000000E+03 0.  0.
        998    1    1    2    0    0  0.74291246269E+01  0.11311504138E+02  0.12925084372E+04  0.12926179645E+04  0.10000000000E+02 0.  1.
</event>
<event>
 5    1  0.1147307E-008  0.3851211E+03  0.7957747E-01  0.3429159E+00
         13   -1    0    0    0    0  0.00000000000E+00  0.00000000000E+00  0.14999999963E+04  0.15000000000E+04  0.10566000000E+00 0. -1.
        994   -1    0    0    0    0 -0.00000000000E+00 -0.00000000000E+00  0.11368683772E-12  0.17120000000E+03  0.17120000000E+03 0.  0.
         13    1    1    2    0    0 -0.90587042717E+01 -0.12366653985E+02  0.74876875859E+02  0.76430046162E+02  0.10566000000E+00 0. -1.
        994    1    1    2    0    0  0.88384194909E+01  0.61497987634E+01  0.19512605300E+01  0.17154936637E+03  0.17120000000E+03 0.  0.
        998    1    1    2    0    0  0.22028478079E+00  0.62168552220E+01  0.14231718599E+04  0.14232205875E+04  0.10000000000E+02 0. -1.
</event>
<event>
 5    1  0.1147307E-008  0.3724208E+03  0.7957747E-01  0.3484839E+00
         13   -1    0    0    0    0  0.00000000000E+00  0.00000000000E+00  0.14999999963E+04  0.15000000000E+04  0.10566000000E+00 0.  1.
        994   -1    0    0    0    0 -0.00000000000E+00 -0.00000000000E+00  0.11368683772E-12  0.17120000000E+03  0.17120000000E+03 0.  0.
         13    1    1    2    0    0  0.31726459516E+02  0.33911317771E+00  0.69052636041E+02  0.75993163768E+02  0.10566000000E+00 0.  1.
        994    1    1    2    0    0  0.22249839877E+02 -0.22019196387E+02  0.11376714201E+02  0.17440977613E+03  0.17120000000E+03 0.  0.
        998    1    1    2    0    0 -0.53976299393E+02  0.21680083209E+02  0.14195706460E+04  0.14207970601E+04  0.10000000000E+02 0.  1.
</event>
<event>
 5    1  0.1147307E-008  0.3802675E+03  0.7957747E-01  0.3449995E+00
         13   -1    0    0    0    0  0.00000000000E+00  0.00000000000E+00  0.14999999963E+04  0.15000000000E+04  0.10566000000E+00 0.  1.
        994   -1    0    0    0    0 -0.00000000000E+00 -0.00000000000E+00  0.11368683772E-12  0.17120000000E+03  0.17120000000E+03 0.  0.
         13    1    1    2    0    0 -0.30866082585E+02 -0.75473275817E+00  0.12993503238E+03  0.13355301749E+03  0.10566000000E+00 0.  1.
        994    1    1    2    0    0  0.27065853745E+01 -0.10975786960E+02  0.44251264388E+01  0.17162987866E+03  0.17120000000E+03 0.  0.
        998    1    1    2    0    0  0.28159497211E+02  0.11730519719E+02  0.13656398375E+04  0.13660171039E+04  0.10000000000E+02 0.  1.
</event>
<event>
 5    1  0.1147307E-008  0.3843256E+03  0.7957747E-01  0.3432537E+00
         13   -1    0    0    0    0  0.00000000000E+00  0.00000000000E+00  0.14999999963E+04  0.15000000000E+04  0.10566000000E+00 0.  1.
        994   -1    0    0    0    0 -0.00000000000E+00 -0.00000000000E+00  0.11368683772E-12  0.17120000000E+03  0.17120000000E+03 0.  0.
         13    1    1    2    0    0  0.10889939920E+02  0.78698964717E+01  0.45788156411E+02  0.47718890321E+02  0.10566000000E+00 0.  1.
        994    1    1    2    0    0 -0.91590271319E+01 -0.94918650325E+00  0.22448381106E+01  0.17146214752E+03  0.17120000000E+03 0.  0.
        998    1    1    2    0    0 -0.17309127882E+01 -0.69207099685E+01  0.14519670018E+04  0.14520189622E+04  0.10000000000E+02 0.  1.
</event>
<event>
 5    1  0.1147307E-008  0.3686035E+03  0.7957747E-01  0.3502334E+00
         13   -1    0    0    0    0  0.00000000000E+00  0.00000000000E+00  0.14999999963E+04  0.15000000000E+04  0.10566000000E+00 0.  1.
        994   -1    0    0    0    0 -0.00000000000E+00 -0.00000000000E+00  0.11368683772E-12  0.17120000000E+03  0.17120000000E+03 0.  0.
         13    1    1    2    0    0 -0.10175049605E+03 -0.22376081664E+02  0.38656110321E+03  0.40035403103E+03  0.10566000000E+00 0.  1.
        994    1    1    2    0    0  0.10367116206E+03  0.23441854467E+02  0.50347690055E+02  0.20770546521E+03  0.17120000000E+03 0.  0.
        998    1    1    2    0    0 -0.19206660131E+01 -0.10657728035E+01  0.10630912030E+04  0.10631405038E+04  0.10000000000E+02 0.  1.
</event>
<event>
 5    1  0.1147307E-008  0.3826803E+03  0.7957747E-01  0.3439570E+00
         13   -1    0    0    0    0  0.00000000000E+00  0.00000000000E+00  0.14999999963E+04  0.15000000000E+04  0.10566000000E+00 0.  1.
        994   -1    0    0    0    0 -0.00000000000E+00 -0.00000000000E+00  0.11368683772E-12  0.17120000000E+03  0.17120000000E+03 0.  0.
         13    1    1    2    0    0  0.79560625588E+01  0.14652700266E+02  0.47556387853E+02  0.50394659897E+02  0.10566000000E+00 0.  1.
        994    1    1    2    0    0 -0.11770781552E+02 -0.14075623930E+02  0.39026162983E+01  0.17222469307E+03  0.17120000000E+03 0.  0.
        998    1    1    2    0    0  0.38147189933E+01 -0.57707633568E+00  0.14485409921E+04  0.14485806470E+04  0.10000000000E+02 0.  1.
</event>
<event>
 5    1  0.1147307E-008  0.3795660E+03  0.7957747E-01  0.3453051E+00
         13   -1    0    0    0    0  0.00000000000E+00  0.00000000000E+00  0.14999999963E+04  0.15000000000E+04  0.10566000000E+00 0. -1.
        994   -1    0    0    0    0 -0.00000000000E+00 -0.00000000000E+00  0.11368683772E-12  0.17120000000E+03  0.17120000000E+03 0.  0.
         13    1    1    2    0    0 -0.56081596979E+01  0.11031539809E+02  0.15774822302E+02  0.20050000210E+02  0.10566000000E+00 0. -1.
        994    1    1    2    0    0  0.22275433735E+01 -0.73616553751E+01  0.45504626565E+01  0.17143308499E+03  0.17120000000E+03 0.  0.
        998    1    1    2    0    0  0.33806163243E+01 -0.36698844335E+01  0.14796747113E+04  0.14797169148E+04  0.10000000000E+02 0. -1.
</event>
<event>
 5    1  0.1147307E-008  0.3764435E+03  0.7957747E-01  0.3466792E+00
         13   -1    0    0    0    0  0.00000000000E+00  0.00000000000E+00  0.14999999963E+04  0.15000000000E+04  0.10566000000E+00 0. -1.
        994   -1    0    0    0    0 -0.00000000000E+00 -0.00000000000E+00  0.11368683772E-12  0.17120000000E+03  0.17120000000E+03 0.  0.
         13    1    1    2    0    0 -0.16654772787E+02  0.29399300485E+02  0.88122967533E+02  0.94378858313E+02  0.10566000000E+00 0. -1.
        994    1    1    2    0    0  0.13335056648E+02 -0.34154060612E+02  0.10500314560E+02  0.17539675082E+03  0.17120000000E+03 0.  0.
        998    1    1    2    0    0  0.33197161382E+01  0.47547601269E+01  0.14013767142E+04  0.14014243909E+04  0.10000000000E+02 0. -1.
</event>
<event>
 5    1  0.1147307E-008  0.3816444E+03  0.7957747E-01  0.3444030E+00
         13   -1    0    0    0    0  0.00000000000E+00  0.00000000000E+00  0.14999999963E+04  0.15000000000E+04  0.10566000000E+00 0.  1.
        994   -1    0    0    0    0 -0.00000000000E+00 -0.00000000000E+00  0.11368683772E-12  0.17120000000E+03  0.17120000000E+03 0.  0.
         13    1    1    2    0    0  0.26291886805E+02  0.10054894367E+02  0.12772150444E+03  0.13078668921E+03  0.10566000000E+00 0.  1.
        994    1    1    2    0    0 -0.21992565363E+01 -0.10669915617E+02  0.37000674996E+01  0.17158617173E+03  0.17120000000E+03 0.  0.
        998    1    1    2    0    0 -0.24092630269E+02  0.61502125082E+00  0.13685784243E+04  0.13688271391E+04  0.10000000000E+02 0.  1.
</event>
<event>
 5    1  0.1147307E-008  0.3835905E+03  0.7957747E-01  0.3435672E+00
         13   -1    0    0    0    0  0.00000000000E+00  0.00000000000E+00  0.14999999963E+04  0.15000000000E+04  0.10566000000E+00 0. -1.
        994   -1    0    0    0    0 -0.00000000000E+00 -0.00000000000E+00  0.11368683772E-12  0.17120000000E+03  0.17120000000E+03 0.  0.
         13    1    1    2    0    0 -0.17923633430E+02 -0.13872120934E+02  0.10457288676E+03  0.10700089805E+03  0.10566000000E+00 0. -1.
        994    1    1    2    0    0  0.19555978262E+02  0.90772001179E+01  0.38687501753E+01  0.17259559402E+03  0.17120000000E+03 0.  0.
        998    1    1    2    0    0 -0.16323448315E+01  0.47949208161E+01  0.13915583593E+04  0.13916035079E+04  0.10000000000E+02 0. -1.
</event>
<event>
 5    1  0.1147307E-008  0.3774738E+03  0.7957747E-01  0.3462232E+00
         13   -1    0    0    0    0  0.00000000000E+00  0.00000000000E+00  0.14999999963E+04  0.15000000000E+04  0.10566000000E+00 0.  1.
        994   -1    0    0    0    0 -0.00000000000E+00 -0.00000000000E+00  0.11368683772E-12  0.17120000000E+03  0.17120000000E+03 0.  0.
         13    1    1    2    0    0  0.89881326856E+01  0.41288936486E+02  0.51967165964E+02  0.66978804914E+02  0.10566000000E+00 0.  1.
        994    1    1    2    0    0 -0.91082256640E+01 -0.44248697881E+02  0.22310107893E+02  0.17846032599E+03  0.17120000000E+03 0.  0.
        998    1    1    2    0    0  0.12009297839E+00  0.29597613941E+01  0.14257227224E+04  0.14257608691E+04  0.10000000000E+02 0.  0.
</event>
<event>
 5    1  0.1147307E-008  0.3778813E+03  0.7957747E-01  0.3460436E+00
         13   -1    0    0    0    0  0.00000000000E+00  0.00000000000E+00  0.14999999963E+04  0.15000000000E+04  0.10566000000E+00 0.  1.
        994   -1    0    0    0    0 -0.00000000000E+00 -0.00000000000E+00  0.11368683772E-12  0.17120000000E+03  0.17120000000E+03 0.  0.
         13    1    1    2    0    0 -0.19813314414E+02  0.63654361156E+01  0.38843867215E+02  0.44067486759E+02  0.10566000000E+00 0.  1.
        994    1    1    2    0    0  0.19339873014E+02 -0.35518125777E+01  0.65092008642E+01  0.17244841477E+03  0.17120000000E+03 0.  0.
        998    1    1    2    0    0  0.47344140033E+00 -0.28136235379E+01  0.14546469282E+04  0.14546840985E+04  0.10000000000E+02 0.  1.
</event>
<event>
 5    1  0.1147307E-008  0.3750699E+03  0.7957747E-01  0.3472910E+00
         13   -1    0    0    0    0  0.00000000000E+00  0.00000000000E+00  0.14999999963E+04  0.15000000000E+04  0.10566000000E+00 0. -1.
        994   -1    0    0    0    0 -0.00000000000E+00 -0.00000000000E+00  0.11368683772E-12  0.17120000000E+03  0.17120000000E+03 0.  0.
         13    1    1    2    0    0  0.34853783382E+02 -0.15239570033E+02  0.10467426728E+03  0.11137209751E+03  0.10566000000E+00 0. -1.
        994    1    1    2    0    0 -0.21988315685E+02  0.18066754958E+02  0.94001108773E+01  0.17380361258E+03  0.17120000000E+03 0.  0.
        998    1    1    2    0    0 -0.12865467697E+02 -0.28271849251E+01  0.13859256181E+04  0.13860242899E+04  0.10000000000E+02 0. -1.
</event>
<event>
 5    1  0.1147307E-008  0.3780891E+03  0.7957747E-01  0.3459522E+00
         13   -1    0    0    0    0  0.00000000000E+00  0.00000000000E+00  0.14999999963E+04  0.15000000000E+04  0.10566000000E+00 0. -1.
        994   -1    0    0    0    0 -0.00000000000E+00 -0.00000000000E+00  0.11368683772E-12  0.17120000000E+03  0.17120000000E+03 0.  0.
         13    1    1    2    0    0  0.28873205202E+02 -0.35539125386E+00  0.72241694571E+02  0.77798855262E+02  0.10566000000E+00 0. -1.
        994    1    1    2    0    0 -0.43088077681E+02 -0.11241552407E+02  0.11801065936E+02  0.17728976309E+03  0.17120000000E+03 0.  0.
        998    1    1    2    0    0  0.14214872479E+02  0.11596943661E+02  0.14159572358E+04  0.14161113816E+04  0.10000000000E+02 0. -1.
</event>
<event>
 5    1  0.1147307E-008  0.3720460E+03  0.7957747E-01  0.3486541E+00
         13   -1    0    0    0    0  0.00000000000E+00  0.00000000000E+00  0.14999999963E+04  0.15000000000E+04  0.10566000000E+00 0. -1.
        994   -1    0    0    0    0 -0.00000000000E+00 -0.00000000000E+00  0.11368683772E-12  0.17120000000E+03  0.17120000000E+03 0.  0.
         13    1    1    2    0    0  0.13269310449E+03  0.12176865368E+03  0.59839830309E+03  0.62491247812E+03  0.10566000000E+00 0. -1.
        994    1    1    2    0    0 -0.16037688458E+03 -0.15276594836E+03  0.20159186697E+03  0.34497376844E+03  0.17120000000E+03 0.  0.
        998    1    1    2    0    0  0.27683780088E+02  0.30997294675E+02  0.70000982622E+03  0.70131375344E+03  0.10000000000E+02 0. -1.
</event>
<event>
 5    1  0.1147307E-008  0.3789916E+03  0.7957747E-01  0.3455561E+00
         13   -1    0    0    0    0  0.00000000000E+00  0.00000000000E+00  0.14999999963E+04  0.15000000000E+04  0.10566000000E+00 0.  1.
        994   -1    0    0    0    0 -0.00000000000E+00 -0.00000000000E+00  0.11368683772E-12  0.17120000000E+03  0.17120000000E+03 0.  0.
         13    1    1    2    0    0  0.12140786067E+00 -0.10785182227E+02  0.10502850714E+02  0.15055096569E+02  0.10566000000E+00 0.  1.
        994    1    1    2    0    0 -0.10014784014E+01  0.61469153896E+01  0.47731496464E+01  0.17137972600E+03  0.17120000000E+03 0.  0.
        998    1    1    2    0    0  0.88007054070E+00  0.46382668375E+01  0.14847239959E+04  0.14847651774E+04  0.10000000000E+02 0.  1.
</event>
<event>
 5    1  0.1147307E-008  0.3758626E+03  0.7957747E-01  0.3469374E+00
         13   -1    0    0    0    0  0.00000000000E+00  0.00000000000E+00  0.14999999963E+04  0.15000000000E+04  0.10566000000E+00 0.  1.
        994   -1    0    0    0    0 -0.00000000000E+00 -0.00000000000E+00  0.11368683772E-12  0.17120000000E+03  0.17120000000E+03 0.  0.
         13    1    1    2    0    0  0.10814285328E+02  0.10685186691E+02  0.15472593371E+02  0.21691802401E+02  0.10566000000E+00 0.  1.
        994    1    1    2    0    0 -0.15811791392E+02 -0.12304601491E+02  0.75981602144E+01  0.17253575862E+03  0.17120000000E+03 0.  0.
        998    1    1    2    0    0  0.49975060642E+01  0.16194148002E+01  0.14769292427E+04  0.14769724390E+04  0.10000000000E+02 0.  1.
</event>
<event>
 5    1  0.1147307E-008  0.3843798E+03  0.7957747E-01  0.3432307E+00
         13   -1    0    0    0    0  0.00000000000E+00  0.00000000000E+00  0.14999999963E+04  0.15000000000E+04  0.10566000000E+00 0. -1.
        994   -1    0    0    0    0 -0.00000000000E+00 -0.00000000000E+00  0.11368683772E-12  0.17120000000E+03  0.17120000000E+03 0.  0.
         13    1    1    2    0    0 -0.16119522066E+02 -0.59470230266E+01  0.74875607118E+02  0.76821701230E+02  0.10566000000E+00 0. -1.
        994    1    1    2    0    0  0.14050876092E+02  0.25978670509E+00  0.25894538886E+01  0.17179534301E+03  0.17120000000E+03 0.  0.
        998    1    1    2    0    0  0.20686459744E+01  0.56872363215E+01  0.14225349353E+04  0.14225829558E+04  0.10000000000E+02 0. -1.
</event>
<event>
 5    1  0.1147307E-008  0.3804384E+03  0.7957747E-01  0.3449252E+00
         13   -1    0    0    0    0  0.00000000000E+00  0.00000000000E+00  0.14999999963E+04  0.15000000000E+04  0.10566000000E+00 0. -1.
        994   -1    0    0    0    0 -0.00000000000E+00 -0.00000000000E+00  0.11368683772E-12  0.17120000000E+03  0.17120000000E+03 0.  0.
         13    1    1    2    0    0  0.13825862661E+02  0.99707253188E+01  0.35255194418E+02  0.39160052850E+02  0.10566000000E+00 0. -1.
        994    1    1    2    0    0 -0.97485176753E+01 -0.11572848583E+02  0.46766919265E+01  0.17193102067E+03  0.17120000000E+03 0.  0.
        998    1    1    2    0    0 -0.40773449859E+01  0.16021232644E+01  0.14600681099E+04  0.14601089265E+04  0.10000000000E+02 0. -1.
</event>
<event>
 5    1  0.1147307E-008  0.3825335E+03  0.7957747E-01  0.3440201E+00
         13   -1    0    0    0    0  0.00000000000E+00  0.00000000000E+00  0.14999999963E+04  0.15000000000E+04  0.10566000000E+00 0. -1.
        994   -1    0    0    0    0 -0.00000000000E+00 -0.00000000000E+00  0.11368683772E-12  0.17120000000E+03  0.17120000000E+03 0.  0.
         13    1    1    2    0    0 -0.99107507627E+01 -0.43251805221E+01  0.19024206663E+02  0.21882910465E+02  0.10566000000E+00 0. -1.
        994    1    1    2    0    0  0.74540054767E+01  0.15685381303E+02  0.38601332741E+01  0.17212185803E+03  0.17120000000E+03 0.  0.
        998    1    1    2    0    0  0.24567452860E+01 -0.11360200781E+02  0.14771156563E+04  0.14771952315E+04  0.10000000000E+02 0. -1.
</event>
<event>
 5    1  0.1147307E-008  0.3734603E+03  0.7957747E-01  0.3480138E+00
         13   -1    0    0    0    0  0.00000000000E+00  0.00000000000E+00  0.14999999963E+04  0.15000000000E+04  0.10566000000E+00 0.  1.
        994   -1    0    0    0    0 -0.00000000000E+00 -0.00000000000E+00  0.11368683772E-12  0.17120000000E+03  0.17120000000E+03 0.  0.
         13    1    1    2    0    0  0.17917648280E+02  0.21832513223E+02  0.51694688268E+02  0.58907153323E+02  0.10566000000E+00 0.  1.
        994    1    1    2    0    0 -0.13152259451E+02 -0.33865460506E+01  0.81020429858E+01  0.17192886239E+03  0.17120000000E+03 0.  0.
        998    1    1    2    0    0 -0.47653888288E+01 -0.18445967173E+02  0.14402032650E+04  0.14403639843E+04  0.10000000000E+02 0.  1.
</event>
<event>
 5    1  0.1147307E-008  0.3836093E+03  0.7957747E-01  0.3435592E+00
         13   -1    0    0    0    0  0.00000000000E+00  0.00000000000E+00  0.14999999963E+04  0.15000000000E+04  0.10566000000E+00 0. -1.
        994   -1    0    0    0    0 -0.00000000000E+00 -0.00000000000E+00  0.11368683772E-12  0.17120000000E+03  0.17120000000E+03 0.  0.
         13    1    1    2    0    0  0.16207338819E+02 -0.56038001502E+01  0.68612072204E+02  0.70722754640E+02  0.10566000000E+00 0. -1.
        994    1    1    2    0    0  0.69080296761E+01  0.54522449871E+01  0.25780711503E+01  0.17144542659E+03  0.17120000000E+03 0.  0.
        998    1    1    2    0    0 -0.23115368495E+02  0.15155516308E+00  0.14288098529E+04  0.14290318188E+04  0.10000000000E+02 0. -1.
</event>
<event>
 5    1  0.1147307E-008  0.3789138E+03  0.7957747E-01  0.3455902E+00
         13   -1    0    0    0    0  0.00000000000E+00  0.00000000000E+00  0.14999999963E+04  0.15000000000E+04  0.10566000000E+00 0.  1.
        994   -1    0    0    0    0 -0.00000000000E+00 -0.00000000000E+00  0.11368683772E-12  0.17120000000E+03  0.17120000000E+03 0.  0.
         13    1    1    2    0    0  0.18565291652E+02  0.80766843789E+01  0.42388614458E+02  0.46975617977E+02  0.10566000000E+00 0.  1.
        994    1    1    2    0    0 -0.80628791081E+01 -0.73880792378E+01  0.50837892656E+01  0.17162423677E+03  0.17120000000E+03 0.  0.
        998    1    1    2    0    0 -0.10502412544E+02 -0.68860514104E+00  0.14525275926E+04  0.14526001453E+04  0.10000000000E+02 0.  1.
</event>
<event>
 5    1  0.1147307E-008  0.3838589E+03  0.7957747E-01  0.3434526E+00
         13   -1    0    0    0    0  0.00000000000E+00  0.00000000000E+00  0.14999999963E+04  0.15000000000E+04  0.10566000000E+00 0.  1.
        994   -1    0    0    0    0 -0.00000000000E+00 -0.00000000000E+00  0.11368683772E-12  0.17120000000E+03  0.17120000000E+03 0.  0.
         13    1    1    2    0    0  0.15797126938E+02  0.16395399281E+02  0.12553244774E+03  0.12758042537E+03  0.10566000000E+00 0.  1.
        994    1    1    2    0    0  0.48921499747E+01 -0.12622322776E+02  0.28028809046E+01  0.17175724819E+03  0.17120000000E+03 0.  0.
        998    1    1    2    0    0 -0.20689276913E+02 -0.37730765054E+01  0.13716646676E+04  0.13718623264E+04  0.10000000000E+02 0.  1.
</event>
<event>
 5    1  0.1147307E-008  0.3821353E+03  0.7957747E-01  0.3441913E+00
         13   -1    0    0    0    0  0.00000000000E+00  0.00000000000E+00  0.14999999963E+04  0.15000000000E+04  0.10566000000E+00 0.  1.
        994   -1    0    0    0    0 -0.00000000000E+00 -0.00000000000E+00  0.11368683772E-12  0.17120000000E+03  0.17120000000E+03 0.  0.
         13    1    1    2    0    0  0.12718515579E+02  0.24128084985E+01  0.26115472429E+02  0.29148093379E+02  0.10566000000E+00 0.  1.
        994    1    1    2    0    0 -0.10095864662E+02 -0.27145284822E+01  0.34220291658E+01  0.17155303970E+03  0.17120000000E+03 0.  0.
        998    1    1    2    0    0 -0.26226509170E+01  0.30171998376E+00  0.14704624947E+04  0.14704988669E+04  0.10000000000E+02 0.  1.
</event>
<event>
 5    1  0.1147307E-008  0.3717273E+03  0.7957747E-01  0.3487990E+00
         13   -1    0    0    0    0  0.00000000000E+00  0.00000000000E+00  0.14999999963E+04  0.15000000000E+04  0.10566000000E+00 0.  1.
        994   -1    0    0    0    0 -0.00000000000E+00 -0.00000000000E+00  0.11368683772E-12  0.17120000000E+03  0.17120000000E+03 0.  0.
         13    1    1    2    0    0 -0.44073201601E+02 -0.63467020499E+02  0.30080641238E+03  0.31057208291E+03  0.10566000000E+00 0.  1.
        994    1    1    2    0    0  0.33861324358E+02  0.60072499637E+02  0.24895334004E+02  0.18623778391E+03  0.17120000000E+03 0.  0.
        998    1    1    2    0    0  0.10211877243E+02  0.33945208613E+01  0.11742982499E+04  0.11743901332E+04  0.10000000000E+02 0.  1.
</event>
<event>
 5    1  0.1147307E-008  0.4046313E+03  0.7957747E-01  0.3350454E+00
         13   -1    0    0    0    0  0.00000000000E+00  0.00000000000E+00  0.14999999963E+04  0.15000000000E+04  0.10566000000E+00 0. -1.
        994   -1    0    0    0    0 -0.00000000000E+00 -0.00000000000E+00  0.11368683772E-12  0.17120000000E+03  0.17120000000E+03 0.  0.
         13    1    1    2    0    0 -0.13006786620E+03  0.69614050501E+02  0.29059545124E+03  0.32589797988E+03  0.10566000000E+00 0. -1.
        994    1    1    2    0    0  0.11559850930E+03 -0.64464423808E+02  0.10461226602E+03  0.24035774065E+03  0.17120000000E+03 0.  0.
        998    1    1    2    0    0  0.14469356904E+02 -0.51496266931E+01  0.11047922790E+04  0.11049442795E+04  0.10000000000E+02 0. -1.
</event>
<event>
 5    1  0.2382255E-008  0.3864134E+03  0.7957747E-01  0.3423700E+00
         13   -1    0    0    0    0  0.00000000000E+00  0.00000000000E+00  0.14999999963E+04  0.15000000000E+04  0.10566000000E+00 0. -1.
        994   -1    0    0    0    0 -0.00000000000E+00 -0.00000000000E+00  0.11368683772E-12  0.17120000000E+03  0.17120000000E+03 0.  0.
         13    1    1    2    0    0 -0.50636534255E+00 -0.10498921028E+02  0.60611135661E+02  0.61515889644E+02  0.10566000000E+00 0. -1.
        994    1    1    2    0    0 -0.13865086704E+02  0.80108818247E+01  0.17698652735E+01  0.17195635283E+03  0.17120000000E+03 0.  0.
        998    1    1    2    0    0  0.14371452046E+02  0.24880392031E+01  0.14376189953E+04  0.14377277575E+04  0.10000000000E+02 0. -1.
</event>
<event>
 5    1  0.1147307E-008  0.3830438E+03  0.7957747E-01  0.3438011E+00
         13   -1    0    0    0    0  0.00000000000E+00  0.00000000000E+00  0.14999999963E+04  0.15000000000E+04  0.10566000000E+00 0. -1.
        994   -1    0    0    0    0 -0.00000000000E+00 -0.00000000000E+00  0.11368683772E-12  0.17120000000E+03  0.17120000000E+03 0.  0.
         13    1    1    2    0    0  0.10191371221E+02  0.81024157969E+01  0.35534356617E+02  0.37844614588E+02  0.10566000000E+00 0. -1.
        994    1    1    2    0    0  0.92762690883E+01  0.20880035565E+02  0.43340935424E+01  0.17277224725E+03  0.17120000000E+03 0.  0.
        998    1    1    2    0    0 -0.19467640310E+02 -0.28982451362E+02  0.14601315461E+04  0.14605831382E+04  0.10000000000E+02 0. -1.
</event>
<event>
 5    1  0.1147307E-008  0.3768148E+03  0.7957747E-01  0.3465146E+00
         13   -1    0    0    0    0  0.00000000000E+00  0.00000000000E+00  0.14999999963E+04  0.15000000000E+04  0.10566000000E+00 0. -1.
        994   -1    0    0    0    0 -0.00000000000E+00 -0.00000000000E+00  0.11368683772E-12  0.17120000000E+03  0.17120000000E+03 0.  0.
         13    1    1    2    0    0  0.36572327775E+02  0.18675043262E+02  0.18784262288E+03  0.19227884578E+03  0.10566000000E+00 0. -1.
        994    1    1    2    0    0  0.12088919752E+02  0.12816074858E+02  0.67990888224E+01  0.17223838528E+03  0.17120000000E+03 0.  0.
        998    1    1    2    0    0 -0.48661247526E+02 -0.31491118120E+02  0.13053582846E+04  0.13066827689E+04  0.10000000000E+02 0. -1.
</event>
<event>
 5    1  0.1147307E-008  0.3806811E+03  0.7957747E-01  0.3448198E+00
         13   -1    0    0    0    0  0.00000000000E+00  0.00000000000E+00  0.14999999963E+04  0.15000000000E+04  0.10566000000E+00 0.  1.
        994   -1    0    0    0    0 -0.00000000000E+00 -0.00000000000E+00  0.11368683772E-12  0.17120000000E+03  0.17120000000E+03 0.  0.
         13    1    1    2    0    0 -0.45558152587E+02 -0.27106838055E+02  0.29340875115E+03  0.29815940762E+03  0.10566000000E+00 0.  1.
        994    1    1    2    0    0  0.43835114923E+02  0.34413210954E+02  0.14219120696E+02  0.18060290635E+03  0.17120000000E+03 0.  0.
        998    1    1    2    0    0  0.17230376646E+01 -0.73063728990E+01  0.11923721244E+04  0.11924376860E+04  0.10000000000E+02 0.  1.
</event>
<event>
 5    1  0.1147307E-008  0.3739081E+03  0.7957747E-01  0.3478121E+00
         13   -1    0    0    0    0  0.00000000000E+00  0.00000000000E+00  0.14999999963E+04  0.15000000000E+04  0.10566000000E+00 0.  1.
        994   -1    0    0    0    0 -0.00000000000E+00 -0.00000000000E+00  0.11368683772E-12  0.17120000000E+03  0.17120000000E+03 0.  0.
         13    1    1    2    0    0  0.10437246165E+00  0.19346656231E+02  0.22654289004E+02  0.29791474875E+02  0.10566000000E+00 0.  1.
        994    1    1    2    0    0 -0.20979167752E+01 -0.15838028171E+02  0.81118363485E+01  0.17213508149E+03  0.17120000000E+03 0.  0.
        998    1    1    2    0    0  0.19935443136E+01 -0.35086280598E+01  0.14692338709E+04  0.14692734436E+04  0.10000000000E+02 0.  1.
</event>
<event>
 5    1  0.1147307E-008  0.3814465E+03  0.7957747E-01  0.3444884E+00
         13   -1    0    0    0    0  0.00000000000E+00  0.00000000000E+00  0.14999999963E+04  0.15000000000E+04  0.10566000000E+00 0.  1.
        994   -1    0    0    0    0 -0.00000000000E+00 -0.00000000000E+00  0.11368683772E-12  0.17120000000E+03  0.17120000000E+03 0.  0.
         13    1    1    2    0    0 -0.24040779399E+02 -0.22671910274E+01  0.96163898171E+02  0.99149411015E+02  0.10566000000E+00 0.  1.
        994    1    1    2    0    0 -0.70941701870E+01 -0.10524200662E+02  0.39408763281E+01  0.17171504464E+03  0.17120000000E+03 0.  0.
        998    1    1    2    0    0  0.31134949586E+02  0.12791391690E+02  0.13998952218E+04  0.14003355443E+04  0.10000000000E+02 0.  1.
</event>
<event>
 5    1  0.1147307E-008  0.3831140E+03  0.7957747E-01  0.3437711E+00
         13   -1    0    0    0    0  0.00000000000E+00  0.00000000000E+00  0.14999999963E+04  0.15000000000E+04  0.10566000000E+00 0.  1.
        994   -1    0    0    0    0 -0.00000000000E+00 -0.00000000000E+00  0.11368683772E-12  0.17120000000E+03  0.17120000000E+03 0.  0.
         13    1    1    2    0    0  0.26420355322E+02  0.14914201358E+02  0.16352356038E+03  0.16631426440E+03  0.10566000000E+00 0.  1.
        994    1    1    2    0    0 -0.23844248702E+02 -0.16107929804E+02  0.53140237828E+01  0.17368273503E+03  0.17120000000E+03 0.  0.
        998    1    1    2    0    0 -0.25761066196E+01  0.11937284466E+01  0.13311624121E+04  0.13312030006E+04  0.10000000000E+02 0.  1.
</event>
<event>
 5    1  0.1147307E-008  0.3815122E+03  0.7957747E-01  0.3444600E+00
         13   -1    0    0    0    0  0.00000000000E+00  0.00000000000E+00  0.14999999963E+04  0.15000000000E+04  0.10566000000E+00 0.  1.
        994   -1    0    0    0    0 -0.00000000000E+00 -0.00000000000E+00  0.11368683772E-12  0.17120000000E+03  0.17120000000E+03 0.  0.
         13    1    1    2    0    0 -0.33371575839E+02  0.21860814306E+02  0.15960241859E+03  0.16451291882E+03  0.10566000000E+00 0.  1.
        994    1    1    2    0    0  0.81225345474E+02 -0.24026614048E+02  0.27616990551E+02  0.19299474888E+03  0.17120000000E+03 0.  0.
        998    1    1    2    0    0 -0.47853769634E+02  0.21657997416E+01  0.13127805871E+04  0.13136923323E+04  0.10000000000E+02 0. -1.
</event>
<event>
 5    1  0.1147307E-008  0.3830419E+03  0.7957747E-01  0.3438020E+00
         13   -1    0    0    0    0  0.00000000000E+00  0.00000000000E+00  0.14999999963E+04  0.15000000000E+04  0.10566000000E+00 0.  1.
        994   -1    0    0    0    0 -0.00000000000E+00 -0.00000000000E+00  0.11368683772E-12  0.17120000000E+03  0.17120000000E+03 0.  0.
         13    1    1    2    0    0 -0.24483079961E+02  0.11446092729E+02  0.13055986620E+03  0.13332788181E+03  0.10566000000E+00 0.  1.
        994    1    1    2    0    0  0.26754743383E+02 -0.31147914900E+01  0.50103604770E+01  0.17337837792E+03  0.17120000000E+03 0.  0.
        998    1    1    2    0    0 -0.22716634216E+01 -0.83313012388E+01  0.13644297696E+04  0.13644937403E+04  0.10000000000E+02 0.  1.
</event>
<event>
 5    1  0.1147307E-008  0.4371842E+03  0.7957747E-01  0.3234613E+00
         13   -1    0    0    0    0  0.00000000000E+00  0.00000000000E+00  0.14999999963E+04  0.15000000000E+04  0.10566000000E+00 0. -1.
        994   -1    0    0    0    0 -0.00000000000E+00 -0.00000000000E+00  0.11368683772E-12  0.17120000000E+03  0.17120000000E+03 0.  0.
         13    1    1    2    0    0  0.67474339957E+02  0.45768779313E+02  0.47586292530E+02  0.94403570448E+02  0.10566000000E+00 0. -1.
        994    1    1    2    0    0 -0.63174804133E+02 -0.33621023153E+02  0.76371582399E+02  0.20065763796E+03  0.17120000000E+03 0.  0.
        998    1    1    2    0    0 -0.42995358242E+01 -0.12147756160E+02  0.13760421213E+04  0.13761387916E+04  0.10000000000E+02 0. -1.
</event>
<event>
 5    1  0.1147307E-008  0.3733492E+03  0.7957747E-01  0.3480639E+00
         13   -1    0    0    0    0  0.00000000000E+00  0.00000000000E+00  0.14999999963E+04  0.15000000000E+04  0.10566000000E+00 0.  1.
        994   -1    0    0    0    0 -0.00000000000E+00 -0.00000000000E+00  0.11368683772E-12  0.17120000000E+03  0.17120000000E+03 0.  0.
         13    1    1    2    0    0 -0.39524483310E+02  0.52448099228E+01  0.10612996081E+03  0.11337227420E+03  0.10566000000E+00 0.  1.
        994    1    1    2    0    0  0.16575510185E+02 -0.50117295077E+01  0.85545450123E+01  0.17228605635E+03  0.17120000000E+03 0.  0.
        998    1    1    2    0    0  0.22948973124E+02 -0.23308041512E+00  0.13853154905E+04  0.13855416695E+04  0.10000000000E+02 0.  1.
</event>
<event>
 5    1  0.1147307E-008  0.3809635E+03  0.7957747E-01  0.3446974E+00
         13   -1    0    0    0    0  0.00000000000E+00  0.00000000000E+00  0.14999999963E+04  0.15000000000E+04  0.10566000000E+00 0. -1.
        994   -1    0    0    0    0 -0.00000000000E+00 -0.00000000000E+00  0.11368683772E-12  0.17120000000E+03  0.17120000000E+03 0.  0.
         13    1    1    2    0    0 -0.98067021156E+01 -0.32236298954E+02  0.19698410763E+03  0.19984519058E+03  0.10566000000E+00 0. -1.
        994    1    1    2    0    0 -0.22854060581E+01 -0.10093544603E+02  0.40045571897E+01  0.17155925857E+03  0.17120000000E+03 0.  0.
        998    1    1    2    0    0  0.12092108174E+02  0.42329843557E+02  0.12990113315E+04  0.12997955508E+04  0.10000000000E+02 0. -1.
</event>
<event>
 5    1  0.1147307E-008  0.3837465E+03  0.7957747E-01  0.3435006E+00
         13   -1    0    0    0    0  0.00000000000E+00  0.00000000000E+00  0.14999999963E+04  0.15000000000E+04  0.10566000000E+00 0.  1.
        994   -1    0    0    0    0 -0.00000000000E+00 -0.00000000000E+00  0.11368683772E-12  0.17120000000E+03  0.17120000000E+03 0.  0.
         13    1    1    2    0    0 -0.39632117108E+01  0.29299494289E+02  0.16993172650E+03  0.17248469569E+03  0.10566000000E+00 0.  1.
        994    1    1    2    0    0  0.66802283865E+01 -0.31749027516E+02  0.57373429893E+01  0.17434157079E+03  0.17120000000E+03 0.  0.
        998    1    1    2    0    0 -0.27170166757E+01  0.24495332265E+01  0.13243309268E+04  0.13243737335E+04  0.10000000000E+02 0.  1.
</event>
<event>
 5    1  0.1147307E-008  0.3815752E+03  0.7957747E-01  0.3444328E+00
         13   -1    0    0    0    0  0.00000000000E+00  0.00000000000E+00  0.14999999963E+04  0.15000000000E+04  0.10566000000E+00 0. -1.
        994   -1    0    0    0    0 -0.00000000000E+00 -0.00000000000E+00  0.11368683772E-12  0.17120000000E+03  0.17120000000E+03 0.  0.
         13    1    1    2    0    0  0.10575544255E+02 -0.28388824241E+01  0.16350027463E+02  0.19678311710E+02  0.10566000000E+00 0. -1.
        994    1    1    2    0    0 -0.12149116979E+02  0.40284705795E+01  0.38851473776E+01  0.17172176329E+03  0.17120000000E+03 0.  0.
        998    1    1    2    0    0  0.15735727238E+01 -0.11895881554E+01  0.14797648214E+04  0.14797999250E+04  0.10000000000E+02 0. -1.
</event>
<event>
 5    1  0.1147307E-008  0.3855272E+03  0.7957747E-01  0.3427439E+00
         13   -1    0    0    0    0  0.00000000000E+00  0.00000000000E+00  0.14999999963E+04  0.15000000000E+04  0.10566000000E+00 0. -1.
        994   -1    0    0    0    0 -0.00000000000E+00 -0.00000000000E+00  0.11368683772E-12  0.17120000000E+03  0.17120000000E+03 0.  0.
         13    1    1    2    0    0 -0.11000975071E+02 -0.48160411161E+01  0.52931602236E+02  0.54276895489E+02  0.10566000000E+00 0. -1.
        994    1    1    2    0    0  0.91851063557E+01 -0.74705054832E+00  0.16474894142E+01  0.17145576247E+03  0.17120000000E+03 0.  0.
        998    1    1    2    0    0  0.18158687153E+01  0.55630916644E+01  0.14454209046E+04  0.14454673420E+04  0.10000000000E+02 0. -1.
</event>
<event>
 5    1  0.1147307E-008  0.3774115E+03  0.7957747E-01  0.3462507E+00
         13   -1    0    0    0    0  0.00000000000E+00  0.00000000000E+00  0.14999999963E+04  0.15000000000E+04  0.10566000000E+00 0.  1.
        994   -1    0    0    0    0 -0.00000000000E+00 -0.00000000000E+00  0.11368683772E-12  0.17120000000E+03  0.17120000000E+03 0.  0.
         13    1    1    2    0    0 -0.12815967881E+02  0.29237364276E+02  0.89086849467E+02  0.94633769948E+02  0.10566000000E+00 0.  1.
        994    1    1    2    0    0 -0.67935610067E+01 -0.31653032644E+02  0.89875018666E+01  0.17446570476E+03  0.17120000000E+03 0.  0.
        998    1    1    2    0    0  0.19609528888E+02  0.24156683678E+01  0.14019256449E+04  0.14021005253E+04  0.10000000000E+02 0.  1.
</event>
<event>
 5    1  0.1147307E-008  0.3788323E+03  0.7957747E-01  0.3456259E+00
         13   -1    0    0    0    0  0.00000000000E+00  0.00000000000E+00  0.14999999963E+04  0.15000000000E+04  0.10566000000E+00 0. -1.
        994   -1    0    0    0    0 -0.00000000000E+00 -0.00000000000E+00  0.11368683772E-12  0.17120000000E+03  0.17120000000E+03 0.  0.
         13    1    1    2    0    0  0.86284187586E+02  0.12637337042E+03  0.92073644786E+03  0.93336531292E+03  0.10566000000E+00 0. -1.
        994    1    1    2    0    0 -0.82741249729E+02 -0.12437464062E+03  0.83674583001E+02  0.24212815094E+03  0.17120000000E+03 0.  0.
        998    1    1    2    0    0 -0.35429378564E+01 -0.19987297948E+01  0.49558896542E+03  0.49570653614E+03  0.10000000000E+02 0.  0.
</event>
<event>
 5    1  0.1147307E-008  0.3856976E+03  0.7957747E-01  0.3426719E+00
         13   -1    0    0    0    0  0.00000000000E+00  0.00000000000E+00  0.14999999963E+04  0.15000000000E+04  0.10566000000E+00 0.  1.
        994   -1    0    0    0    0 -0.00000000000E+00 -0.00000000000E+00  0.11368683772E-12  0.17120000000E+03  0.17120000000E+03 0.  0.
         13    1    1    2    0    0 -0.86161050811E+01  0.64198404698E+01  0.44540498781E+02  0.45818324000E+02  0.10566000000E+00 0.  1.
        994    1    1    2    0    0  0.50283583828E+01 -0.98903829385E+01  0.16882464543E+01  0.17156746265E+03  0.17120000000E+03 0.  0.
        998    1    1    2    0    0  0.35877466983E+01  0.34705424688E+01  0.14537712510E+04  0.14538142134E+04  0.10000000000E+02 0.  1.
</event>
<event>
 5    1  0.1147307E-008  0.3855041E+03  0.7957747E-01  0.3427537E+00
         13   -1    0    0    0    0  0.00000000000E+00  0.00000000000E+00  0.14999999963E+04  0.15000000000E+04  0.10566000000E+00 0.  1.
        994   -1    0    0    0    0 -0.00000000000E+00 -0.00000000000E+00  0.11368683772E-12  0.17120000000E+03  0.17120000000E+03 0.  0.
         13    1    1    2    0    0 -0.93540500192E+00 -0.11973447461E+02  0.52721607748E+02  0.54072335942E+02  0.10566000000E+00 0.  1.
        994    1    1    2    0    0  0.70057559084E+01  0.68911489050E+01  0.16971919431E+01  0.17149020091E+03  0.17120000000E+03 0.  0.
        998    1    1    2    0    0 -0.60703509065E+01  0.50822985558E+01  0.14455811966E+04  0.14456374631E+04  0.10000000000E+02 0.  1.
</event>
<event>
 5    1  0.1147307E-008  0.3835676E+03  0.7957747E-01  0.3435770E+00
         13   -1    0    0    0    0  0.00000000000E+00  0.00000000000E+00  0.14999999963E+04  0.15000000000E+04  0.10566000000E+00 0.  1.
        994   -1    0    0    0    0 -0.00000000000E+00 -0.00000000000E+00  0.11368683772E-12  0.17120000000E+03  0.17120000000E+03 0.  0.
         13    1    1    2    0    0 -0.95640739279E+01 -0.24912800154E+02  0.14249405426E+03  0.14497132746E+03  0.10566000000E+00 0.  1.
        994    1    1    2    0    0  0.14582405446E+02  0.19875452089E+02  0.43533380567E+01  0.17302043722E+03  0.17120000000E+03 0.  0.
        998    1    1    2    0    0 -0.50183315185E+01  0.50373480649E+01  0.13531526040E+04  0.13532082353E+04  0.10000000000E+02 0.  1.
</event>
<event>
 5    1  0.1147307E-008  0.3844549E+03  0.7957747E-01  0.3431987E+00
         13   -1    0    0    0    0  0.00000000000E+00  0.00000000000E+00  0.14999999963E+04  0.15000000000E+04  0.10566000000E+00 0.  1.
        994   -1    0    0    0    0 -0.00000000000E+00 -0.00000000000E+00  0.11368683772E-12  0.17120000000E+03  0.17120000000E+03 0.  0.
         13    1    1    2    0    0  0.11095288878E+02  0.73115969748E+01  0.49104294807E+02  0.50870500470E+02  0.10566000000E+00 0.  1.
        994    1    1    2    0    0  0.83088635785E+01 -0.70822157992E+01  0.22937845372E+01  0.17156309755E+03  0.17120000000E+03 0.  0.
        998    1    1    2    0    0 -0.19404152456E+02 -0.22938117564E+00  0.14486019169E+04  0.14487664020E+04  0.10000000000E+02 0.  1.
</event>
<event>
 5    1  0.1147307E-008  0.3844102E+03  0.7957747E-01  0.3432177E+00
         13   -1    0    0    0    0  0.00000000000E+00  0.00000000000E+00  0.14999999963E+04  0.15000000000E+04  0.10566000000E+00 0. -1.
        994   -1    0    0    0    0 -0.00000000000E+00 -0.00000000000E+00  0.11368683772E-12  0.17120000000E+03  0.17120000000E+03 0.  0.
         13    1    1    2    0    0  0.62083312966E+01  0.17078201519E+02  0.86448292265E+02  0.88337572664E+02  0.10566000000E+00 0. -1.
        994    1    1    2    0    0 -0.40823818404E+01 -0.93416245182E+01  0.22657474706E+01  0.17151823635E+03  0.17120000000E+03 0.  0.
        998    1    1    2    0    0 -0.21259494563E+01 -0.77365770011E+01  0.14112859565E+04  0.14113441910E+04  0.10000000000E+02 0. -1.
</event>
<event>
 5    1  0.1147307E-008  0.3769526E+03  0.7957747E-01  0.3464536E+00
         13   -1    0    0    0    0  0.00000000000E+00  0.00000000000E+00  0.14999999963E+04  0.15000000000E+04  0.10566000000E+00 0.  1.
        994   -1    0    0    0    0 -0.00000000000E+00 -0.00000000000E+00  0.11368683772E-12  0.17120000000E+03  0.17120000000E+03 0.  0.
         13    1    1    2    0    0  0.29838511764E+02 -0.22140547971E+02  0.18581393885E+03  0.18949240534E+03  0.10566000000E+00 0.  1.
        994    1    1    2    0    0  0.41861462568E+02 -0.17922238355E+02  0.12714087431E+02  0.17760821123E+03  0.17120000000E+03 0.  0.
        998    1    1    2    0    0 -0.71699974332E+02  0.40062786326E+02  0.13014719700E+04  0.13040993834E+04  0.10000000000E+02 0.  1.
</event>
<event>
 5    1  0.1147307E-008  0.3826258E+03  0.7957747E-01  0.3439804E+00
         13   -1    0    0    0    0  0.00000000000E+00  0.00000000000E+00  0.14999999963E+04  0.15000000000E+04  0.10566000000E+00 0.  1.
        994   -1    0    0    0    0 -0.00000000000E+00 -0.00000000000E+00  0.11368683772E-12  0.17120000000E+03  0.17120000000E+03 0.  0.
         13    1    1    2    0    0 -0.68318160746E+01  0.13731846922E+02  0.41707849437E+02  0.44438645337E+02  0.10566000000E+00 0.  1.
        994    1    1    2    0    0 -0.40341696164E+01 -0.79351916660E+01  0.30761324204E+01  0.17145887082E+03  0.17120000000E+03 0.  0.
        998    1    1    2    0    0  0.10865985691E+02 -0.57966552556E+01  0.14552160144E+04  0.14553024838E+04  0.10000000000E+02 0.  1.
</event>
<event>
 5    1  0.1147307E-008  0.3855641E+03  0.7957747E-01  0.3427283E+00
         13   -1    0    0    0    0  0.00000000000E+00  0.00000000000E+00  0.14999999963E+04  0.15000000000E+04  0.10566000000E+00 0.  1.
        994   -1    0    0    0    0 -0.00000000000E+00 -0.00000000000E+00  0.11368683772E-12  0.17120000000E+03  0.17120000000E+03 0.  0.
         13    1    1    2    0    0 -0.20201130135E+01  0.14118473601E+02  0.67968789277E+02  0.69449115424E+02  0.10566000000E+00 0.  1.
        994    1    1    2    0    0  0.63155979723E+01 -0.24384780636E+02  0.34359611160E+01  0.17307729526E+03  0.17120000000E+03 0.  0.
        998    1    1    2    0    0 -0.42954849589E+01  0.10266307035E+02  0.14285952459E+04  0.14286735893E+04  0.10000000000E+02 0.  1.
</event>
<event>
 5    1  0.1147307E-008  0.3813600E+03  0.7957747E-01  0.3445258E+00
         13   -1    0    0    0    0  0.00000000000E+00  0.00000000000E+00  0.14999999963E+04  0.15000000000E+04  0.10566000000E+00 0.  1.
        994   -1    0    0    0    0 -0.00000000000E+00 -0.00000000000E+00  0.11368683772E-12  0.17120000000E+03  0.17120000000E+03 0.  0.
         13    1    1    2    0    0 -0.33518432278E+02 -0.75599582454E+00  0.15315164906E+03  0.15677849217E+03  0.10566000000E+00 0.  1.
        994    1    1    2    0    0  0.27813893107E+02 -0.19345419282E+01  0.60395327552E+01  0.17356056885E+03  0.17120000000E+03 0.  0.
        998    1    1    2    0    0  0.57045391711E+01  0.26905377527E+01  0.13408088145E+04  0.13408609390E+04  0.10000000000E+02 0.  0.
</event>
<event>
 5    1  0.1147307E-008  0.3845184E+03  0.7957747E-01  0.3431717E+00
         13   -1    0    0    0    0  0.00000000000E+00  0.00000000000E+00  0.14999999963E+04  0.15000000000E+04  0.10566000000E+00 0.  1.
        994   -1    0    0    0    0 -0.00000000000E+00 -0.00000000000E+00  0.11368683772E-12  0.17120000000E+03  0.17120000000E+03 0.  0.
         13    1    1    2    0    0 -0.17297359318E+02  0.32628947033E+01  0.79008037732E+02  0.80945205612E+02  0.10566000000E+00 0.  1.
        994    1    1    2    0    0  0.18224512608E+02 -0.22474922791E+01  0.29808420032E+01  0.17220775099E+03  0.17120000000E+03 0.  0.
        998    1    1    2    0    0 -0.92715328967E+00 -0.10154024242E+01  0.14180111165E+04  0.14180470434E+04  0.10000000000E+02 0.  1.
</event>
<event>
 5    1  0.1147307E-008  0.3825374E+03  0.7957747E-01  0.3440184E+00
         13   -1    0    0    0    0  0.00000000000E+00  0.00000000000E+00  0.14999999963E+04  0.15000000000E+04  0.10566000000E+00 0. -1.
        994   -1    0    0    0    0 -0.00000000000E+00 -0.00000000000E+00  0.11368683772E-12  0.17120000000E+03  0.17120000000E+03 0.  0.
         13    1    1    2    0    0  0.10461470186E+02  0.22833500321E+02  0.10335099428E+03  0.10635906298E+03  0.10566000000E+00 0. -1.
        994    1    1    2    0    0  0.85192688320E+01 -0.31778972593E+02  0.64546102319E+01  0.17445223711E+03  0.17120000000E+03 0.  0.
        998    1    1    2    0    0 -0.18980739018E+02  0.89454722721E+01  0.13901943918E+04  0.13903886999E+04  0.10000000000E+02 0. -1.
</event>
<event>
 5    1  0.1147307E-008  0.3839407E+03  0.7957747E-01  0.3434177E+00
         13   -1    0    0    0    0  0.00000000000E+00  0.00000000000E+00  0.14999999963E+04  0.15000000000E+04  0.10566000000E+00 0.  1.
        994   -1    0    0    0    0 -0.00000000000E+00 -0.00000000000E+00  0.11368683772E-12  0.17120000000E+03  0.17120000000E+03 0.  0.
         13    1    1    2    0    0 -0.12259011536E+02 -0.74653847194E+01  0.47487907875E+02  0.49609756008E+02  0.10566000000E+00 0.  1.
        994    1    1    2    0    0  0.20479156090E+01  0.13182198611E+02  0.27444605437E+01  0.17174089898E+03  0.17120000000E+03 0.  0.
        998    1    1    2    0    0  0.10211095927E+02 -0.57168138920E+01  0.14497676279E+04  0.14498493450E+04  0.10000000000E+02 0.  1.
</event>
<event>
 5    1  0.1147307E-008  0.3775839E+03  0.7957747E-01  0.3461747E+00
         13   -1    0    0    0    0  0.00000000000E+00  0.00000000000E+00  0.14999999963E+04  0.15000000000E+04  0.10566000000E+00 0. -1.
        994   -1    0    0    0    0 -0.00000000000E+00 -0.00000000000E+00  0.11368683772E-12  0.17120000000E+03  0.17120000000E+03 0.  0.
         13    1    1    2    0    0 -0.18717952588E+02  0.25609235936E+01  0.30749407384E+02  0.36089573249E+02  0.10566000000E+00 0. -1.
        994    1    1    2    0    0  0.16671679797E+02 -0.45573873664E+01  0.63650204372E+01  0.17218788625E+03  0.17120000000E+03 0.  0.
        998    1    1    2    0    0  0.20462727918E+01  0.19964637728E+01  0.14628855685E+04  0.14629225405E+04  0.10000000000E+02 0. -1.
</event>
<event>
 5    1  0.1147307E-008  0.3854370E+03  0.7957747E-01  0.3427821E+00
         13   -1    0    0    0    0  0.00000000000E+00  0.00000000000E+00  0.14999999963E+04  0.15000000000E+04  0.10566000000E+00 0. -1.
        994   -1    0    0    0    0 -0.00000000000E+00 -0.00000000000E+00  0.11368683772E-12  0.17120000000E+03  0.17120000000E+03 0.  0.
         13    1    1    2    0    0 -0.37349677337E+01  0.11673993881E+02  0.53443364035E+02  0.54830980664E+02  0.10566000000E+00 0. -1.
        994    1    1    2    0    0  0.97839243846E-01 -0.83076179221E+01  0.16400379302E+01  0.17140932242E+03  0.17120000000E+03 0.  0.
        998    1    1    2    0    0  0.36371284898E+01 -0.33663759588E+01  0.14449165943E+04  0.14449596969E+04  0.10000000000E+02 0. -1.
</event>
<event>
 5    1  0.1147307E-008  0.3807607E+03  0.7957747E-01  0.3447853E+00
         13   -1    0    0    0    0  0.00000000000E+00  0.00000000000E+00  0.14999999963E+04  0.15000000000E+04  0.10566000000E+00 0. -1.
        994   -1    0    0    0    0 -0.00000000000E+00 -0.00000000000E+00  0.11368683772E-12  0.17120000000E+03  0.17120000000E+03 0.  0.
         13    1    1    2    0    0  0.30308633021E+02  0.29274133002E+02  0.22426533637E+03  0.22818970257E+03  0.10566000000E+00 0. -1.
        994    1    1    2    0    0 -0.68833931847E+01 -0.37517528397E+02  0.86164444816E+01  0.17560930828E+03  0.17120000000E+03 0.  0.
        998    1    1    2    0    0 -0.23425239836E+02  0.82433953954E+01  0.12671182154E+04  0.12674009892E+04  0.10000000000E+02 0. -1.
</event>
<event>
 5    1  0.1147307E-008  0.3784868E+03  0.7957747E-01  0.3457774E+00
         13   -1    0    0    0    0  0.00000000000E+00  0.00000000000E+00  0.14999999963E+04  0.15000000000E+04  0.10566000000E+00 0. -1.
        994   -1    0    0    0    0 -0.00000000000E+00 -0.00000000000E+00  0.11368683772E-12  0.17120000000E+03  0.17120000000E+03 0.  0.
         13    1    1    2    0    0 -0.17795138853E+02 -0.30185832103E+02  0.11907371984E+03  0.12412257388E+03  0.10566000000E+00 0. -1.
        994    1    1    2    0    0  0.31888094225E+02  0.14265850592E+02  0.90099871920E+01  0.17495995232E+03  0.17120000000E+03 0.  0.
        998    1    1    2    0    0 -0.14092955372E+02  0.15919981511E+02  0.13719162893E+04  0.13721174738E+04  0.10000000000E+02 0. -1.
</event>
<event>
 5    1  0.1147307E-008  0.3732168E+03  0.7957747E-01  0.3481236E+00
         13   -1    0    0    0    0  0.00000000000E+00  0.00000000000E+00  0.14999999963E+04  0.15000000000E+04  0.10566000000E+00 0.  1.
        994   -1    0    0    0    0 -0.00000000000E+00 -0.00000000000E+00  0.11368683772E-12  0.17120000000E+03  0.17120000000E+03 0.  0.
         13    1    1    2    0    0 -0.92510063053E+02  0.37218043744E+02  0.46414621056E+03  0.47473678021E+03  0.10566000000E+00 0.  1.
        994    1    1    2    0    0  0.82342379646E+02 -0.50988546370E+02  0.40388212242E+02  0.20080026652E+03  0.17120000000E+03 0.  0.
        998    1    1    2    0    0  0.10167683408E+02  0.13770502626E+02  0.99546557348E+03  0.99566295327E+03  0.10000000000E+02 0.  1.
</event>
<event>
 5    1  0.1147307E-008  0.3765872E+03  0.7957747E-01  0.3466155E+00
         13   -1    0    0    0    0  0.00000000000E+00  0.00000000000E+00  0.14999999963E+04  0.15000000000E+04  0.10566000000E+00 0. -1.
        994   -1    0    0    0    0 -0.00000000000E+00 -0.00000000000E+00  0.11368683772E-12  0.17120000000E+03  0.17120000000E+03 0.  0.
         13    1    1    2    0    0  0.28681155293E+02 -0.20188050549E+01  0.76206932094E+02  0.81450548838E+02  0.10566000000E+00 0. -1.
        994    1    1    2    0    0  0.89943339081E+01 -0.85075422106E+01  0.63843355533E+01  0.17176575927E+03  0.17120000000E+03 0.  0.
        998    1    1    2    0    0 -0.37675489201E+02  0.10526347265E+02  0.14174087286E+04  0.14179836919E+04  0.10000000000E+02 0. -1.
</event>
<event>
 5    1  0.1147307E-008  0.3700360E+03  0.7957747E-01  0.3495725E+00
         13   -1    0    0    0    0  0.00000000000E+00  0.00000000000E+00  0.14999999963E+04  0.15000000000E+04  0.10566000000E+00 0. -1.
        994   -1    0    0    0    0 -0.00000000000E+00 -0.00000000000E+00  0.11368683772E-12  0.17120000000E+03  0.17120000000E+03 0.  0.
         13    1    1    2    0    0  0.84365509443E+02  0.16786925628E+02  0.51465708216E+03  0.52179618956E+03  0.10566000000E+00 0. -1.
        994    1    1    2    0    0 -0.20361900254E+02 -0.20791250225E+02  0.12183682029E+02  0.17408263893E+03  0.17120000000E+03 0.  0.
        998    1    1    2    0    0 -0.64003609190E+02  0.40043245965E+01  0.97315923209E+03  0.97532117152E+03  0.10000000000E+02 0. -1.
</event>
<event>
 5    1  0.1147307E-008  0.3835565E+03  0.7957747E-01  0.3435817E+00
         13   -1    0    0    0    0  0.00000000000E+00  0.00000000000E+00  0.14999999963E+04  0.15000000000E+04  0.10566000000E+00 0. -1.
        994   -1    0    0    0    0 -0.00000000000E+00 -0.00000000000E+00  0.11368683772E-12  0.17120000000E+03  0.17120000000E+03 0.  0.
         13    1    1    2    0    0  0.26092325083E+02 -0.88183138526E+01  0.14492957366E+03  0.14752343736E+03  0.10566000000E+00 0. -1.
        994    1    1    2    0    0 -0.30353883885E+02  0.33560357550E+01  0.54360784616E+01  0.17398739090E+03  0.17120000000E+03 0.  0.
        998    1    1    2    0    0  0.42615588025E+01  0.54622780976E+01  0.13496343442E+04  0.13496891717E+04  0.10000000000E+02 0. -1.
</event>
<event>
 5    1  0.1147307E-008  0.3848107E+03  0.7957747E-01  0.3430476E+00
         13   -1    0    0    0    0  0.00000000000E+00  0.00000000000E+00  0.14999999963E+04  0.15000000000E+04  0.10566000000E+00 0.  1.
        994   -1    0    0    0    0 -0.00000000000E+00 -0.00000000000E+00  0.11368683772E-12  0.17120000000E+03  0.17120000000E+03 0.  0.
         13    1    1    2    0    0  0.10834065152E+02 -0.52484949251E+01  0.42473769443E+02  0.44146980887E+02  0.10566000000E+00 0.  1.
        994    1    1    2    0    0 -0.17575297804E+01  0.81019253240E+01  0.19503621518E+01  0.17141170910E+03  0.17120000000E+03 0.  0.
        998    1    1    2    0    0 -0.90765353718E+01 -0.28534303989E+01  0.14555758647E+04  0.14556413100E+04  0.10000000000E+02 0.  1.
</event>
<event>
 5    1  0.1147307E-008  0.3822996E+03  0.7957747E-01  0.3441206E+00
         13   -1    0    0    0    0  0.00000000000E+00  0.00000000000E+00  0.14999999963E+04  0.15000000000E+04  0.10566000000E+00 0.  1.
        994   -1    0    0    0    0 -0.00000000000E+00 -0.00000000000E+00  0.11368683772E-12  0.17120000000E+03  0.17120000000E+03 0.  0.
         13    1    1    2    0    0 -0.15781866102E+02  0.21265596918E+02  0.78796527005E+02  0.83127593145E+02  0.10566000000E+00 0.  1.
        994    1    1    2    0    0  0.74434812158E+02 -0.61840115832E+02  0.34694649651E+02  0.19969451645E+03  0.17120000000E+03 0.  0.
        998    1    1    2    0    0 -0.58652946056E+02  0.40574518915E+02  0.13865088196E+04  0.13883778904E+04  0.10000000000E+02 0.  1.
</event>
<event>
 5    1  0.1147307E-008  0.3687826E+03  0.7957747E-01  0.3501504E+00
         13   -1    0    0    0    0  0.00000000000E+00  0.00000000000E+00  0.14999999963E+04  0.15000000000E+04  0.10566000000E+00 0.  1.
        994   -1    0    0    0    0 -0.00000000000E+00 -0.00000000000E+00  0.11368683772E-12  0.17120000000E+03  0.17120000000E+03 0.  0.
         13    1    1    2    0    0 -0.99883381186E+02 -0.21270994086E+02  0.36929241256E+03  0.38315276610E+03  0.10566000000E+00 0.  1.
        994    1    1    2    0    0  0.10048309648E+03  0.25062545666E+02  0.48622497706E+02  0.20590913325E+03  0.17120000000E+03 0.  0.
        998    1    1    2    0    0 -0.59971528916E+00 -0.37915515800E+01  0.10820850860E+04  0.10821381007E+04  0.10000000000E+02 0.  1.
</event>
<event>
 5    1  0.1147307E-008  0.3759159E+03  0.7957747E-01  0.3469136E+00
         13   -1    0    0    0    0  0.00000000000E+00  0.00000000000E+00  0.14999999963E+04  0.15000000000E+04  0.10566000000E+00 0.  1.
        994   -1    0    0    0    0 -0.00000000000E+00 -0.00000000000E+00  0.11368683772E-12  0.17120000000E+03  0.17120000000E+03 0.  0.
         13    1    1    2    0    0  0.10008221307E+03 -0.42567105685E+01  0.49320396496E+03  0.50327401202E+03  0.10566000000E+00 0.  1.
        994    1    1    2    0    0 -0.10626101842E+03  0.12188283333E+02  0.46018374818E+02  0.20704368889E+03  0.17120000000E+03 0.  0.
        998    1    1    2    0    0  0.61788053477E+01 -0.79315727647E+01  0.96077765651E+03  0.96088229910E+03  0.10000000000E+02 0.  1.
</event>
<event>
 5    1  0.1147307E-008  0.3756845E+03  0.7957747E-01  0.3470167E+00
         13   -1    0    0    0    0  0.00000000000E+00  0.00000000000E+00  0.14999999963E+04  0.15000000000E+04  0.10566000000E+00 0. -1.
        994   -1    0    0    0    0 -0.00000000000E+00 -0.00000000000E+00  0.11368683772E-12  0.17120000000E+03  0.17120000000E+03 0.  0.
         13    1    1    2    0    0 -0.65498260310E+02 -0.89531012705E+02  0.49896826673E+03  0.51115082580E+03  0.10566000000E+00 0. -1.
        994    1    1    2    0    0  0.10134312937E+02  0.53063805176E+02  0.24461519169E+02  0.18118023523E+03  0.17120000000E+03 0.  0.
        998    1    1    2    0    0  0.55363947373E+02  0.36467207530E+02  0.97657021038E+03  0.97886893897E+03  0.10000000000E+02 0. -1.
</event>
<event>
 5    1  0.1147307E-008  0.3716233E+03  0.7957747E-01  0.3488464E+00
         13   -1    0    0    0    0  0.00000000000E+00  0.00000000000E+00  0.14999999963E+04  0.15000000000E+04  0.10566000000E+00 0.  1.
        994   -1    0    0    0    0 -0.00000000000E+00 -0.00000000000E+00  0.11368683772E-12  0.17120000000E+03  0.17120000000E+03 0.  0.
         13    1    1    2    0    0  0.20745890418E+02  0.29241523940E+02  0.72023604694E+02  0.80454145255E+02  0.10566000000E+00 0.  1.
        994    1    1    2    0    0  0.10016071537E+01 -0.34787728242E+02  0.12599051088E+02  0.17515526067E+03  0.17120000000E+03 0.  0.
        998    1    1    2    0    0 -0.21747497572E+02  0.55462043018E+01  0.14153773405E+04  0.14155905941E+04  0.10000000000E+02 0.  1.
</event>
<event>
 5    1  0.1147307E-008  0.3911559E+03  0.7957747E-01  0.3403977E+00
         13   -1    0    0    0    0  0.00000000000E+00  0.00000000000E+00  0.14999999963E+04  0.15000000000E+04  0.10566000000E+00 0.  1.
        994   -1    0    0    0    0 -0.00000000000E+00 -0.00000000000E+00  0.11368683772E-12  0.17120000000E+03  0.17120000000E+03 0.  0.
         13    1    1    2    0    0 -0.95302120322E+01 -0.35624647716E+02  0.20708542881E+02  0.42294153007E+02  0.10566000000E+00 0.  1.
        994    1    1    2    0    0  0.58946779921E+01  0.35872383770E+02  0.27605551042E+02  0.17718092898E+03  0.17120000000E+03 0.  0.
        998    1    1    2    0    0  0.36355340401E+01 -0.24773605357E+00  0.14516859024E+04  0.14517249180E+04  0.10000000000E+02 0.  1.
</event>
<event>
 5    1  0.1147307E-008  0.3730344E+03  0.7957747E-01  0.3482061E+00
         13   -1    0    0    0    0  0.00000000000E+00  0.00000000000E+00  0.14999999963E+04  0.15000000000E+04  0.10566000000E+00 0.  1.
        994   -1    0    0    0    0 -0.00000000000E+00 -0.00000000000E+00  0.11368683772E-12  0.17120000000E+03  0.17120000000E+03 0.  0.
         13    1    1    2    0    0 -0.12036274049E+02 -0.63924865293E+00  0.56908937940E+01  0.13329589942E+02  0.10566000000E+00 0.  1.
        994    1    1    2    0    0  0.24220992046E+02 -0.70366628358E+01  0.98715615866E+01  0.17332933626E+03  0.17120000000E+03 0.  0.
        998    1    1    2    0    0 -0.12184717997E+02  0.76759114887E+01  0.14844375409E+04  0.14845410738E+04  0.10000000000E+02 0.  1.
</event>
<event>
 5    1  0.1147307E-008  0.3814885E+03  0.7957747E-01  0.3444703E+00
         13   -1    0    0    0    0  0.00000000000E+00  0.00000000000E+00  0.14999999963E+04  0.15000000000E+04  0.10566000000E+00 0.  1.
        994   -1    0    0    0    0 -0.00000000000E+00 -0.00000000000E+00  0.11368683772E-12  0.17120000000E+03  0.17120000000E+03 0.  0.
         13    1    1    2    0    0  0.15511066179E+02  0.34938882528E+01  0.37264206524E+02  0.40514598369E+02  0.10566000000E+00 0.  1.
        994    1    1    2    0    0 -0.42116706060E+01  0.98066775502E+01  0.37626530793E+01  0.17157361875E+03  0.17120000000E+03 0.  0.
        998    1    1    2    0    0 -0.11299395573E+02 -0.13300565803E+02  0.14589731367E+04  0.14591117829E+04  0.10000000000E+02 0.  1.
</event>
<event>
 5    1  0.1147307E-008  0.3813088E+03  0.7957747E-01  0.3445479E+00
         13   -1    0    0    0    0  0.00000000000E+00  0.00000000000E+00  0.14999999963E+04  0.15000000000E+04  0.10566000000E+00 0.  1.
        994   -1    0    0    0    0 -0.00000000000E+00 -0.00000000000E+00  0.11368683772E-12  0.17120000000E+03  0.17120000000E+03 0.  0.
         13    1    1    2    0    0  0.15394057857E+02 -0.29759408762E+02  0.18004683636E+03  0.18313785484E+03  0.10566000000E+00 0.  1.
        994    1    1    2    0    0 -0.94929652735E+01  0.40713521697E+00  0.37744835725E+01  0.17150501122E+03  0.17120000000E+03 0.  0.
        998    1    1    2    0    0 -0.59010925835E+01  0.29352273545E+02  0.13161786763E+04  0.13165571339E+04  0.10000000000E+02 0.  1.
</event>
<event>
 5    1  0.1147307E-008  0.3822103E+03  0.7957747E-01  0.3441591E+00
         13   -1    0    0    0    0  0.00000000000E+00  0.00000000000E+00  0.14999999963E+04  0.15000000000E+04  0.10566000000E+00 0.  1.
        994   -1    0    0    0    0 -0.00000000000E+00 -0.00000000000E+00  0.11368683772E-12  0.17120000000E+03  0.17120000000E+03 0.  0.
         13    1    1    2    0    0 -0.13212247493E+02 -0.17265816113E+03  0.10202976625E+04  0.10348877887E+04  0.10566000000E+00 0.  1.
        994    1    1    2    0    0  0.33722841226E+02  0.18030744920E+03  0.12415236627E+03  0.27994866727E+03  0.17120000000E+03 0.  0.
        998    1    1    2    0    0 -0.20510593733E+02 -0.76492880711E+01  0.35554996756E+03  0.35636354400E+03  0.10000000000E+02 0.  1.
</event>
<event>
 5    1  0.1147307E-008  0.2713900E+03  0.7957747E-01  0.4124124E+00
         13   -1    0    0    0    0  0.00000000000E+00  0.00000000000E+00  0.14999999963E+04  0.15000000000E+04  0.10566000000E+00 0.  1.
        994   -1    0    0    0    0 -0.00000000000E+00 -0.00000000000E+00  0.11368683772E-12  0.17120000000E+03  0.17120000000E+03 0.  0.
         13    1    1    2    0    0 -0.30369815473E+02 -0.18793178090E+03  0.66659902123E+03  0.69324955552E+03  0.10566000000E+00 0.  1.
        994    1    1    2    0    0 -0.68528092736E+01  0.48971749918E+02  0.55274264652E+02  0.18657405398E+03  0.17120000000E+03 0.  0.
        998    1    1    2    0    0  0.37222624747E+02  0.13896003099E+03  0.77812671040E+03  0.79137639050E+03  0.10000000000E+02 0. -1.
</event>
<event>
 5    1  0.1147307E-008  0.3714177E+03  0.7957747E-01  0.3489401E+00
         13   -1    0    0    0    0  0.00000000000E+00  0.00000000000E+00  0.14999999963E+04  0.15000000000E+04  0.10566000000E+00 0. -1.
        994   -1    0    0    0    0 -0.00000000000E+00 -0.00000000000E+00  0.11368683772E-12  0.17120000000E+03  0.17120000000E+03 0.  0.
         13    1    1    2    0    0 -0.35087708770E+02 -0.25851750780E+02  0.85874800399E+02  0.96301364646E+02  0.10566000000E+00 0. -1.
        994    1    1    2    0    0  0.66515255394E+01 -0.17335727070E+02  0.12902658957E+02  0.17268667822E+03  0.17120000000E+03 0.  0.
        998    1    1    2    0    0  0.28436183231E+02  0.43187477850E+02  0.14012225369E+04  0.14022119571E+04  0.10000000000E+02 0. -1.
</event>
<event>
 5    1  0.1147307E-008  0.3684319E+03  0.7957747E-01  0.3503129E+00
         13   -1    0    0    0    0  0.00000000000E+00  0.00000000000E+00  0.14999999963E+04  0.15000000000E+04  0.10566000000E+00 0. -1.
        994   -1    0    0    0    0 -0.00000000000E+00 -0.00000000000E+00  0.11368683772E-12  0.17120000000E+03  0.17120000000E+03 0.  0.
         13    1    1    2    0    0 -0.83036623354E+01  0.76744247900E+02  0.42341606056E+03  0.43039493712E+03  0.10566000000E+00 0. -1.
        994    1    1    2    0    0 -0.14108120457E+02 -0.18943910864E+01  0.10816830311E+02  0.17213097222E+03  0.17120000000E+03 0.  0.
        998    1    1    2    0    0  0.22411782792E+02 -0.74849856813E+02  0.10657671054E+04  0.10686740907E+04  0.10000000000E+02 0. -1.
</event>
<event>
 5    1  0.1147307E-008  0.3731663E+03  0.7957747E-01  0.3481465E+00
         13   -1    0    0    0    0  0.00000000000E+00  0.00000000000E+00  0.14999999963E+04  0.15000000000E+04  0.10566000000E+00 0.  1.
        994   -1    0    0    0    0 -0.00000000000E+00 -0.00000000000E+00  0.11368683772E-12  0.17120000000E+03  0.17120000000E+03 0.  0.
         13    1    1    2    0    0  0.63189628861E+01 -0.16942640524E+03  0.83196043127E+03  0.84906030790E+03  0.10566000000E+00 0.  1.
        994    1    1    2    0    0 -0.23533312551E+02  0.16202497292E+03  0.10569971373E+03  0.25939887844E+03  0.17120000000E+03 0.  0.
        998    1    1    2    0    0  0.17214349665E+02  0.74014323161E+01  0.56233985127E+03  0.56274081367E+03  0.10000000000E+02 0. -1.
</event>
<event>
 5    1  0.1147307E-008  0.3798376E+03  0.7957747E-01  0.3451866E+00
         13   -1    0    0    0    0  0.00000000000E+00  0.00000000000E+00  0.14999999963E+04  0.15000000000E+04  0.10566000000E+00 0.  1.
        994   -1    0    0    0    0 -0.00000000000E+00 -0.00000000000E+00  0.11368683772E-12  0.17120000000E+03  0.17120000000E+03 0.  0.
         13    1    1    2    0    0 -0.27751601578E+01 -0.40687440342E+02  0.18376113051E+03  0.18823212682E+03  0.10566000000E+00 0.  1.
        994    1    1    2    0    0 -0.85118603431E+00  0.32974581596E+02  0.78629325880E+01  0.17452596729E+03  0.17120000000E+03 0.  0.
        998    1    1    2    0    0  0.36263461921E+01  0.77128587463E+01  0.13083759332E+04  0.13084419059E+04  0.10000000000E+02 0.  1.
</event>
<event>
 5    1  0.1147307E-008  0.3856380E+03  0.7957747E-01  0.3426971E+00
         13   -1    0    0    0    0  0.00000000000E+00  0.00000000000E+00  0.14999999963E+04  0.15000000000E+04  0.10566000000E+00 0. -1.
        994   -1    0    0    0    0 -0.00000000000E+00 -0.00000000000E+00  0.11368683772E-12  0.17120000000E+03  0.17120000000E+03 0.  0.
         13    1    1    2    0    0 -0.14006484701E+02  0.82406773018E+00  0.82855844475E+02  0.84035485534E+02  0.10566000000E+00 0. -1.
        994    1    1    2    0    0 -0.27874679943E+01 -0.77917687416E+01  0.15385073724E+01  0.17140679287E+03  0.17120000000E+03 0.  0.
        998    1    1    2    0    0  0.16793952695E+02  0.69677010115E+01  0.14156056444E+04  0.14157577216E+04  0.10000000000E+02 0. -1.
</event>
<event>
 5    1  0.1147307E-008  0.3820750E+03  0.7957747E-01  0.3442173E+00
         13   -1    0    0    0    0  0.00000000000E+00  0.00000000000E+00  0.14999999963E+04  0.15000000000E+04  0.10566000000E+00 0.  1.
        994   -1    0    0    0    0 -0.00000000000E+00 -0.00000000000E+00  0.11368683772E-12  0.17120000000E+03  0.17120000000E+03 0.  0.
         13    1    1    2    0    0  0.28134922590E+02  0.16741353468E+02  0.13014326931E+03  0.13419809423E+03  0.10566000000E+00 0.  1.
        994    1    1    2    0    0 -0.70051044596E+02 -0.79990951658E+01  0.19773701262E+02  0.18620304411E+03  0.17120000000E+03 0.  0.
        998    1    1    2    0    0  0.41916122006E+02 -0.87422583017E+01  0.13500830257E+04  0.13507988617E+04  0.10000000000E+02 0.  1.
</event>
<event>
 5    1  0.1147307E-008  0.3837890E+03  0.7957747E-01  0.3434824E+00
         13   -1    0    0    0    0  0.00000000000E+00  0.00000000000E+00  0.14999999963E+04  0.15000000000E+04  0.10566000000E+00 0. -1.
        994   -1    0    0    0    0 -0.00000000000E+00 -0.00000000000E+00  0.11368683772E-12  0.17120000000E+03  0.17120000000E+03 0.  0.
         13    1    1    2    0    0  0.10910653594E+02 -0.15537806467E+02  0.84859102361E+02  0.86957140070E+02  0.10566000000E+00 0. -1.
        994    1    1    2    0    0 -0.71707528207E+01 -0.10512589505E+01  0.24059925021E+01  0.17137022391E+03  0.17120000000E+03 0.  0.
        998    1    1    2    0    0 -0.37399007729E+01  0.16589065417E+02  0.14127349014E+04  0.14128726360E+04  0.10000000000E+02 0. -1.
</event>
<event>
 5    1  0.1147307E-008  0.3804866E+03  0.7957747E-01  0.3449043E+00
         13   -1    0    0    0    0  0.00000000000E+00  0.00000000000E+00  0.14999999963E+04  0.15000000000E+04  0.10566000000E+00 0. -1.
        994   -1    0    0    0    0 -0.00000000000E+00 -0.00000000000E+00  0.11368683772E-12  0.17120000000E+03  0.17120000000E+03 0.  0.
         13    1    1    2    0    0  0.72569993503E+02 -0.50285224036E+02  0.46097572339E+03  0.46935448909E+03  0.10566000000E+00 0. -1.
        994    1    1    2    0    0 -0.93133021255E+02  0.77050855412E+02  0.54298912916E+02  0.21649112202E+03  0.17120000000E+03 0.  0.
        998    1    1    2    0    0  0.20563027752E+02 -0.26765631376E+02  0.98472535997E+03  0.98535438889E+03  0.10000000000E+02 0. -1.
</event>
<event>
 5    1  0.1147307E-008  0.3858560E+03  0.7957747E-01  0.3426050E+00
         13   -1    0    0    0    0  0.00000000000E+00  0.00000000000E+00  0.14999999963E+04  0.15000000000E+04  0.10566000000E+00 0.  1.
        994   -1    0    0    0    0 -0.00000000000E+00 -0.00000000000E+00  0.11368683772E-12  0.17120000000E+03  0.17120000000E+03 0.  0.
         13    1    1    2    0    0 -0.10125629558E+02  0.42170502888E+01  0.56182105876E+02  0.57242921586E+02  0.10566000000E+00 0.  1.
        994    1    1    2    0    0 -0.75331085556E+01  0.36501188345E+01  0.14355544149E+01  0.17141053617E+03  0.17120000000E+03 0.  0.
        998    1    1    2    0    0  0.17658738114E+02 -0.78671691233E+01  0.14423823360E+04  0.14425465422E+04  0.10000000000E+02 0.  0.
</event>
<event>
 5    1  0.1147307E-008  0.3827100E+03  0.7957747E-01  0.3439443E+00
         13   -1    0    0    0    0  0.00000000000E+00  0.00000000000E+00  0.14999999963E+04  0.15000000000E+04  0.10566000000E+00 0.  1.
        994   -1    0    0    0    0 -0.00000000000E+00 -0.00000000000E+00  0.11368683772E-12  0.17120000000E+03  0.17120000000E+03 0.  0.
         13    1    1    2    0    0 -0.57652236098E+01 -0.17475524413E+02  0.59581282776E+02  0.62358417058E+02  0.10566000000E+00 0.  1.
        994    1    1    2    0    0  0.98319704395E+01  0.11786277416E+02  0.35523092322E+01  0.17192336339E+03  0.17120000000E+03 0.  0.
        998    1    1    2    0    0 -0.40667468297E+01  0.56892469970E+01  0.14368664043E+04  0.14369182196E+04  0.10000000000E+02 0.  1.
</event>
<event>
 5    1  0.1147307E-008  0.3759002E+03  0.7957747E-01  0.3469206E+00
         13   -1    0    0    0    0  0.00000000000E+00  0.00000000000E+00  0.14999999963E+04  0.15000000000E+04  0.10566000000E+00 0.  1.
        994   -1    0    0    0    0 -0.00000000000E+00 -0.00000000000E+00  0.11368683772E-12  0.17120000000E+03  0.17120000000E+03 0.  0.
         13    1    1    2    0    0  0.70850450424E+02 -0.41508330020E+01  0.29562016303E+03  0.30402024225E+03  0.10566000000E+00 0.  1.
        994    1    1    2    0    0 -0.88982748570E+02 -0.46471477342E+02  0.41172510685E+02  0.20268730445E+03  0.17120000000E+03 0.  0.
        998    1    1    2    0    0  0.18132298146E+02  0.50622310344E+02  0.11632073226E+04  0.11644924533E+04  0.10000000000E+02 0.  1.
</event>
<event>
 5    1  0.1147307E-008  0.3783820E+03  0.7957747E-01  0.3458234E+00
         13   -1    0    0    0    0  0.00000000000E+00  0.00000000000E+00  0.14999999963E+04  0.15000000000E+04  0.10566000000E+00 0.  1.
        994   -1    0    0    0    0 -0.00000000000E+00 -0.00000000000E+00  0.11368683772E-12  0.17120000000E+03  0.17120000000E+03 0.  0.
         13    1    1    2    0    0  0.25662330469E+02 -0.31771308673E+02  0.15387710259E+03  0.15920472708E+03  0.10566000000E+00 0.  1.
        994    1    1    2    0    0 -0.24779196972E+02  0.28329757477E+02  0.97278830393E+01  0.17555812562E+03  0.17120000000E+03 0.  0.
        998    1    1    2    0    0 -0.88313349709E+00  0.34415511963E+01  0.13363950107E+04  0.13364371473E+04  0.10000000000E+02 0.  1.
</event>
<event>
 5    1  0.1147307E-008  0.3829874E+03  0.7957747E-01  0.3438253E+00
         13   -1    0    0    0    0  0.00000000000E+00  0.00000000000E+00  0.14999999963E+04  0.15000000000E+04  0.10566000000E+00 0.  1.
        994   -1    0    0    0    0 -0.00000000000E+00 -0.00000000000E+00  0.11368683772E-12  0.17120000000E+03  0.17120000000E+03 0.  0.
         13    1    1    2    0    0 -0.24932398654E+02  0.16041808704E+00  0.11851367739E+03  0.12110802256E+03  0.10566000000E+00 0.  1.
        994    1    1    2    0    0  0.14114123666E+02  0.14862499219E+02  0.40245666995E+01  0.17246953211E+03  0.17120000000E+03 0.  0.
        998    1    1    2    0    0  0.10818274988E+02 -0.15022917306E+02  0.13774617522E+04  0.13776224453E+04  0.10000000000E+02 0.  1.
</event>
<event>
 5    1  0.1147307E-008  0.3751417E+03  0.7957747E-01  0.3472589E+00
         13   -1    0    0    0    0  0.00000000000E+00  0.00000000000E+00  0.14999999963E+04  0.15000000000E+04  0.10566000000E+00 0. -1.
        994   -1    0    0    0    0 -0.00000000000E+00 -0.00000000000E+00  0.11368683772E-12  0.17120000000E+03  0.17120000000E+03 0.  0.
         13    1    1    2    0    0 -0.88623768302E+01 -0.24431547843E+02  0.48687647160E+02  0.55190038984E+02  0.10566000000E+00 0. -1.
        994    1    1    2    0    0 -0.77232374363E+01  0.20024554506E+02  0.81725641183E+01  0.17273349989E+03  0.17120000000E+03 0.  0.
        998    1    1    2    0    0  0.16585614267E+02  0.44069933371E+01  0.14431397850E+04  0.14432764611E+04  0.10000000000E+02 0. -1.
</event>
<event>
 5    1  0.1251576E-008  0.3863295E+03  0.7957747E-01  0.3424053E+00
         13   -1    0    0    0    0  0.00000000000E+00  0.00000000000E+00  0.14999999963E+04  0.15000000000E+04  0.10566000000E+00 0.  1.
        994   -1    0    0    0    0 -0.00000000000E+00 -0.00000000000E+00  0.11368683772E-12  0.17120000000E+03  0.17120000000E+03 0.  0.
         13    1    1    2    0    0  0.20479487128E+01 -0.10637938825E+02  0.54821907530E+02  0.55882130826E+02  0.10566000000E+00 0.  1.
        994    1    1    2    0    0 -0.14377322989E+02  0.20787287445E+02  0.30661175859E+01  0.17308281201E+03  0.17120000000E+03 0.  0.
        998    1    1    2    0    0  0.12329374276E+02 -0.10149348621E+02  0.14421119712E+04  0.14422350572E+04  0.10000000000E+02 0.  1.
</event>
<event>
 5    1  0.1147307E-008  0.3698757E+03  0.7957747E-01  0.3496462E+00
         13   -1    0    0    0    0  0.00000000000E+00  0.00000000000E+00  0.14999999963E+04  0.15000000000E+04  0.10566000000E+00 0.  1.
        994   -1    0    0    0    0 -0.00000000000E+00 -0.00000000000E+00  0.11368683772E-12  0.17120000000E+03  0.17120000000E+03 0.  0.
         13    1    1    2    0    0  0.16075022993E+02  0.28683181034E+01  0.99297417624E+01  0.19111372229E+02  0.10566000000E+00 0.  1.
        994    1    1    2    0    0 -0.20644429777E+02  0.30144242632E+01  0.10841155179E+02  0.17280697289E+03  0.17120000000E+03 0.  0.
        998    1    1    2    0    0  0.45694067837E+01 -0.58827423666E+01  0.14792290993E+04  0.14792816549E+04  0.10000000000E+02 0.  1.
</event>
<event>
 5    1  0.1147307E-008  0.3807858E+03  0.7957747E-01  0.3447744E+00
         13   -1    0    0    0    0  0.00000000000E+00  0.00000000000E+00  0.14999999963E+04  0.15000000000E+04  0.10566000000E+00 0.  1.
        994   -1    0    0    0    0 -0.00000000000E+00 -0.00000000000E+00  0.11368683772E-12  0.17120000000E+03  0.17120000000E+03 0.  0.
         13    1    1    2    0    0  0.53711009226E+02  0.47303105107E+02  0.36062425866E+03  0.36765788903E+03  0.10566000000E+00 0.  1.
        994    1    1    2    0    0 -0.83526889671E+02 -0.65235441088E+02  0.42143964437E+02  0.20571329031E+03  0.17120000000E+03 0.  0.
        998    1    1    2    0    0  0.29815880444E+02  0.17932335982E+02  0.10972317732E+04  0.10978288207E+04  0.10000000000E+02 0.  1.
</event>
<event>
 5    1  0.1147307E-008  0.3811164E+03  0.7957747E-01  0.3446312E+00
         13   -1    0    0    0    0  0.00000000000E+00  0.00000000000E+00  0.14999999963E+04  0.15000000000E+04  0.10566000000E+00 0.  1.
        994   -1    0    0    0    0 -0.00000000000E+00 -0.00000000000E+00  0.11368683772E-12  0.17120000000E+03  0.17120000000E+03 0.  0.
         13    1    1    2    0    0 -0.68689261917E+00 -0.23487252235E+02  0.77779269560E+02  0.81251146308E+02  0.10566000000E+00 0.  1.
        994    1    1    2    0    0  0.99579505542E+01  0.10010203723E+02  0.42349468269E+01  0.17183346511E+03  0.17120000000E+03 0.  0.
        998    1    1    2    0    0 -0.92710579350E+01  0.13477048512E+02  0.14179857799E+04  0.14181153886E+04  0.10000000000E+02 0.  1.
</event>
<event>
 5    1  0.1147307E-008  0.3736312E+03  0.7957747E-01  0.3479367E+00
         13   -1    0    0    0    0  0.00000000000E+00  0.00000000000E+00  0.14999999963E+04  0.15000000000E+04  0.10566000000E+00 0. -1.
        994   -1    0    0    0    0 -0.00000000000E+00 -0.00000000000E+00  0.11368683772E-12  0.17120000000E+03  0.17120000000E+03 0.  0.
         13    1    1    2    0    0  0.27413808128E+00 -0.54523474274E+02  0.17787980671E+03  0.18604870652E+03  0.10566000000E+00 0. -1.
        994    1    1    2    0    0 -0.16209190001E+02  0.52978027653E+02  0.17938692751E+02  0.18083319925E+03  0.17120000000E+03 0.  0.
        998    1    1    2    0    0  0.15935051920E+02  0.15454466209E+01  0.13041814968E+04  0.13043180942E+04  0.10000000000E+02 0. -1.
</event>
<event>
 5    1  0.1420997E-008  0.3863519E+03  0.7957747E-01  0.3423959E+00
         13   -1    0    0    0    0  0.00000000000E+00  0.00000000000E+00  0.14999999963E+04  0.15000000000E+04  0.10566000000E+00 0. -1.
        994   -1    0    0    0    0 -0.00000000000E+00 -0.00000000000E+00  0.11368683772E-12  0.17120000000E+03  0.17120000000E+03 0.  0.
         13    1    1    2    0    0  0.97188026174E+01 -0.27450716551E+01  0.57817945685E+02  0.58693411470E+02  0.10566000000E+00 0. -1.
        994    1    1    2    0    0  0.39358482839E+01  0.80381929460E+01  0.12227227729E+01  0.17143814773E+03  0.17120000000E+03 0.  0.
        998    1    1    2    0    0 -0.13654650901E+02 -0.52931212909E+01  0.14409593278E+04  0.14410684408E+04  0.10000000000E+02 0. -1.
</event>
<event>
 5    1  0.1147307E-008  0.3765560E+03  0.7957747E-01  0.3466293E+00
         13   -1    0    0    0    0  0.00000000000E+00  0.00000000000E+00  0.14999999963E+04  0.15000000000E+04  0.10566000000E+00 0.  1.
        994   -1    0    0    0    0 -0.00000000000E+00 -0.00000000000E+00  0.11368683772E-12  0.17120000000E+03  0.17120000000E+03 0.  0.
         13    1    1    2    0    0  0.37551654371E+02 -0.58275775359E+02  0.31506037926E+03  0.32259765418E+03  0.10566000000E+00 0.  1.
        994    1    1    2    0    0 -0.39120943756E+02  0.60095860025E+02  0.23471904437E+02  0.18708909891E+03  0.17120000000E+03 0.  0.
        998    1    1    2    0    0  0.15692893853E+01 -0.18200846659E+01  0.11614677126E+04  0.11615132469E+04  0.10000000000E+02 0.  1.
</event>
<event>
 5    1  0.1147307E-008  0.3812876E+03  0.7957747E-01  0.3445571E+00
         13   -1    0    0    0    0  0.00000000000E+00  0.00000000000E+00  0.14999999963E+04  0.15000000000E+04  0.10566000000E+00 0.  1.
        994   -1    0    0    0    0 -0.00000000000E+00 -0.00000000000E+00  0.11368683772E-12  0.17120000000E+03  0.17120000000E+03 0.  0.
         13    1    1    2    0    0 -0.11067191503E+02  0.14187779540E+02  0.44641481495E+02  0.48131578513E+02  0.10566000000E+00 0.  1.
        994    1    1    2    0    0  0.12430029043E+02 -0.95137283174E+01  0.43005982739E+01  0.17196788012E+03  0.17120000000E+03 0.  0.
        998    1    1    2    0    0 -0.13628375403E+01 -0.46740512230E+01  0.14510579165E+04  0.14511005414E+04  0.10000000000E+02 0.  1.
</event>
<event>
 5    1  0.1147307E-008  0.3831744E+03  0.7957747E-01  0.3437452E+00
         13   -1    0    0    0    0  0.00000000000E+00  0.00000000000E+00  0.14999999963E+04  0.15000000000E+04  0.10566000000E+00 0.  1.
        994   -1    0    0    0    0 -0.00000000000E+00 -0.00000000000E+00  0.11368683772E-12  0.17120000000E+03  0.17120000000E+03 0.  0.
         13    1    1    2    0    0  0.73314991263E+01 -0.93146617984E+01  0.28458343105E+02  0.30828594846E+02  0.10566000000E+00 0.  1.
        994    1    1    2    0    0  0.53205393651E+01 -0.65664636229E+01  0.27755798315E+01  0.17143094944E+03  0.17120000000E+03 0.  0.
        998    1    1    2    0    0 -0.12652038491E+02  0.15881125421E+02  0.14687660733E+04  0.14689404557E+04  0.10000000000E+02 0.  1.
</event>
<event>
 5    1  0.1147307E-008  0.3839333E+03  0.7957747E-01  0.3434209E+00
         13   -1    0    0    0    0  0.00000000000E+00  0.00000000000E+00  0.14999999963E+04  0.15000000000E+04  0.10566000000E+00 0. -1.
        994   -1    0    0    0    0 -0.00000000000E+00 -0.00000000000E+00  0.11368683772E-12  0.17120000000E+03  0.17120000000E+03 0.  0.
         13    1    1    2    0    0  0.57463181597E+01  0.13500737011E+02  0.49601104167E+02  0.51725919720E+02  0.10566000000E+00 0. -1.
        994    1    1    2    0    0 -0.19612732538E+00 -0.92776375679E+01  0.24448831402E+01  0.17146874490E+03  0.17120000000E+03 0.  0.
        998    1    1    2    0    0 -0.55501908343E+01 -0.42230994427E+01  0.14479540090E+04  0.14480053354E+04  0.10000000000E+02 0. -1.
</event>
<event>
 5    1  0.1147307E-008  0.3722018E+03  0.7957747E-01  0.3485833E+00
         13   -1    0    0    0    0  0.00000000000E+00  0.00000000000E+00  0.14999999963E+04  0.15000000000E+04  0.10566000000E+00 0. -1.
        994   -1    0    0    0    0 -0.00000000000E+00 -0.00000000000E+00  0.11368683772E-12  0.17120000000E+03  0.17120000000E+03 0.  0.
         13    1    1    2    0    0  0.61633449381E+00  0.11135600527E+03  0.35911686965E+03  0.37598600640E+03  0.10566000000E+00 0. -1.
        994    1    1    2    0    0 -0.86446641964E+01 -0.11859547470E+03  0.63742704114E+02  0.21797290925E+03  0.17120000000E+03 0.  0.
        998    1    1    2    0    0  0.80283297026E+01  0.72394694345E+01  0.10771404225E+04  0.10772410843E+04  0.10000000000E+02 0. -1.
</event>
<event>
 5    1  0.1147307E-008  0.3741520E+03  0.7957747E-01  0.3477024E+00
         13   -1    0    0    0    0  0.00000000000E+00  0.00000000000E+00  0.14999999963E+04  0.15000000000E+04  0.10566000000E+00 0. -1.
        994   -1    0    0    0    0 -0.00000000000E+00 -0.00000000000E+00  0.11368683772E-12  0.17120000000E+03  0.17120000000E+03 0.  0.
         13    1    1    2    0    0 -0.20269712882E+02 -0.62707742466E+01  0.29612865828E+02  0.36429615103E+02  0.10566000000E+00 0. -1.
        994    1    1    2    0    0  0.26253799720E+01  0.29633415291E+00  0.71386202458E+01  0.17136913471E+03  0.17120000000E+03 0.  0.
        998    1    1    2    0    0  0.17644332910E+02  0.59744400937E+01  0.14632485102E+04  0.14634012502E+04  0.10000000000E+02 0. -1.
</event>
<event>
 5    1  0.1147307E-008  0.3836129E+03  0.7957747E-01  0.3435576E+00
         13   -1    0    0    0    0  0.00000000000E+00  0.00000000000E+00  0.14999999963E+04  0.15000000000E+04  0.10566000000E+00 0.  1.
        994   -1    0    0    0    0 -0.00000000000E+00 -0.00000000000E+00  0.11368683772E-12  0.17120000000E+03  0.17120000000E+03 0.  0.
         13    1    1    2    0    0  0.11693295108E+02 -0.29819184126E+01  0.30708142553E+02  0.32994335438E+02  0.10566000000E+00 0.  1.
        994    1    1    2    0    0 -0.85679795485E+01 -0.13965025239E+01  0.25693510781E+01  0.17143920805E+03  0.17120000000E+03 0.  0.
        998    1    1    2    0    0 -0.31253155597E+01  0.43784209364E+01  0.14667225026E+04  0.14667664565E+04  0.10000000000E+02 0.  1.
</event>
<event>
 5    1  0.1147307E-008  0.3819289E+03  0.7957747E-01  0.3442802E+00
         13   -1    0    0    0    0  0.00000000000E+00  0.00000000000E+00  0.14999999963E+04  0.15000000000E+04  0.10566000000E+00 0. -1.
        994   -1    0    0    0    0 -0.00000000000E+00 -0.00000000000E+00  0.11368683772E-12  0.17120000000E+03  0.17120000000E+03 0.  0.
         13    1    1    2    0    0 -0.21054670667E+02 -0.92810073069E+01  0.78557148675E+02  0.81857638773E+02  0.10566000000E+00 0. -1.
        994    1    1    2    0    0  0.25501567520E+02  0.27874544038E+01  0.53517193160E+01  0.17319405517E+03  0.17120000000E+03 0.  0.
        998    1    1    2    0    0 -0.44468968535E+01  0.64935529030E+01  0.14160911283E+04  0.14161483061E+04  0.10000000000E+02 0. -1.
</event>
<event>
 5    1  0.1147307E-008  0.3781282E+03  0.7957747E-01  0.3459349E+00
         13   -1    0    0    0    0  0.00000000000E+00  0.00000000000E+00  0.14999999963E+04  0.15000000000E+04  0.10566000000E+00 0.  1.
        994   -1    0    0    0    0 -0.00000000000E+00 -0.00000000000E+00  0.11368683772E-12  0.17120000000E+03  0.17120000000E+03 0.  0.
         13    1    1    2    0    0  0.24631151011E+02  0.55907886632E+02  0.28539687881E+03  0.29186259607E+03  0.10566000000E+00 0.  1.
        994    1    1    2    0    0 -0.10477173127E+02 -0.67964410450E+02  0.21156397322E+02  0.18570397247E+03  0.17120000000E+03 0.  0.
        998    1    1    2    0    0 -0.14153977883E+02  0.12056523819E+02  0.11934467201E+04  0.11936334315E+04  0.10000000000E+02 0.  1.
</event>
<event>
 5    1  0.1147307E-008  0.3781872E+03  0.7957747E-01  0.3459090E+00
         13   -1    0    0    0    0  0.00000000000E+00  0.00000000000E+00  0.14999999963E+04  0.15000000000E+04  0.10566000000E+00 0. -1.
        994   -1    0    0    0    0 -0.00000000000E+00 -0.00000000000E+00  0.11368683772E-12  0.17120000000E+03  0.17120000000E+03 0.  0.
         13    1    1    2    0    0  0.21153860102E+02  0.46769640339E+02  0.75646008903E+02  0.91417803964E+02  0.10566000000E+00 0. -1.
        994    1    1    2    0    0 -0.15522061660E+02 -0.54414286020E+02  0.26951908878E+02  0.18231207945E+03  0.17120000000E+03 0.  0.
        998    1    1    2    0    0 -0.56317984420E+01  0.76446456809E+01  0.13974020785E+04  0.13974701166E+04  0.10000000000E+02 0. -1.
</event>
<event>
 5    1  0.1147307E-008  0.3753156E+03  0.7957747E-01  0.3471813E+00
         13   -1    0    0    0    0  0.00000000000E+00  0.00000000000E+00  0.14999999963E+04  0.15000000000E+04  0.10566000000E+00 0.  1.
        994   -1    0    0    0    0 -0.00000000000E+00 -0.00000000000E+00  0.11368683772E-12  0.17120000000E+03  0.17120000000E+03 0.  0.
         13    1    1    2    0    0 -0.16501095061E+02 -0.13480683090E+02  0.33560364559E+02  0.39753291538E+02  0.10566000000E+00 0.  1.
        994    1    1    2    0    0  0.32039918729E+01 -0.50397872937E+01  0.66378923923E+01  0.17143268835E+03  0.17120000000E+03 0.  0.
        998    1    1    2    0    0  0.13297103188E+02  0.18520470383E+02  0.14598017393E+04  0.14600140201E+04  0.10000000000E+02 0.  1.
</event>
<event>
 5    1  0.1147307E-008  0.3849630E+03  0.7957747E-01  0.3429829E+00
         13   -1    0    0    0    0  0.00000000000E+00  0.00000000000E+00  0.14999999963E+04  0.15000000000E+04  0.10566000000E+00 0.  1.
        994   -1    0    0    0    0 -0.00000000000E+00 -0.00000000000E+00  0.11368683772E-12  0.17120000000E+03  0.17120000000E+03 0.  0.
         13    1    1    2    0    0 -0.11052586249E+02  0.23735557150E+01  0.38018287476E+02  0.39663519463E+02  0.10566000000E+00 0.  1.
        994    1    1    2    0    0  0.10266232621E+02 -0.34356245722E+01  0.20340784222E+01  0.17155400469E+03  0.17120000000E+03 0.  0.
        998    1    1    2    0    0  0.78635362767E+00  0.10620688572E+01  0.14599476304E+04  0.14599824759E+04  0.10000000000E+02 0.  1.
</event>
<event>
 5    1  0.1147307E-008  0.3721372E+03  0.7957747E-01  0.3486126E+00
         13   -1    0    0    0    0  0.00000000000E+00  0.00000000000E+00  0.14999999963E+04  0.15000000000E+04  0.10566000000E+00 0.  1.
        994   -1    0    0    0    0 -0.00000000000E+00 -0.00000000000E+00  0.11368683772E-12  0.17120000000E+03  0.17120000000E+03 0.  0.
         13    1    1    2    0    0  0.60786766012E+01 -0.22563603023E+02  0.17305722652E+02  0.29078612263E+02  0.10566000000E+00 0.  1.
        994    1    1    2    0    0 -0.33911886985E+01  0.20911115759E+02  0.13655655170E+02  0.17304534620E+03  0.17120000000E+03 0.  0.
        998    1    1    2    0    0 -0.26874879028E+01  0.16524872643E+01  0.14690386185E+04  0.14690760415E+04  0.10000000000E+02 0.  1.
</event>
<event>
 5    1  0.1147307E-008  0.3687200E+03  0.7957747E-01  0.3501794E+00
         13   -1    0    0    0    0  0.00000000000E+00  0.00000000000E+00  0.14999999963E+04  0.15000000000E+04  0.10566000000E+00 0.  1.
        994   -1    0    0    0    0 -0.00000000000E+00 -0.00000000000E+00  0.11368683772E-12  0.17120000000E+03  0.17120000000E+03 0.  0.
         13    1    1    2    0    0  0.15447660103E+02 -0.85995055237E+02  0.31744987676E+03  0.32925402829E+03  0.10566000000E+00 0.  1.
        994    1    1    2    0    0  0.42732857929E+01  0.80975727626E+02  0.33136964564E+02  0.19230919858E+03  0.17120000000E+03 0.  0.
        998    1    1    2    0    0 -0.19720945895E+02  0.50193276102E+01  0.11494131550E+04  0.11496367731E+04  0.10000000000E+02 0.  1.
</event>
<event>
 5    1  0.1147307E-008  0.3785457E+03  0.7957747E-01  0.3457515E+00
         13   -1    0    0    0    0  0.00000000000E+00  0.00000000000E+00  0.14999999963E+04  0.15000000000E+04  0.10566000000E+00 0.  1.
        994   -1    0    0    0    0 -0.00000000000E+00 -0.00000000000E+00  0.11368683772E-12  0.17120000000E+03  0.17120000000E+03 0.  0.
         13    1    1    2    0    0 -0.97203038008E+01  0.29879375872E+02  0.95578192292E+02  0.10061045380E+03  0.10566000000E+00 0.  1.
        994    1    1    2    0    0  0.16580146788E+02 -0.24196825622E+02  0.77645623931E+01  0.17386809962E+03  0.17120000000E+03 0.  0.
        998    1    1    2    0    0 -0.68598429870E+01 -0.56825502494E+01  0.13966572416E+04  0.13967214466E+04  0.10000000000E+02 0.  1.
</event>
<event>
 5    1  0.1147307E-008  0.3719591E+03  0.7957747E-01  0.3486936E+00
         13   -1    0    0    0    0  0.00000000000E+00  0.00000000000E+00  0.14999999963E+04  0.15000000000E+04  0.10566000000E+00 0. -1.
        994   -1    0    0    0    0 -0.00000000000E+00 -0.00000000000E+00  0.11368683772E-12  0.17120000000E+03  0.17120000000E+03 0.  0.
         13    1    1    2    0    0  0.26517851993E+02 -0.28989225555E+02  0.85116329005E+02  0.93746318861E+02  0.10566000000E+00 0. -1.
        994    1    1    2    0    0 -0.34253631081E+02  0.25357711487E+02  0.14512613135E+02  0.17702084825E+03  0.17120000000E+03 0.  0.
        998    1    1    2    0    0  0.77357790875E+01  0.36315140679E+01  0.14003710541E+04  0.14004328329E+04  0.10000000000E+02 0. -1.
</event>
<event>
 5    1  0.1147307E-008  0.3743623E+03  0.7957747E-01  0.3476080E+00
         13   -1    0    0    0    0  0.00000000000E+00  0.00000000000E+00  0.14999999963E+04  0.15000000000E+04  0.10566000000E+00 0. -1.
        994   -1    0    0    0    0 -0.00000000000E+00 -0.00000000000E+00  0.11368683772E-12  0.17120000000E+03  0.17120000000E+03 0.  0.
         13    1    1    2    0    0 -0.28260390021E+02  0.64556134026E+02  0.20382416920E+03  0.21566280903E+03  0.10566000000E+00 0. -1.
        994    1    1    2    0    0  0.54048824968E+02  0.90617497646E+00  0.23712165559E+02  0.18109059454E+03  0.17120000000E+03 0.  0.
        998    1    1    2    0    0 -0.25788434947E+02 -0.65462309003E+02  0.12724636615E+04  0.12744465964E+04  0.10000000000E+02 0. -1.
</event>
<event>
 5    1  0.1147307E-008  0.3786287E+03  0.7957747E-01  0.3457151E+00
         13   -1    0    0    0    0  0.00000000000E+00  0.00000000000E+00  0.14999999963E+04  0.15000000000E+04  0.10566000000E+00 0. -1.
        994   -1    0    0    0    0 -0.00000000000E+00 -0.00000000000E+00  0.11368683772E-12  0.17120000000E+03  0.17120000000E+03 0.  0.
         13    1    1    2    0    0  0.20336329294E+02  0.21662670099E+02  0.99482834339E+02  0.10382525250E+03  0.10566000000E+00 0. -1.
        994    1    1    2    0    0  0.12593164566E+02 -0.78824830496E+01  0.55685270223E+01  0.17193362041E+03  0.17120000000E+03 0.  0.
        998    1    1    2    0    0 -0.32929493860E+02 -0.13780187049E+02  0.13949486349E+04  0.13954411271E+04  0.10000000000E+02 0. -1.
</event>
<event>
 5    1  0.1147307E-008  0.3786416E+03  0.7957747E-01  0.3457095E+00
         13   -1    0    0    0    0  0.00000000000E+00  0.00000000000E+00  0.14999999963E+04  0.15000000000E+04  0.10566000000E+00 0.  1.
        994   -1    0    0    0    0 -0.00000000000E+00 -0.00000000000E+00  0.11368683772E-12  0.17120000000E+03  0.17120000000E+03 0.  0.
         13    1    1    2    0    0  0.60713129045E+01  0.72219322128E+02  0.42888340805E+03  0.43496376882E+03  0.10566000000E+00 0.  1.
        994    1    1    2    0    0  0.32752196940E+02 -0.70311963483E+02  0.25296884158E+02  0.18964664764E+03  0.17120000000E+03 0.  0.
        998    1    1    2    0    0 -0.38823509845E+02 -0.19073586451E+01  0.10458197041E+04  0.10465895835E+04  0.10000000000E+02 0.  1.
</event>
<event>
 5    1  0.1147307E-008  0.3788612E+03  0.7957747E-01  0.3456132E+00
         13   -1    0    0    0    0  0.00000000000E+00  0.00000000000E+00  0.14999999963E+04  0.15000000000E+04  0.10566000000E+00 0. -1.
        994   -1    0    0    0    0 -0.00000000000E+00 -0.00000000000E+00  0.11368683772E-12  0.17120000000E+03  0.17120000000E+03 0.  0.
         13    1    1    2    0    0  0.71177706759E+01  0.10190370084E+02  0.14035229820E+02  0.18748470391E+02  0.10566000000E+00 0. -1.
        994    1    1    2    0    0 -0.98604317754E+01 -0.15305030644E+02  0.58221743134E+01  0.17226377969E+03  0.17120000000E+03 0.  0.
        998    1    1    2    0    0  0.27426610996E+01  0.51146605603E+01  0.14801425921E+04  0.14801877499E+04  0.10000000000E+02 0. -1.
</event>
<event>
 5    1  0.1147307E-008  0.3851755E+03  0.7957747E-01  0.3428928E+00
         13   -1    0    0    0    0  0.00000000000E+00  0.00000000000E+00  0.14999999963E+04  0.15000000000E+04  0.10566000000E+00 0.  1.
        994   -1    0    0    0    0 -0.00000000000E+00 -0.00000000000E+00  0.11368683772E-12  0.17120000000E+03  0.17120000000E+03 0.  0.
         13    1    1    2    0    0 -0.13533742868E+02 -0.87043725171E+01  0.83638037238E+02  0.85171948046E+02  0.10566000000E+00 0.  1.
        994    1    1    2    0    0  0.77217999449E+01  0.86230346973E+01  0.19835241170E+01  0.17160232309E+03  0.17120000000E+03 0.  0.
        998    1    1    2    0    0  0.58119429227E+01  0.81337819777E-01  0.14143784349E+04  0.14144257289E+04  0.10000000000E+02 0.  1.
</event>
<event>
 5    1  0.1147307E-008  0.3411152E+03  0.7957747E-01  0.3640173E+00
         13   -1    0    0    0    0  0.00000000000E+00  0.00000000000E+00  0.14999999963E+04  0.15000000000E+04  0.10566000000E+00 0. -1.
        994   -1    0    0    0    0 -0.00000000000E+00 -0.00000000000E+00  0.11368683772E-12  0.17120000000E+03  0.17120000000E+03 0.  0.
         13    1    1    2    0    0 -0.28148801588E+03  0.29927058973E+01  0.52756660385E+03  0.59797240072E+03  0.10566000000E+00 0. -1.
        994    1    1    2    0    0  0.30936034456E+03 -0.33904123334E+02  0.59191266325E+03  0.69030670957E+03  0.17120000000E+03 0.  0.
        998    1    1    2    0    0 -0.27872328678E+02  0.30911417436E+02  0.38052072918E+03  0.38292088971E+03  0.10000000000E+02 0. -1.
</event>
<event>
 5    1  0.1147307E-008  0.3800664E+03  0.7957747E-01  0.3450869E+00
         13   -1    0    0    0    0  0.00000000000E+00  0.00000000000E+00  0.14999999963E+04  0.15000000000E+04  0.10566000000E+00 0.  1.
        994   -1    0    0    0    0 -0.00000000000E+00 -0.00000000000E+00  0.11368683772E-12  0.17120000000E+03  0.17120000000E+03 0.  0.
         13    1    1    2    0    0  0.31827763275E+02 -0.14092419166E+02  0.17052480259E+03  0.17404115104E+03  0.10566000000E+00 0.  1.
        994    1    1    2    0    0 -0.48021436412E+01 -0.13834047362E+02  0.48166573430E+01  0.17189264568E+03  0.17120000000E+03 0.  0.
        998    1    1    2    0    0 -0.27025619634E+02  0.27926466528E+02  0.13246585363E+04  0.13252662033E+04  0.10000000000E+02 0.  1.
</event>
<event>
 5    1  0.1147307E-008  0.3723697E+03  0.7957747E-01  0.3485071E+00
         13   -1    0    0    0    0  0.00000000000E+00  0.00000000000E+00  0.14999999963E+04  0.15000000000E+04  0.10566000000E+00 0.  1.
        994   -1    0    0    0    0 -0.00000000000E+00 -0.00000000000E+00  0.11368683772E-12  0.17120000000E+03  0.17120000000E+03 0.  0.
         13    1    1    2    0    0 -0.13773208461E+02  0.55327046326E+01  0.34405849510E+01  0.15236826464E+02  0.10566000000E+00 0.  1.
        994    1    1    2    0    0  0.12614347806E+02 -0.51321595207E+01  0.12851404444E+02  0.17222096106E+03  0.17120000000E+03 0.  0.
        998    1    1    2    0    0  0.11588606548E+01 -0.40054511191E+00  0.14837080069E+04  0.14837422125E+04  0.10000000000E+02 0.  1.
</event>
<event>
 5    1  0.1858411E-008  0.3864193E+03  0.7957747E-01  0.3423675E+00
         13   -1    0    0    0    0  0.00000000000E+00  0.00000000000E+00  0.14999999963E+04  0.15000000000E+04  0.10566000000E+00 0. -1.
        994   -1    0    0    0    0 -0.00000000000E+00 -0.00000000000E+00  0.11368683772E-12  0.17120000000E+03  0.17120000000E+03 0.  0.
         13    1    1    2    0    0 -0.48007690145E+01 -0.92552652127E+01  0.57369794002E+02  0.58309619663E+02  0.10566000000E+00 0. -1.
        994    1    1    2    0    0  0.17059464898E+01  0.13067253705E+02  0.14958416662E+01  0.17171296082E+03  0.17120000000E+03 0.  0.
        998    1    1    2    0    0  0.30948225247E+01 -0.38119884922E+01  0.14411343606E+04  0.14411774195E+04  0.10000000000E+02 0. -1.
</event>
<event>
 5    1  0.1147307E-008  0.3846153E+03  0.7957747E-01  0.3431306E+00
         13   -1    0    0    0    0  0.00000000000E+00  0.00000000000E+00  0.14999999963E+04  0.15000000000E+04  0.10566000000E+00 0. -1.
        994   -1    0    0    0    0 -0.00000000000E+00 -0.00000000000E+00  0.11368683772E-12  0.17120000000E+03  0.17120000000E+03 0.  0.
         13    1    1    2    0    0  0.22004313839E+02  0.90428327122E+01  0.14261650953E+03  0.14458714537E+03  0.10566000000E+00 0. -1.
        994    1    1    2    0    0 -0.24085525611E+02 -0.48810147843E+01  0.38124226336E+01  0.17299685377E+03  0.17120000000E+03 0.  0.
        998    1    1    2    0    0  0.20812117723E+01 -0.41618179279E+01  0.13535710641E+04  0.13536160009E+04  0.10000000000E+02 0. -1.
</event>
<event>
 5    1  0.1147307E-008  0.3828517E+03  0.7957747E-01  0.3438835E+00
         13   -1    0    0    0    0  0.00000000000E+00  0.00000000000E+00  0.14999999963E+04  0.15000000000E+04  0.10566000000E+00 0.  1.
        994   -1    0    0    0    0 -0.00000000000E+00 -0.00000000000E+00  0.11368683772E-12  0.17120000000E+03  0.17120000000E+03 0.  0.
         13    1    1    2    0    0  0.12133722250E+02 -0.24172261335E+01  0.27308102511E+02  0.29980223892E+02  0.10566000000E+00 0.  1.
        994    1    1    2    0    0 -0.12275572932E+02 -0.13401045143E+02  0.37950476260E+01  0.17220371682E+03  0.17120000000E+03 0.  0.
        998    1    1    2    0    0  0.14185068240E+00  0.15818271277E+02  0.14688968461E+04  0.14690160593E+04  0.10000000000E+02 0.  1.
</event>
<event>
 5    1  0.1147307E-008  0.3864046E+03  0.7957747E-01  0.3423737E+00
         13   -1    0    0    0    0  0.00000000000E+00  0.00000000000E+00  0.14999999963E+04  0.15000000000E+04  0.10566000000E+00 0.  1.
        994   -1    0    0    0    0 -0.00000000000E+00 -0.00000000000E+00  0.11368683772E-12  0.17120000000E+03  0.17120000000E+03 0.  0.
         13    1    1    2    0    0  0.21329971470E+02  0.30434478615E+02  0.23994958810E+02  0.44237929244E+02  0.10566000000E+00 0.  1.
        994    1    1    2    0    0  0.14459726793E+02 -0.90060707569E+02  0.51469739331E+02  0.20069526356E+03  0.17120000000E+03 0.  0.
        998    1    1    2    0    0 -0.35789698263E+02  0.59626228954E+02  0.14245352981E+04  0.14262668072E+04  0.10000000000E+02 0.  1.
</event>
<event>
 5    1  0.1147307E-008  0.2029827E+03  0.7957747E-01  0.4985029E+00
         13   -1    0    0    0    0  0.00000000000E+00  0.00000000000E+00  0.14999999963E+04  0.15000000000E+04  0.10566000000E+00 0. -1.
        994   -1    0    0    0    0 -0.00000000000E+00 -0.00000000000E+00  0.11368683772E-12  0.17120000000E+03  0.17120000000E+03 0.  0.
         13    1    1    2    0    0  0.69548780369E+01 -0.88796264044E+02  0.34582614474E+02  0.95546403514E+02  0.10566000000E+00 0. -1.
        994    1    1    2    0    0  0.27755277959E+02  0.90041939659E+02  0.11909684997E+03  0.22884799764E+03  0.17120000000E+03 0.  0.
        998    1    1    2    0    0 -0.34710155996E+02 -0.12456756151E+01  0.13463205318E+04  0.13468055988E+04  0.10000000000E+02 0. -1.
</event>
<event>
 5    1  0.1147307E-008  0.3797377E+03  0.7957747E-01  0.3452301E+00
         13   -1    0    0    0    0  0.00000000000E+00  0.00000000000E+00  0.14999999963E+04  0.15000000000E+04  0.10566000000E+00 0. -1.
        994   -1    0    0    0    0 -0.00000000000E+00 -0.00000000000E+00  0.11368683772E-12  0.17120000000E+03  0.17120000000E+03 0.  0.
         13    1    1    2    0    0  0.31724027631E+02  0.97651026828E+01  0.13302773800E+03  0.13710638717E+03  0.10566000000E+00 0. -1.
        994    1    1    2    0    0 -0.22048572681E+02  0.24972960344E+02  0.79876697075E+01  0.17459390360E+03  0.17120000000E+03 0.  0.
        998    1    1    2    0    0 -0.96754549493E+01 -0.34738063027E+02  0.13589845886E+04  0.13594997092E+04  0.10000000000E+02 0. -1.
</event>
<event>
 5    1  0.1147307E-008  0.3851432E+03  0.7957747E-01  0.3429065E+00
         13   -1    0    0    0    0  0.00000000000E+00  0.00000000000E+00  0.14999999963E+04  0.15000000000E+04  0.10566000000E+00 0.  1.
        994   -1    0    0    0    0 -0.00000000000E+00 -0.00000000000E+00  0.11368683772E-12  0.17120000000E+03  0.17120000000E+03 0.  0.
         13    1    1    2    0    0 -0.17812454526E+02 -0.30679190482E+01  0.10872791448E+03  0.11022008082E+03  0.10566000000E+00 0.  1.
        994    1    1    2    0    0  0.67176089067E+01  0.41074071561E+01  0.17628645683E+01  0.17139003692E+03  0.17120000000E+03 0.  0.
        998    1    1    2    0    0  0.11094845619E+02 -0.10394881079E+01  0.13895092172E+04  0.13895898823E+04  0.10000000000E+02 0.  1.
</event>
<event>
 5    1  0.1147307E-008  0.3723101E+03  0.7957747E-01  0.3485341E+00
         13   -1    0    0    0    0  0.00000000000E+00  0.00000000000E+00  0.14999999963E+04  0.15000000000E+04  0.10566000000E+00 0.  1.
        994   -1    0    0    0    0 -0.00000000000E+00 -0.00000000000E+00  0.11368683772E-12  0.17120000000E+03  0.17120000000E+03 0.  0.
         13    1    1    2    0    0 -0.78802781221E+02 -0.72381288284E+02  0.52423523952E+03  0.53504348117E+03  0.10566000000E+00 0.  1.
        994    1    1    2    0    0  0.56666913789E+02  0.76540696202E+02  0.39850380790E+02  0.19991775845E+03  0.17120000000E+03 0.  0.
        998    1    1    2    0    0  0.22135867432E+02 -0.41594079179E+01  0.93591437597E+03  0.93623876038E+03  0.10000000000E+02 0.  1.
</event>
<event>
 5    1  0.1147307E-008  0.3843765E+03  0.7957747E-01  0.3432321E+00
         13   -1    0    0    0    0  0.00000000000E+00  0.00000000000E+00  0.14999999963E+04  0.15000000000E+04  0.10566000000E+00 0. -1.
        994   -1    0    0    0    0 -0.00000000000E+00 -0.00000000000E+00  0.11368683772E-12  0.17120000000E+03  0.17120000000E+03 0.  0.
         13    1    1    2    0    0  0.14006419359E+02  0.10990390292E+02  0.77224805064E+02  0.79250552952E+02  0.10566000000E+00 0. -1.
        994    1    1    2    0    0 -0.15956732529E+02 -0.11863206595E+02  0.32438839088E+01  0.17238130921E+03  0.17120000000E+03 0.  0.
        998    1    1    2    0    0  0.19503131695E+01  0.87281630291E+00  0.14195313073E+04  0.14195681378E+04  0.10000000000E+02 0. -1.
</event>
<event>
 5    1  0.1147307E-008  0.3786172E+03  0.7957747E-01  0.3457202E+00
         13   -1    0    0    0    0  0.00000000000E+00  0.00000000000E+00  0.14999999963E+04  0.15000000000E+04  0.10566000000E+00 0. -1.
        994   -1    0    0    0    0 -0.00000000000E+00 -0.00000000000E+00  0.11368683772E-12  0.17120000000E+03  0.17120000000E+03 0.  0.
         13    1    1    2    0    0 -0.46576539978E+02  0.14103046108E+02  0.23525871540E+03  0.24023934799E+03  0.10566000000E+00 0. -1.
        994    1    1    2    0    0  0.30787320395E+02 -0.10039047644E+02  0.83624744826E+01  0.17443627075E+03  0.17120000000E+03 0.  0.
        998    1    1    2    0    0  0.15789219583E+02 -0.40639984641E+01  0.12563788064E+04  0.12565243813E+04  0.10000000000E+02 0. -1.
</event>
<event>
 5    1  0.1147307E-008  0.3838422E+03  0.7957747E-01  0.3434598E+00
         13   -1    0    0    0    0  0.00000000000E+00  0.00000000000E+00  0.14999999963E+04  0.15000000000E+04  0.10566000000E+00 0. -1.
        994   -1    0    0    0    0 -0.00000000000E+00 -0.00000000000E+00  0.11368683772E-12  0.17120000000E+03  0.17120000000E+03 0.  0.
         13    1    1    2    0    0  0.14840248308E+02  0.42833370494E+01  0.50145337981E+02  0.52470430067E+02  0.10566000000E+00 0. -1.
        994    1    1    2    0    0 -0.21044137237E+02 -0.13082179555E+02  0.42355365238E+01  0.17303577348E+03  0.17120000000E+03 0.  0.
        998    1    1    2    0    0  0.62038889291E+01  0.87988425056E+01  0.14456191218E+04  0.14456937965E+04  0.10000000000E+02 0. -1.
</event>
<event>
 5    1  0.1147307E-008  0.3728154E+03  0.7957747E-01  0.3483051E+00
         13   -1    0    0    0    0  0.00000000000E+00  0.00000000000E+00  0.14999999963E+04  0.15000000000E+04  0.10566000000E+00 0.  1.
        994   -1    0    0    0    0 -0.00000000000E+00 -0.00000000000E+00  0.11368683772E-12  0.17120000000E+03  0.17120000000E+03 0.  0.
         13    1    1    2    0    0  0.95696588134E+02  0.89220423067E+02  0.62596387489E+03  0.63949112949E+03  0.10566000000E+00 0.  1.
        994    1    1    2    0    0 -0.94069537618E+02 -0.86626269615E+02  0.66061555506E+02  0.22366662158E+03  0.17120000000E+03 0.  0.
        998    1    1    2    0    0 -0.16270505162E+01 -0.25941534521E+01  0.80797456589E+03  0.80804224892E+03  0.10000000000E+02 0.  0.
</event>
<event>
 5    1  0.1147307E-008  0.3822240E+03  0.7957747E-01  0.3441532E+00
         13   -1    0    0    0    0  0.00000000000E+00  0.00000000000E+00  0.14999999963E+04  0.15000000000E+04  0.10566000000E+00 0. -1.
        994   -1    0    0    0    0 -0.00000000000E+00 -0.00000000000E+00  0.11368683772E-12  0.17120000000E+03  0.17120000000E+03 0.  0.
         13    1    1    2    0    0  0.32364434395E+02  0.82136806420E+01  0.16187919699E+03  0.16528704349E+03  0.10566000000E+00 0. -1.
        994    1    1    2    0    0 -0.36392737973E+02 -0.62403835054E+01  0.75522993155E+01  0.17529931828E+03  0.17120000000E+03 0.  0.
        998    1    1    2    0    0  0.40283035780E+01 -0.19732971366E+01  0.13305685000E+04  0.13306136382E+04  0.10000000000E+02 0. -1.
</event>
<event>
 5    1  0.1147307E-008  0.3791219E+03  0.7957747E-01  0.3454991E+00
         13   -1    0    0    0    0  0.00000000000E+00  0.00000000000E+00  0.14999999963E+04  0.15000000000E+04  0.10566000000E+00 0. -1.
        994   -1    0    0    0    0 -0.00000000000E+00 -0.00000000000E+00  0.11368683772E-12  0.17120000000E+03  0.17120000000E+03 0.  0.
         13    1    1    2    0    0 -0.30463303032E+02  0.53504337205E+00  0.10055658891E+03  0.10507110850E+03  0.10566000000E+00 0. -1.
        994    1    1    2    0    0  0.16963665331E+02 -0.31303316597E+01  0.55753361610E+01  0.17215716451E+03  0.17120000000E+03 0.  0.
        998    1    1    2    0    0  0.13499637701E+02  0.25952882877E+01  0.13938680712E+04  0.13939717270E+04  0.10000000000E+02 0. -1.
</event>
<event>
 5    1  0.1147307E-008  0.3804759E+03  0.7957747E-01  0.3449089E+00
         13   -1    0    0    0    0  0.00000000000E+00  0.00000000000E+00  0.14999999963E+04  0.15000000000E+04  0.10566000000E+00 0. -1.
        994   -1    0    0    0    0 -0.00000000000E+00 -0.00000000000E+00  0.11368683772E-12  0.17120000000E+03  0.17120000000E+03 0.  0.
         13    1    1    2    0    0 -0.82950956900E+01  0.13560440925E+02  0.30495136612E+02  0.34389805053E+02  0.10566000000E+00 0. -1.
        994    1    1    2    0    0  0.39643771802E+01 -0.15507285698E+02  0.47486516512E+01  0.17201215622E+03  0.17120000000E+03 0.  0.
        998    1    1    2    0    0  0.43307185098E+01  0.19468447727E+01  0.14647562080E+04  0.14647980387E+04  0.10000000000E+02 0. -1.
</event>
<event>
 5    1  0.1147307E-008  0.3834631E+03  0.7957747E-01  0.3436217E+00
         13   -1    0    0    0    0  0.00000000000E+00  0.00000000000E+00  0.14999999963E+04  0.15000000000E+04  0.10566000000E+00 0.  1.
        994   -1    0    0    0    0 -0.00000000000E+00 -0.00000000000E+00  0.11368683772E-12  0.17120000000E+03  0.17120000000E+03 0.  0.
         13    1    1    2    0    0  0.24113132237E+01  0.27876937907E+02  0.14821483813E+03  0.15083297883E+03  0.10566000000E+00 0.  1.
        994    1    1    2    0    0 -0.60674370960E+01 -0.28184733881E+02  0.51471258783E+01  0.17368686168E+03  0.17120000000E+03 0.  0.
        998    1    1    2    0    0  0.36561238723E+01  0.30779597429E+00  0.13466380323E+04  0.13466801595E+04  0.10000000000E+02 0.  1.
</event>
<event>
 5    1  0.1147307E-008  0.3875353E+03  0.7957747E-01  0.3418990E+00
         13   -1    0    0    0    0  0.00000000000E+00  0.00000000000E+00  0.14999999963E+04  0.15000000000E+04  0.10566000000E+00 0. -1.
        994   -1    0    0    0    0 -0.00000000000E+00 -0.00000000000E+00  0.11368683772E-12  0.17120000000E+03  0.17120000000E+03 0.  0.
         13    1    1    2    0    0 -0.65585660120E+02  0.78035397593E+02  0.17516244541E+03  0.20266449008E+03  0.10566000000E+00 0. -1.
        994    1    1    2    0    0  0.86398224720E+02 -0.12339451545E+03  0.11097351884E+03  0.25360485319E+03  0.17120000000E+03 0.  0.
        998    1    1    2    0    0 -0.20812564600E+02  0.45359117860E+02  0.12138640320E+04  0.12149306567E+04  0.10000000000E+02 0. -1.
</event>
<event>
 5    1  0.1147307E-008  0.3796400E+03  0.7957747E-01  0.3452728E+00
         13   -1    0    0    0    0  0.00000000000E+00  0.00000000000E+00  0.14999999963E+04  0.15000000000E+04  0.10566000000E+00 0.  1.
        994   -1    0    0    0    0 -0.00000000000E+00 -0.00000000000E+00  0.11368683772E-12  0.17120000000E+03  0.17120000000E+03 0.  0.
         13    1    1    2    0    0 -0.13100123053E+02  0.11486557134E+00  0.17987735311E+02  0.22253004376E+02  0.10566000000E+00 0.  1.
        994    1    1    2    0    0  0.10855867589E+02  0.37013380341E+01  0.47553988602E+01  0.17164965360E+03  0.17120000000E+03 0.  0.
        998    1    1    2    0    0  0.22442554646E+01 -0.38162036054E+01  0.14772568621E+04  0.14772973420E+04  0.10000000000E+02 0.  1.
</event>
<event>
 5    1  0.1147307E-008  0.3788957E+03  0.7957747E-01  0.3455981E+00
         13   -1    0    0    0    0  0.00000000000E+00  0.00000000000E+00  0.14999999963E+04  0.15000000000E+04  0.10566000000E+00 0. -1.
        994   -1    0    0    0    0 -0.00000000000E+00 -0.00000000000E+00  0.11368683772E-12  0.17120000000E+03  0.17120000000E+03 0.  0.
         13    1    1    2    0    0 -0.39058691582E+02 -0.18737087234E+02  0.20701629283E+03  0.21150039359E+03  0.10566000000E+00 0. -1.
        994    1    1    2    0    0  0.87204069570E+01  0.27241407166E+02  0.74414599889E+01  0.17373242383E+03  0.17120000000E+03 0.  0.
        998    1    1    2    0    0  0.30338284625E+02 -0.85043199317E+01  0.12855422435E+04  0.12859671826E+04  0.10000000000E+02 0. -1.
</event>
<event>
 5    1  0.1147307E-008  0.3770976E+03  0.7957747E-01  0.3463895E+00
         13   -1    0    0    0    0  0.00000000000E+00  0.00000000000E+00  0.14999999963E+04  0.15000000000E+04  0.10566000000E+00 0.  1.
        994   -1    0    0    0    0 -0.00000000000E+00 -0.00000000000E+00  0.11368683772E-12  0.17120000000E+03  0.17120000000E+03 0.  0.
         13    1    1    2    0    0  0.27782153720E+02 -0.12942572825E+03  0.71391577425E+03  0.72608443798E+03  0.10566000000E+00 0.  1.
        994    1    1    2    0    0 -0.12379334853E+02  0.13795977384E+03  0.73376205579E+02  0.23211991443E+03  0.17120000000E+03 0.  0.
        998    1    1    2    0    0 -0.15402818867E+02 -0.85340455862E+01  0.71270801645E+03  0.71299564759E+03  0.10000000000E+02 0. -1.
</event>
<event>
 5    1  0.1147307E-008  0.3847129E+03  0.7957747E-01  0.3430891E+00
         13   -1    0    0    0    0  0.00000000000E+00  0.00000000000E+00  0.14999999963E+04  0.15000000000E+04  0.10566000000E+00 0.  1.
        994   -1    0    0    0    0 -0.00000000000E+00 -0.00000000000E+00  0.11368683772E-12  0.17120000000E+03  0.17120000000E+03 0.  0.
         13    1    1    2    0    0 -0.12170081247E+02  0.24229628422E+00  0.41234151201E+02  0.42993441062E+02  0.10566000000E+00 0.  1.
        994    1    1    2    0    0  0.97636677072E+01  0.64496219268E+00  0.20879813372E+01  0.17149211308E+03  0.17120000000E+03 0.  0.
        998    1    1    2    0    0  0.24064135397E+01 -0.88725847690E+00  0.14566778637E+04  0.14567144459E+04  0.10000000000E+02 0.  1.
</event>
<event>
 5    1  0.1147307E-008  0.3836788E+03  0.7957747E-01  0.3435295E+00
         13   -1    0    0    0    0  0.00000000000E+00  0.00000000000E+00  0.14999999963E+04  0.15000000000E+04  0.10566000000E+00 0. -1.
        994   -1    0    0    0    0 -0.00000000000E+00 -0.00000000000E+00  0.11368683772E-12  0.17120000000E+03  0.17120000000E+03 0.  0.
         13    1    1    2    0    0  0.18660804480E+02 -0.84948246110E+00  0.75570943110E+02  0.77845525568E+02  0.10566000000E+00 0. -1.
        994    1    1    2    0    0 -0.12004309849E+02  0.97913674406E+01  0.30804990745E+01  0.17192703047E+03  0.17120000000E+03 0.  0.
        998    1    1    2    0    0 -0.66564946307E+01 -0.89418849795E+01  0.14213485541E+04  0.14214274440E+04  0.10000000000E+02 0. -1.
</event>
<event>
 5    1  0.1147307E-008  0.3829299E+03  0.7957747E-01  0.3438499E+00
         13   -1    0    0    0    0  0.00000000000E+00  0.00000000000E+00  0.14999999963E+04  0.15000000000E+04  0.10566000000E+00 0. -1.
        994   -1    0    0    0    0 -0.00000000000E+00 -0.00000000000E+00  0.11368683772E-12  0.17120000000E+03  0.17120000000E+03 0.  0.
         13    1    1    2    0    0 -0.19915035453E+02  0.19150249990E+01  0.10346985685E+03  0.10538642417E+03  0.10566000000E+00 0. -1.
        994    1    1    2    0    0 -0.37462615945E+02 -0.22232363356E+02  0.89700861314E+01  0.17688309139E+03  0.17120000000E+03 0.  0.
        998    1    1    2    0    0  0.57377651398E+02  0.20317338357E+02  0.13875600533E+04  0.13889304844E+04  0.10000000000E+02 0. -1.
</event>
<event>
 5    1  0.1147307E-008  0.3779175E+03  0.7957747E-01  0.3460277E+00
         13   -1    0    0    0    0  0.00000000000E+00  0.00000000000E+00  0.14999999963E+04  0.15000000000E+04  0.10566000000E+00 0.  1.
        994   -1    0    0    0    0 -0.00000000000E+00 -0.00000000000E+00  0.11368683772E-12  0.17120000000E+03  0.17120000000E+03 0.  0.
         13    1    1    2    0    0 -0.12257604770E+02  0.20118698528E+02  0.50185295854E+02  0.55439931359E+02  0.10566000000E+00 0.  1.
        994    1    1    2    0    0  0.83271741757E+01 -0.21664541642E+02  0.70034863731E+01  0.17290801895E+03  0.17120000000E+03 0.  0.
        998    1    1    2    0    0  0.39304305945E+01  0.15458431137E+01  0.14428112141E+04  0.14428520497E+04  0.10000000000E+02 0.  1.
</event>
<event>
 5    1  0.1147307E-008  0.3802075E+03  0.7957747E-01  0.3450256E+00
         13   -1    0    0    0    0  0.00000000000E+00  0.00000000000E+00  0.14999999963E+04  0.15000000000E+04  0.10566000000E+00 0. -1.
        994   -1    0    0    0    0 -0.00000000000E+00 -0.00000000000E+00  0.11368683772E-12  0.17120000000E+03  0.17120000000E+03 0.  0.
         13    1    1    2    0    0  0.21109391827E+02  0.11760395439E+02  0.71676631819E+02  0.75640359843E+02  0.10566000000E+00 0. -1.
        994    1    1    2    0    0 -0.15462837734E+02  0.52243730289E+00  0.48285184706E+01  0.17196548166E+03  0.17120000000E+03 0.  0.
        998    1    1    2    0    0 -0.56465540935E+01 -0.12282832742E+02  0.14234948460E+04  0.14235941585E+04  0.10000000000E+02 0. -1.
</event>
<event>
 5    1  0.1147307E-008  0.3829098E+03  0.7957747E-01  0.3438586E+00
         13   -1    0    0    0    0  0.00000000000E+00  0.00000000000E+00  0.14999999963E+04  0.15000000000E+04  0.10566000000E+00 0. -1.
        994   -1    0    0    0    0 -0.00000000000E+00 -0.00000000000E+00  0.11368683772E-12  0.17120000000E+03  0.17120000000E+03 0.  0.
         13    1    1    2    0    0  0.10986456426E+02  0.94668019363E+00  0.21503862921E+02  0.24166623942E+02  0.10566000000E+00 0. -1.
        994    1    1    2    0    0 -0.11469975127E+02 -0.27479932677E+01  0.31322119583E+01  0.17163438626E+03  0.17120000000E+03 0.  0.
        998    1    1    2    0    0  0.48351870050E+00  0.18013130741E+01  0.14753639214E+04  0.14753989898E+04  0.10000000000E+02 0. -1.
</event>
<event>
 5    1  0.1147307E-008  0.3760731E+03  0.7957747E-01  0.3468437E+00
         13   -1    0    0    0    0  0.00000000000E+00  0.00000000000E+00  0.14999999963E+04  0.15000000000E+04  0.10566000000E+00 0. -1.
        994   -1    0    0    0    0 -0.00000000000E+00 -0.00000000000E+00  0.11368683772E-12  0.17120000000E+03  0.17120000000E+03 0.  0.
         13    1    1    2    0    0 -0.54121455382E+02 -0.82349061531E+01  0.10205775585E+03  0.11581339433E+03  0.10566000000E+00 0. -1.
        994    1    1    2    0    0  0.40477749590E+02 -0.55797554573E+02  0.31362224392E+02  0.18720268275E+03  0.17120000000E+03 0.  0.
        998    1    1    2    0    0  0.13643705792E+02  0.64032460726E+02  0.13665800160E+04  0.13681839229E+04  0.10000000000E+02 0. -1.
</event>
<event>
 5    1  0.1147307E-008  0.3817863E+03  0.7957747E-01  0.3443417E+00
         13   -1    0    0    0    0  0.00000000000E+00  0.00000000000E+00  0.14999999963E+04  0.15000000000E+04  0.10566000000E+00 0.  1.
        994   -1    0    0    0    0 -0.00000000000E+00 -0.00000000000E+00  0.11368683772E-12  0.17120000000E+03  0.17120000000E+03 0.  0.
         13    1    1    2    0    0  0.13206958201E+02  0.26880972657E+02  0.12760357927E+03  0.13107133571E+03  0.10566000000E+00 0.  1.
        994    1    1    2    0    0  0.27604709145E+02 -0.49549263020E+02  0.14000407943E+02  0.18089389391E+03  0.17120000000E+03 0.  0.
        998    1    1    2    0    0 -0.40811667346E+02  0.22668290363E+02  0.13583960091E+04  0.13592347704E+04  0.10000000000E+02 0.  1.
</event>
<event>
 5    1  0.1147307E-008  0.3798252E+03  0.7957747E-01  0.3451920E+00
         13   -1    0    0    0    0  0.00000000000E+00  0.00000000000E+00  0.14999999963E+04  0.15000000000E+04  0.10566000000E+00 0. -1.
        994   -1    0    0    0    0 -0.00000000000E+00 -0.00000000000E+00  0.11368683772E-12  0.17120000000E+03  0.17120000000E+03 0.  0.
         13    1    1    2    0    0 -0.19670390994E+02 -0.31756179713E+00  0.43534521561E+02  0.47773327904E+02  0.10566000000E+00 0. -1.
        994    1    1    2    0    0  0.17476472818E+02  0.40338146986E+01  0.52981669183E+01  0.17221849301E+03  0.17120000000E+03 0.  0.
        998    1    1    2    0    0  0.21939181758E+01 -0.37162529015E+01  0.14511673078E+04  0.14512081791E+04  0.10000000000E+02 0. -1.
</event>
<event>
 5    1  0.1147307E-008  0.4185956E+03  0.7957747E-01  0.3298595E+00
         13   -1    0    0    0    0  0.00000000000E+00  0.00000000000E+00  0.14999999963E+04  0.15000000000E+04  0.10566000000E+00 0. -1.
        994   -1    0    0    0    0 -0.00000000000E+00 -0.00000000000E+00  0.11368683772E-12  0.17120000000E+03  0.17120000000E+03 0.  0.
         13    1    1    2    0    0  0.55150333560E+02  0.20671842658E+02  0.31538584502E+02  0.66810013075E+02  0.10566000000E+00 0. -1.
        994    1    1    2    0    0 -0.28227044687E+02 -0.25909696353E+02  0.45647532306E+02  0.18127662735E+03  0.17120000000E+03 0.  0.
        998    1    1    2    0    0 -0.26923288873E+02  0.52378536951E+01  0.14228138795E+04  0.14231133596E+04  0.10000000000E+02 0. -1.
</event>
<event>
 5    1  0.1147307E-008  0.3861399E+03  0.7957747E-01  0.3424852E+00
         13   -1    0    0    0    0  0.00000000000E+00  0.00000000000E+00  0.14999999963E+04  0.15000000000E+04  0.10566000000E+00 0.  1.
        994   -1    0    0    0    0 -0.00000000000E+00 -0.00000000000E+00  0.11368683772E-12  0.17120000000E+03  0.17120000000E+03 0.  0.
         13    1    1    2    0    0 -0.31512556380E+01  0.10424348127E+02  0.55874831155E+02  0.56926315239E+02  0.10566000000E+00 0.  1.
        994    1    1    2    0    0  0.51244215329E+01 -0.76178828456E+01  0.13414645513E+01  0.17145125069E+03  0.17120000000E+03 0.  0.
        998    1    1    2    0    0 -0.19731658949E+01 -0.28064652817E+01  0.14427837006E+04  0.14428224341E+04  0.10000000000E+02 0.  1.
</event>
<event>
 5    1  0.1147307E-008  0.3738431E+03  0.7957747E-01  0.3478413E+00
         13   -1    0    0    0    0  0.00000000000E+00  0.00000000000E+00  0.14999999963E+04  0.15000000000E+04  0.10566000000E+00 0.  1.
        994   -1    0    0    0    0 -0.00000000000E+00 -0.00000000000E+00  0.11368683772E-12  0.17120000000E+03  0.17120000000E+03 0.  0.
         13    1    1    2    0    0 -0.65656920025E+02  0.86501923055E+02  0.45463681506E+03  0.46742706235E+03  0.10566000000E+00 0.  1.
        994    1    1    2    0    0  0.71024664599E+02 -0.10620539481E+03  0.65203527208E+02  0.22334956644E+03  0.17120000000E+03 0.  0.
        998    1    1    2    0    0 -0.53677445739E+01  0.19703471753E+02  0.98015965401E+03  0.98042337121E+03  0.10000000000E+02 0.  1.
</event>
<event>
 5    1  0.1147307E-008  0.3849997E+03  0.7957747E-01  0.3429673E+00
         13   -1    0    0    0    0  0.00000000000E+00  0.00000000000E+00  0.14999999963E+04  0.15000000000E+04  0.10566000000E+00 0. -1.
        994   -1    0    0    0    0 -0.00000000000E+00 -0.00000000000E+00  0.11368683772E-12  0.17120000000E+03  0.17120000000E+03 0.  0.
         13    1    1    2    0    0 -0.92947209294E+01 -0.71032013966E+01  0.42386099438E+02  0.43970898295E+02  0.10566000000E+00 0. -1.
        994    1    1    2    0    0  0.64719825745E+01  0.53076875156E+00  0.17689536411E+01  0.17133224294E+03  0.17120000000E+03 0.  0.
        998    1    1    2    0    0  0.28227383549E+01  0.65724326450E+01  0.14558449432E+04  0.14558968588E+04  0.10000000000E+02 0. -1.
</event>
<event>
 5    1  0.1147307E-008  0.3809936E+03  0.7957747E-01  0.3446844E+00
         13   -1    0    0    0    0  0.00000000000E+00  0.00000000000E+00  0.14999999963E+04  0.15000000000E+04  0.10566000000E+00 0. -1.
        994   -1    0    0    0    0 -0.00000000000E+00 -0.00000000000E+00  0.11368683772E-12  0.17120000000E+03  0.17120000000E+03 0.  0.
         13    1    1    2    0    0 -0.13926723381E+02 -0.17058196768E+02  0.68222953228E+02  0.71689038299E+02  0.10566000000E+00 0. -1.
        994    1    1    2    0    0 -0.17115579521E+02  0.20971077108E+02  0.60777140081E+01  0.17343329480E+03  0.17120000000E+03 0.  0.
        998    1    1    2    0    0  0.31042302902E+02 -0.39128803404E+01  0.14256993290E+04  0.14260776669E+04  0.10000000000E+02 0. -1.
</event>
<event>
 5    1  0.1147307E-008  0.3858221E+03  0.7957747E-01  0.3426193E+00
         13   -1    0    0    0    0  0.00000000000E+00  0.00000000000E+00  0.14999999963E+04  0.15000000000E+04  0.10566000000E+00 0. -1.
        994   -1    0    0    0    0 -0.00000000000E+00 -0.00000000000E+00  0.11368683772E-12  0.17120000000E+03  0.17120000000E+03 0.  0.
         13    1    1    2    0    0 -0.12730219529E+02  0.14932924380E+01  0.74127857206E+02  0.75227912304E+02  0.10566000000E+00 0. -1.
        994    1    1    2    0    0 -0.60528306109E+00  0.15516690329E+02  0.20138051529E+01  0.17191459931E+03  0.17120000000E+03 0.  0.
        998    1    1    2    0    0  0.13335502591E+02 -0.17009982767E+02  0.14238583339E+04  0.14240574884E+04  0.10000000000E+02 0. -1.
</event>
<event>
 5    1  0.1147307E-008  0.3798655E+03  0.7957747E-01  0.3451745E+00
         13   -1    0    0    0    0  0.00000000000E+00  0.00000000000E+00  0.14999999963E+04  0.15000000000E+04  0.10566000000E+00 0. -1.
        994   -1    0    0    0    0 -0.00000000000E+00 -0.00000000000E+00  0.11368683772E-12  0.17120000000E+03  0.17120000000E+03 0.  0.
         13    1    1    2    0    0 -0.20902948994E+02  0.19766161719E+02  0.93112239639E+02  0.97455296215E+02  0.10566000000E+00 0. -1.
        994    1    1    2    0    0  0.97116961691E+01 -0.27752576364E+02  0.70977797115E+01  0.17385149126E+03  0.17120000000E+03 0.  0.
        998    1    1    2    0    0  0.11191252824E+02  0.79864146449E+01  0.13997899769E+04  0.13998932125E+04  0.10000000000E+02 0. -1.
</event>
<event>
 5    1  0.1147307E-008  0.3788070E+03  0.7957747E-01  0.3456370E+00
         13   -1    0    0    0    0  0.00000000000E+00  0.00000000000E+00  0.14999999963E+04  0.15000000000E+04  0.10566000000E+00 0.  1.
        994   -1    0    0    0    0 -0.00000000000E+00 -0.00000000000E+00  0.11368683772E-12  0.17120000000E+03  0.17120000000E+03 0.  0.
         13    1    1    2    0    0  0.39519991979E+02  0.33181022374E+02  0.10472987841E+03  0.11675259572E+03  0.10566000000E+00 0.  1.
        994    1    1    2    0    0  0.38247510590E+02  0.34992907896E+02  0.25433034812E+02  0.18067555155E+03  0.17120000000E+03 0.  0.
        998    1    1    2    0    0 -0.77767502570E+02 -0.68173930270E+02  0.13698370831E+04  0.13737718527E+04  0.10000000000E+02 0.  1.
</event>
<event>
 5    1  0.1147307E-008  0.3920926E+03  0.7957747E-01  0.3400137E+00
         13   -1    0    0    0    0  0.00000000000E+00  0.00000000000E+00  0.14999999963E+04  0.15000000000E+04  0.10566000000E+00 0. -1.
        994   -1    0    0    0    0 -0.00000000000E+00 -0.00000000000E+00  0.11368683772E-12  0.17120000000E+03  0.17120000000E+03 0.  0.
         13    1    1    2    0    0  0.32004811238E+02 -0.66542099025E+02  0.10490974024E+03  0.12828960849E+03  0.10566000000E+00 0. -1.
        994    1    1    2    0    0 -0.42846095450E+02  0.55307320912E+02  0.41948025756E+02  0.18964114666E+03  0.17120000000E+03 0.  0.
        998    1    1    2    0    0  0.10841284212E+02  0.11234778113E+02  0.13531422303E+04  0.13532692449E+04  0.10000000000E+02 0. -1.
</event>
<event>
 5    1  0.1147307E-008  0.3793579E+03  0.7957747E-01  0.3453959E+00
         13   -1    0    0    0    0  0.00000000000E+00  0.00000000000E+00  0.14999999963E+04  0.15000000000E+04  0.10566000000E+00 0. -1.
        994   -1    0    0    0    0 -0.00000000000E+00 -0.00000000000E+00  0.11368683772E-12  0.17120000000E+03  0.17120000000E+03 0.  0.
         13    1    1    2    0    0 -0.21229334828E+02 -0.12539452215E+02  0.64839647749E+02  0.69369399617E+02  0.10566000000E+00 0. -1.
        994    1    1    2    0    0  0.18095717606E+02  0.12778087618E+02  0.61033210812E+01  0.17273512974E+03  0.17120000000E+03 0.  0.
        998    1    1    2    0    0  0.31336172215E+01 -0.23863540330E+00  0.14290570274E+04  0.14290954706E+04  0.10000000000E+02 0. -1.
</event>
<event>
 5    1  0.1147307E-008  0.3835749E+03  0.7957747E-01  0.3435739E+00
         13   -1    0    0    0    0  0.00000000000E+00  0.00000000000E+00  0.14999999963E+04  0.15000000000E+04  0.10566000000E+00 0.  1.
        994   -1    0    0    0    0 -0.00000000000E+00 -0.00000000000E+00  0.11368683772E-12  0.17120000000E+03  0.17120000000E+03 0.  0.
         13    1    1    2    0    0 -0.11478677037E+01  0.11860934500E+02  0.28635236162E+02  0.31015919809E+02  0.10566000000E+00 0.  1.
        994    1    1    2    0    0  0.10572840312E+01 -0.17266702061E+02  0.33286651093E+01  0.17210397108E+03  0.17120000000E+03 0.  0.
        998    1    1    2    0    0  0.90583672455E-01  0.54057675609E+01  0.14680360950E+04  0.14680801091E+04  0.10000000000E+02 0.  1.
</event>
<event>
 5    1  0.1147307E-008  0.3797202E+03  0.7957747E-01  0.3452378E+00
         13   -1    0    0    0    0  0.00000000000E+00  0.00000000000E+00  0.14999999963E+04  0.15000000000E+04  0.10566000000E+00 0.  1.
        994   -1    0    0    0    0 -0.00000000000E+00 -0.00000000000E+00  0.11368683772E-12  0.17120000000E+03  0.17120000000E+03 0.  0.
         13    1    1    2    0    0  0.43528926357E+01  0.33377308688E+02  0.12881878610E+03  0.13314384411E+03  0.10566000000E+00 0.  1.
        994    1    1    2    0    0 -0.11113246005E+02 -0.21838964703E+02  0.62861461820E+01  0.17305895022E+03  0.17120000000E+03 0.  0.
        998    1    1    2    0    0  0.67603533695E+01 -0.11538343985E+02  0.13648950640E+04  0.13649972057E+04  0.10000000000E+02 0.  1.
</event>
<event>
 5    1  0.1147307E-008  0.3799451E+03  0.7957747E-01  0.3451398E+00
         13   -1    0    0    0    0  0.00000000000E+00  0.00000000000E+00  0.14999999963E+04  0.15000000000E+04  0.10566000000E+00 0. -1.
        994   -1    0    0    0    0 -0.00000000000E+00 -0.00000000000E+00  0.11368683772E-12  0.17120000000E+03  0.17120000000E+03 0.  0.
         13    1    1    2    0    0 -0.40652662876E+02 -0.21899272323E+02  0.22970779054E+03  0.23430300324E+03  0.10566000000E+00 0. -1.
        994    1    1    2    0    0  0.27871536544E+02  0.32759979754E+02  0.10371423731E+02  0.17682489998E+03  0.17120000000E+03 0.  0.
        998    1    1    2    0    0  0.12781126332E+02 -0.10860707432E+02  0.12599207820E+04  0.12600720968E+04  0.10000000000E+02 0. -1.
</event>
<event>
 5    1  0.1147307E-008  0.3800217E+03  0.7957747E-01  0.3451064E+00
         13   -1    0    0    0    0  0.00000000000E+00  0.00000000000E+00  0.14999999963E+04  0.15000000000E+04  0.10566000000E+00 0. -1.
        994   -1    0    0    0    0 -0.00000000000E+00 -0.00000000000E+00  0.11368683772E-12  0.17120000000E+03  0.17120000000E+03 0.  0.
         13    1    1    2    0    0 -0.33613180065E+02 -0.29643395534E+02  0.21310782443E+03  0.21776944866E+03  0.10566000000E+00 0. -1.
        994    1    1    2    0    0  0.32227113579E+02  0.28166530882E+02  0.10270198573E+02  0.17676780615E+03  0.17120000000E+03 0.  0.
        998    1    1    2    0    0  0.13860664857E+01  0.14768646519E+01  0.12766219733E+04  0.12766627452E+04  0.10000000000E+02 0.  0.
</event>
<event>
 5    1  0.1147307E-008  0.3849550E+03  0.7957747E-01  0.3429863E+00
         13   -1    0    0    0    0  0.00000000000E+00  0.00000000000E+00  0.14999999963E+04  0.15000000000E+04  0.10566000000E+00 0.  1.
        994   -1    0    0    0    0 -0.00000000000E+00 -0.00000000000E+00  0.11368683772E-12  0.17120000000E+03  0.17120000000E+03 0.  0.
         13    1    1    2    0    0 -0.11775014392E+01  0.11764915461E+02  0.41052400532E+02  0.42721311999E+02  0.10566000000E+00 0.  1.
        994    1    1    2    0    0  0.80926599986E+01 -0.12574977695E+02  0.23883283225E+01  0.17186845354E+03  0.17120000000E+03 0.  0.
        998    1    1    2    0    0 -0.69151585594E+01  0.81006223412E+00  0.14565592674E+04  0.14566102345E+04  0.10000000000E+02 0.  1.
</event>
<event>
 5    1  0.1147307E-008  0.3741219E+03  0.7957747E-01  0.3477159E+00
         13   -1    0    0    0    0  0.00000000000E+00  0.00000000000E+00  0.14999999963E+04  0.15000000000E+04  0.10566000000E+00 0.  1.
        994   -1    0    0    0    0 -0.00000000000E+00 -0.00000000000E+00  0.11368683772E-12  0.17120000000E+03  0.17120000000E+03 0.  0.
         13    1    1    2    0    0 -0.16858766319E+02 -0.22249032580E+02  0.50061584667E+02  0.57318503783E+02  0.10566000000E+00 0.  1.
        994    1    1    2    0    0  0.43865528397E+02  0.39368392098E+01  0.13772240263E+02  0.17730989224E+03  0.17120000000E+03 0.  0.
        998    1    1    2    0    0 -0.27006762078E+02  0.18312193370E+02  0.14361661713E+04  0.14365716040E+04  0.10000000000E+02 0.  1.
</event>
<event>
 5    1  0.1147307E-008  0.3830812E+03  0.7957747E-01  0.3437851E+00
         13   -1    0    0    0    0  0.00000000000E+00  0.00000000000E+00  0.14999999963E+04  0.15000000000E+04  0.10566000000E+00 0. -1.
        994   -1    0    0    0    0 -0.00000000000E+00 -0.00000000000E+00  0.11368683772E-12  0.17120000000E+03  0.17120000000E+03 0.  0.
         13    1    1    2    0    0 -0.19750529779E+02  0.18775230961E+02  0.12237396947E+03  0.12537141737E+03  0.10566000000E+00 0. -1.
        994    1    1    2    0    0  0.32675212383E+02 -0.22369722827E+02  0.77923085117E+01  0.17589267772E+03  0.17120000000E+03 0.  0.
        998    1    1    2    0    0 -0.12924682604E+02  0.35944918661E+01  0.13698337183E+04  0.13699359049E+04  0.10000000000E+02 0. -1.
</event>
<event>
 5    1  0.1147307E-008  0.3705653E+03  0.7957747E-01  0.3493297E+00
         13   -1    0    0    0    0  0.00000000000E+00  0.00000000000E+00  0.14999999963E+04  0.15000000000E+04  0.10566000000E+00 0.  1.
        994   -1    0    0    0    0 -0.00000000000E+00 -0.00000000000E+00  0.11368683772E-12  0.17120000000E+03  0.17120000000E+03 0.  0.
         13    1    1    2    0    0 -0.29790899714E+02 -0.39938173740E+02  0.13563125727E+03  0.14449361418E+03  0.10566000000E+00 0.  1.
        994    1    1    2    0    0  0.22199161319E+02  0.20431005940E+02  0.12121474573E+02  0.17426014723E+03  0.17120000000E+03 0.  0.
        998    1    1    2    0    0  0.75917383950E+01  0.19507167800E+02  0.13522472644E+04  0.13524462386E+04  0.10000000000E+02 0.  1.
</event>
<event>
 5    1  0.1147307E-008  0.4118082E+03  0.7957747E-01  0.3323368E+00
         13   -1    0    0    0    0  0.00000000000E+00  0.00000000000E+00  0.14999999963E+04  0.15000000000E+04  0.10566000000E+00 0. -1.
        994   -1    0    0    0    0 -0.00000000000E+00 -0.00000000000E+00  0.11368683772E-12  0.17120000000E+03  0.17120000000E+03 0.  0.
         13    1    1    2    0    0  0.32589364623E+02  0.57390884673E+02  0.58690797042E+02  0.88319879708E+02  0.10566000000E+00 0. -1.
        994    1    1    2    0    0  0.50239289374E+02 -0.17469490105E+02  0.46764192351E+02  0.18527141973E+03  0.17120000000E+03 0.  0.
        998    1    1    2    0    0 -0.82828653997E+02 -0.39921394569E+02  0.13945450069E+04  0.13976087006E+04  0.10000000000E+02 0. -1.
</event>
<event>
 5    1  0.1147307E-008  0.3711003E+03  0.7957747E-01  0.3490849E+00
         13   -1    0    0    0    0  0.00000000000E+00  0.00000000000E+00  0.14999999963E+04  0.15000000000E+04  0.10566000000E+00 0.  1.
        994   -1    0    0    0    0 -0.00000000000E+00 -0.00000000000E+00  0.11368683772E-12  0.17120000000E+03  0.17120000000E+03 0.  0.
         13    1    1    2    0    0 -0.35658487366E+02  0.61476616794E+01  0.53101726984E+02  0.64258276028E+02  0.10566000000E+00 0.  1.
        994    1    1    2    0    0  0.23266739045E+02  0.17409636168E+02  0.14491043577E+02  0.17425230822E+03  0.17120000000E+03 0.  0.
        998    1    1    2    0    0  0.12391748322E+02 -0.23557297847E+02  0.14324072257E+04  0.14326894157E+04  0.10000000000E+02 0.  1.
</event>
<event>
 5    1  0.1147307E-008  0.3855735E+03  0.7957747E-01  0.3427243E+00
         13   -1    0    0    0    0  0.00000000000E+00  0.00000000000E+00  0.14999999963E+04  0.15000000000E+04  0.10566000000E+00 0. -1.
        994   -1    0    0    0    0 -0.00000000000E+00 -0.00000000000E+00  0.11368683772E-12  0.17120000000E+03  0.17120000000E+03 0.  0.
         13    1    1    2    0    0 -0.26051239073E+01 -0.15644037922E+02  0.92947942384E+02  0.94291323835E+02  0.10566000000E+00 0. -1.
        994    1    1    2    0    0  0.16363386216E+01  0.11467025683E+02  0.17862009873E+01  0.17160070162E+03  0.17120000000E+03 0.  0.
        998    1    1    2    0    0  0.96878528570E+00  0.41770122385E+01  0.14052658529E+04  0.14053079745E+04  0.10000000000E+02 0. -1.
</event>
<event>
 5    1  0.1147307E-008  0.3830406E+03  0.7957747E-01  0.3438025E+00
         13   -1    0    0    0    0  0.00000000000E+00  0.00000000000E+00  0.14999999963E+04  0.15000000000E+04  0.10566000000E+00 0. -1.
        994   -1    0    0    0    0 -0.00000000000E+00 -0.00000000000E+00  0.11368683772E-12  0.17120000000E+03  0.17120000000E+03 0.  0.
         13    1    1    2    0    0 -0.18761573982E+02 -0.60612925730E+01  0.71341811023E+02  0.74016221803E+02  0.10566000000E+00 0. -1.
        994    1    1    2    0    0  0.16440789406E+02  0.11236431409E+02  0.39196308030E+01  0.17239884122E+03  0.17120000000E+03 0.  0.
        998    1    1    2    0    0  0.23207845763E+01 -0.51751388357E+01  0.14247385545E+04  0.14247849370E+04  0.10000000000E+02 0. -1.
</event>
<event>
 5    1  0.1147307E-008  0.3849327E+03  0.7957747E-01  0.3429958E+00
         13   -1    0    0    0    0  0.00000000000E+00  0.00000000000E+00  0.14999999963E+04  0.15000000000E+04  0.10566000000E+00 0. -1.
        994   -1    0    0    0    0 -0.00000000000E+00 -0.00000000000E+00  0.11368683772E-12  0.17120000000E+03  0.17120000000E+03 0.  0.
         13    1    1    2    0    0  0.60297631367E+01 -0.11649903331E+02  0.54436022869E+02  0.55994375083E+02  0.10566000000E+00 0. -1.
        994    1    1    2    0    0  0.80902777551E+01  0.39188941875E+01  0.19294381489E+01  0.17144670617E+03  0.17120000000E+03 0.  0.
        998    1    1    2    0    0 -0.14120040892E+02  0.77310091433E+01  0.14436345353E+04  0.14437589187E+04  0.10000000000E+02 0. -1.
</event>
<event>
 5    1  0.1147307E-008  0.2537880E+03  0.7957747E-01  0.4293472E+00
         13   -1    0    0    0    0  0.00000000000E+00  0.00000000000E+00  0.14999999963E+04  0.15000000000E+04  0.10566000000E+00 0. -1.
        994   -1    0    0    0    0 -0.00000000000E+00 -0.00000000000E+00  0.11368683772E-12  0.17120000000E+03  0.17120000000E+03 0.  0.
         13    1    1    2    0    0 -0.38085406335E+02 -0.17227609663E+03  0.43514893679E+03  0.46955740863E+03  0.10566000000E+00 0. -1.
        994    1    1    2    0    0  0.12773430629E+01  0.99795664636E+02  0.80505955428E+02  0.21389589792E+03  0.17120000000E+03 0.  0.
        998    1    1    2    0    0  0.36808063272E+02  0.72480431993E+02  0.98434510406E+03  0.98774669345E+03  0.10000000000E+02 0. -1.
</event>
<event>
 5    1  0.1147307E-008  0.3710369E+03  0.7957747E-01  0.3491139E+00
         13   -1    0    0    0    0  0.00000000000E+00  0.00000000000E+00  0.14999999963E+04  0.15000000000E+04  0.10566000000E+00 0. -1.
        994   -1    0    0    0    0 -0.00000000000E+00 -0.00000000000E+00  0.11368683772E-12  0.17120000000E+03  0.17120000000E+03 0.  0.
         13    1    1    2    0    0 -0.23435075589E+02  0.22781207502E+01  0.28652361090E+02  0.37085867417E+02  0.10566000000E+00 0. -1.
        994    1    1    2    0    0  0.89786558230E+01 -0.41840683346E+01  0.90662186581E+01  0.17172582511E+03  0.17120000000E+03 0.  0.
        998    1    1    2    0    0  0.14456419766E+02  0.19059475844E+01  0.14622814165E+04  0.14623883075E+04  0.10000000000E+02 0. -1.
</event>
<event>
 5    1  0.1147307E-008  0.3760907E+03  0.7957747E-01  0.3468359E+00
         13   -1    0    0    0    0  0.00000000000E+00  0.00000000000E+00  0.14999999963E+04  0.15000000000E+04  0.10566000000E+00 0.  1.
        994   -1    0    0    0    0 -0.00000000000E+00 -0.00000000000E+00  0.11368683772E-12  0.17120000000E+03  0.17120000000E+03 0.  0.
         13    1    1    2    0    0  0.51408555530E+01  0.17048181575E+02  0.22409076144E+02  0.28622486763E+02  0.10566000000E+00 0.  1.
        994    1    1    2    0    0 -0.13949445980E+01 -0.28791137635E+02  0.89388053093E+01  0.17383963218E+03  0.17120000000E+03 0.  0.
        998    1    1    2    0    0 -0.37459109550E+01  0.11742956060E+02  0.14686521148E+04  0.14687378811E+04  0.10000000000E+02 0.  1.
</event>
<event>
 5    1  0.1147307E-008  0.3836748E+03  0.7957747E-01  0.3435312E+00
         13   -1    0    0    0    0  0.00000000000E+00  0.00000000000E+00  0.14999999963E+04  0.15000000000E+04  0.10566000000E+00 0.  1.
        994   -1    0    0    0    0 -0.00000000000E+00 -0.00000000000E+00  0.11368683772E-12  0.17120000000E+03  0.17120000000E+03 0.  0.
         13    1    1    2    0    0  0.10406562612E+02 -0.15487118312E+02  0.77070234906E+02  0.79296782100E+02  0.10566000000E+00 0.  1.
        994    1    1    2    0    0 -0.60261669492E+01  0.61395241653E+01  0.25339941557E+01  0.17143473852E+03  0.17120000000E+03 0.  0.
        998    1    1    2    0    0 -0.43803956626E+01  0.93475941463E+01  0.14203957672E+04  0.14204684794E+04  0.10000000000E+02 0.  1.
</event>
<event>
 5    1  0.1147307E-008  0.3716550E+03  0.7957747E-01  0.3488319E+00
         13   -1    0    0    0    0  0.00000000000E+00  0.00000000000E+00  0.14999999963E+04  0.15000000000E+04  0.10566000000E+00 0.  1.
        994   -1    0    0    0    0 -0.00000000000E+00 -0.00000000000E+00  0.11368683772E-12  0.17120000000E+03  0.17120000000E+03 0.  0.
         13    1    1    2    0    0 -0.28826712154E+02  0.36461846338E+02  0.90194363275E+02  0.10146664429E+03  0.10566000000E+00 0.  1.
        994    1    1    2    0    0  0.18635647455E+01 -0.24218615500E+02  0.13894047188E+02  0.17347189616E+03  0.17120000000E+03 0.  0.
        998    1    1    2    0    0  0.26963147408E+02 -0.12243230838E+02  0.13959115858E+04  0.13962614596E+04  0.10000000000E+02 0.  1.
</event>
<event>
 5    1  0.1147307E-008  0.3818008E+03  0.7957747E-01  0.3443355E+00
         13   -1    0    0    0    0  0.00000000000E+00  0.00000000000E+00  0.14999999963E+04  0.15000000000E+04  0.10566000000E+00 0.  1.
        994   -1    0    0    0    0 -0.00000000000E+00 -0.00000000000E+00  0.11368683772E-12  0.17120000000E+03  0.17120000000E+03 0.  0.
         13    1    1    2    0    0  0.15828097194E+02 -0.57903795955E+01  0.43358990823E+02  0.46519570138E+02  0.10566000000E+00 0.  1.
        994    1    1    2    0    0 -0.55184216746E+01  0.91779013729E+01  0.36080731526E+01  0.17157256495E+03  0.17120000000E+03 0.  0.
        998    1    1    2    0    0 -0.10309675519E+02 -0.33875217774E+01  0.14530329323E+04  0.14531078649E+04  0.10000000000E+02 0.  1.
</event>
<event>
 5    1  0.1147307E-008  0.3796354E+03  0.7957747E-01  0.3452747E+00
         13   -1    0    0    0    0  0.00000000000E+00  0.00000000000E+00  0.14999999963E+04  0.15000000000E+04  0.10566000000E+00 0.  1.
        994   -1    0    0    0    0 -0.00000000000E+00 -0.00000000000E+00  0.11368683772E-12  0.17120000000E+03  0.17120000000E+03 0.  0.
         13    1    1    2    0    0  0.25127512052E+02 -0.13713340553E+02  0.18103335250E+02  0.33870185743E+02  0.10566000000E+00 0.  1.
        994    1    1    2    0    0 -0.29295807992E+02  0.18416056968E+02  0.20472330275E+02  0.17585776021E+03  0.17120000000E+03 0.  0.
        998    1    1    2    0    0  0.41682959394E+01 -0.47027164152E+01  0.14614243308E+04  0.14614720540E+04  0.10000000000E+02 0.  1.
</event>
<event>
 5    1  0.1147307E-008  0.3696800E+03  0.7957747E-01  0.3497363E+00
         13   -1    0    0    0    0  0.00000000000E+00  0.00000000000E+00  0.14999999963E+04  0.15000000000E+04  0.10566000000E+00 0. -1.
        994   -1    0    0    0    0 -0.00000000000E+00 -0.00000000000E+00  0.11368683772E-12  0.17120000000E+03  0.17120000000E+03 0.  0.
         13    1    1    2    0    0  0.24353695228E+02  0.16851784017E+02  0.40904769082E+02  0.50500459340E+02  0.10566000000E+00 0. -1.
        994    1    1    2    0    0 -0.25138052314E+02 -0.27446824004E+02  0.14246642600E+02  0.17577729275E+03  0.17120000000E+03 0.  0.
        998    1    1    2    0    0  0.78435708596E+00  0.10595039986E+02  0.14448485846E+04  0.14449222479E+04  0.10000000000E+02 0. -1.
</event>
<event>
 5    1  0.1147307E-008  0.3845742E+03  0.7957747E-01  0.3431480E+00
         13   -1    0    0    0    0  0.00000000000E+00  0.00000000000E+00  0.14999999963E+04  0.15000000000E+04  0.10566000000E+00 0. -1.
        994   -1    0    0    0    0 -0.00000000000E+00 -0.00000000000E+00  0.11368683772E-12  0.17120000000E+03  0.17120000000E+03 0.  0.
         13    1    1    2    0    0  0.31103731294E+01  0.11154512504E+02  0.37974488725E+02  0.39701014196E+02  0.10566000000E+00 0. -1.
        994    1    1    2    0    0  0.13476761493E+02 -0.59560952578E+00  0.24412170639E+01  0.17174800550E+03  0.17120000000E+03 0.  0.
        998    1    1    2    0    0 -0.16587134623E+02 -0.10558902978E+02  0.14595842905E+04  0.14597509803E+04  0.10000000000E+02 0. -1.
</event>
<event>
 5    1  0.1147307E-008  0.3809139E+03  0.7957747E-01  0.3447189E+00
         13   -1    0    0    0    0  0.00000000000E+00  0.00000000000E+00  0.14999999963E+04  0.15000000000E+04  0.10566000000E+00 0.  1.
        994   -1    0    0    0    0 -0.00000000000E+00 -0.00000000000E+00  0.11368683772E-12  0.17120000000E+03  0.17120000000E+03 0.  0.
         13    1    1    2    0    0  0.69437552565E+01  0.34118206169E+02  0.15070651278E+03  0.15467621629E+03  0.10566000000E+00 0.  1.
        994    1    1    2    0    0 -0.18078928149E+01 -0.33438393693E+02  0.74190124390E+01  0.17460205152E+03  0.17120000000E+03 0.  0.
        998    1    1    2    0    0 -0.51358624416E+01 -0.67981247647E+00  0.13418744711E+04  0.13419217322E+04  0.10000000000E+02 0.  1.
</event>
<event>
 5    1  0.1147307E-008  0.2826122E+03  0.7957747E-01  0.4028545E+00
         13   -1    0    0    0    0  0.00000000000E+00  0.00000000000E+00  0.14999999963E+04  0.15000000000E+04  0.10566000000E+00 0.  1.
        994   -1    0    0    0    0 -0.00000000000E+00 -0.00000000000E+00  0.11368683772E-12  0.17120000000E+03  0.17120000000E+03 0.  0.
         13    1    1    2    0    0 -0.90083039086E+02 -0.17674700295E+03  0.65304615464E+03  0.68251281910E+03  0.10566000000E+00 0.  1.
        994    1    1    2    0    0  0.65053578090E+02  0.78091978005E+02  0.79393369029E+02  0.21434335095E+03  0.17120000000E+03 0.  0.
        998    1    1    2    0    0  0.25029460996E+02  0.98655024949E+02  0.76756047261E+03  0.77434382995E+03  0.10000000000E+02 0.  1.
</event>
<event>
 5    1  0.1147307E-008  0.3846818E+03  0.7957747E-01  0.3431023E+00
         13   -1    0    0    0    0  0.00000000000E+00  0.00000000000E+00  0.14999999963E+04  0.15000000000E+04  0.10566000000E+00 0.  1.
        994   -1    0    0    0    0 -0.00000000000E+00 -0.00000000000E+00  0.11368683772E-12  0.17120000000E+03  0.17120000000E+03 0.  0.
         13    1    1    2    0    0  0.75151970514E+01  0.14304743573E+02  0.71599484927E+02  0.73400281207E+02  0.10566000000E+00 0.  1.
        994    1    1    2    0    0 -0.92374588831E+01 -0.10206111993E+02  0.24122660099E+01  0.17176948040E+03  0.17120000000E+03 0.  0.
        998    1    1    2    0    0  0.17222618317E+01 -0.40986315795E+01  0.14259882453E+04  0.14260302384E+04  0.10000000000E+02 0.  1.
</event>
<event>
 5    1  0.1147307E-008  0.3859779E+03  0.7957747E-01  0.3425535E+00
         13   -1    0    0    0    0  0.00000000000E+00  0.00000000000E+00  0.14999999963E+04  0.15000000000E+04  0.10566000000E+00 0.  1.
        994   -1    0    0    0    0 -0.00000000000E+00 -0.00000000000E+00  0.11368683772E-12  0.17120000000E+03  0.17120000000E+03 0.  0.
         13    1    1    2    0    0  0.19251151263E+03  0.11138205406E+03  0.11721614152E+04  0.11930754540E+04  0.10566000000E+00 0.  1.
        994    1    1    2    0    0 -0.20051997682E+03 -0.11360819103E+03  0.20062900470E+03  0.35025208022E+03  0.17120000000E+03 0.  0.
        998    1    1    2    0    0  0.80084641964E+01  0.22261369731E+01  0.12720957635E+03  0.12787246576E+03  0.10000000000E+02 0. -1.
</event>
<event>
 5    1  0.1147307E-008  0.3823845E+03  0.7957747E-01  0.3440841E+00
         13   -1    0    0    0    0  0.00000000000E+00  0.00000000000E+00  0.14999999963E+04  0.15000000000E+04  0.10566000000E+00 0. -1.
        994   -1    0    0    0    0 -0.00000000000E+00 -0.00000000000E+00  0.11368683772E-12  0.17120000000E+03  0.17120000000E+03 0.  0.
         13    1    1    2    0    0  0.27621617013E+02 -0.72238498343E+01  0.17241280129E+03  0.17476075917E+03  0.10566000000E+00 0. -1.
        994    1    1    2    0    0  0.81500786716E+01 -0.75437958928E+01  0.33434648836E+01  0.17159239900E+03  0.17120000000E+03 0.  0.
        998    1    1    2    0    0 -0.35771695685E+02  0.14767645727E+02  0.13242437301E+04  0.13248468418E+04  0.10000000000E+02 0. -1.
</event>
<event>
 5    1  0.1147307E-008  0.3755983E+03  0.7957747E-01  0.3470551E+00
         13   -1    0    0    0    0  0.00000000000E+00  0.00000000000E+00  0.14999999963E+04  0.15000000000E+04  0.10566000000E+00 0. -1.
        994   -1    0    0    0    0 -0.00000000000E+00 -0.00000000000E+00  0.11368683772E-12  0.17120000000E+03  0.17120000000E+03 0.  0.
         13    1    1    2    0    0  0.48033396986E+02  0.29495739413E+01  0.20700772185E+03  0.21252791648E+03  0.10566000000E+00 0. -1.
        994    1    1    2    0    0 -0.63029771896E+01  0.10260225986E+02  0.68638294336E+01  0.17176015811E+03  0.17120000000E+03 0.  0.
        998    1    1    2    0    0 -0.41730419797E+02 -0.13209799927E+02  0.12861284450E+04  0.12869119254E+04  0.10000000000E+02 0. -1.
</event>
<event>
 5    1  0.1147307E-008  0.3790775E+03  0.7957747E-01  0.3455185E+00
         13   -1    0    0    0    0  0.00000000000E+00  0.00000000000E+00  0.14999999963E+04  0.15000000000E+04  0.10566000000E+00 0. -1.
        994   -1    0    0    0    0 -0.00000000000E+00 -0.00000000000E+00  0.11368683772E-12  0.17120000000E+03  0.17120000000E+03 0.  0.
         13    1    1    2    0    0  0.39907555217E+02 -0.21319830951E+02  0.22185582891E+03  0.22642254335E+03  0.10566000000E+00 0. -1.
        994    1    1    2    0    0 -0.16948367402E+02  0.22718821163E+02  0.72980826418E+01  0.17368389103E+03  0.17120000000E+03 0.  0.
        998    1    1    2    0    0 -0.22959187814E+02 -0.13989902112E+01  0.12708460847E+04  0.12710935656E+04  0.10000000000E+02 0. -1.
</event>
<event>
 5    1  0.1147307E-008  0.3853638E+03  0.7957747E-01  0.3428131E+00
         13   -1    0    0    0    0  0.00000000000E+00  0.00000000000E+00  0.14999999963E+04  0.15000000000E+04  0.10566000000E+00 0.  1.
        994   -1    0    0    0    0 -0.00000000000E+00 -0.00000000000E+00  0.11368683772E-12  0.17120000000E+03  0.17120000000E+03 0.  0.
         13    1    1    2    0    0 -0.83488725057E+01  0.71165892857E+01  0.44267235116E+02  0.45606455508E+02  0.10566000000E+00 0.  1.
        994    1    1    2    0    0  0.17957185420E+01  0.78397991716E+01  0.16621621127E+01  0.17139687815E+03  0.17120000000E+03 0.  0.
        998    1    1    2    0    0  0.65531539638E+01 -0.14956388457E+02  0.14540705990E+04  0.14541966663E+04  0.10000000000E+02 0.  1.
</event>
<event>
 5    1  0.1147307E-008  0.3848474E+03  0.7957747E-01  0.3430320E+00
         13   -1    0    0    0    0  0.00000000000E+00  0.00000000000E+00  0.14999999963E+04  0.15000000000E+04  0.10566000000E+00 0.  1.
        994   -1    0    0    0    0 -0.00000000000E+00 -0.00000000000E+00  0.11368683772E-12  0.17120000000E+03  0.17120000000E+03 0.  0.
         13    1    1    2    0    0 -0.41535145750E+01 -0.17163006682E+02  0.88978052189E+02  0.90713424679E+02  0.10566000000E+00 0.  1.
        994    1    1    2    0    0  0.40265797878E+01  0.14464191121E+02  0.24480003211E+01  0.17187454400E+03  0.17120000000E+03 0.  0.
        998    1    1    2    0    0  0.12693478721E+00  0.26988155610E+01  0.14085739438E+04  0.14086120313E+04  0.10000000000E+02 0.  1.
</event>
<event>
 5    1  0.1147307E-008  0.3835675E+03  0.7957747E-01  0.3435771E+00
         13   -1    0    0    0    0  0.00000000000E+00  0.00000000000E+00  0.14999999963E+04  0.15000000000E+04  0.10566000000E+00 0. -1.
        994   -1    0    0    0    0 -0.00000000000E+00 -0.00000000000E+00  0.11368683772E-12  0.17120000000E+03  0.17120000000E+03 0.  0.
         13    1    1    2    0    0 -0.10544027910E+02  0.15750239713E+02  0.72282782635E+02  0.74726557562E+02  0.10566000000E+00 0. -1.
        994    1    1    2    0    0  0.12738352945E+02 -0.17115548777E+02  0.38484896828E+01  0.17256725796E+03  0.17120000000E+03 0.  0.
        998    1    1    2    0    0 -0.21943250351E+01  0.13653090638E+01  0.14238687240E+04  0.14239061845E+04  0.10000000000E+02 0. -1.
</event>
<event>
 5    1  0.1147307E-008  0.3814330E+03  0.7957747E-01  0.3444942E+00
         13   -1    0    0    0    0  0.00000000000E+00  0.00000000000E+00  0.14999999963E+04  0.15000000000E+04  0.10566000000E+00 0.  1.
        994   -1    0    0    0    0 -0.00000000000E+00 -0.00000000000E+00  0.11368683772E-12  0.17120000000E+03  0.17120000000E+03 0.  0.
         13    1    1    2    0    0 -0.17037224380E+02 -0.23462928305E+02  0.12238779747E+03  0.12577583294E+03  0.10566000000E+00 0.  1.
        994    1    1    2    0    0  0.32954310294E+02 -0.17950897565E+01  0.70439453952E+01  0.17449431533E+03  0.17120000000E+03 0.  0.
        998    1    1    2    0    0 -0.15917085914E+02  0.25258018062E+02  0.13705682534E+04  0.13709298517E+04  0.10000000000E+02 0.  1.
</event>
<event>
 5    1  0.1147307E-008  0.3797127E+03  0.7957747E-01  0.3452410E+00
         13   -1    0    0    0    0  0.00000000000E+00  0.00000000000E+00  0.14999999963E+04  0.15000000000E+04  0.10566000000E+00 0. -1.
        994   -1    0    0    0    0 -0.00000000000E+00 -0.00000000000E+00  0.11368683772E-12  0.17120000000E+03  0.17120000000E+03 0.  0.
         13    1    1    2    0    0  0.34695753966E+02 -0.10359401673E+02  0.19916165634E+03  0.20242650288E+03  0.10566000000E+00 0. -1.
        994    1    1    2    0    0  0.13115857752E+02 -0.69127653631E+01  0.50140825424E+01  0.17191391181E+03  0.17120000000E+03 0.  0.
        998    1    1    2    0    0 -0.47811611719E+02  0.17272167036E+02  0.12958242574E+04  0.12968595853E+04  0.10000000000E+02 0. -1.
</event>
<event>
 5    1  0.1147307E-008  0.3750658E+03  0.7957747E-01  0.3472928E+00
         13   -1    0    0    0    0  0.00000000000E+00  0.00000000000E+00  0.14999999963E+04  0.15000000000E+04  0.10566000000E+00 0. -1.
        994   -1    0    0    0    0 -0.00000000000E+00 -0.00000000000E+00  0.11368683772E-12  0.17120000000E+03  0.17120000000E+03 0.  0.
         13    1    1    2    0    0 -0.14477967863E+01 -0.49796177618E+02  0.20720288445E+03  0.21310748909E+03  0.10566000000E+00 0. -1.
        994    1    1    2    0    0 -0.25441248791E+01  0.10324368461E+02  0.70292573180E+01  0.17167386410E+03  0.17120000000E+03 0.  0.
        998    1    1    2    0    0  0.39919216654E+01  0.39471809157E+02  0.12857678545E+04  0.12864186468E+04  0.10000000000E+02 0. -1.
</event>
<event>
 5    1  0.1147307E-008  0.3826424E+03  0.7957747E-01  0.3439733E+00
         13   -1    0    0    0    0  0.00000000000E+00  0.00000000000E+00  0.14999999963E+04  0.15000000000E+04  0.10566000000E+00 0.  1.
        994   -1    0    0    0    0 -0.00000000000E+00 -0.00000000000E+00  0.11368683772E-12  0.17120000000E+03  0.17120000000E+03 0.  0.
         13    1    1    2    0    0 -0.24121966875E+02 -0.22554308671E+02  0.17604554504E+03  0.17911619474E+03  0.10566000000E+00 0.  1.
        994    1    1    2    0    0  0.22389481440E+02  0.21510541531E+02  0.60063990717E+01  0.17409626391E+03  0.17120000000E+03 0.  0.
        998    1    1    2    0    0  0.17324854349E+01  0.10437671398E+01  0.13179480522E+04  0.13179875414E+04  0.10000000000E+02 0.  0.
</event>
<event>
 5    1  0.1147307E-008  0.3833024E+03  0.7957747E-01  0.3436904E+00
         13   -1    0    0    0    0  0.00000000000E+00  0.00000000000E+00  0.14999999963E+04  0.15000000000E+04  0.10566000000E+00 0. -1.
        994   -1    0    0    0    0 -0.00000000000E+00 -0.00000000000E+00  0.11368683772E-12  0.17120000000E+03  0.17120000000E+03 0.  0.
         13    1    1    2    0    0 -0.24341187503E+02  0.11786222503E+02  0.14754502428E+03  0.15000317931E+03  0.10566000000E+00 0. -1.
        994    1    1    2    0    0  0.15178626840E+02 -0.49275486465E+01  0.33179412644E+01  0.17197418464E+03  0.17120000000E+03 0.  0.
        998    1    1    2    0    0  0.91625606626E+01 -0.68586738567E+01  0.13491370307E+04  0.13492226360E+04  0.10000000000E+02 0. -1.
</event>
<event>
 5    1  0.1147307E-008  0.3793563E+03  0.7957747E-01  0.3453966E+00
         13   -1    0    0    0    0  0.00000000000E+00  0.00000000000E+00  0.14999999963E+04  0.15000000000E+04  0.10566000000E+00 0.  1.
        994   -1    0    0    0    0 -0.00000000000E+00 -0.00000000000E+00  0.11368683772E-12  0.17120000000E+03  0.17120000000E+03 0.  0.
         13    1    1    2    0    0  0.18951324438E+02 -0.10036641052E+02  0.53084946087E+02  0.57253030720E+02  0.10566000000E+00 0.  1.
        994    1    1    2    0    0 -0.41657930568E+01 -0.13253486663E+02  0.51052711587E+01  0.17183862352E+03  0.17120000000E+03 0.  0.
        998    1    1    2    0    0 -0.14785531382E+02  0.23290127715E+02  0.14418097790E+04  0.14421083458E+04  0.10000000000E+02 0.  1.
</event>
<event>
 5    1  0.1147307E-008  0.3740318E+03  0.7957747E-01  0.3477564E+00
         13   -1    0    0    0    0  0.00000000000E+00  0.00000000000E+00  0.14999999963E+04  0.15000000000E+04  0.10566000000E+00 0.  1.
        994   -1    0    0    0    0 -0.00000000000E+00 -0.00000000000E+00  0.11368683772E-12  0.17120000000E+03  0.17120000000E+03 0.  0.
         13    1    1    2    0    0  0.15074690127E+01 -0.12765383975E+02  0.83540191669E+01  0.15330632444E+02  0.10566000000E+00 0.  1.
        994    1    1    2    0    0 -0.39983901955E+01  0.40777309452E+01  0.72880033405E+01  0.17145019687E+03  0.17120000000E+03 0.  0.
        998    1    1    2    0    0  0.24909211828E+01  0.86876530302E+01  0.14843579738E+04  0.14844191707E+04  0.10000000000E+02 0.  1.
</event>
<event>
 5    1  0.1147307E-008  0.3727426E+03  0.7957747E-01  0.3483381E+00
         13   -1    0    0    0    0  0.00000000000E+00  0.00000000000E+00  0.14999999963E+04  0.15000000000E+04  0.10566000000E+00 0. -1.
        994   -1    0    0    0    0 -0.00000000000E+00 -0.00000000000E+00  0.11368683772E-12  0.17120000000E+03  0.17120000000E+03 0.  0.
         13    1    1    2    0    0  0.63139323681E+02 -0.24728214678E+02  0.37937790867E+03  0.38539027952E+03  0.10566000000E+00 0. -1.
        994    1    1    2    0    0 -0.43988896301E+01  0.99777989893E+01  0.82499478336E+01  0.17174518433E+03  0.17120000000E+03 0.  0.
        998    1    1    2    0    0 -0.58740434051E+02  0.14750415688E+02  0.11123721398E+04  0.11140645361E+04  0.10000000000E+02 0. -1.
</event>
<event>
 5    1  0.1147307E-008  0.3803829E+03  0.7957747E-01  0.3449493E+00
         13   -1    0    0    0    0  0.00000000000E+00  0.00000000000E+00  0.14999999963E+04  0.15000000000E+04  0.10566000000E+00 0.  1.
        994   -1    0    0    0    0 -0.00000000000E+00 -0.00000000000E+00  0.11368683772E-12  0.17120000000E+03  0.17120000000E+03 0.  0.
         13    1    1    2    0    0  0.33997178053E+02  0.30596823147E+02  0.27488976654E+03  0.27866892295E+03  0.10566000000E+00 0.  1.
        994    1    1    2    0    0 -0.15095832621E+02 -0.15721356522E+02  0.55276278246E+01  0.17267032137E+03  0.17120000000E+03 0.  0.
        998    1    1    2    0    0 -0.18901345432E+02 -0.14875466625E+02  0.12195826019E+04  0.12198607557E+04  0.10000000000E+02 0.  1.
</event>
<event>
 5    1  0.1147307E-008  0.3688460E+03  0.7957747E-01  0.3501211E+00
         13   -1    0    0    0    0  0.00000000000E+00  0.00000000000E+00  0.14999999963E+04  0.15000000000E+04  0.10566000000E+00 0. -1.
        994   -1    0    0    0    0 -0.00000000000E+00 -0.00000000000E+00  0.11368683772E-12  0.17120000000E+03  0.17120000000E+03 0.  0.
         13    1    1    2    0    0  0.13838727711E+03 -0.43361374801E+02  0.63858796537E+03  0.65484795790E+03  0.10566000000E+00 0. -1.
        994    1    1    2    0    0 -0.11725330505E+03  0.73625923215E+02  0.80391448445E+02  0.23439568916E+03  0.17120000000E+03 0.  0.
        998    1    1    2    0    0 -0.21133972067E+02 -0.30264548415E+02  0.78102058247E+03  0.78195635294E+03  0.10000000000E+02 0. -1.
</event>
<event>
 5    1  0.1147307E-008  0.3831758E+03  0.7957747E-01  0.3437446E+00
         13   -1    0    0    0    0  0.00000000000E+00  0.00000000000E+00  0.14999999963E+04  0.15000000000E+04  0.10566000000E+00 0.  1.
        994   -1    0    0    0    0 -0.00000000000E+00 -0.00000000000E+00  0.11368683772E-12  0.17120000000E+03  0.17120000000E+03 0.  0.
         13    1    1    2    0    0 -0.14287248060E+02 -0.11166159093E+02  0.64039446670E+02  0.66557272028E+02  0.10566000000E+00 0.  1.
        994    1    1    2    0    0  0.21031155446E+01  0.16627845532E+02  0.34683667092E+01  0.17205341586E+03  0.17120000000E+03 0.  0.
        998    1    1    2    0    0  0.12184132515E+02 -0.54616864399E+01  0.14324921829E+04  0.14325893121E+04  0.10000000000E+02 0.  1.
</event>
<event>
 5    1  0.1147307E-008  0.3692852E+03  0.7957747E-01  0.3499182E+00
         13   -1    0    0    0    0  0.00000000000E+00  0.00000000000E+00  0.14999999963E+04  0.15000000000E+04  0.10566000000E+00 0.  1.
        994   -1    0    0    0    0 -0.00000000000E+00 -0.00000000000E+00  0.11368683772E-12  0.17120000000E+03  0.17120000000E+03 0.  0.
         13    1    1    2    0    0 -0.86893369705E+02  0.13453917291E+02  0.30780750119E+03  0.32012018765E+03  0.10566000000E+00 0.  1.
        994    1    1    2    0    0  0.85225770813E+02 -0.53573664835E+02  0.45638102429E+02  0.20377891443E+03  0.17120000000E+03 0.  0.
        998    1    1    2    0    0  0.16675988914E+01  0.40119747544E+02  0.11465543927E+04  0.11473008979E+04  0.10000000000E+02 0.  1.
</event>
<event>
 5    1  0.1147307E-008  0.3838401E+03  0.7957747E-01  0.3434606E+00
         13   -1    0    0    0    0  0.00000000000E+00  0.00000000000E+00  0.14999999963E+04  0.15000000000E+04  0.10566000000E+00 0.  1.
        994   -1    0    0    0    0 -0.00000000000E+00 -0.00000000000E+00  0.11368683772E-12  0.17120000000E+03  0.17120000000E+03 0.  0.
         13    1    1    2    0    0 -0.14358598948E+02  0.14985618577E+02  0.94195775332E+02  0.96455136630E+02  0.10566000000E+00 0.  1.
        994    1    1    2    0    0  0.83617327033E+01 -0.16496883526E+02  0.33371022590E+01  0.17222845872E+03  0.17120000000E+03 0.  0.
        998    1    1    2    0    0  0.59968662443E+01  0.15112649486E+01  0.14024671187E+04  0.14025164047E+04  0.10000000000E+02 0.  1.
</event>
<event>
 5    1  0.1147307E-008  0.3804186E+03  0.7957747E-01  0.3449338E+00
         13   -1    0    0    0    0  0.00000000000E+00  0.00000000000E+00  0.14999999963E+04  0.15000000000E+04  0.10566000000E+00 0.  1.
        994   -1    0    0    0    0 -0.00000000000E+00 -0.00000000000E+00  0.11368683772E-12  0.17120000000E+03  0.17120000000E+03 0.  0.
         13    1    1    2    0    0 -0.35256503671E+02  0.36483689229E+01  0.16464467971E+03  0.16841678470E+03  0.10566000000E+00 0.  1.
        994    1    1    2    0    0  0.16679135641E+02  0.91464631608E+01  0.51308916934E+01  0.17232996664E+03  0.17120000000E+03 0.  0.
        998    1    1    2    0    0  0.18577368029E+02 -0.12794832084E+02  0.13302244249E+04  0.13304532487E+04  0.10000000000E+02 0.  1.
</event>
<event>
 5    1  0.1147307E-008  0.3801792E+03  0.7957747E-01  0.3450379E+00
         13   -1    0    0    0    0  0.00000000000E+00  0.00000000000E+00  0.14999999963E+04  0.15000000000E+04  0.10566000000E+00 0. -1.
        994   -1    0    0    0    0 -0.00000000000E+00 -0.00000000000E+00  0.11368683772E-12  0.17120000000E+03  0.17120000000E+03 0.  0.
         13    1    1    2    0    0 -0.49259104950E+01 -0.18711303435E+02  0.44377753680E+02  0.48412536147E+02  0.10566000000E+00 0. -1.
        994    1    1    2    0    0  0.37960347659E+01  0.14800913477E+02  0.48231405528E+01  0.17194818872E+03  0.17120000000E+03 0.  0.
        998    1    1    2    0    0  0.11298757291E+01  0.39103899576E+01  0.14507991020E+04  0.14508392751E+04  0.10000000000E+02 0. -1.
</event>
<event>
 5    1  0.1147307E-008  0.3778267E+03  0.7957747E-01  0.3460677E+00
         13   -1    0    0    0    0  0.00000000000E+00  0.00000000000E+00  0.14999999963E+04  0.15000000000E+04  0.10566000000E+00 0.  1.
        994   -1    0    0    0    0 -0.00000000000E+00 -0.00000000000E+00  0.11368683772E-12  0.17120000000E+03  0.17120000000E+03 0.  0.
         13    1    1    2    0    0  0.64301803754E+02  0.15942277772E+02  0.29693579199E+03  0.30423634549E+03  0.10566000000E+00 0.  1.
        994    1    1    2    0    0 -0.78602141900E+02 -0.18153774932E+02  0.27469922900E+02  0.19123779156E+03  0.17120000000E+03 0.  0.
        998    1    1    2    0    0  0.14300338146E+02  0.22114971603E+01  0.11755942814E+04  0.11757258630E+04  0.10000000000E+02 0.  1.
</event>
<event>
 5    1  0.1147307E-008  0.3759848E+03  0.7957747E-01  0.3468830E+00
         13   -1    0    0    0    0  0.00000000000E+00  0.00000000000E+00  0.14999999963E+04  0.15000000000E+04  0.10566000000E+00 0.  1.
        994   -1    0    0    0    0 -0.00000000000E+00 -0.00000000000E+00  0.11368683772E-12  0.17120000000E+03  0.17120000000E+03 0.  0.
         13    1    1    2    0    0 -0.25958210836E+01 -0.16749019774E+02  0.20666799011E+02  0.26728181679E+02  0.10566000000E+00 0.  1.
        994    1    1    2    0    0  0.84000194370E+01  0.10035669751E+02  0.67543647893E+01  0.17183229160E+03  0.17120000000E+03 0.  0.
        998    1    1    2    0    0 -0.58041983534E+01  0.67133500227E+01  0.14725788325E+04  0.14726395267E+04  0.10000000000E+02 0.  1.
</event>
<event>
 5    1  0.1147307E-008  0.3809268E+03  0.7957747E-01  0.3447133E+00
         13   -1    0    0    0    0  0.00000000000E+00  0.00000000000E+00  0.14999999963E+04  0.15000000000E+04  0.10566000000E+00 0. -1.
        994   -1    0    0    0    0 -0.00000000000E+00 -0.00000000000E+00  0.11368683772E-12  0.17120000000E+03  0.17120000000E+03 0.  0.
         13    1    1    2    0    0 -0.31786540470E+02 -0.99728330428E+01  0.18329497272E+03  0.18629787906E+03  0.10566000000E+00 0. -1.
        994    1    1    2    0    0 -0.57246792152E+01 -0.30361302496E+01  0.38060148886E+01  0.17136486159E+03  0.17120000000E+03 0.  0.
        998    1    1    2    0    0  0.37511219685E+02  0.13008963292E+02  0.13128990087E+04  0.13135372593E+04  0.10000000000E+02 0. -1.
</event>
<event>
 5    1  0.1147307E-008  0.4049975E+03  0.7957747E-01  0.3349049E+00
         13   -1    0    0    0    0  0.00000000000E+00  0.00000000000E+00  0.14999999963E+04  0.15000000000E+04  0.10566000000E+00 0.  1.
        994   -1    0    0    0    0 -0.00000000000E+00 -0.00000000000E+00  0.11368683772E-12  0.17120000000E+03  0.17120000000E+03 0.  0.
         13    1    1    2    0    0 -0.44868022757E+02 -0.60399606473E+02  0.78435440794E+02  0.10868938064E+03  0.10566000000E+00 0.  1.
        994    1    1    2    0    0  0.30305966623E+02  0.68550477349E+02  0.53620079772E+02  0.19442780797E+03  0.17120000000E+03 0.  0.
        998    1    1    2    0    0  0.14562056134E+02 -0.81508708757E+01  0.13679444757E+04  0.13680828114E+04  0.10000000000E+02 0.  1.
</event>
<event>
 5    1  0.1147307E-008  0.3840506E+03  0.7957747E-01  0.3433709E+00
         13   -1    0    0    0    0  0.00000000000E+00  0.00000000000E+00  0.14999999963E+04  0.15000000000E+04  0.10566000000E+00 0. -1.
        994   -1    0    0    0    0 -0.00000000000E+00 -0.00000000000E+00  0.11368683772E-12  0.17120000000E+03  0.17120000000E+03 0.  0.
         13    1    1    2    0    0  0.16097541713E+02  0.11152065054E+02  0.87151440494E+02  0.89324599906E+02  0.10566000000E+00 0. -1.
        994    1    1    2    0    0 -0.23445072049E+02  0.42549090596E+00  0.39181988517E+01  0.17284283245E+03  0.17120000000E+03 0.  0.
        998    1    1    2    0    0  0.73475303358E+01 -0.11577555960E+02  0.14089303569E+04  0.14090325676E+04  0.10000000000E+02 0. -1.
</event>
<event>
 5    1  0.1147307E-008  0.3758289E+03  0.7957747E-01  0.3469524E+00
         13   -1    0    0    0    0  0.00000000000E+00  0.00000000000E+00  0.14999999963E+04  0.15000000000E+04  0.10566000000E+00 0.  1.
        994   -1    0    0    0    0 -0.00000000000E+00 -0.00000000000E+00  0.11368683772E-12  0.17120000000E+03  0.17120000000E+03 0.  0.
         13    1    1    2    0    0  0.61712553553E+02  0.42042479775E+01  0.26256306552E+03  0.26975079148E+03  0.10566000000E+00 0.  1.
        994    1    1    2    0    0 -0.64106205359E+02  0.52415688584E+02  0.29863347387E+02  0.19250524536E+03  0.17120000000E+03 0.  0.
        998    1    1    2    0    0  0.23936518059E+01 -0.56619936562E+02  0.12075735834E+04  0.12089439632E+04  0.10000000000E+02 0.  1.
</event>
<event>
 5    1  0.1147307E-008  0.3806617E+03  0.7957747E-01  0.3448282E+00
         13   -1    0    0    0    0  0.00000000000E+00  0.00000000000E+00  0.14999999963E+04  0.15000000000E+04  0.10566000000E+00 0. -1.
        994   -1    0    0    0    0 -0.00000000000E+00 -0.00000000000E+00  0.11368683772E-12  0.17120000000E+03  0.17120000000E+03 0.  0.
         13    1    1    2    0    0  0.17150523823E+02  0.19242489308E+01  0.40577307259E+02  0.44095036340E+02  0.10566000000E+00 0. -1.
        994    1    1    2    0    0  0.75609863227E+01  0.10220738306E+02  0.43388062376E+01  0.17172622760E+03  0.17120000000E+03 0.  0.
        998    1    1    2    0    0 -0.24711510146E+02 -0.12144987237E+02  0.14550838828E+04  0.14553787361E+04  0.10000000000E+02 0. -1.
</event>
<event>
 5    1  0.1147307E-008  0.3733753E+03  0.7957747E-01  0.3480521E+00
         13   -1    0    0    0    0  0.00000000000E+00  0.00000000000E+00  0.14999999963E+04  0.15000000000E+04  0.10566000000E+00 0.  1.
        994   -1    0    0    0    0 -0.00000000000E+00 -0.00000000000E+00  0.11368683772E-12  0.17120000000E+03  0.17120000000E+03 0.  0.
         13    1    1    2    0    0 -0.79314286437E+01 -0.80780685376E+01  0.50829144819E+01  0.12410073944E+02  0.10566000000E+00 0.  1.
        994    1    1    2    0    0  0.80265015001E+01  0.17598409255E+01  0.77462437252E+01  0.17157204335E+03  0.17120000000E+03 0.  0.
        998    1    1    2    0    0 -0.95072856349E-01  0.63182276122E+01  0.14871708381E+04  0.14872178827E+04  0.10000000000E+02 0.  1.
</event>
<event>
 5    1  0.1147307E-008  0.3692568E+03  0.7957747E-01  0.3499313E+00
         13   -1    0    0    0    0  0.00000000000E+00  0.00000000000E+00  0.14999999963E+04  0.15000000000E+04  0.10566000000E+00 0. -1.
        994   -1    0    0    0    0 -0.00000000000E+00 -0.00000000000E+00  0.11368683772E-12  0.17120000000E+03  0.17120000000E+03 0.  0.
         13    1    1    2    0    0  0.86239779577E+02 -0.59909219923E+02  0.39718651966E+03  0.41083276011E+03  0.10566000000E+00 0. -1.
        994    1    1    2    0    0 -0.86270596764E+02  0.47437334148E+02  0.45153248093E+02  0.20258620968E+03  0.17120000000E+03 0.  0.
        998    1    1    2    0    0  0.30817187003E-01  0.12471885775E+02  0.10576602285E+04  0.10577810302E+04  0.10000000000E+02 0. -1.
</event>
<event>
 5    1  0.1147307E-008  0.3814787E+03  0.7957747E-01  0.3444745E+00
         13   -1    0    0    0    0  0.00000000000E+00  0.00000000000E+00  0.14999999963E+04  0.15000000000E+04  0.10566000000E+00 0.  1.
        994   -1    0    0    0    0 -0.00000000000E+00 -0.00000000000E+00  0.11368683772E-12  0.17120000000E+03  0.17120000000E+03 0.  0.
         13    1    1    2    0    0  0.12100918586E+02  0.18248083737E+02  0.73518869617E+02  0.76710234940E+02  0.10566000000E+00 0.  1.
        994    1    1    2    0    0 -0.92537190500E+01  0.29446169291E+01  0.37023329600E+01  0.17151515780E+03  0.17120000000E+03 0.  0.
        998    1    1    2    0    0 -0.28471995358E+01 -0.21192700666E+02  0.14227787937E+04  0.14229746073E+04  0.10000000000E+02 0.  1.
</event>
<event>
 5    1  0.1147307E-008  0.3685086E+03  0.7957747E-01  0.3502773E+00
         13   -1    0    0    0    0  0.00000000000E+00  0.00000000000E+00  0.14999999963E+04  0.15000000000E+04  0.10566000000E+00 0. -1.
        994   -1    0    0    0    0 -0.00000000000E+00 -0.00000000000E+00  0.11368683772E-12  0.17120000000E+03  0.17120000000E+03 0.  0.
         13    1    1    2    0    0  0.67581870211E+02 -0.47224328612E+02  0.26470317367E+03  0.27724578934E+03  0.10566000000E+00 0. -1.
        994    1    1    2    0    0 -0.65419747627E+02  0.58275448066E+02  0.37345068821E+02  0.19590779819E+03  0.17120000000E+03 0.  0.
        998    1    1    2    0    0 -0.21621225843E+01 -0.11051119454E+02  0.11979517538E+04  0.11980464125E+04  0.10000000000E+02 0. -1.
</event>
<event>
 5    1  0.1147307E-008  0.3861239E+03  0.7957747E-01  0.3424920E+00
         13   -1    0    0    0    0  0.00000000000E+00  0.00000000000E+00  0.14999999963E+04  0.15000000000E+04  0.10566000000E+00 0. -1.
        994   -1    0    0    0    0 -0.00000000000E+00 -0.00000000000E+00  0.11368683772E-12  0.17120000000E+03  0.17120000000E+03 0.  0.
         13    1    1    2    0    0 -0.31873295485E+01  0.95992500072E+01  0.47468873824E+02  0.48534624924E+02  0.10566000000E+00 0. -1.
        994    1    1    2    0    0 -0.17754520466E+01 -0.10666588521E+02  0.14564219941E+01  0.17154733896E+03  0.17120000000E+03 0.  0.
        998    1    1    2    0    0  0.49627815952E+01  0.10673385140E+01  0.14510747005E+04  0.14511180361E+04  0.10000000000E+02 0. -1.
</event>
<event>
 5    1  0.1147307E-008  0.3797384E+03  0.7957747E-01  0.3452298E+00
         13   -1    0    0    0    0  0.00000000000E+00  0.00000000000E+00  0.14999999963E+04  0.15000000000E+04  0.10566000000E+00 0. -1.
        994   -1    0    0    0    0 -0.00000000000E+00 -0.00000000000E+00  0.11368683772E-12  0.17120000000E+03  0.17120000000E+03 0.  0.
         13    1    1    2    0    0  0.38622052235E+02  0.44757923257E+02  0.35112443489E+03  0.35606644682E+03  0.10566000000E+00 0. -1.
        994    1    1    2    0    0 -0.10681292377E+02 -0.57811004626E+02  0.15917070449E+02  0.18171129683E+03  0.17120000000E+03 0.  0.
        998    1    1    2    0    0 -0.27940759858E+02  0.13053081370E+02  0.11329584909E+04  0.11334222564E+04  0.10000000000E+02 0. -1.
</event>
<event>
 5    1  0.1147307E-008  0.3837465E+03  0.7957747E-01  0.3435006E+00
         13   -1    0    0    0    0  0.00000000000E+00  0.00000000000E+00  0.14999999963E+04  0.15000000000E+04  0.10566000000E+00 0. -1.
        994   -1    0    0    0    0 -0.00000000000E+00 -0.00000000000E+00  0.11368683772E-12  0.17120000000E+03  0.17120000000E+03 0.  0.
         13    1    1    2    0    0  0.16418351748E+02 -0.18784575502E+02  0.13559038060E+03  0.13786654789E+03  0.10566000000E+00 0. -1.
        994    1    1    2    0    0 -0.19121303725E+02  0.60561242358E+01  0.35832954162E+01  0.17240818108E+03  0.17120000000E+03 0.  0.
        998    1    1    2    0    0  0.27029519767E+01  0.12728451266E+02  0.13608263203E+04  0.13609252710E+04  0.10000000000E+02 0. -1.
</event>
<event>
 5    1  0.1147307E-008  0.3767364E+03  0.7957747E-01  0.3465493E+00
         13   -1    0    0    0    0  0.00000000000E+00  0.00000000000E+00  0.14999999963E+04  0.15000000000E+04  0.10566000000E+00 0. -1.
        994   -1    0    0    0    0 -0.00000000000E+00 -0.00000000000E+00  0.11368683772E-12  0.17120000000E+03  0.17120000000E+03 0.  0.
         13    1    1    2    0    0  0.10016770950E+02 -0.71433721588E+01  0.10321534700E+02  0.16059536378E+02  0.10566000000E+00 0. -1.
        994    1    1    2    0    0 -0.13758701852E+02  0.74082296266E+01  0.66153665310E+01  0.17203891076E+03  0.17120000000E+03 0.  0.
        998    1    1    2    0    0  0.37419309023E+01 -0.26485746778E+00  0.14830630950E+04  0.14831015529E+04  0.10000000000E+02 0. -1.
</event>
<event>
 5    1  0.1147307E-008  0.3748071E+03  0.7957747E-01  0.3474086E+00
         13   -1    0    0    0    0  0.00000000000E+00  0.00000000000E+00  0.14999999963E+04  0.15000000000E+04  0.10566000000E+00 0.  1.
        994   -1    0    0    0    0 -0.00000000000E+00 -0.00000000000E+00  0.11368683772E-12  0.17120000000E+03  0.17120000000E+03 0.  0.
         13    1    1    2    0    0  0.51089885439E+02 -0.10197614377E+02  0.22604738199E+03  0.23197326958E+03  0.10566000000E+00 0.  1.
        994    1    1    2    0    0 -0.95329718674E+01  0.15530875322E+01  0.70951931885E+01  0.17161897156E+03  0.17120000000E+03 0.  0.
        998    1    1    2    0    0 -0.41556913571E+02  0.86445268448E+01  0.12668574211E+04  0.12676077589E+04  0.10000000000E+02 0.  1.
</event>
<event>
 5    1  0.1147307E-008  0.3756267E+03  0.7957747E-01  0.3470425E+00
         13   -1    0    0    0    0  0.00000000000E+00  0.00000000000E+00  0.14999999963E+04  0.15000000000E+04  0.10566000000E+00 0.  1.
        994   -1    0    0    0    0 -0.00000000000E+00 -0.00000000000E+00  0.11368683772E-12  0.17120000000E+03  0.17120000000E+03 0.  0.
         13    1    1    2    0    0  0.30136950015E+02 -0.20466334502E+02  0.12001491195E+03  0.12542207485E+03  0.10566000000E+00 0.  1.
        994    1    1    2    0    0 -0.20374150030E+01 -0.23325531047E+02  0.82191151694E+01  0.17298909016E+03  0.17120000000E+03 0.  0.
        998    1    1    2    0    0 -0.28099535012E+02  0.43791865549E+02  0.13717659692E+04  0.13727888350E+04  0.10000000000E+02 0.  1.
</event>
<event>
 5    1  0.1147307E-008  0.3826959E+03  0.7957747E-01  0.3439503E+00
         13   -1    0    0    0    0  0.00000000000E+00  0.00000000000E+00  0.14999999963E+04  0.15000000000E+04  0.10566000000E+00 0. -1.
        994   -1    0    0    0    0 -0.00000000000E+00 -0.00000000000E+00  0.11368683772E-12  0.17120000000E+03  0.17120000000E+03 0.  0.
         13    1    1    2    0    0  0.22817922909E+02  0.20774821853E+02  0.16497127754E+03  0.16783260829E+03  0.10566000000E+00 0. -1.
        994    1    1    2    0    0 -0.20229158876E+02 -0.11087694979E+02  0.45436348402E+01  0.17280694565E+03  0.17120000000E+03 0.  0.
        998    1    1    2    0    0 -0.25887640330E+01 -0.96871268746E+01  0.13304850839E+04  0.13305604461E+04  0.10000000000E+02 0. -1.
</event>
<event>
 5    1  0.1147307E-008  0.3794300E+03  0.7957747E-01  0.3453644E+00
         13   -1    0    0    0    0  0.00000000000E+00  0.00000000000E+00  0.14999999963E+04  0.15000000000E+04  0.10566000000E+00 0.  1.
        994   -1    0    0    0    0 -0.00000000000E+00 -0.00000000000E+00  0.11368683772E-12  0.17120000000E+03  0.17120000000E+03 0.  0.
         13    1    1    2    0    0 -0.62833579248E+02 -0.27980117442E+02  0.19235395007E+03  0.20428166566E+03  0.10566000000E+00 0.  1.
        994    1    1    2    0    0 -0.42865850023E+02  0.31541337281E+02  0.26327999854E+02  0.18120414077E+03  0.17120000000E+03 0.  0.
        998    1    1    2    0    0  0.10569942927E+03 -0.35612198388E+01  0.12813180464E+04  0.12857141936E+04  0.10000000000E+02 0.  1.
</event>
<event>
 5    1  0.1147307E-008  0.3829451E+03  0.7957747E-01  0.3438434E+00
         13   -1    0    0    0    0  0.00000000000E+00  0.00000000000E+00  0.14999999963E+04  0.15000000000E+04  0.10566000000E+00 0. -1.
        994   -1    0    0    0    0 -0.00000000000E+00 -0.00000000000E+00  0.11368683772E-12  0.17120000000E+03  0.17120000000E+03 0.  0.
         13    1    1    2    0    0  0.13469164650E+02  0.21883084820E+01  0.33723053953E+02  0.36379425811E+02  0.10566000000E+00 0. -1.
        994    1    1    2    0    0 -0.13078532938E+02 -0.62720268371E+00  0.32216239310E+01  0.17173019614E+03  0.17120000000E+03 0.  0.
        998    1    1    2    0    0 -0.39063171122E+00 -0.15611057983E+01  0.14630553184E+04  0.14630903780E+04  0.10000000000E+02 0. -1.
</event>
<event>
 5    1  0.1212122E-008  0.3855460E+03  0.7957747E-01  0.3427360E+00
         13   -1    0    0    0    0  0.00000000000E+00  0.00000000000E+00  0.14999999963E+04  0.15000000000E+04  0.10566000000E+00 0.  1.
        994   -1    0    0    0    0 -0.00000000000E+00 -0.00000000000E+00  0.11368683772E-12  0.17120000000E+03  0.17120000000E+03 0.  0.
         13    1    1    2    0    0  0.90685584334E+00 -0.10799226838E+02  0.42379592960E+02  0.43743419520E+02  0.10566000000E+00 0.  1.
        994    1    1    2    0    0 -0.21675864651E+00  0.11511575508E+02  0.17946121819E+01  0.17159610715E+03  0.17120000000E+03 0.  0.
        998    1    1    2    0    0 -0.69009719682E+00 -0.71234866984E+00  0.14558257911E+04  0.14558604733E+04  0.10000000000E+02 0.  1.
</event>
<event>
 5    1  0.1147307E-008  0.3810272E+03  0.7957747E-01  0.3446698E+00
         13   -1    0    0    0    0  0.00000000000E+00  0.00000000000E+00  0.14999999963E+04  0.15000000000E+04  0.10566000000E+00 0.  1.
        994   -1    0    0    0    0 -0.00000000000E+00 -0.00000000000E+00  0.11368683772E-12  0.17120000000E+03  0.17120000000E+03 0.  0.
         13    1    1    2    0    0 -0.20460871384E+02  0.33672926059E+02  0.19604005926E+03  0.19996056913E+03  0.10566000000E+00 0.  1.
        994    1    1    2    0    0  0.19120180914E+02 -0.28063390520E+02  0.74668597156E+01  0.17469496043E+03  0.17120000000E+03 0.  0.
        998    1    1    2    0    0  0.13406904703E+01 -0.56095355398E+01  0.12964930773E+04  0.12965444704E+04  0.10000000000E+02 0.  1.
</event>
<event>
 5    1  0.1147307E-008  0.3855127E+03  0.7957747E-01  0.3427501E+00
         13   -1    0    0    0    0  0.00000000000E+00  0.00000000000E+00  0.14999999963E+04  0.15000000000E+04  0.10566000000E+00 0. -1.
        994   -1    0    0    0    0 -0.00000000000E+00 -0.00000000000E+00  0.11368683772E-12  0.17120000000E+03  0.17120000000E+03 0.  0.
         13    1    1    2    0    0  0.99365242201E+01 -0.54936337797E+01  0.44836950762E+02  0.46252327978E+02  0.10566000000E+00 0. -1.
        994    1    1    2    0    0 -0.13176542228E+02  0.94591098784E+01  0.22400707949E+01  0.17198126044E+03  0.17120000000E+03 0.  0.
        998    1    1    2    0    0  0.32400180076E+01 -0.39654760988E+01  0.14529229747E+04  0.14529664116E+04  0.10000000000E+02 0. -1.
</event>
<event>
 5    1  0.1147307E-008  0.3833292E+03  0.7957747E-01  0.3436789E+00
         13   -1    0    0    0    0  0.00000000000E+00  0.00000000000E+00  0.14999999963E+04  0.15000000000E+04  0.10566000000E+00 0. -1.
        994   -1    0    0    0    0 -0.00000000000E+00 -0.00000000000E+00  0.11368683772E-12  0.17120000000E+03  0.17120000000E+03 0.  0.
         13    1    1    2    0    0  0.13292790985E+02 -0.14015068825E+02  0.75604147424E+02  0.78032805396E+02  0.10566000000E+00 0. -1.
        994    1    1    2    0    0 -0.13664679196E+01  0.14270358403E+02  0.31417764056E+01  0.17182788226E+03  0.17120000000E+03 0.  0.
        998    1    1    2    0    0 -0.11926323066E+02 -0.25528957884E+00  0.14212540724E+04  0.14213393123E+04  0.10000000000E+02 0. -1.
</event>
<event>
 5    1  0.1147307E-008  0.3842639E+03  0.7957747E-01  0.3432800E+00
         13   -1    0    0    0    0  0.00000000000E+00  0.00000000000E+00  0.14999999963E+04  0.15000000000E+04  0.10566000000E+00 0.  1.
        994   -1    0    0    0    0 -0.00000000000E+00 -0.00000000000E+00  0.11368683772E-12  0.17120000000E+03  0.17120000000E+03 0.  0.
         13    1    1    2    0    0 -0.13993682710E+02  0.17078820198E+02  0.12636265130E+03  0.12827720009E+03  0.10566000000E+00 0.  1.
        994    1    1    2    0    0  0.16093893652E+02  0.10345695329E+01  0.28538878646E+01  0.17198159327E+03  0.17120000000E+03 0.  0.
        998    1    1    2    0    0 -0.21002109418E+01 -0.18113389731E+02  0.13707834571E+04  0.13709412066E+04  0.10000000000E+02 0.  1.
</event>
<event>
 5    1  0.1147307E-008  0.3931753E+03  0.7957747E-01  0.3395723E+00
         13   -1    0    0    0    0  0.00000000000E+00  0.00000000000E+00  0.14999999963E+04  0.15000000000E+04  0.10566000000E+00 0. -1.
        994   -1    0    0    0    0 -0.00000000000E+00 -0.00000000000E+00  0.11368683772E-12  0.17120000000E+03  0.17120000000E+03 0.  0.
         13    1    1    2    0    0 -0.17913417829E+02  0.28998443558E+02  0.14678955211E+02  0.37111765752E+02  0.10566000000E+00 0. -1.
        994    1    1    2    0    0  0.21043874223E+02 -0.22164802458E+02  0.27327207008E+02  0.17604073209E+03  0.17120000000E+03 0.  0.
        998    1    1    2    0    0 -0.31304563935E+01 -0.68336410996E+01  0.14579938341E+04  0.14580475022E+04  0.10000000000E+02 0. -1.
</event>
<event>
 5    1  0.1147307E-008  0.3706689E+03  0.7957747E-01  0.3492822E+00
         13   -1    0    0    0    0  0.00000000000E+00  0.00000000000E+00  0.14999999963E+04  0.15000000000E+04  0.10566000000E+00 0.  1.
        994   -1    0    0    0    0 -0.00000000000E+00 -0.00000000000E+00  0.11368683772E-12  0.17120000000E+03  0.17120000000E+03 0.  0.
         13    1    1    2    0    0 -0.22364893979E+02  0.13464274842E+02  0.34427406916E+02  0.43205702062E+02  0.10566000000E+00 0.  1.
        994    1    1    2    0    0  0.22362723738E+02 -0.11196945409E+01  0.10651250696E+02  0.17298622567E+03  0.17120000000E+03 0.  0.
        998    1    1    2    0    0  0.21702407880E-02 -0.12344580301E+02  0.14549213387E+04  0.14550080723E+04  0.10000000000E+02 0.  1.
</event>
<event>
 5    1  0.1147307E-008  0.3729460E+03  0.7957747E-01  0.3482460E+00
         13   -1    0    0    0    0  0.00000000000E+00  0.00000000000E+00  0.14999999963E+04  0.15000000000E+04  0.10566000000E+00 0. -1.
        994   -1    0    0    0    0 -0.00000000000E+00 -0.00000000000E+00  0.11368683772E-12  0.17120000000E+03  0.17120000000E+03 0.  0.
         13    1    1    2    0    0  0.58918109091E+01  0.80111956533E+02  0.22494215470E+03  0.23885481603E+03  0.10566000000E+00 0. -1.
        994    1    1    2    0    0 -0.96735242694E+02 -0.70013811424E+02  0.64742457500E+02  0.21854213958E+03  0.17120000000E+03 0.  0.
        998    1    1    2    0    0  0.90843431785E+02 -0.10098145108E+02  0.12103153841E+04  0.12138030444E+04  0.10000000000E+02 0. -1.
</event>
<event>
 5    1  0.1147307E-008  0.3827523E+03  0.7957747E-01  0.3439261E+00
         13   -1    0    0    0    0  0.00000000000E+00  0.00000000000E+00  0.14999999963E+04  0.15000000000E+04  0.10566000000E+00 0. -1.
        994   -1    0    0    0    0 -0.00000000000E+00 -0.00000000000E+00  0.11368683772E-12  0.17120000000E+03  0.17120000000E+03 0.  0.
         13    1    1    2    0    0 -0.34311784972E+02 -0.18369452815E+01  0.19231393854E+03  0.19535950214E+03  0.10566000000E+00 0. -1.
        994    1    1    2    0    0  0.32574116168E+02 -0.17454382887E+01  0.62834212368E+01  0.17439335131E+03  0.17120000000E+03 0.  0.
        998    1    1    2    0    0  0.17376688037E+01  0.35823835703E+01  0.13014026365E+04  0.13014471465E+04  0.10000000000E+02 0. -1.
</event>
<event>
 5    1  0.1147307E-008  0.2265668E+03  0.7957747E-01  0.4616924E+00
         13   -1    0    0    0    0  0.00000000000E+00  0.00000000000E+00  0.14999999963E+04  0.15000000000E+04  0.10566000000E+00 0.  1.
        994   -1    0    0    0    0 -0.00000000000E+00 -0.00000000000E+00  0.11368683772E-12  0.17120000000E+03  0.17120000000E+03 0.  0.
         13    1    1    2    0    0  0.52775536235E+02  0.16147683001E+03  0.12642970938E+03  0.21176521535E+03  0.10566000000E+00 0.  1.
        994    1    1    2    0    0 -0.33108788243E+02 -0.13312500247E+03  0.23947621455E+03  0.32477185142E+03  0.17120000000E+03 0.  0.
        998    1    1    2    0    0 -0.19666747992E+02 -0.28351827538E+02  0.11340940724E+04  0.11346629332E+04  0.10000000000E+02 0.  1.
</event>
<event>
 5    1  0.1147307E-008  0.3731402E+03  0.7957747E-01  0.3481583E+00
         13   -1    0    0    0    0  0.00000000000E+00  0.00000000000E+00  0.14999999963E+04  0.15000000000E+04  0.10566000000E+00 0. -1.
        994   -1    0    0    0    0 -0.00000000000E+00 -0.00000000000E+00  0.11368683772E-12  0.17120000000E+03  0.17120000000E+03 0.  0.
         13    1    1    2    0    0  0.16715742635E+02  0.89939377181E+02  0.47684728202E+03  0.48554283967E+03  0.10566000000E+00 0. -1.
        994    1    1    2    0    0 -0.14971253607E+02 -0.58870117018E+01  0.13524270014E+02  0.17248519131E+03  0.17120000000E+03 0.  0.
        998    1    1    2    0    0 -0.17444890275E+01 -0.84052365480E+02  0.10096284442E+04  0.10131719690E+04  0.10000000000E+02 0. -1.
</event>
<event>
 5    1  0.1147307E-008  0.3805489E+03  0.7957747E-01  0.3448772E+00
         13   -1    0    0    0    0  0.00000000000E+00  0.00000000000E+00  0.14999999963E+04  0.15000000000E+04  0.10566000000E+00 0. -1.
        994   -1    0    0    0    0 -0.00000000000E+00 -0.00000000000E+00  0.11368683772E-12  0.17120000000E+03  0.17120000000E+03 0.  0.
         13    1    1    2    0    0 -0.21631013477E+01 -0.11993557781E+02  0.17880161560E+02  0.21638756367E+02  0.10566000000E+00 0. -1.
        994    1    1    2    0    0 -0.10276582340E+02  0.54608014783E+01  0.43083665729E+01  0.17164914949E+03  0.17120000000E+03 0.  0.
        998    1    1    2    0    0  0.12439683688E+02  0.65327563031E+01  0.14778114681E+04  0.14779120941E+04  0.10000000000E+02 0. -1.
</event>
<event>
 5    1  0.1147307E-008  0.3775927E+03  0.7957747E-01  0.3461708E+00
         13   -1    0    0    0    0  0.00000000000E+00  0.00000000000E+00  0.14999999963E+04  0.15000000000E+04  0.10566000000E+00 0. -1.
        994   -1    0    0    0    0 -0.00000000000E+00 -0.00000000000E+00  0.11368683772E-12  0.17120000000E+03  0.17120000000E+03 0.  0.
         13    1    1    2    0    0 -0.33602753345E+02 -0.25492324691E+02  0.18419336841E+03  0.18896087368E+03  0.10566000000E+00 0. -1.
        994    1    1    2    0    0  0.47580909376E+01  0.48537482066E+01  0.55090044351E+01  0.17142341564E+03  0.17120000000E+03 0.  0.
        998    1    1    2    0    0  0.28844662408E+02  0.20638576485E+02  0.13102976234E+04  0.13108157107E+04  0.10000000000E+02 0. -1.
</event>
<event>
 5    1  0.1147307E-008  0.3828749E+03  0.7957747E-01  0.3438735E+00
         13   -1    0    0    0    0  0.00000000000E+00  0.00000000000E+00  0.14999999963E+04  0.15000000000E+04  0.10566000000E+00 0.  1.
        994   -1    0    0    0    0 -0.00000000000E+00 -0.00000000000E+00  0.11368683772E-12  0.17120000000E+03  0.17120000000E+03 0.  0.
         13    1    1    2    0    0  0.11624203902E+02  0.29797100536E+01  0.25558613020E+02  0.28235698183E+02  0.10566000000E+00 0.  1.
        994    1    1    2    0    0 -0.13853951599E+02  0.84418560288E+01  0.35609364641E+01  0.17200382896E+03  0.17120000000E+03 0.  0.
        998    1    1    2    0    0  0.22297476971E+01 -0.11421566082E+02  0.14708804468E+04  0.14709604729E+04  0.10000000000E+02 0.  1.
</event>
<event>
 5    1  0.1147307E-008  0.3798488E+03  0.7957747E-01  0.3451817E+00
         13   -1    0    0    0    0  0.00000000000E+00  0.00000000000E+00  0.14999999963E+04  0.15000000000E+04  0.10566000000E+00 0. -1.
        994   -1    0    0    0    0 -0.00000000000E+00 -0.00000000000E+00  0.11368683772E-12  0.17120000000E+03  0.17120000000E+03 0.  0.
         13    1    1    2    0    0 -0.99146968893E+01  0.13240672011E+02  0.31840518598E+02  0.35881003307E+02  0.10566000000E+00 0. -1.
        994    1    1    2    0    0 -0.35700572101E+01 -0.38131856520E+01  0.43007559260E+01  0.17133365751E+03  0.17120000000E+03 0.  0.
        998    1    1    2    0    0  0.13484754099E+02 -0.94274863594E+01  0.14638587218E+04  0.14639853392E+04  0.10000000000E+02 0. -1.
</event>
<event>
 5    1  0.1147307E-008  0.3689897E+03  0.7957747E-01  0.3500547E+00
         13   -1    0    0    0    0  0.00000000000E+00  0.00000000000E+00  0.14999999963E+04  0.15000000000E+04  0.10566000000E+00 0.  1.
        994   -1    0    0    0    0 -0.00000000000E+00 -0.00000000000E+00  0.11368683772E-12  0.17120000000E+03  0.17120000000E+03 0.  0.
         13    1    1    2    0    0 -0.87118655928E+02  0.74244114779E+01  0.31444759819E+03  0.32637721316E+03  0.10566000000E+00 0.  1.
        994    1    1    2    0    0  0.74542345262E+02  0.50312514004E+01  0.30112201040E+02  0.18920375097E+03  0.17120000000E+03 0.  0.
        998    1    1    2    0    0  0.12576310666E+02 -0.12455662878E+02  0.11554401970E+04  0.11556190359E+04  0.10000000000E+02 0.  1.
</event>
<event>
 5    1  0.1147307E-008  0.3690447E+03  0.7957747E-01  0.3500293E+00
         13   -1    0    0    0    0  0.00000000000E+00  0.00000000000E+00  0.14999999963E+04  0.15000000000E+04  0.10566000000E+00 0. -1.
        994   -1    0    0    0    0 -0.00000000000E+00 -0.00000000000E+00  0.11368683772E-12  0.17120000000E+03  0.17120000000E+03 0.  0.
         13    1    1    2    0    0 -0.26329429163E+02  0.47593344991E+02  0.12283835039E+03  0.13434149329E+03  0.10566000000E+00 0. -1.
        994    1    1    2    0    0  0.39495092945E+02 -0.69114480853E+02  0.32085637017E+02  0.19150875158E+03  0.17120000000E+03 0.  0.
        998    1    1    2    0    0 -0.13165663782E+02  0.21521135862E+02  0.13450760089E+04  0.13453497551E+04  0.10000000000E+02 0. -1.
</event>
<event>
 5    1  0.1147307E-008  0.3799913E+03  0.7957747E-01  0.3451197E+00
         13   -1    0    0    0    0  0.00000000000E+00  0.00000000000E+00  0.14999999963E+04  0.15000000000E+04  0.10566000000E+00 0.  1.
        994   -1    0    0    0    0 -0.00000000000E+00 -0.00000000000E+00  0.11368683772E-12  0.17120000000E+03  0.17120000000E+03 0.  0.
         13    1    1    2    0    0 -0.54660861765E+02  0.15106439621E+02  0.27041770182E+03  0.27630012478E+03  0.10566000000E+00 0.  1.
        994    1    1    2    0    0  0.69648595693E+02 -0.33143997185E+02  0.24290083664E+02  0.18933805639E+03  0.17120000000E+03 0.  0.
        998    1    1    2    0    0 -0.14987733928E+02  0.18037557564E+02  0.12052922108E+04  0.12055618188E+04  0.10000000000E+02 0.  1.
</event>
<event>
 5    1  0.1147307E-008  0.3835950E+03  0.7957747E-01  0.3435653E+00
         13   -1    0    0    0    0  0.00000000000E+00  0.00000000000E+00  0.14999999963E+04  0.15000000000E+04  0.10566000000E+00 0. -1.
        994   -1    0    0    0    0 -0.00000000000E+00 -0.00000000000E+00  0.11368683772E-12  0.17120000000E+03  0.17120000000E+03 0.  0.
         13    1    1    2    0    0  0.11880759590E+02 -0.41363351060E+00  0.30945351389E+02  0.33150406901E+02  0.10566000000E+00 0. -1.
        994    1    1    2    0    0  0.34182508077E+01  0.58611767557E+01  0.24814269404E+01  0.17135237177E+03  0.17120000000E+03 0.  0.
        998    1    1    2    0    0 -0.15299010397E+02 -0.54475432451E+01  0.14665732179E+04  0.14666972213E+04  0.10000000000E+02 0. -1.
</event>
<event>
 5    1  0.1147307E-008  0.3837482E+03  0.7957747E-01  0.3434999E+00
         13   -1    0    0    0    0  0.00000000000E+00  0.00000000000E+00  0.14999999963E+04  0.15000000000E+04  0.10566000000E+00 0.  1.
        994   -1    0    0    0    0 -0.00000000000E+00 -0.00000000000E+00  0.11368683772E-12  0.17120000000E+03  0.17120000000E+03 0.  0.
         13    1    1    2    0    0  0.46286359529E+01  0.14483922796E+02  0.55293332107E+02  0.57346072488E+02  0.10566000000E+00 0.  1.
        994    1    1    2    0    0 -0.36727030941E-01  0.69966978090E+01  0.24145882656E+01  0.17135992929E+03  0.17120000000E+03 0.  0.
        998    1    1    2    0    0 -0.45919089220E+01 -0.21480620605E+02  0.14422920759E+04  0.14424939982E+04  0.10000000000E+02 0.  1.
</event>
<event>
 5    1  0.1147307E-008  0.3707291E+03  0.7957747E-01  0.3492547E+00
         13   -1    0    0    0    0  0.00000000000E+00  0.00000000000E+00  0.14999999963E+04  0.15000000000E+04  0.10566000000E+00 0.  1.
        994   -1    0    0    0    0 -0.00000000000E+00 -0.00000000000E+00  0.11368683772E-12  0.17120000000E+03  0.17120000000E+03 0.  0.
         13    1    1    2    0    0  0.69033996538E+02  0.35881207199E+02  0.41050474109E+03  0.41781252654E+03  0.10566000000E+00 0.  1.
        994    1    1    2    0    0 -0.46676570644E+02  0.33417644125E+02  0.20341562666E+02  0.18171037493E+03  0.17120000000E+03 0.  0.
        998    1    1    2    0    0 -0.22357425894E+02 -0.69298851324E+02  0.10691536925E+04  0.10716770985E+04  0.10000000000E+02 0.  1.
</event>
<event>
 5    1  0.1147307E-008  0.3706623E+03  0.7957747E-01  0.3492853E+00
         13   -1    0    0    0    0  0.00000000000E+00  0.00000000000E+00  0.14999999963E+04  0.15000000000E+04  0.10566000000E+00 0. -1.
        994   -1    0    0    0    0 -0.00000000000E+00 -0.00000000000E+00  0.11368683772E-12  0.17120000000E+03  0.17120000000E+03 0.  0.
         13    1    1    2    0    0  0.12298038440E+02  0.18675669902E+02  0.23854515177E+02  0.32696658149E+02  0.10566000000E+00 0. -1.
        994    1    1    2    0    0 -0.11157608973E+02 -0.20060427459E+02  0.10743148823E+02  0.17306579164E+03  0.17120000000E+03 0.  0.
        998    1    1    2    0    0 -0.11404294668E+01  0.13847575568E+01  0.14654023323E+04  0.14654375502E+04  0.10000000000E+02 0. -1.
</event>
<event>
 5    1  0.1147307E-008  0.3833650E+03  0.7957747E-01  0.3436636E+00
         13   -1    0    0    0    0  0.00000000000E+00  0.00000000000E+00  0.14999999963E+04  0.15000000000E+04  0.10566000000E+00 0. -1.
        994   -1    0    0    0    0 -0.00000000000E+00 -0.00000000000E+00  0.11368683772E-12  0.17120000000E+03  0.17120000000E+03 0.  0.
         13    1    1    2    0    0  0.14041509044E+02 -0.17666878964E+02  0.11423448881E+03  0.11644231270E+03  0.10566000000E+00 0. -1.
        994    1    1    2    0    0 -0.79722868611E+01 -0.60442126335E+01  0.27750494347E+01  0.17151452056E+03  0.17120000000E+03 0.  0.
        998    1    1    2    0    0 -0.60692221834E+01  0.23711091598E+02  0.13829904580E+04  0.13832431667E+04  0.10000000000E+02 0. -1.
</event>
<event>
 5    1  0.1147307E-008  0.3807015E+03  0.7957747E-01  0.3448110E+00
         13   -1    0    0    0    0  0.00000000000E+00  0.00000000000E+00  0.14999999963E+04  0.15000000000E+04  0.10566000000E+00 0.  1.
        994   -1    0    0    0    0 -0.00000000000E+00 -0.00000000000E+00  0.11368683772E-12  0.17120000000E+03  0.17120000000E+03 0.  0.
         13    1    1    2    0    0 -0.11320361209E+02 -0.68252492280E+00  0.15604367082E+02  0.19290512026E+02  0.10566000000E+00 0.  1.
        994    1    1    2    0    0  0.29222145898E+01  0.65970870980E+01  0.39531213049E+01  0.17139757310E+03  0.17120000000E+03 0.  0.
        998    1    1    2    0    0  0.83981466190E+01 -0.59145621752E+01  0.14804425079E+04  0.14805119149E+04  0.10000000000E+02 0.  1.
</event>
<event>
 5    1  0.1147307E-008  0.3856129E+03  0.7957747E-01  0.3427077E+00
         13   -1    0    0    0    0  0.00000000000E+00  0.00000000000E+00  0.14999999963E+04  0.15000000000E+04  0.10566000000E+00 0. -1.
        994   -1    0    0    0    0 -0.00000000000E+00 -0.00000000000E+00  0.11368683772E-12  0.17120000000E+03  0.17120000000E+03 0.  0.
         13    1    1    2    0    0 -0.78791563269E+01  0.11334103276E+02  0.72130240322E+02  0.73439265617E+02  0.10566000000E+00 0. -1.
        994    1    1    2    0    0  0.62476956757E+01 -0.71244887875E+01  0.16209276145E+01  0.17146970417E+03  0.17120000000E+03 0.  0.
        998    1    1    2    0    0  0.16314606512E+01 -0.42096144882E+01  0.14262488283E+04  0.14262910302E+04  0.10000000000E+02 0. -1.
</event>
<event>
 5    1  0.1147307E-008  0.3698421E+03  0.7957747E-01  0.3496617E+00
         13   -1    0    0    0    0  0.00000000000E+00  0.00000000000E+00  0.14999999963E+04  0.15000000000E+04  0.10566000000E+00 0. -1.
        994   -1    0    0    0    0 -0.00000000000E+00 -0.00000000000E+00  0.11368683772E-12  0.17120000000E+03  0.17120000000E+03 0.  0.
         13    1    1    2    0    0  0.66494935225E+02 -0.50276456688E+02  0.29156159554E+03  0.30324490708E+03  0.10566000000E+00 0. -1.
        994    1    1    2    0    0 -0.70335691495E+02  0.48633736597E+02  0.35092540248E+02  0.19455918435E+03  0.17120000000E+03 0.  0.
        998    1    1    2    0    0  0.38407562705E+01  0.16427200903E+01  0.11733458605E+04  0.11733959086E+04  0.10000000000E+02 0.  0.
</event>
<event>
 5    1  0.1147307E-008  0.3843951E+03  0.7957747E-01  0.3432242E+00
         13   -1    0    0    0    0  0.00000000000E+00  0.00000000000E+00  0.14999999963E+04  0.15000000000E+04  0.10566000000E+00 0.  1.
        994   -1    0    0    0    0 -0.00000000000E+00 -0.00000000000E+00  0.11368683772E-12  0.17120000000E+03  0.17120000000E+03 0.  0.
         13    1    1    2    0    0 -0.17538394337E+02 -0.22228626901E+01  0.77768944878E+02  0.79753096153E+02  0.10566000000E+00 0.  1.
        994    1    1    2    0    0  0.17629091201E+02 -0.23189345827E+01  0.29732189185E+01  0.17214657227E+03  0.17120000000E+03 0.  0.
        998    1    1    2    0    0 -0.90696863755E-01  0.45417972728E+01  0.14192578325E+04  0.14193003316E+04  0.10000000000E+02 0.  1.
</event>
<event>
 5    1  0.1147307E-008  0.3808589E+03  0.7957747E-01  0.3447427E+00
         13   -1    0    0    0    0  0.00000000000E+00  0.00000000000E+00  0.14999999963E+04  0.15000000000E+04  0.10566000000E+00 0.  1.
        994   -1    0    0    0    0 -0.00000000000E+00 -0.00000000000E+00  0.11368683772E-12  0.17120000000E+03  0.17120000000E+03 0.  0.
         13    1    1    2    0    0  0.14019704130E+02  0.20693599741E+02  0.81565855298E+02  0.85309888575E+02  0.10566000000E+00 0.  1.
        994    1    1    2    0    0 -0.26129518170E+01 -0.21861444999E+02  0.53177626663E+01  0.17269183216E+03  0.17120000000E+03 0.  0.
        998    1    1    2    0    0 -0.11406752313E+02  0.11678452577E+01  0.14131163783E+04  0.14131982793E+04  0.10000000000E+02 0.  1.
</event>
<event>
 5    1  0.1147307E-008  0.3789835E+03  0.7957747E-01  0.3455597E+00
         13   -1    0    0    0    0  0.00000000000E+00  0.00000000000E+00  0.14999999963E+04  0.15000000000E+04  0.10566000000E+00 0. -1.
        994   -1    0    0    0    0 -0.00000000000E+00 -0.00000000000E+00  0.11368683772E-12  0.17120000000E+03  0.17120000000E+03 0.  0.
         13    1    1    2    0    0 -0.31762490718E+02  0.36025234282E+02  0.24274584518E+03  0.24745146966E+03  0.10566000000E+00 0. -1.
        994    1    1    2    0    0  0.23958862579E+02 -0.18251129772E+02  0.76958147073E+01  0.17399941494E+03  0.17120000000E+03 0.  0.
        998    1    1    2    0    0  0.78036281391E+01 -0.17774104509E+02  0.12495583364E+04  0.12497491154E+04  0.10000000000E+02 0. -1.
</event>
<event>
 5    1  0.1147307E-008  0.3843476E+03  0.7957747E-01  0.3432444E+00
         13   -1    0    0    0    0  0.00000000000E+00  0.00000000000E+00  0.14999999963E+04  0.15000000000E+04  0.10566000000E+00 0.  1.
        994   -1    0    0    0    0 -0.00000000000E+00 -0.00000000000E+00  0.11368683772E-12  0.17120000000E+03  0.17120000000E+03 0.  0.
         13    1    1    2    0    0  0.23488162133E+02 -0.62693488483E+01  0.14248102083E+03  0.14454013614E+03  0.10566000000E+00 0.  1.
        994    1    1    2    0    0 -0.21494978086E+02  0.27874596575E+01  0.35041934777E+01  0.17260221142E+03  0.17120000000E+03 0.  0.
        998    1    1    2    0    0 -0.19931840469E+01  0.34818891908E+01  0.13540147820E+04  0.13540576524E+04  0.10000000000E+02 0.  1.
</event>
<event>
 5    1  0.1147307E-008  0.3854317E+03  0.7957747E-01  0.3427844E+00
         13   -1    0    0    0    0  0.00000000000E+00  0.00000000000E+00  0.14999999963E+04  0.15000000000E+04  0.10566000000E+00 0.  1.
        994   -1    0    0    0    0 -0.00000000000E+00 -0.00000000000E+00  0.11368683772E-12  0.17120000000E+03  0.17120000000E+03 0.  0.
         13    1    1    2    0    0  0.23453438710E+01  0.10426179605E+02  0.40226827099E+02  0.41622285395E+02  0.10566000000E+00 0.  1.
        994    1    1    2    0    0 -0.29743927496E+01 -0.76119399542E+01  0.16353467307E+01  0.17140275086E+03  0.17120000000E+03 0.  0.
        998    1    1    2    0    0  0.62904887857E+00 -0.28142396509E+01  0.14581378224E+04  0.14581749637E+04  0.10000000000E+02 0.  1.
</event>
<event>
 5    1  0.1147307E-008  0.3848131E+03  0.7957747E-01  0.3430465E+00
         13   -1    0    0    0    0  0.00000000000E+00  0.00000000000E+00  0.14999999963E+04  0.15000000000E+04  0.10566000000E+00 0. -1.
        994   -1    0    0    0    0 -0.00000000000E+00 -0.00000000000E+00  0.11368683772E-12  0.17120000000E+03  0.17120000000E+03 0.  0.
         13    1    1    2    0    0  0.15462313300E+02 -0.94027299323E+01  0.98777449950E+02  0.10042156265E+03  0.10566000000E+00 0. -1.
        994    1    1    2    0    0 -0.63873596938E+01  0.19180003046E+01  0.18693263203E+01  0.17134004631E+03  0.17120000000E+03 0.  0.
        998    1    1    2    0    0 -0.90749536064E+01  0.74847296277E+01  0.13993532200E+04  0.13994383910E+04  0.10000000000E+02 0. -1.
</event>
<event>
 5    1  0.1147307E-008  0.3795498E+03  0.7957747E-01  0.3453121E+00
         13   -1    0    0    0    0  0.00000000000E+00  0.00000000000E+00  0.14999999963E+04  0.15000000000E+04  0.10566000000E+00 0.  1.
        994   -1    0    0    0    0 -0.00000000000E+00 -0.00000000000E+00  0.11368683772E-12  0.17120000000E+03  0.17120000000E+03 0.  0.
         13    1    1    2    0    0 -0.12741491995E+02  0.21279444968E+02  0.73586305978E+02  0.77653821463E+02  0.10566000000E+00 0.  1.
        994    1    1    2    0    0 -0.73025675528E+02 -0.49497491164E+02  0.30873203116E+02  0.19505216120E+03  0.17120000000E+03 0.  0.
        998    1    1    2    0    0  0.85767167524E+02  0.28218046196E+02  0.13955404872E+04  0.13984940173E+04  0.10000000000E+02 0.  1.
</event>
<event>
 5    1  0.1147307E-008  0.3871848E+03  0.7957747E-01  0.3420459E+00
         13   -1    0    0    0    0  0.00000000000E+00  0.00000000000E+00  0.14999999963E+04  0.15000000000E+04  0.10566000000E+00 0. -1.
        994   -1    0    0    0    0 -0.00000000000E+00 -0.00000000000E+00  0.11368683772E-12  0.17120000000E+03  0.17120000000E+03 0.  0.
         13    1    1    2    0    0  0.70604534408E+01  0.91775501127E+01 -0.61247815622E+01  0.13099677175E+02  0.10566000000E+00 0. -1.
        994    1    1    2    0    0 -0.33208545339E+02  0.55218783601E+01  0.24560450773E+02  0.17619862192E+03  0.17120000000E+03 0.  0.
        998    1    1    2    0    0  0.26148091898E+02 -0.14699428473E+02  0.14815643271E+04  0.14819017009E+04  0.10000000000E+02 0. -1.
</event>
<event>
 5    1  0.1147307E-008  0.3857012E+03  0.7957747E-01  0.3426704E+00
         13   -1    0    0    0    0  0.00000000000E+00  0.00000000000E+00  0.14999999963E+04  0.15000000000E+04  0.10566000000E+00 0.  1.
        994   -1    0    0    0    0 -0.00000000000E+00 -0.00000000000E+00  0.11368683772E-12  0.17120000000E+03  0.17120000000E+03 0.  0.
         13    1    1    2    0    0 -0.10610233601E+02  0.51560359632E+01  0.50321320290E+02  0.51685667295E+02  0.10566000000E+00 0.  1.
        994    1    1    2    0    0  0.81542895667E+01 -0.33818121046E+02  0.52632455279E+01  0.17477785759E+03  0.17120000000E+03 0.  0.
        998    1    1    2    0    0  0.24559440346E+01  0.28662085083E+02  0.14444154305E+04  0.14447364751E+04  0.10000000000E+02 0.  1.
</event>
<event>
 5    1  0.1147307E-008  0.3781041E+03  0.7957747E-01  0.3459455E+00
         13   -1    0    0    0    0  0.00000000000E+00  0.00000000000E+00  0.14999999963E+04  0.15000000000E+04  0.10566000000E+00 0.  1.
        994   -1    0    0    0    0 -0.00000000000E+00 -0.00000000000E+00  0.11368683772E-12  0.17120000000E+03  0.17120000000E+03 0.  0.
         13    1    1    2    0    0  0.21288194246E+01 -0.25181306293E+02  0.58838490460E+02  0.64035999113E+02  0.10566000000E+00 0.  1.
        994    1    1    2    0    0 -0.43406274379E+00  0.25008373662E+02  0.72006343555E+01  0.17316724950E+03  0.17120000000E+03 0.  0.
        998    1    1    2    0    0 -0.16947566809E+01  0.17293263036E+00  0.14339608715E+04  0.14339967514E+04  0.10000000000E+02 0.  0.
</event>
<event>
 5    1  0.1147307E-008  0.3735021E+03  0.7957747E-01  0.3479949E+00
         13   -1    0    0    0    0  0.00000000000E+00  0.00000000000E+00  0.14999999963E+04  0.15000000000E+04  0.10566000000E+00 0.  1.
        994   -1    0    0    0    0 -0.00000000000E+00 -0.00000000000E+00  0.11368683772E-12  0.17120000000E+03  0.17120000000E+03 0.  0.
         13    1    1    2    0    0 -0.23419347310E+01 -0.32106268221E+02  0.64349076746E+02  0.71952150485E+02  0.10566000000E+00 0.  1.
        994    1    1    2    0    0 -0.10772230197E+02  0.32469188382E+02  0.11458681895E+02  0.17496008267E+03  0.17120000000E+03 0.  0.
        998    1    1    2    0    0  0.13114164928E+02 -0.36292016150E+00  0.14241922376E+04  0.14242877668E+04  0.10000000000E+02 0.  1.
</event>
<event>
 5    1  0.1147307E-008  0.3848993E+03  0.7957747E-01  0.3430099E+00
         13   -1    0    0    0    0  0.00000000000E+00  0.00000000000E+00  0.14999999963E+04  0.15000000000E+04  0.10566000000E+00 0. -1.
        994   -1    0    0    0    0 -0.00000000000E+00 -0.00000000000E+00  0.11368683772E-12  0.17120000000E+03  0.17120000000E+03 0.  0.
         13    1    1    2    0    0  0.13471534981E+02 -0.13372264143E+02  0.10809124021E+03  0.10974528271E+03  0.10566000000E+00 0. -1.
        994    1    1    2    0    0 -0.86133730674E+01  0.69688748489E+01  0.20840533608E+01  0.17157079790E+03  0.17120000000E+03 0.  0.
        998    1    1    2    0    0 -0.48581619136E+01  0.64033892937E+01  0.13898247027E+04  0.13898839194E+04  0.10000000000E+02 0. -1.
</event>
<event>
 5    1  0.1147307E-008  0.3811203E+03  0.7957747E-01  0.3446295E+00
         13   -1    0    0    0    0  0.00000000000E+00  0.00000000000E+00  0.14999999963E+04  0.15000000000E+04  0.10566000000E+00 0.  1.
        994   -1    0    0    0    0 -0.00000000000E+00 -0.00000000000E+00  0.11368683772E-12  0.17120000000E+03  0.17120000000E+03 0.  0.
         13    1    1    2    0    0 -0.32722982260E+01  0.27768727507E+02  0.13222014388E+03  0.13514432203E+03  0.10566000000E+00 0.  1.
        994    1    1    2    0    0 -0.69598456947E+01  0.12866219244E+02  0.42817111822E+01  0.17187714246E+03  0.17120000000E+03 0.  0.
        998    1    1    2    0    0  0.10232143921E+02 -0.40634946751E+02  0.13634981412E+04  0.13641785355E+04  0.10000000000E+02 0.  1.
</event>
<event>
 5    1  0.1393879E-008  0.3862524E+03  0.7957747E-01  0.3424378E+00
         13   -1    0    0    0    0  0.00000000000E+00  0.00000000000E+00  0.14999999963E+04  0.15000000000E+04  0.10566000000E+00 0. -1.
        994   -1    0    0    0    0 -0.00000000000E+00 -0.00000000000E+00  0.11368683772E-12  0.17120000000E+03  0.17120000000E+03 0.  0.
         13    1    1    2    0    0  0.54961609044E+01 -0.91464104235E+01  0.55159445798E+02  0.56182205662E+02  0.10566000000E+00 0. -1.
        994    1    1    2    0    0 -0.33888036947E+01  0.12481704215E+02  0.15577047552E+01  0.17169491365E+03  0.17120000000E+03 0.  0.
        998    1    1    2    0    0 -0.21073572097E+01 -0.33352937910E+01  0.14432828457E+04  0.14433228807E+04  0.10000000000E+02 0. -1.
</event>
<event>
 5    1  0.1147307E-008  0.3851945E+03  0.7957747E-01  0.3428848E+00
         13   -1    0    0    0    0  0.00000000000E+00  0.00000000000E+00  0.14999999963E+04  0.15000000000E+04  0.10566000000E+00 0.  1.
        994   -1    0    0    0    0 -0.00000000000E+00 -0.00000000000E+00  0.11368683772E-12  0.17120000000E+03  0.17120000000E+03 0.  0.
         13    1    1    2    0    0  0.10988066994E+02  0.41354748937E+01  0.42094701804E+02  0.43701428499E+02  0.10566000000E+00 0.  1.
        994    1    1    2    0    0 -0.19868276161E+02 -0.51024223869E+01  0.29177349095E+01  0.17244922815E+03  0.17120000000E+03 0.  0.
        998    1    1    2    0    0  0.88802091664E+01  0.96694749315E+00  0.14549875596E+04  0.14550493434E+04  0.10000000000E+02 0.  1.
</event>
<event>
 5    1  0.1147307E-008  0.3787544E+03  0.7957747E-01  0.3456600E+00
         13   -1    0    0    0    0  0.00000000000E+00  0.00000000000E+00  0.14999999963E+04  0.15000000000E+04  0.10566000000E+00 0.  1.
        994   -1    0    0    0    0 -0.00000000000E+00 -0.00000000000E+00  0.11368683772E-12  0.17120000000E+03  0.17120000000E+03 0.  0.
         13    1    1    2    0    0 -0.14227062485E+02 -0.90302296523E+01  0.27823857624E+02  0.32528949747E+02  0.10566000000E+00 0.  1.
        994    1    1    2    0    0  0.11326970021E+02  0.46525506994E+01  0.52667273053E+01  0.17171815540E+03  0.17120000000E+03 0.  0.
        998    1    1    2    0    0  0.29000924643E+01  0.43776789529E+01  0.14669094113E+04  0.14669528949E+04  0.10000000000E+02 0.  1.
</event>
<event>
 5    1  0.1147307E-008  0.3830247E+03  0.7957747E-01  0.3438093E+00
         13   -1    0    0    0    0  0.00000000000E+00  0.00000000000E+00  0.14999999963E+04  0.15000000000E+04  0.10566000000E+00 0. -1.
        994   -1    0    0    0    0 -0.00000000000E+00 -0.00000000000E+00  0.11368683772E-12  0.17120000000E+03  0.17120000000E+03 0.  0.
         13    1    1    2    0    0  0.14312731344E+02 -0.51177083474E+01  0.43897049727E+02  0.46454357772E+02  0.10566000000E+00 0. -1.
        994    1    1    2    0    0 -0.50365744576E+01  0.79465168293E+01  0.29070275628E+01  0.17148295840E+03  0.17120000000E+03 0.  0.
        998    1    1    2    0    0 -0.92761568861E+01 -0.28288084819E+01  0.14531959190E+04  0.14532626838E+04  0.10000000000E+02 0. -1.
</event>
<event>
 5    1  0.1147307E-008  0.3859411E+03  0.7957747E-01  0.3425691E+00
         13   -1    0    0    0    0  0.00000000000E+00  0.00000000000E+00  0.14999999963E+04  0.15000000000E+04  0.10566000000E+00 0.  1.
        994   -1    0    0    0    0 -0.00000000000E+00 -0.00000000000E+00  0.11368683772E-12  0.17120000000E+03  0.17120000000E+03 0.  0.
         13    1    1    2    0    0 -0.11091178436E+02  0.35412727540E+01  0.56524639418E+02  0.57711358303E+02  0.10566000000E+00 0.  1.
        994    1    1    2    0    0  0.14952098459E+02  0.15611758372E+01  0.19049428714E+01  0.17186934376E+03  0.17120000000E+03 0.  0.
        998    1    1    2    0    0 -0.38609200233E+01 -0.51024485913E+01  0.14415704140E+04  0.14416192979E+04  0.10000000000E+02 0.  1.
</event>
<event>
 5    1  0.1147307E-008  0.3849939E+03  0.7957747E-01  0.3429698E+00
         13   -1    0    0    0    0  0.00000000000E+00  0.00000000000E+00  0.14999999963E+04  0.15000000000E+04  0.10566000000E+00 0. -1.
        994   -1    0    0    0    0 -0.00000000000E+00 -0.00000000000E+00  0.11368683772E-12  0.17120000000E+03  0.17120000000E+03 0.  0.
         13    1    1    2    0    0  0.37329068634E+00  0.12037291669E+02  0.49126059435E+02  0.50580792959E+02  0.10566000000E+00 0. -1.
        994    1    1    2    0    0  0.24322706014E+01  0.10183996908E+02  0.19938126410E+01  0.17153146948E+03  0.17120000000E+03 0.  0.
        998    1    1    2    0    0 -0.28055612878E+01 -0.22221288577E+02  0.14488801242E+04  0.14490877376E+04  0.10000000000E+02 0. -1.
</event>
<event>
 5    1  0.1147307E-008  0.3851752E+03  0.7957747E-01  0.3428929E+00
         13   -1    0    0    0    0  0.00000000000E+00  0.00000000000E+00  0.14999999963E+04  0.15000000000E+04  0.10566000000E+00 0. -1.
        994   -1    0    0    0    0 -0.00000000000E+00 -0.00000000000E+00  0.11368683772E-12  0.17120000000E+03  0.17120000000E+03 0.  0.
         13    1    1    2    0    0 -0.18233902883E+01  0.11718543010E+02  0.44265208749E+02  0.45826508399E+02  0.10566000000E+00 0. -1.
        994    1    1    2    0    0  0.40391939113E+01 -0.12912111973E+02  0.21450081187E+01  0.17174713617E+03  0.17120000000E+03 0.  0.
        998    1    1    2    0    0 -0.22158036230E+01  0.11935689633E+01  0.14535897794E+04  0.14536263554E+04  0.10000000000E+02 0. -1.
</event>
<event>
 5    1  0.1147307E-008  0.3803881E+03  0.7957747E-01  0.3449470E+00
         13   -1    0    0    0    0  0.00000000000E+00  0.00000000000E+00  0.14999999963E+04  0.15000000000E+04  0.10566000000E+00 0. -1.
        994   -1    0    0    0    0 -0.00000000000E+00 -0.00000000000E+00  0.11368683772E-12  0.17120000000E+03  0.17120000000E+03 0.  0.
         13    1    1    2    0    0  0.27642361789E+02  0.19750807968E+02  0.13829287182E+03  0.14240478974E+03  0.10566000000E+00 0. -1.
        994    1    1    2    0    0 -0.20305833085E+02 -0.19875042060E+02  0.66374422390E+01  0.17366876459E+03  0.17120000000E+03 0.  0.
        998    1    1    2    0    0 -0.73365287034E+01  0.12423409204E+00  0.13550696822E+04  0.13551264457E+04  0.10000000000E+02 0. -1.
</event>
<event>
 5    1  0.1147307E-008  0.3850834E+03  0.7957747E-01  0.3429318E+00
         13   -1    0    0    0    0  0.00000000000E+00  0.00000000000E+00  0.14999999963E+04  0.15000000000E+04  0.10566000000E+00 0. -1.
        994   -1    0    0    0    0 -0.00000000000E+00 -0.00000000000E+00  0.11368683772E-12  0.17120000000E+03  0.17120000000E+03 0.  0.
         13    1    1    2    0    0  0.60592803313E+01 -0.10522055546E+02  0.47451145734E+02  0.48980107458E+02  0.10566000000E+00 0. -1.
        994    1    1    2    0    0  0.48386297616E+01  0.74048858183E+01  0.18460093150E+01  0.17143830500E+03  0.17120000000E+03 0.  0.
        998    1    1    2    0    0 -0.10897910093E+02  0.31171697274E+01  0.14507028412E+04  0.14507815875E+04  0.10000000000E+02 0. -1.
</event>
<event>
 5    1  0.1147307E-008  0.3774733E+03  0.7957747E-01  0.3462235E+00
         13   -1    0    0    0    0  0.00000000000E+00  0.00000000000E+00  0.14999999963E+04  0.15000000000E+04  0.10566000000E+00 0. -1.
        994   -1    0    0    0    0 -0.00000000000E+00 -0.00000000000E+00  0.11368683772E-12  0.17120000000E+03  0.17120000000E+03 0.  0.
         13    1    1    2    0    0 -0.44781059245E+02  0.14709662099E+02  0.72551417050E+02  0.86518418306E+02  0.10566000000E+00 0. -1.
        994    1    1    2    0    0  0.12249108790E+02 -0.98009461252E+01  0.15830294479E+02  0.17264454070E+03  0.17120000000E+03 0.  0.
        998    1    1    2    0    0  0.32531950456E+02 -0.49087159739E+01  0.14116182847E+04  0.14120370410E+04  0.10000000000E+02 0. -1.
</event>
<event>
 5    1  0.1147307E-008  0.3849056E+03  0.7957747E-01  0.3430073E+00
         13   -1    0    0    0    0  0.00000000000E+00  0.00000000000E+00  0.14999999963E+04  0.15000000000E+04  0.10566000000E+00 0.  1.
        994   -1    0    0    0    0 -0.00000000000E+00 -0.00000000000E+00  0.11368683772E-12  0.17120000000E+03  0.17120000000E+03 0.  0.
         13    1    1    2    0    0 -0.10620885367E+02  0.10849117960E+02  0.82312805571E+02  0.83701348206E+02  0.10566000000E+00 0.  1.
        994    1    1    2    0    0 -0.10092469756E+02  0.10986779320E+02  0.24095317687E+01  0.17186568334E+03  0.17120000000E+03 0.  0.
        998    1    1    2    0    0  0.20713355123E+02 -0.21835897280E+02  0.14152776589E+04  0.14156329685E+04  0.10000000000E+02 0.  1.
</event>
<event>
 5    1  0.1198414E-008  0.3857197E+03  0.7957747E-01  0.3426626E+00
         13   -1    0    0    0    0  0.00000000000E+00  0.00000000000E+00  0.14999999963E+04  0.15000000000E+04  0.10566000000E+00 0.  1.
        994   -1    0    0    0    0 -0.00000000000E+00 -0.00000000000E+00  0.11368683772E-12  0.17120000000E+03  0.17120000000E+03 0.  0.
         13    1    1    2    0    0  0.58959366779E+01  0.88893284468E+01  0.44787311225E+02  0.46040163340E+02  0.10566000000E+00 0.  1.
        994    1    1    2    0    0 -0.39153991042E+01 -0.69441478632E+01  0.14818040626E+01  0.17139191137E+03  0.17120000000E+03 0.  0.
        998    1    1    2    0    0 -0.19805375737E+01 -0.19451805836E+01  0.14537308810E+04  0.14537679253E+04  0.10000000000E+02 0.  1.
</event>
<event>
 5    1  0.1147307E-008  0.3855242E+03  0.7957747E-01  0.3427452E+00
         13   -1    0    0    0    0  0.00000000000E+00  0.00000000000E+00  0.14999999963E+04  0.15000000000E+04  0.10566000000E+00 0.  1.
        994   -1    0    0    0    0 -0.00000000000E+00 -0.00000000000E+00  0.11368683772E-12  0.17120000000E+03  0.17120000000E+03 0.  0.
         13    1    1    2    0    0  0.20620626404E+01 -0.12897385374E+02  0.62052720704E+02  0.63412506359E+02  0.10566000000E+00 0.  1.
        994    1    1    2    0    0 -0.10794573571E+01  0.99099697330E+01  0.16964061943E+01  0.17149836886E+03  0.17120000000E+03 0.  0.
        998    1    1    2    0    0 -0.98260528324E+00  0.29874156411E+01  0.14362508694E+04  0.14362891248E+04  0.10000000000E+02 0.  1.
</event>
<event>
 5    1  0.1147307E-008  0.3829598E+03  0.7957747E-01  0.3438371E+00
         13   -1    0    0    0    0  0.00000000000E+00  0.00000000000E+00  0.14999999963E+04  0.15000000000E+04  0.10566000000E+00 0. -1.
        994   -1    0    0    0    0 -0.00000000000E+00 -0.00000000000E+00  0.11368683772E-12  0.17120000000E+03  0.17120000000E+03 0.  0.
         13    1    1    2    0    0  0.86031542995E+01  0.12882348067E+02  0.43589378735E+02  0.46260288133E+02  0.10566000000E+00 0. -1.
        994    1    1    2    0    0 -0.11212960233E+02 -0.10905369058E+02  0.34568100905E+01  0.17194780338E+03  0.17120000000E+03 0.  0.
        998    1    1    2    0    0  0.26098059338E+01 -0.19769790088E+01  0.14529538075E+04  0.14529919085E+04  0.10000000000E+02 0. -1.
</event>
<event>
 5    1  0.1147307E-008  0.3849496E+03  0.7957747E-01  0.3429886E+00
         13   -1    0    0    0    0  0.00000000000E+00  0.00000000000E+00  0.14999999963E+04  0.15000000000E+04  0.10566000000E+00 0.  1.
        994   -1    0    0    0    0 -0.00000000000E+00 -0.00000000000E+00  0.11368683772E-12  0.17120000000E+03  0.17120000000E+03 0.  0.
         13    1    1    2    0    0 -0.37546002628E+01 -0.20975310344E+02  0.11793837312E+03  0.11984795237E+03  0.10566000000E+00 0.  1.
        994    1    1    2    0    0  0.87384123763E+01  0.30558642927E+02  0.49849168738E+01  0.17419667019E+03  0.17120000000E+03 0.  0.
        998    1    1    2    0    0 -0.49838121135E+01 -0.95833325832E+01  0.13770767063E+04  0.13771553774E+04  0.10000000000E+02 0.  1.
</event>
<event>
 5    1  0.1147307E-008  0.3778743E+03  0.7957747E-01  0.3460467E+00
         13   -1    0    0    0    0  0.00000000000E+00  0.00000000000E+00  0.14999999963E+04  0.15000000000E+04  0.10566000000E+00 0. -1.
        994   -1    0    0    0    0 -0.00000000000E+00 -0.00000000000E+00  0.11368683772E-12  0.17120000000E+03  0.17120000000E+03 0.  0.
         13    1    1    2    0    0 -0.34284198509E+02 -0.20675343501E+01  0.12753872335E+03  0.13208261840E+03  0.10566000000E+00 0. -1.
        994    1    1    2    0    0 -0.32680750903E+01 -0.19071196799E+02  0.64714999710E+01  0.17241145894E+03  0.17120000000E+03 0.  0.
        998    1    1    2    0    0  0.37552273599E+02  0.21138731149E+02  0.13659897730E+04  0.13667059227E+04  0.10000000000E+02 0. -1.
</event>
<event>
 5    1  0.1147307E-008  0.3831613E+03  0.7957747E-01  0.3437508E+00
         13   -1    0    0    0    0  0.00000000000E+00  0.00000000000E+00  0.14999999963E+04  0.15000000000E+04  0.10566000000E+00 0. -1.
        994   -1    0    0    0    0 -0.00000000000E+00 -0.00000000000E+00  0.11368683772E-12  0.17120000000E+03  0.17120000000E+03 0.  0.
         13    1    1    2    0    0 -0.34136572486E+02 -0.10317200413E+02  0.21126509483E+03  0.21425382532E+03  0.10566000000E+00 0. -1.
        994    1    1    2    0    0  0.38120887413E+02  0.70891302765E+01  0.75357226876E+01  0.17569770898E+03  0.17120000000E+03 0.  0.
        998    1    1    2    0    0 -0.39843149266E+01  0.32280701364E+01  0.12811991788E+04  0.12812484657E+04  0.10000000000E+02 0. -1.
</event>
<event>
 5    1  0.1147307E-008  0.3841237E+03  0.7957747E-01  0.3433397E+00
         13   -1    0    0    0    0  0.00000000000E+00  0.00000000000E+00  0.14999999963E+04  0.15000000000E+04  0.10566000000E+00 0.  1.
        994   -1    0    0    0    0 -0.00000000000E+00 -0.00000000000E+00  0.11368683772E-12  0.17120000000E+03  0.17120000000E+03 0.  0.
         13    1    1    2    0    0  0.11626065617E+02  0.75611388652E+01  0.43476328660E+02  0.45634839109E+02  0.10566000000E+00 0.  1.
        994    1    1    2    0    0 -0.20600952845E+02 -0.84228531395E+01  0.37011879865E+01  0.17268028986E+03  0.17120000000E+03 0.  0.
        998    1    1    2    0    0  0.89748872284E+01  0.86171427434E+00  0.14528224796E+04  0.14528848710E+04  0.10000000000E+02 0.  1.
</event>
<event>
 5    1  0.1147307E-008  0.3818289E+03  0.7957747E-01  0.3443233E+00
         13   -1    0    0    0    0  0.00000000000E+00  0.00000000000E+00  0.14999999963E+04  0.15000000000E+04  0.10566000000E+00 0.  1.
        994   -1    0    0    0    0 -0.00000000000E+00 -0.00000000000E+00  0.11368683772E-12  0.17120000000E+03  0.17120000000E+03 0.  0.
         13    1    1    2    0    0 -0.13717038561E+02  0.31320943199E+01  0.29873907278E+02  0.33021639296E+02  0.10566000000E+00 0.  1.
        994    1    1    2    0    0  0.68071830558E+01 -0.14280101771E+01  0.33735191378E+01  0.17137443679E+03  0.17120000000E+03 0.  0.
        998    1    1    2    0    0  0.69098555050E+01 -0.17040841428E+01  0.14667525699E+04  0.14668039239E+04  0.10000000000E+02 0.  1.
</event>
<event>
 5    1  0.1147307E-008  0.3702719E+03  0.7957747E-01  0.3494642E+00
         13   -1    0    0    0    0  0.00000000000E+00  0.00000000000E+00  0.14999999963E+04  0.15000000000E+04  0.10566000000E+00 0.  1.
        994   -1    0    0    0    0 -0.00000000000E+00 -0.00000000000E+00  0.11368683772E-12  0.17120000000E+03  0.17120000000E+03 0.  0.
         13    1    1    2    0    0 -0.27340655272E+02 -0.76860975005E+02  0.33672445274E+03  0.34646571136E+03  0.10566000000E+00 0.  1.
        994    1    1    2    0    0  0.20522711645E+02  0.23017353787E+02  0.14417671647E+02  0.17455168153E+03  0.17120000000E+03 0.  0.
        998    1    1    2    0    0  0.68179436277E+01  0.53843621218E+02  0.11488578719E+04  0.11501826071E+04  0.10000000000E+02 0.  1.
</event>
<event>
 5    1  0.1147307E-008  0.3813066E+03  0.7957747E-01  0.3445489E+00
         13   -1    0    0    0    0  0.00000000000E+00  0.00000000000E+00  0.14999999963E+04  0.15000000000E+04  0.10566000000E+00 0. -1.
        994   -1    0    0    0    0 -0.00000000000E+00 -0.00000000000E+00  0.11368683772E-12  0.17120000000E+03  0.17120000000E+03 0.  0.
         13    1    1    2    0    0 -0.11960915013E+02 -0.41519001917E+01 -0.32077177457E+01  0.13061484614E+02  0.10566000000E+00 0. -1.
        994    1    1    2    0    0  0.18241318755E+02 -0.99079131241E+00  0.18262859866E+02  0.17313780473E+03  0.17120000000E+03 0.  0.
        998    1    1    2    0    0 -0.62804037418E+01  0.51426915041E+01  0.14849448542E+04  0.14850007107E+04  0.10000000000E+02 0. -1.
</event>
<event>
 5    1  0.1147307E-008  0.3810073E+03  0.7957747E-01  0.3446784E+00
         13   -1    0    0    0    0  0.00000000000E+00  0.00000000000E+00  0.14999999963E+04  0.15000000000E+04  0.10566000000E+00 0. -1.
        994   -1    0    0    0    0 -0.00000000000E+00 -0.00000000000E+00  0.11368683772E-12  0.17120000000E+03  0.17120000000E+03 0.  0.
         13    1    1    2    0    0 -0.20001753375E+02 -0.70119279430E+01  0.57566705305E+02  0.61344714485E+02  0.10566000000E+00 0. -1.
        994    1    1    2    0    0  0.23261477224E+02  0.12810405362E+02  0.59786904129E+01  0.17335047605E+03  0.17120000000E+03 0.  0.
        998    1    1    2    0    0 -0.32597238498E+01 -0.57984774193E+01  0.14364546006E+04  0.14365048095E+04  0.10000000000E+02 0. -1.
</event>
<event>
 5    1  0.1147307E-008  0.3722456E+03  0.7957747E-01  0.3485634E+00
         13   -1    0    0    0    0  0.00000000000E+00  0.00000000000E+00  0.14999999963E+04  0.15000000000E+04  0.10566000000E+00 0. -1.
        994   -1    0    0    0    0 -0.00000000000E+00 -0.00000000000E+00  0.11368683772E-12  0.17120000000E+03  0.17120000000E+03 0.  0.
         13    1    1    2    0    0  0.49583859562E+02  0.28727804076E+02  0.19638873629E+03  0.20457857356E+03  0.10566000000E+00 0. -1.
        994    1    1    2    0    0 -0.38852509072E+02 -0.69032174371E+01  0.13461732700E+02  0.17620394468E+03  0.17120000000E+03 0.  0.
        998    1    1    2    0    0 -0.10731350490E+02 -0.21824586639E+02  0.12901495273E+04  0.12904174818E+04  0.10000000000E+02 0. -1.
</event>
<event>
 5    1  0.1147307E-008  0.3748260E+03  0.7957747E-01  0.3474001E+00
         13   -1    0    0    0    0  0.00000000000E+00  0.00000000000E+00  0.14999999963E+04  0.15000000000E+04  0.10566000000E+00 0. -1.
        994   -1    0    0    0    0 -0.00000000000E+00 -0.00000000000E+00  0.11368683772E-12  0.17120000000E+03  0.17120000000E+03 0.  0.
         13    1    1    2    0    0  0.63863818532E+02  0.29395415759E+02  0.26133986201E+03  0.27063113721E+03  0.10566000000E+00 0. -1.
        994    1    1    2    0    0 -0.95528948551E+02 -0.95329887847E+01  0.38792357149E+02  0.20007734719E+03  0.17120000000E+03 0.  0.
        998    1    1    2    0    0  0.31665130019E+02 -0.19862426974E+02  0.11998677771E+04  0.12004915156E+04  0.10000000000E+02 0. -1.
</event>
<event>
 5    1  0.1147307E-008  0.3731333E+03  0.7957747E-01  0.3481614E+00
         13   -1    0    0    0    0  0.00000000000E+00  0.00000000000E+00  0.14999999963E+04  0.15000000000E+04  0.10566000000E+00 0.  1.
        994   -1    0    0    0    0 -0.00000000000E+00 -0.00000000000E+00  0.11368683772E-12  0.17120000000E+03  0.17120000000E+03 0.  0.
         13    1    1    2    0    0 -0.14291856250E+02  0.16466680301E+02  0.13890862732E+02  0.25852967850E+02  0.10566000000E+00 0.  1.
        994    1    1    2    0    0 -0.19535489582E+02 -0.16993495978E+02  0.14978632431E+02  0.17379359507E+03  0.17120000000E+03 0.  0.
        998    1    1    2    0    0  0.33827345833E+02  0.52681567787E+00  0.14711305011E+04  0.14715534371E+04  0.10000000000E+02 0.  1.
</event>
<event>
 5    1  0.1147307E-008  0.3857606E+03  0.7957747E-01  0.3426453E+00
         13   -1    0    0    0    0  0.00000000000E+00  0.00000000000E+00  0.14999999963E+04  0.15000000000E+04  0.10566000000E+00 0.  1.
        994   -1    0    0    0    0 -0.00000000000E+00 -0.00000000000E+00  0.11368683772E-12  0.17120000000E+03  0.17120000000E+03 0.  0.
         13    1    1    2    0    0  0.11526676187E+02  0.52311029686E+01  0.61007650899E+02  0.62307088959E+02  0.10566000000E+00 0.  1.
        994    1    1    2    0    0 -0.13611569119E+02 -0.98066176643E+01  0.21768155565E+01  0.17203378473E+03  0.17120000000E+03 0.  0.
        998    1    1    2    0    0  0.20848929323E+01  0.45755146957E+01  0.14368155298E+04  0.14368591263E+04  0.10000000000E+02 0.  1.
</event>
<event>
 5    1  0.1147307E-008  0.3832843E+03  0.7957747E-01  0.3436981E+00
         13   -1    0    0    0    0  0.00000000000E+00  0.00000000000E+00  0.14999999963E+04  0.15000000000E+04  0.10566000000E+00 0.  1.
        994   -1    0    0    0    0 -0.00000000000E+00 -0.00000000000E+00  0.11368683772E-12  0.17120000000E+03  0.17120000000E+03 0.  0.
         13    1    1    2    0    0  0.10791834402E+02  0.58336904750E+00  0.22332052243E+02  0.24809992556E+02  0.10566000000E+00 0.  1.
        994    1    1    2    0    0 -0.11508642940E+02 -0.23078017263E+01  0.29401162772E+01  0.17162709313E+03  0.17120000000E+03 0.  0.
        998    1    1    2    0    0  0.71680853794E+00  0.17244326788E+01  0.14747278278E+04  0.14747629143E+04  0.10000000000E+02 0.  1.
</event>
<event>
 5    1  0.1147307E-008  0.3840699E+03  0.7957747E-01  0.3433627E+00
         13   -1    0    0    0    0  0.00000000000E+00  0.00000000000E+00  0.14999999963E+04  0.15000000000E+04  0.10566000000E+00 0.  1.
        994   -1    0    0    0    0 -0.00000000000E+00 -0.00000000000E+00  0.11368683772E-12  0.17120000000E+03  0.17120000000E+03 0.  0.
         13    1    1    2    0    0  0.12297237846E+02 -0.18529671176E+02  0.12256113879E+03  0.12456249307E+03  0.10566000000E+00 0.  1.
        994    1    1    2    0    0 -0.55455412472E+01  0.66815252028E+01  0.23413720349E+01  0.17143604589E+03  0.17120000000E+03 0.  0.
        998    1    1    2    0    0 -0.67516965991E+01  0.11848145973E+02  0.13750974855E+04  0.13752014610E+04  0.10000000000E+02 0.  1.
</event>
<event>
 5    1  0.1147307E-008  0.3824033E+03  0.7957747E-01  0.3440760E+00
         13   -1    0    0    0    0  0.00000000000E+00  0.00000000000E+00  0.14999999963E+04  0.15000000000E+04  0.10566000000E+00 0. -1.
        994   -1    0    0    0    0 -0.00000000000E+00 -0.00000000000E+00  0.11368683772E-12  0.17120000000E+03  0.17120000000E+03 0.  0.
         13    1    1    2    0    0  0.99988609654E+01 -0.11762252590E+01  0.15985997936E+02  0.18892432891E+02  0.10566000000E+00 0. -1.
        994    1    1    2    0    0 -0.10732595051E+02  0.22768161117E+01  0.33241884286E+01  0.17158339872E+03  0.17120000000E+03 0.  0.
        998    1    1    2    0    0  0.73373408578E+00 -0.11005908527E+01  0.14806898099E+04  0.14807241684E+04  0.10000000000E+02 0. -1.
</event>
<event>
 5    1  0.1147307E-008  0.3728647E+03  0.7957747E-01  0.3482828E+00
         13   -1    0    0    0    0  0.00000000000E+00  0.00000000000E+00  0.14999999963E+04  0.15000000000E+04  0.10566000000E+00 0. -1.
        994   -1    0    0    0    0 -0.00000000000E+00 -0.00000000000E+00  0.11368683772E-12  0.17120000000E+03  0.17120000000E+03 0.  0.
         13    1    1    2    0    0  0.34351194394E+01  0.12159457959E+02  0.69402405152E+01  0.14416329833E+02  0.10566000000E+00 0. -1.
        994    1    1    2    0    0 -0.20071697958E+02  0.11359606574E+02  0.96026767343E+01  0.17301319349E+03  0.17120000000E+03 0.  0.
        998    1    1    2    0    0  0.16636578519E+02 -0.23519064533E+02  0.14834570790E+04  0.14837704767E+04  0.10000000000E+02 0. -1.
</event>
<event>
 5    1  0.1147307E-008  0.4143080E+03  0.7957747E-01  0.3314152E+00
         13   -1    0    0    0    0  0.00000000000E+00  0.00000000000E+00  0.14999999963E+04  0.15000000000E+04  0.10566000000E+00 0.  1.
        994   -1    0    0    0    0 -0.00000000000E+00 -0.00000000000E+00  0.11368683772E-12  0.17120000000E+03  0.17120000000E+03 0.  0.
         13    1    1    2    0    0 -0.38329013156E+02 -0.26509054646E+02  0.15238740331E+02  0.49031353221E+02  0.10566000000E+00 0.  1.
        994    1    1    2    0    0  0.47423868268E+02  0.18981681745E+02  0.47554849267E+02  0.18487896368E+03  0.17120000000E+03 0.  0.
        998    1    1    2    0    0 -0.90948551114E+01  0.75273729015E+01  0.14372064067E+04  0.14372896831E+04  0.10000000000E+02 0.  1.
</event>
<event>
 5    1  0.1442107E-008  0.3856432E+03  0.7957747E-01  0.3426949E+00
         13   -1    0    0    0    0  0.00000000000E+00  0.00000000000E+00  0.14999999963E+04  0.15000000000E+04  0.10566000000E+00 0.  1.
        994   -1    0    0    0    0 -0.00000000000E+00 -0.00000000000E+00  0.11368683772E-12  0.17120000000E+03  0.17120000000E+03 0.  0.
         13    1    1    2    0    0  0.35294023888E+01  0.11834110051E+02  0.62959123297E+02  0.64158905947E+02  0.10566000000E+00 0.  1.
        994    1    1    2    0    0 -0.55328987402E+01  0.38174457216E+01  0.14594553112E+01  0.17133813315E+03  0.17120000000E+03 0.  0.
        998    1    1    2    0    0  0.20034963514E+01 -0.15651555773E+02  0.14355814177E+04  0.14357029609E+04  0.10000000000E+02 0.  1.
</event>
<event>
 5    1  0.1147307E-008  0.3821676E+03  0.7957747E-01  0.3441774E+00
         13   -1    0    0    0    0  0.00000000000E+00  0.00000000000E+00  0.14999999963E+04  0.15000000000E+04  0.10566000000E+00 0.  1.
        994   -1    0    0    0    0 -0.00000000000E+00 -0.00000000000E+00  0.11368683772E-12  0.17120000000E+03  0.17120000000E+03 0.  0.
         13    1    1    2    0    0 -0.19609048604E+02  0.20669101197E+02  0.12307423209E+03  0.12632895274E+03  0.10566000000E+00 0.  1.
        994    1    1    2    0    0  0.21635523474E+02 -0.18676680175E+02  0.57590956727E+01  0.17366496895E+03  0.17120000000E+03 0.  0.
        998    1    1    2    0    0 -0.20264748707E+01 -0.19924210222E+01  0.13711666685E+04  0.13712060783E+04  0.10000000000E+02 0.  1.
</event>
<event>
 5    1  0.1147307E-008  0.3789232E+03  0.7957747E-01  0.3455861E+00
         13   -1    0    0    0    0  0.00000000000E+00  0.00000000000E+00  0.14999999963E+04  0.15000000000E+04  0.10566000000E+00 0. -1.
        994   -1    0    0    0    0 -0.00000000000E+00 -0.00000000000E+00  0.11368683772E-12  0.17120000000E+03  0.17120000000E+03 0.  0.
         13    1    1    2    0    0 -0.15786592384E+02  0.88873749758E+01  0.35807596523E+02  0.40129752876E+02  0.10566000000E+00 0. -1.
        994    1    1    2    0    0 -0.12335978345E+02  0.19133714041E+01  0.52006913075E+01  0.17173329480E+03  0.17120000000E+03 0.  0.
        998    1    1    2    0    0  0.28122570729E+02 -0.10800746380E+02  0.14589917084E+04  0.14593369523E+04  0.10000000000E+02 0. -1.
</event>
<event>
 5    1  0.1147307E-008  0.3773232E+03  0.7957747E-01  0.3462897E+00
         13   -1    0    0    0    0  0.00000000000E+00  0.00000000000E+00  0.14999999963E+04  0.15000000000E+04  0.10566000000E+00 0. -1.
        994   -1    0    0    0    0 -0.00000000000E+00 -0.00000000000E+00  0.11368683772E-12  0.17120000000E+03  0.17120000000E+03 0.  0.
         13    1    1    2    0    0 -0.12487846540E+03 -0.11140926988E+03  0.83064198000E+03  0.84733273668E+03  0.10566000000E+00 0. -1.
        994    1    1    2    0    0  0.14292683166E+03  0.10461029783E+03  0.11987349155E+03  0.27395344057E+03  0.17120000000E+03 0.  0.
        998    1    1    2    0    0 -0.18048366263E+02  0.67989720468E+01  0.54948452472E+03  0.54991382275E+03  0.10000000000E+02 0. -1.
</event>
<event>
 5    1  0.1147307E-008  0.4206931E+03  0.7957747E-01  0.3291099E+00
         13   -1    0    0    0    0  0.00000000000E+00  0.00000000000E+00  0.14999999963E+04  0.15000000000E+04  0.10566000000E+00 0. -1.
        994   -1    0    0    0    0 -0.00000000000E+00 -0.00000000000E+00  0.11368683772E-12  0.17120000000E+03  0.17120000000E+03 0.  0.
         13    1    1    2    0    0  0.43421767299E+01  0.76252248689E+02  0.62869153147E+02  0.98923210170E+02  0.10566000000E+00 0. -1.
        994    1    1    2    0    0  0.30557699462E+02 -0.38172376490E+02  0.51080699672E+02  0.18522845678E+03  0.17120000000E+03 0.  0.
        998    1    1    2    0    0 -0.34899876192E+02 -0.38079872199E+02  0.13860501435E+04  0.13870483330E+04  0.10000000000E+02 0. -1.
</event>
<event>
 5    1  0.1738762E-008  0.3858842E+03  0.7957747E-01  0.3425931E+00
         13   -1    0    0    0    0  0.00000000000E+00  0.00000000000E+00  0.14999999963E+04  0.15000000000E+04  0.10566000000E+00 0. -1.
        994   -1    0    0    0    0 -0.00000000000E+00 -0.00000000000E+00  0.11368683772E-12  0.17120000000E+03  0.17120000000E+03 0.  0.
         13    1    1    2    0    0  0.14885518814E+01 -0.12005839865E+02  0.63925770516E+02  0.65060520116E+02  0.10566000000E+00 0. -1.
        994    1    1    2    0    0  0.52103232191E+01  0.46611389865E+01  0.13520461777E+01  0.17134801345E+03  0.17120000000E+03 0.  0.
        998    1    1    2    0    0 -0.66988751005E+01  0.73447008783E+01  0.14347221796E+04  0.14347914664E+04  0.10000000000E+02 0. -1.
</event>
<event>
 5    1  0.1147307E-008  0.3500873E+03  0.7957747E-01  0.3592729E+00
         13   -1    0    0    0    0  0.00000000000E+00  0.00000000000E+00  0.14999999963E+04  0.15000000000E+04  0.10566000000E+00 0. -1.
        994   -1    0    0    0    0 -0.00000000000E+00 -0.00000000000E+00  0.11368683772E-12  0.17120000000E+03  0.17120000000E+03 0.  0.
         13    1    1    2    0    0 -0.25366865727E+03 -0.52032981995E+02  0.93369062924E+03  0.96893416763E+03  0.10566000000E+00 0. -1.
        994    1    1    2    0    0  0.22883787712E+03  0.96631629735E+02  0.28108742340E+03  0.41233969669E+03  0.17120000000E+03 0.  0.
        998    1    1    2    0    0  0.24830780158E+02 -0.44598647741E+02  0.28522194363E+03  0.28992613569E+03  0.10000000000E+02 0.  1.
</event>
<event>
 5    1  0.1147307E-008  0.3777972E+03  0.7957747E-01  0.3460807E+00
         13   -1    0    0    0    0  0.00000000000E+00  0.00000000000E+00  0.14999999963E+04  0.15000000000E+04  0.10566000000E+00 0.  1.
        994   -1    0    0    0    0 -0.00000000000E+00 -0.00000000000E+00  0.11368683772E-12  0.17120000000E+03  0.17120000000E+03 0.  0.
         13    1    1    2    0    0  0.10258792930E+03  0.10949731265E+02  0.55711218597E+03  0.56658466161E+03  0.10566000000E+00 0.  1.
        994    1    1    2    0    0 -0.11123501872E+03 -0.70735286584E+01  0.48295598637E+02  0.20991705277E+03  0.17120000000E+03 0.  0.
        998    1    1    2    0    0  0.86470894203E+01 -0.38762026068E+01  0.89459221167E+03  0.89469828561E+03  0.10000000000E+02 0.  1.
</event>
<event>
 5    1  0.1147307E-008  0.3822722E+03  0.7957747E-01  0.3441324E+00
         13   -1    0    0    0    0  0.00000000000E+00  0.00000000000E+00  0.14999999963E+04  0.15000000000E+04  0.10566000000E+00 0.  1.
        994   -1    0    0    0    0 -0.00000000000E+00 -0.00000000000E+00  0.11368683772E-12  0.17120000000E+03  0.17120000000E+03 0.  0.
         13    1    1    2    0    0  0.48385360907E+01  0.12015657622E+02  0.26834899671E+02  0.29797826498E+02  0.10566000000E+00 0.  1.
        994    1    1    2    0    0  0.44839198315E+01 -0.12768312210E+02  0.35984280792E+01  0.17177172066E+03  0.17120000000E+03 0.  0.
        998    1    1    2    0    0 -0.93224559222E+01  0.75265458865E+00  0.14695666685E+04  0.14696304528E+04  0.10000000000E+02 0.  1.
</event>
<event>
 5    1  0.1147307E-008  0.3788134E+03  0.7957747E-01  0.3456341E+00
         13   -1    0    0    0    0  0.00000000000E+00  0.00000000000E+00  0.14999999963E+04  0.15000000000E+04  0.10566000000E+00 0. -1.
        994   -1    0    0    0    0 -0.00000000000E+00 -0.00000000000E+00  0.11368683772E-12  0.17120000000E+03  0.17120000000E+03 0.  0.
         13    1    1    2    0    0  0.14345497813E+02 -0.58333040399E+02  0.32367261350E+03  0.32919980074E+03  0.10566000000E+00 0. -1.
        994    1    1    2    0    0 -0.12986523199E+02  0.50239914242E+02  0.13823902429E+02  0.17942474480E+03  0.17120000000E+03 0.  0.
        998    1    1    2    0    0 -0.13589746137E+01  0.80931261569E+01  0.11625034803E+04  0.11625754545E+04  0.10000000000E+02 0. -1.
</event>
<event>
 5    1  0.1147307E-008  0.3960022E+03  0.7957747E-01  0.3384310E+00
         13   -1    0    0    0    0  0.00000000000E+00  0.00000000000E+00  0.14999999963E+04  0.15000000000E+04  0.10566000000E+00 0.  1.
        994   -1    0    0    0    0 -0.00000000000E+00 -0.00000000000E+00  0.11368683772E-12  0.17120000000E+03  0.17120000000E+03 0.  0.
         13    1    1    2    0    0 -0.90724462929E+01 -0.35325339738E+02  0.16056021558E+02  0.39849666268E+02  0.10566000000E+00 0.  1.
        994    1    1    2    0    0  0.12977211429E+02  0.25732044699E+02  0.28616188146E+02  0.17595133522E+03  0.17120000000E+03 0.  0.
        998    1    1    2    0    0 -0.39047651363E+01  0.95932950391E+01  0.14553277866E+04  0.14553989985E+04  0.10000000000E+02 0.  1.
</event>
<event>
 5    1  0.1147307E-008  0.3855522E+03  0.7957747E-01  0.3427333E+00
         13   -1    0    0    0    0  0.00000000000E+00  0.00000000000E+00  0.14999999963E+04  0.15000000000E+04  0.10566000000E+00 0.  1.
        994   -1    0    0    0    0 -0.00000000000E+00 -0.00000000000E+00  0.11368683772E-12  0.17120000000E+03  0.17120000000E+03 0.  0.
         13    1    1    2    0    0 -0.77054452555E+01 -0.10712710733E+02  0.67322405942E+02  0.68603597308E+02  0.10566000000E+00 0.  1.
        994    1    1    2    0    0 -0.83360646229E+01  0.97750700482E+01  0.18981937191E+01  0.17169183180E+03  0.17120000000E+03 0.  0.
        998    1    1    2    0    0  0.16041509878E+02  0.93764068436E+00  0.14307793966E+04  0.14309045709E+04  0.10000000000E+02 0.  1.
</event>
<event>
 5    1  0.1147307E-008  0.3766481E+03  0.7957747E-01  0.3465885E+00
         13   -1    0    0    0    0  0.00000000000E+00  0.00000000000E+00  0.14999999963E+04  0.15000000000E+04  0.10566000000E+00 0.  1.
        994   -1    0    0    0    0 -0.00000000000E+00 -0.00000000000E+00  0.11368683772E-12  0.17120000000E+03  0.17120000000E+03 0.  0.
         13    1    1    2    0    0  0.47981884127E+01 -0.19615602944E+02  0.32929571870E+02  0.38628517425E+02  0.10566000000E+00 0.  1.
        994    1    1    2    0    0  0.93941342142E+01  0.12450540051E+02  0.66575820938E+01  0.17203787113E+03  0.17120000000E+03 0.  0.
        998    1    1    2    0    0 -0.14192322627E+02  0.71650628931E+01  0.14604128423E+04  0.14605336114E+04  0.10000000000E+02 0.  1.
</event>
<event>
 5    1  0.1147307E-008  0.3772761E+03  0.7957747E-01  0.3463105E+00
         13   -1    0    0    0    0  0.00000000000E+00  0.00000000000E+00  0.14999999963E+04  0.15000000000E+04  0.10566000000E+00 0. -1.
        994   -1    0    0    0    0 -0.00000000000E+00 -0.00000000000E+00  0.11368683772E-12  0.17120000000E+03  0.17120000000E+03 0.  0.
         13    1    1    2    0    0 -0.42681116835E+02  0.84584607463E+01  0.15797358141E+03  0.16385629949E+03  0.10566000000E+00 0. -1.
        994    1    1    2    0    0  0.36704565977E+02 -0.11235796234E+02  0.10501138225E+02  0.17576456464E+03  0.17120000000E+03 0.  0.
        998    1    1    2    0    0  0.59765508580E+01  0.27773354881E+01  0.13315252766E+04  0.13315791359E+04  0.10000000000E+02 0. -1.
</event>
<event>
 5    1  0.1147307E-008  0.3854077E+03  0.7957747E-01  0.3427945E+00
         13   -1    0    0    0    0  0.00000000000E+00  0.00000000000E+00  0.14999999963E+04  0.15000000000E+04  0.10566000000E+00 0.  1.
        994   -1    0    0    0    0 -0.00000000000E+00 -0.00000000000E+00  0.11368683772E-12  0.17120000000E+03  0.17120000000E+03 0.  0.
         13    1    1    2    0    0 -0.41191366185E+01 -0.12407409016E+02  0.61426507570E+02  0.62802373214E+02  0.10566000000E+00 0.  1.
        994    1    1    2    0    0 -0.14558905032E+02  0.10858649653E+02  0.25120144365E+01  0.17217904113E+03  0.17120000000E+03 0.  0.
        998    1    1    2    0    0  0.18678041651E+02  0.15487593635E+01  0.14360614743E+04  0.14362185857E+04  0.10000000000E+02 0.  1.
</event>
<event>
 5    1  0.1147307E-008  0.3810069E+03  0.7957747E-01  0.3446786E+00
         13   -1    0    0    0    0  0.00000000000E+00  0.00000000000E+00  0.14999999963E+04  0.15000000000E+04  0.10566000000E+00 0.  1.
        994   -1    0    0    0    0 -0.00000000000E+00 -0.00000000000E+00  0.11368683772E-12  0.17120000000E+03  0.17120000000E+03 0.  0.
         13    1    1    2    0    0 -0.27676483628E+01  0.19947622852E+02  0.54440922564E+02  0.58046470595E+02  0.10566000000E+00 0.  1.
        994    1    1    2    0    0 -0.69212079007E+01 -0.15056354517E+02  0.45411582598E+01  0.17206004489E+03  0.17120000000E+03 0.  0.
        998    1    1    2    0    0  0.96888562635E+01 -0.48912683351E+01  0.14410179155E+04  0.14410934845E+04  0.10000000000E+02 0.  1.
</event>
<event>
 5    1  0.1147307E-008  0.3814287E+03  0.7957747E-01  0.3444961E+00
         13   -1    0    0    0    0  0.00000000000E+00  0.00000000000E+00  0.14999999963E+04  0.15000000000E+04  0.10566000000E+00 0. -1.
        994   -1    0    0    0    0 -0.00000000000E+00 -0.00000000000E+00  0.11368683772E-12  0.17120000000E+03  0.17120000000E+03 0.  0.
         13    1    1    2    0    0  0.15687560555E+02 -0.30988592456E+01  0.37191663065E+02  0.40483743038E+02  0.10566000000E+00 0. -1.
        994    1    1    2    0    0 -0.49982220124E+01 -0.90493264707E+01  0.37693286574E+01  0.17155325812E+03  0.17120000000E+03 0.  0.
        998    1    1    2    0    0 -0.10689338543E+02  0.12148185716E+02  0.14590390046E+04  0.14591629988E+04  0.10000000000E+02 0. -1.
</event>
<event>
 5    1  0.1147307E-008  0.3830040E+03  0.7957747E-01  0.3438182E+00
         13   -1    0    0    0    0  0.00000000000E+00  0.00000000000E+00  0.14999999963E+04  0.15000000000E+04  0.10566000000E+00 0. -1.
        994   -1    0    0    0    0 -0.00000000000E+00 -0.00000000000E+00  0.11368683772E-12  0.17120000000E+03  0.17120000000E+03 0.  0.
         13    1    1    2    0    0  0.27832543653E+02  0.44285989110E+01  0.16418071456E+03  0.16658205537E+03  0.10566000000E+00 0. -1.
        994    1    1    2    0    0 -0.72088267462E+01  0.46257586857E+01  0.28672383712E+01  0.17143811094E+03  0.17120000000E+03 0.  0.
        998    1    1    2    0    0 -0.20623716906E+02 -0.90543575967E+01  0.13329520434E+04  0.13331798337E+04  0.10000000000E+02 0. -1.
</event>
<event>
 5    1  0.1147307E-008  0.2663741E+03  0.7957747E-01  0.4169783E+00
         13   -1    0    0    0    0  0.00000000000E+00  0.00000000000E+00  0.14999999963E+04  0.15000000000E+04  0.10566000000E+00 0. -1.
        994   -1    0    0    0    0 -0.00000000000E+00 -0.00000000000E+00  0.11368683772E-12  0.17120000000E+03  0.17120000000E+03 0.  0.
         13    1    1    2    0    0 -0.17854347632E+03  0.12766230484E+02  0.21478843087E+03  0.27959762298E+03  0.10566000000E+00 0. -1.
        994    1    1    2    0    0  0.23701713033E+03 -0.48214058596E+02  0.37116419803E+03  0.47494633109E+03  0.17120000000E+03 0.  0.
        998    1    1    2    0    0 -0.58473654010E+02  0.35447828111E+02  0.91404736738E+03  0.91665604593E+03  0.10000000000E+02 0. -1.
</event>
<event>
 5    1  0.1147307E-008  0.3790320E+03  0.7957747E-01  0.3455384E+00
         13   -1    0    0    0    0  0.00000000000E+00  0.00000000000E+00  0.14999999963E+04  0.15000000000E+04  0.10566000000E+00 0. -1.
        994   -1    0    0    0    0 -0.00000000000E+00 -0.00000000000E+00  0.11368683772E-12  0.17120000000E+03  0.17120000000E+03 0.  0.
         13    1    1    2    0    0  0.12414334692E+01  0.12877559938E+02  0.16011813674E+02  0.20585481490E+02  0.10566000000E+00 0. -1.
        994    1    1    2    0    0 -0.18185822461E+01 -0.11662502602E+02  0.50899674865E+01  0.17168188308E+03  0.17120000000E+03 0.  0.
        998    1    1    2    0    0  0.57714877696E+00 -0.12150573355E+01  0.14788982151E+04  0.14789326354E+04  0.10000000000E+02 0. -1.
</event>
<event>
 5    1  0.1147307E-008  0.3804754E+03  0.7957747E-01  0.3449091E+00
         13   -1    0    0    0    0  0.00000000000E+00  0.00000000000E+00  0.14999999963E+04  0.15000000000E+04  0.10566000000E+00 0.  1.
        994   -1    0    0    0    0 -0.00000000000E+00 -0.00000000000E+00  0.11368683772E-12  0.17120000000E+03  0.17120000000E+03 0.  0.
         13    1    1    2    0    0  0.31344332508E+00  0.23778792113E+02  0.77636921426E+02  0.81197487237E+02  0.10566000000E+00 0.  1.
        994    1    1    2    0    0  0.11265439808E+02  0.29808799047E+01  0.43467373270E+01  0.17165118673E+03  0.17120000000E+03 0.  0.
        998    1    1    2    0    0 -0.11578883133E+02 -0.26759672017E+02  0.14180163375E+04  0.14183513260E+04  0.10000000000E+02 0.  1.
</event>
<event>
 5    1  0.1147307E-008  0.3798851E+03  0.7957747E-01  0.3451659E+00
         13   -1    0    0    0    0  0.00000000000E+00  0.00000000000E+00  0.14999999963E+04  0.15000000000E+04  0.10566000000E+00 0. -1.
        994   -1    0    0    0    0 -0.00000000000E+00 -0.00000000000E+00  0.11368683772E-12  0.17120000000E+03  0.17120000000E+03 0.  0.
         13    1    1    2    0    0 -0.18628887658E+02 -0.26806878139E+02  0.11786402426E+03  0.12230120012E+03  0.10566000000E+00 0. -1.
        994    1    1    2    0    0  0.22873773148E+02  0.22151068867E+02  0.75892066781E+01  0.17430122033E+03  0.17120000000E+03 0.  0.
        998    1    1    2    0    0 -0.42448854897E+01  0.46558092717E+01  0.13745467653E+04  0.13745975796E+04  0.10000000000E+02 0. -1.
</event>
<event>
 5    1  0.1147307E-008  0.3733877E+03  0.7957747E-01  0.3480465E+00
         13   -1    0    0    0    0  0.00000000000E+00  0.00000000000E+00  0.14999999963E+04  0.15000000000E+04  0.10566000000E+00 0.  1.
        994   -1    0    0    0    0 -0.00000000000E+00 -0.00000000000E+00  0.11368683772E-12  0.17120000000E+03  0.17120000000E+03 0.  0.
         13    1    1    2    0    0  0.18108818394E+02  0.60071947271E+01  0.20832206050E+02  0.28249029454E+02  0.10566000000E+00 0.  1.
        994    1    1    2    0    0 -0.18085504044E+02 -0.98995697380E+00  0.86310734755E+01  0.17237169402E+03  0.17120000000E+03 0.  0.
        998    1    1    2    0    0 -0.23314350489E-01 -0.50172377533E+01  0.14705367168E+04  0.14705792765E+04  0.10000000000E+02 0.  1.
</event>
<event>
 5    1  0.1147307E-008  0.3814633E+03  0.7957747E-01  0.3444811E+00
         13   -1    0    0    0    0  0.00000000000E+00  0.00000000000E+00  0.14999999963E+04  0.15000000000E+04  0.10566000000E+00 0. -1.
        994   -1    0    0    0    0 -0.00000000000E+00 -0.00000000000E+00  0.11368683772E-12  0.17120000000E+03  0.17120000000E+03 0.  0.
         13    1    1    2    0    0 -0.20276008538E+01  0.21526770224E+02  0.66652608411E+02  0.70072065572E+02  0.10566000000E+00 0. -1.
        994    1    1    2    0    0  0.17272258858E+01 -0.16964229171E+02  0.43642122354E+01  0.17210245416E+03  0.17120000000E+03 0.  0.
        998    1    1    2    0    0  0.30037496808E+00 -0.45625410524E+01  0.14289831756E+04  0.14290254803E+04  0.10000000000E+02 0. -1.
</event>
<event>
 5    1  0.1147307E-008  0.3855304E+03  0.7957747E-01  0.3427426E+00
         13   -1    0    0    0    0  0.00000000000E+00  0.00000000000E+00  0.14999999963E+04  0.15000000000E+04  0.10566000000E+00 0. -1.
        994   -1    0    0    0    0 -0.00000000000E+00 -0.00000000000E+00  0.11368683772E-12  0.17120000000E+03  0.17120000000E+03 0.  0.
         13    1    1    2    0    0  0.98148634066E+01 -0.11124608569E+02  0.79436148624E+02  0.80809661129E+02  0.10566000000E+00 0. -1.
        994    1    1    2    0    0 -0.12728083031E+02  0.50609988078E+01  0.19832301698E+01  0.17175852529E+03  0.17120000000E+03 0.  0.
        998    1    1    2    0    0  0.29132196244E+01  0.60636097607E+01  0.14185806175E+04  0.14186318136E+04  0.10000000000E+02 0. -1.
</event>
<event>
 5    1  0.1147307E-008  0.3834905E+03  0.7957747E-01  0.3436099E+00
         13   -1    0    0    0    0  0.00000000000E+00  0.00000000000E+00  0.14999999963E+04  0.15000000000E+04  0.10566000000E+00 0. -1.
        994   -1    0    0    0    0 -0.00000000000E+00 -0.00000000000E+00  0.11368683772E-12  0.17120000000E+03  0.17120000000E+03 0.  0.
         13    1    1    2    0    0 -0.77291418673E+01 -0.22518958897E+02  0.11238022025E+03  0.11487457600E+03  0.10566000000E+00 0. -1.
        994    1    1    2    0    0  0.11923925099E+02  0.19384981810E+02  0.40950432059E+01  0.17275464361E+03  0.17120000000E+03 0.  0.
        998    1    1    2    0    0 -0.41947832320E+01  0.31339770865E+01  0.13835247328E+04  0.13835707804E+04  0.10000000000E+02 0. -1.
</event>
<event>
 5    1  0.1147307E-008  0.3859691E+03  0.7957747E-01  0.3425573E+00
         13   -1    0    0    0    0  0.00000000000E+00  0.00000000000E+00  0.14999999963E+04  0.15000000000E+04  0.10566000000E+00 0. -1.
        994   -1    0    0    0    0 -0.00000000000E+00 -0.00000000000E+00  0.11368683772E-12  0.17120000000E+03  0.17120000000E+03 0.  0.
         13    1    1    2    0    0 -0.19941597173E+00  0.10240516603E+02  0.43436160393E+02  0.44627560327E+02  0.10566000000E+00 0. -1.
        994    1    1    2    0    0  0.24246229703E+02 -0.16944869242E+02  0.40236242760E+01  0.17378330703E+03  0.17120000000E+03 0.  0.
        998    1    1    2    0    0 -0.24046813732E+02  0.67043526394E+01  0.14525402116E+04  0.14527891326E+04  0.10000000000E+02 0. -1.
</event>
<event>
 5    1  0.1147307E-008  0.3733545E+03  0.7957747E-01  0.3480615E+00
         13   -1    0    0    0    0  0.00000000000E+00  0.00000000000E+00  0.14999999963E+04  0.15000000000E+04  0.10566000000E+00 0.  1.
        994   -1    0    0    0    0 -0.00000000000E+00 -0.00000000000E+00  0.11368683772E-12  0.17120000000E+03  0.17120000000E+03 0.  0.
         13    1    1    2    0    0 -0.70567903688E+02  0.22612513122E+02  0.29992990809E+03  0.30894840299E+03  0.10566000000E+00 0.  1.
        994    1    1    2    0    0  0.71022812897E+02 -0.69758983906E+01  0.25139839590E+02  0.18717466347E+03  0.17120000000E+03 0.  0.
        998    1    1    2    0    0 -0.45490920881E+00 -0.15636614732E+02  0.11749302486E+04  0.11750769335E+04  0.10000000000E+02 0. -1.
</event>
<event>
 5    1  0.1147307E-008  0.3881185E+03  0.7957747E-01  0.3416553E+00
         13   -1    0    0    0    0  0.00000000000E+00  0.00000000000E+00  0.14999999963E+04  0.15000000000E+04  0.10566000000E+00 0. -1.
        994   -1    0    0    0    0 -0.00000000000E+00 -0.00000000000E+00  0.11368683772E-12  0.17120000000E+03  0.17120000000E+03 0.  0.
         13    1    1    2    0    0 -0.18675108567E+02 -0.96248032373E+02  0.27156193705E+03  0.28871844457E+03  0.10566000000E+00 0. -1.
        994    1    1    2    0    0  0.24669790060E+02  0.15458671641E+02  0.24032091349E+02  0.17531272197E+03  0.17120000000E+03 0.  0.
        998    1    1    2    0    0 -0.59946814935E+01  0.80789360731E+02  0.12044059679E+04  0.12071688335E+04  0.10000000000E+02 0. -1.
</event>
<event>
 5    1  0.1147307E-008  0.2757630E+03  0.7957747E-01  0.4085843E+00
         13   -1    0    0    0    0  0.00000000000E+00  0.00000000000E+00  0.14999999963E+04  0.15000000000E+04  0.10566000000E+00 0. -1.
        994   -1    0    0    0    0 -0.00000000000E+00 -0.00000000000E+00  0.11368683772E-12  0.17120000000E+03  0.17120000000E+03 0.  0.
         13    1    1    2    0    0  0.13476763769E+03  0.45597064817E+02  0.67039077706E+03  0.68532124848E+03  0.10566000000E+00 0. -1.
        994    1    1    2    0    0 -0.32340073312E+02  0.15497110697E+01  0.28185317224E+02  0.17649967154E+03  0.17120000000E+03 0.  0.
        998    1    1    2    0    0 -0.10242756438E+03 -0.47146775886E+02  0.80142390199E+03  0.80937907998E+03  0.10000000000E+02 0.  1.
</event>
<event>
 5    1  0.1147307E-008  0.3826455E+03  0.7957747E-01  0.3439720E+00
         13   -1    0    0    0    0  0.00000000000E+00  0.00000000000E+00  0.14999999963E+04  0.15000000000E+04  0.10566000000E+00 0.  1.
        994   -1    0    0    0    0 -0.00000000000E+00 -0.00000000000E+00  0.11368683772E-12  0.17120000000E+03  0.17120000000E+03 0.  0.
         13    1    1    2    0    0  0.75366169769E+01  0.22175661718E+02  0.88322057817E+02  0.91374819448E+02  0.10566000000E+00 0.  1.
        994    1    1    2    0    0 -0.90962200704E+01 -0.29727441419E+02  0.60130646825E+01  0.17410358681E+03  0.17120000000E+03 0.  0.
        998    1    1    2    0    0  0.15596030935E+01  0.75517797013E+01  0.14056648738E+04  0.14057215937E+04  0.10000000000E+02 0.  1.
</event>
<event>
 5    1  0.1147307E-008  0.3704664E+03  0.7957747E-01  0.3493750E+00
         13   -1    0    0    0    0  0.00000000000E+00  0.00000000000E+00  0.14999999963E+04  0.15000000000E+04  0.10566000000E+00 0. -1.
        994   -1    0    0    0    0 -0.00000000000E+00 -0.00000000000E+00  0.11368683772E-12  0.17120000000E+03  0.17120000000E+03 0.  0.
         13    1    1    2    0    0 -0.29207594943E+02 -0.53628099387E+02  0.25405038216E+03  0.26128655626E+03  0.10566000000E+00 0. -1.
        994    1    1    2    0    0  0.76796303505E+01 -0.41958027778E+01  0.92898967763E+01  0.17167505254E+03  0.17120000000E+03 0.  0.
        998    1    1    2    0    0  0.21527964593E+02  0.57823902164E+02  0.12366597173E+04  0.12382383912E+04  0.10000000000E+02 0. -1.
</event>
<event>
 5    1  0.1147307E-008  0.3818472E+03  0.7957747E-01  0.3443155E+00
         13   -1    0    0    0    0  0.00000000000E+00  0.00000000000E+00  0.14999999963E+04  0.15000000000E+04  0.10566000000E+00 0. -1.
        994   -1    0    0    0    0 -0.00000000000E+00 -0.00000000000E+00  0.11368683772E-12  0.17120000000E+03  0.17120000000E+03 0.  0.
         13    1    1    2    0    0  0.10792787697E+02  0.13518268183E+02  0.45178214745E+02  0.48376751571E+02  0.10566000000E+00 0. -1.
        994    1    1    2    0    0 -0.16980065374E+01 -0.16198681124E+02  0.40855262597E+01  0.17202154522E+03  0.17120000000E+03 0.  0.
        998    1    1    2    0    0 -0.90947811599E+01  0.26804129403E+01  0.14507362553E+04  0.14508017032E+04  0.10000000000E+02 0. -1.
</event>
<event>
 5    1  0.1147307E-008  0.3817793E+03  0.7957747E-01  0.3443447E+00
         13   -1    0    0    0    0  0.00000000000E+00  0.00000000000E+00  0.14999999963E+04  0.15000000000E+04  0.10566000000E+00 0. -1.
        994   -1    0    0    0    0 -0.00000000000E+00 -0.00000000000E+00  0.11368683772E-12  0.17120000000E+03  0.17120000000E+03 0.  0.
         13    1    1    2    0    0  0.26895085835E+02 -0.11430396821E+02  0.13309876284E+03  0.13626918744E+03  0.10566000000E+00 0. -1.
        994    1    1    2    0    0 -0.13585176888E+02  0.60935971896E+01  0.39747381724E+01  0.17189219733E+03  0.17120000000E+03 0.  0.
        998    1    1    2    0    0 -0.13309908947E+02  0.53367996318E+01  0.13629264953E+04  0.13630386152E+04  0.10000000000E+02 0. -1.
</event>
<event>
 5    1  0.1147307E-008  0.3858306E+03  0.7957747E-01  0.3426157E+00
         13   -1    0    0    0    0  0.00000000000E+00  0.00000000000E+00  0.14999999963E+04  0.15000000000E+04  0.10566000000E+00 0. -1.
        994   -1    0    0    0    0 -0.00000000000E+00 -0.00000000000E+00  0.11368683772E-12  0.17120000000E+03  0.17120000000E+03 0.  0.
         13    1    1    2    0    0  0.98439928341E+01 -0.57888374462E+01  0.53980694348E+02  0.55175550385E+02  0.10566000000E+00 0. -1.
        994    1    1    2    0    0 -0.79140068443E+01  0.18375770661E+01  0.14348351538E+01  0.17139867837E+03  0.17120000000E+03 0.  0.
        998    1    1    2    0    0 -0.19299859898E+01  0.39512603801E+01  0.14445844668E+04  0.14446257712E+04  0.10000000000E+02 0. -1.
</event>
<event>
 5    1  0.1147307E-008  0.3774988E+03  0.7957747E-01  0.3462122E+00
         13   -1    0    0    0    0  0.00000000000E+00  0.00000000000E+00  0.14999999963E+04  0.15000000000E+04  0.10566000000E+00 0. -1.
        994   -1    0    0    0    0 -0.00000000000E+00 -0.00000000000E+00  0.11368683772E-12  0.17120000000E+03  0.17120000000E+03 0.  0.
         13    1    1    2    0    0  0.34099014092E+02 -0.20442648754E+02  0.12735477709E+03  0.13341624737E+03  0.10566000000E+00 0. -1.
        994    1    1    2    0    0 -0.41605900107E+02  0.24494891897E+02  0.13299229301E+02  0.17837421381E+03  0.17120000000E+03 0.  0.
        998    1    1    2    0    0  0.75068860144E+01 -0.40522431432E+01  0.13593459899E+04  0.13594095388E+04  0.10000000000E+02 0. -1.
</event>
<event>
 5    1  0.1147307E-008  0.3875734E+03  0.7957747E-01  0.3418831E+00
         13   -1    0    0    0    0  0.00000000000E+00  0.00000000000E+00  0.14999999963E+04  0.15000000000E+04  0.10566000000E+00 0.  1.
        994   -1    0    0    0    0 -0.00000000000E+00 -0.00000000000E+00  0.11368683772E-12  0.17120000000E+03  0.17120000000E+03 0.  0.
         13    1    1    2    0    0  0.70471368499E+02  0.44731650570E+01  0.11064259742E+03  0.13125554659E+03  0.10566000000E+00 0.  1.
        994    1    1    2    0    0 -0.59660658403E+02 -0.18285816637E+01  0.33954409186E+02  0.18445888370E+03  0.17120000000E+03 0.  0.
        998    1    1    2    0    0 -0.10810710096E+02 -0.26445833933E+01  0.13554029897E+04  0.13554855697E+04  0.10000000000E+02 0.  1.
</event>
<event>
 5    1  0.1147307E-008  0.3850370E+03  0.7957747E-01  0.3429515E+00
         13   -1    0    0    0    0  0.00000000000E+00  0.00000000000E+00  0.14999999963E+04  0.15000000000E+04  0.10566000000E+00 0.  1.
        994   -1    0    0    0    0 -0.00000000000E+00 -0.00000000000E+00  0.11368683772E-12  0.17120000000E+03  0.17120000000E+03 0.  0.
         13    1    1    2    0    0  0.14352866764E+02 -0.92165650624E+00  0.58447217392E+02  0.60190884858E+02  0.10566000000E+00 0.  1.
        994    1    1    2    0    0 -0.24760744746E+02  0.10099072725E+02  0.39666732995E+01  0.17332126311E+03  0.17120000000E+03 0.  0.
        998    1    1    2    0    0  0.10407877982E+02 -0.91774162191E+01  0.14375861056E+04  0.14376878520E+04  0.10000000000E+02 0.  1.
</event>
<event>
 5    1  0.1147307E-008  0.3752713E+03  0.7957747E-01  0.3472010E+00
         13   -1    0    0    0    0  0.00000000000E+00  0.00000000000E+00  0.14999999963E+04  0.15000000000E+04  0.10566000000E+00 0. -1.
        994   -1    0    0    0    0 -0.00000000000E+00 -0.00000000000E+00  0.11368683772E-12  0.17120000000E+03  0.17120000000E+03 0.  0.
         13    1    1    2    0    0 -0.21316847904E+02  0.18740651493E+02  0.63318105766E+02  0.69388858651E+02  0.10566000000E+00 0. -1.
        994    1    1    2    0    0  0.32120725001E+01  0.57292407216E+01  0.66860042627E+01  0.17145636256E+03  0.17120000000E+03 0.  0.
        998    1    1    2    0    0  0.18104775404E+02 -0.24469892215E+02  0.14299958862E+04  0.14303547788E+04  0.10000000000E+02 0. -1.
</event>
<event>
 5    1  0.1147307E-008  0.4018643E+03  0.7957747E-01  0.3361153E+00
         13   -1    0    0    0    0  0.00000000000E+00  0.00000000000E+00  0.14999999963E+04  0.15000000000E+04  0.10566000000E+00 0.  1.
        994   -1    0    0    0    0 -0.00000000000E+00 -0.00000000000E+00  0.11368683772E-12  0.17120000000E+03  0.17120000000E+03 0.  0.
         13    1    1    2    0    0  0.37590398637E+02  0.14299722798E+02  0.16405147008E+02  0.43435701378E+02  0.10566000000E+00 0.  1.
        994    1    1    2    0    0 -0.34984914540E+02 -0.15147719641E+02  0.34651148443E+02  0.17878349964E+03  0.17120000000E+03 0.  0.
        998    1    1    2    0    0 -0.26054840964E+01  0.84799684272E+00  0.14489437008E+04  0.14489807990E+04  0.10000000000E+02 0.  1.
</event>
<event>
 5    1  0.1147307E-008  0.3809473E+03  0.7957747E-01  0.3447044E+00
         13   -1    0    0    0    0  0.00000000000E+00  0.00000000000E+00  0.14999999963E+04  0.15000000000E+04  0.10566000000E+00 0.  1.
        994   -1    0    0    0    0 -0.00000000000E+00 -0.00000000000E+00  0.11368683772E-12  0.17120000000E+03  0.17120000000E+03 0.  0.
         13    1    1    2    0    0  0.21515765110E+02 -0.17592677780E+02  0.10800799468E+03  0.11152653737E+03  0.10566000000E+00 0.  1.
        994    1    1    2    0    0 -0.14319303466E+02 -0.15756675239E+00  0.43394111675E+01  0.17185266297E+03  0.17120000000E+03 0.  0.
        998    1    1    2    0    0 -0.71964616440E+01  0.17750244532E+02  0.13876525904E+04  0.13878207997E+04  0.10000000000E+02 0.  1.
</event>
<event>
 5    1  0.1147307E-008  0.4051963E+03  0.7957747E-01  0.3348288E+00
         13   -1    0    0    0    0  0.00000000000E+00  0.00000000000E+00  0.14999999963E+04  0.15000000000E+04  0.10566000000E+00 0. -1.
        994   -1    0    0    0    0 -0.00000000000E+00 -0.00000000000E+00  0.11368683772E-12  0.17120000000E+03  0.17120000000E+03 0.  0.
         13    1    1    2    0    0  0.30138030649E+02  0.23063205967E+02  0.10492836754E+02  0.39374143140E+02  0.10566000000E+00 0. -1.
        994    1    1    2    0    0 -0.30970783628E+02 -0.30625740377E+02  0.38545993436E+02  0.18081028461E+03  0.17120000000E+03 0.  0.
        998    1    1    2    0    0  0.83275297961E+00  0.75625344102E+01  0.14509611661E+04  0.14510155722E+04  0.10000000000E+02 0. -1.
</event>
<event>
 5    1  0.1147307E-008  0.3699122E+03  0.7957747E-01  0.3496294E+00
         13   -1    0    0    0    0  0.00000000000E+00  0.00000000000E+00  0.14999999963E+04  0.15000000000E+04  0.10566000000E+00 0. -1.
        994   -1    0    0    0    0 -0.00000000000E+00 -0.00000000000E+00  0.11368683772E-12  0.17120000000E+03  0.17120000000E+03 0.  0.
         13    1    1    2    0    0 -0.53018569357E+02 -0.92210923699E+02  0.54635935401E+03  0.55661690419E+03  0.10566000000E+00 0. -1.
        994    1    1    2    0    0  0.10026841246E+03  0.37084908686E+02  0.49951656758E+02  0.20792703769E+03  0.17120000000E+03 0.  0.
        998    1    1    2    0    0 -0.47249843101E+02  0.55126015013E+02  0.90368898551E+03  0.90665605812E+03  0.10000000000E+02 0. -1.
</event>
<event>
 5    1  0.1147307E-008  0.3779044E+03  0.7957747E-01  0.3460334E+00
         13   -1    0    0    0    0  0.00000000000E+00  0.00000000000E+00  0.14999999963E+04  0.15000000000E+04  0.10566000000E+00 0. -1.
        994   -1    0    0    0    0 -0.00000000000E+00 -0.00000000000E+00  0.11368683772E-12  0.17120000000E+03  0.17120000000E+03 0.  0.
         13    1    1    2    0    0  0.23051136851E+02  0.86206997684E+02  0.45381626860E+03  0.46250645203E+03  0.10566000000E+00 0. -1.
        994    1    1    2    0    0 -0.79482277102E+02 -0.91584178278E+02  0.56410559577E+02  0.21724798116E+03  0.17120000000E+03 0.  0.
        998    1    1    2    0    0  0.56431140251E+02  0.53771805942E+01  0.98977316810E+03  0.99144556682E+03  0.10000000000E+02 0. -1.
</event>
<event>
 5    1  0.1147307E-008  0.3833906E+03  0.7957747E-01  0.3436527E+00
         13   -1    0    0    0    0  0.00000000000E+00  0.00000000000E+00  0.14999999963E+04  0.15000000000E+04  0.10566000000E+00 0. -1.
        994   -1    0    0    0    0 -0.00000000000E+00 -0.00000000000E+00  0.11368683772E-12  0.17120000000E+03  0.17120000000E+03 0.  0.
         13    1    1    2    0    0  0.30846846622E+02 -0.78371549217E+01  0.18248564781E+03  0.18524030815E+03  0.10566000000E+00 0. -1.
        994    1    1    2    0    0 -0.28971997399E+02  0.23757364121E+02  0.70859482186E+01  0.17539509584E+03  0.17120000000E+03 0.  0.
        998    1    1    2    0    0 -0.18748492230E+01 -0.15920209200E+02  0.13104284003E+04  0.13105645960E+04  0.10000000000E+02 0. -1.
</event>
<event>
 5    1  0.1147307E-008  0.3818385E+03  0.7957747E-01  0.3443192E+00
         13   -1    0    0    0    0  0.00000000000E+00  0.00000000000E+00  0.14999999963E+04  0.15000000000E+04  0.10566000000E+00 0.  1.
        994   -1    0    0    0    0 -0.00000000000E+00 -0.00000000000E+00  0.11368683772E-12  0.17120000000E+03  0.17120000000E+03 0.  0.
         13    1    1    2    0    0  0.54626520881E+02  0.27766051374E+02  0.11772745739E+03  0.13272066825E+03  0.10566000000E+00 0.  1.
        994    1    1    2    0    0 -0.20713240312E+01  0.70607000182E+01  0.17538600942E+02  0.17225326235E+03  0.17120000000E+03 0.  0.
        998    1    1    2    0    0 -0.52555196849E+02 -0.34826751392E+02  0.13647339379E+04  0.13662260694E+04  0.10000000000E+02 0.  1.
</event>
<event>
 5    1  0.1147307E-008  0.3799924E+03  0.7957747E-01  0.3451192E+00
         13   -1    0    0    0    0  0.00000000000E+00  0.00000000000E+00  0.14999999963E+04  0.15000000000E+04  0.10566000000E+00 0. -1.
        994   -1    0    0    0    0 -0.00000000000E+00 -0.00000000000E+00  0.11368683772E-12  0.17120000000E+03  0.17120000000E+03 0.  0.
         13    1    1    2    0    0  0.21042831007E+02 -0.33151388318E+02  0.19130617199E+03  0.19529433655E+03  0.10566000000E+00 0. -1.
        994    1    1    2    0    0 -0.56699533325E+02 -0.97330705875E+01  0.15281318515E+02  0.18125266464E+03  0.17120000000E+03 0.  0.
        998    1    1    2    0    0  0.35656702319E+02  0.42884458906E+02  0.12934125058E+04  0.12946529988E+04  0.10000000000E+02 0. -1.
</event>
<event>
 5    1  0.1147307E-008  0.3839115E+03  0.7957747E-01  0.3434302E+00
         13   -1    0    0    0    0  0.00000000000E+00  0.00000000000E+00  0.14999999963E+04  0.15000000000E+04  0.10566000000E+00 0.  1.
        994   -1    0    0    0    0 -0.00000000000E+00 -0.00000000000E+00  0.11368683772E-12  0.17120000000E+03  0.17120000000E+03 0.  0.
         13    1    1    2    0    0  0.15146498119E+02  0.50243830998E+01  0.56228837713E+02  0.58449586700E+02  0.10566000000E+00 0.  1.
        994    1    1    2    0    0 -0.15713771557E+02 -0.67160725321E+01  0.31359050699E+01  0.17207934840E+03  0.17120000000E+03 0.  0.
        998    1    1    2    0    0  0.56727343799E+00  0.16916894323E+01  0.14406352535E+04  0.14406710649E+04  0.10000000000E+02 0.  1.
</event>
<event>
 5    1  0.1147307E-008  0.3949468E+03  0.7957747E-01  0.3388552E+00
         13   -1    0    0    0    0  0.00000000000E+00  0.00000000000E+00  0.14999999963E+04  0.15000000000E+04  0.10566000000E+00 0.  1.
        994   -1    0    0    0    0 -0.00000000000E+00 -0.00000000000E+00  0.11368683772E-12  0.17120000000E+03  0.17120000000E+03 0.  0.
         13    1    1    2    0    0  0.11384953151E+01 -0.94481015827E+02  0.35091100513E+03  0.36340955299E+03  0.10566000000E+00 0.  1.
        994    1    1    2    0    0  0.64726802960E+02 -0.68010618936E+02  0.59471328527E+02  0.20411095567E+03  0.17120000000E+03 0.  0.
        998    1    1    2    0    0 -0.65865298275E+02  0.16249163476E+03  0.10896176626E+04  0.11036794913E+04  0.10000000000E+02 0.  1.
</event>
<event>
 5    1  0.1147307E-008  0.3716881E+03  0.7957747E-01  0.3488169E+00
         13   -1    0    0    0    0  0.00000000000E+00  0.00000000000E+00  0.14999999963E+04  0.15000000000E+04  0.10566000000E+00 0. -1.
        994   -1    0    0    0    0 -0.00000000000E+00 -0.00000000000E+00  0.11368683772E-12  0.17120000000E+03  0.17120000000E+03 0.  0.
         13    1    1    2    0    0 -0.48492049112E+01  0.21494725080E+02  0.25491686486E+02  0.33695329624E+02  0.10566000000E+00 0. -1.
        994    1    1    2    0    0 -0.41424267440E+00 -0.14886665128E+02  0.91521657627E+01  0.17209005356E+03  0.17120000000E+03 0.  0.
        998    1    1    2    0    0  0.52634475856E+01 -0.66080599514E+01  0.14653561440E+04  0.14654146168E+04  0.10000000000E+02 0. -1.
</event>
<event>
 5    1  0.1147307E-008  0.3848624E+03  0.7957747E-01  0.3430256E+00
         13   -1    0    0    0    0  0.00000000000E+00  0.00000000000E+00  0.14999999963E+04  0.15000000000E+04  0.10566000000E+00 0.  1.
        994   -1    0    0    0    0 -0.00000000000E+00 -0.00000000000E+00  0.11368683772E-12  0.17120000000E+03  0.17120000000E+03 0.  0.
         13    1    1    2    0    0  0.25963679416E+01 -0.18852730950E+02  0.10055691919E+03  0.10234193545E+03  0.10566000000E+00 0.  1.
        994    1    1    2    0    0  0.29906611191E+01  0.20352986502E+02  0.30920407592E+01  0.17245923817E+03  0.17120000000E+03 0.  0.
        998    1    1    2    0    0 -0.55870290607E+01 -0.15002555514E+01  0.13963510363E+04  0.13963988264E+04  0.10000000000E+02 0.  1.
</event>
<event>
 5    1  0.1147307E-008  0.3768905E+03  0.7957747E-01  0.3464811E+00
         13   -1    0    0    0    0  0.00000000000E+00  0.00000000000E+00  0.14999999963E+04  0.15000000000E+04  0.10566000000E+00 0.  1.
        994   -1    0    0    0    0 -0.00000000000E+00 -0.00000000000E+00  0.11368683772E-12  0.17120000000E+03  0.17120000000E+03 0.  0.
         13    1    1    2    0    0  0.33987829492E+02  0.29647971955E+02  0.16443904314E+03  0.17051212528E+03  0.10566000000E+00 0.  1.
        994    1    1    2    0    0 -0.23745758357E+02 -0.31282344133E+02  0.10938763807E+02  0.17598733661E+03  0.17120000000E+03 0.  0.
        998    1    1    2    0    0 -0.10242071135E+02  0.16343721784E+01  0.13246221893E+04  0.13247005381E+04  0.10000000000E+02 0.  1.
</event>
<event>
 5    1  0.1147307E-008  0.3727065E+03  0.7957747E-01  0.3483544E+00
         13   -1    0    0    0    0  0.00000000000E+00  0.00000000000E+00  0.14999999963E+04  0.15000000000E+04  0.10566000000E+00 0. -1.
        994   -1    0    0    0    0 -0.00000000000E+00 -0.00000000000E+00  0.11368683772E-12  0.17120000000E+03  0.17120000000E+03 0.  0.
         13    1    1    2    0    0 -0.79179022112E+01 -0.16144590890E+02  0.17588592437E+02  0.25153742035E+02  0.10566000000E+00 0. -1.
        994    1    1    2    0    0 -0.70442692758E+01  0.59105129171E+01  0.81509195670E+01  0.17164041885E+03  0.17120000000E+03 0.  0.
        998    1    1    2    0    0  0.14962171487E+02  0.10234077973E+02  0.14742604843E+04  0.14744058391E+04  0.10000000000E+02 0. -1.
</event>
<event>
 5    1  0.1147307E-008  0.3312002E+03  0.7957747E-01  0.3695721E+00
         13   -1    0    0    0    0  0.00000000000E+00  0.00000000000E+00  0.14999999963E+04  0.15000000000E+04  0.10566000000E+00 0. -1.
        994   -1    0    0    0    0 -0.00000000000E+00 -0.00000000000E+00  0.11368683772E-12  0.17120000000E+03  0.17120000000E+03 0.  0.
         13    1    1    2    0    0 -0.14193435618E+03  0.98464275178E+02  0.96035328389E+03  0.97576586126E+03  0.10566000000E+00 0. -1.
        994    1    1    2    0    0  0.12733003140E+03 -0.54322170805E+02  0.81409452238E+02  0.23473554067E+03  0.17120000000E+03 0.  0.
        998    1    1    2    0    0  0.14604324779E+02 -0.44142104373E+02  0.45823726015E+03  0.46069859808E+03  0.10000000000E+02 0.  1.
</event>
<event>
 5    1  0.1147307E-008  0.3802188E+03  0.7957747E-01  0.3450206E+00
         13   -1    0    0    0    0  0.00000000000E+00  0.00000000000E+00  0.14999999963E+04  0.15000000000E+04  0.10566000000E+00 0.  1.
        994   -1    0    0    0    0 -0.00000000000E+00 -0.00000000000E+00  0.11368683772E-12  0.17120000000E+03  0.17120000000E+03 0.  0.
         13    1    1    2    0    0  0.42303293777E+02 -0.25000027752E+02  0.24199872496E+03  0.24693716629E+03  0.10566000000E+00 0.  1.
        994    1    1    2    0    0 -0.49568039244E+02  0.22856422410E+02  0.14040360570E+02  0.18023867034E+03  0.17120000000E+03 0.  0.
        998    1    1    2    0    0  0.72647454672E+01  0.21436053417E+01  0.12439609108E+04  0.12440241634E+04  0.10000000000E+02 0.  1.
</event>
<event>
 5    1  0.1147307E-008  0.3859099E+03  0.7957747E-01  0.3425822E+00
         13   -1    0    0    0    0  0.00000000000E+00  0.00000000000E+00  0.14999999963E+04  0.15000000000E+04  0.10566000000E+00 0.  1.
        994   -1    0    0    0    0 -0.00000000000E+00 -0.00000000000E+00  0.11368683772E-12  0.17120000000E+03  0.17120000000E+03 0.  0.
         13    1    1    2    0    0 -0.66659102528E+01 -0.11824079328E+02  0.74741816360E+02  0.75964422516E+02  0.10566000000E+00 0.  1.
        994    1    1    2    0    0  0.18931671530E+01  0.17234818830E+02  0.21653977871E+01  0.17208937216E+03  0.17120000000E+03 0.  0.
        998    1    1    2    0    0  0.47727430998E+01 -0.54107395019E+01  0.14230927821E+04  0.14231462053E+04  0.10000000000E+02 0.  1.
</event>
<event>
 5    1  0.1147307E-008  0.3763795E+03  0.7957747E-01  0.3467076E+00
         13   -1    0    0    0    0  0.00000000000E+00  0.00000000000E+00  0.14999999963E+04  0.15000000000E+04  0.10566000000E+00 0.  1.
        994   -1    0    0    0    0 -0.00000000000E+00 -0.00000000000E+00  0.11368683772E-12  0.17120000000E+03  0.17120000000E+03 0.  0.
         13    1    1    2    0    0  0.76521033255E+01  0.10411273661E+02  0.11429375516E+02  0.17250828771E+02  0.10566000000E+00 0.  1.
        994    1    1    2    0    0 -0.33583753569E+01 -0.37025938714E+01  0.60565887125E+01  0.17138001679E+03  0.17120000000E+03 0.  0.
        998    1    1    2    0    0 -0.42937279685E+01 -0.67086797897E+01  0.14825140321E+04  0.14825691544E+04  0.10000000000E+02 0.  1.
</event>
<event>
 5    1  0.1147307E-008  0.3848408E+03  0.7957747E-01  0.3430348E+00
         13   -1    0    0    0    0  0.00000000000E+00  0.00000000000E+00  0.14999999963E+04  0.15000000000E+04  0.10566000000E+00 0.  1.
        994   -1    0    0    0    0 -0.00000000000E+00 -0.00000000000E+00  0.11368683772E-12  0.17120000000E+03  0.17120000000E+03 0.  0.
         13    1    1    2    0    0 -0.63204531332E+01  0.17401520567E+02  0.94724649376E+02  0.96517000623E+02  0.10566000000E+00 0.  1.
        994    1    1    2    0    0  0.11678934255E+02 -0.16499067907E+02  0.30548577698E+01  0.17241632435E+03  0.17120000000E+03 0.  0.
        998    1    1    2    0    0 -0.53584811222E+01 -0.90245265948E+00  0.14022204891E+04  0.14022666750E+04  0.10000000000E+02 0.  1.
</event>
<event>
 5    1  0.1147307E-008  0.3840522E+03  0.7957747E-01  0.3433702E+00
         13   -1    0    0    0    0  0.00000000000E+00  0.00000000000E+00  0.14999999963E+04  0.15000000000E+04  0.10566000000E+00 0. -1.
        994   -1    0    0    0    0 -0.00000000000E+00 -0.00000000000E+00  0.11368683772E-12  0.17120000000E+03  0.17120000000E+03 0.  0.
         13    1    1    2    0    0  0.21030510799E+02 -0.13571609198E+02  0.12994375181E+03  0.13233238742E+03  0.10566000000E+00 0. -1.
        994    1    1    2    0    0 -0.31121815058E+02  0.11796486837E+02  0.57641560929E+01  0.17450040106E+03  0.17120000000E+03 0.  0.
        998    1    1    2    0    0  0.10091304258E+02  0.17751223607E+01  0.13642920884E+04  0.13643672115E+04  0.10000000000E+02 0. -1.
</event>
<event>
 5    1  0.1147307E-008  0.3737330E+03  0.7957747E-01  0.3478909E+00
         13   -1    0    0    0    0  0.00000000000E+00  0.00000000000E+00  0.14999999963E+04  0.15000000000E+04  0.10566000000E+00 0. -1.
        994   -1    0    0    0    0 -0.00000000000E+00 -0.00000000000E+00  0.11368683772E-12  0.17120000000E+03  0.17120000000E+03 0.  0.
         13    1    1    2    0    0 -0.13022254861E+02  0.16466009382E+01  0.83792136530E+01  0.15572822538E+02  0.10566000000E+00 0. -1.
        994    1    1    2    0    0  0.11016574220E+02 -0.10566094517E+02  0.81266545866E+01  0.17207117648E+03  0.17120000000E+03 0.  0.
        998    1    1    2    0    0  0.20056806404E+01  0.89194935785E+01  0.14834941280E+04  0.14835560010E+04  0.10000000000E+02 0. -1.
</event>
<event>
 5    1  0.1147307E-008  0.3831410E+03  0.7957747E-01  0.3437595E+00
         13   -1    0    0    0    0  0.00000000000E+00  0.00000000000E+00  0.14999999963E+04  0.15000000000E+04  0.10566000000E+00 0. -1.
        994   -1    0    0    0    0 -0.00000000000E+00 -0.00000000000E+00  0.11368683772E-12  0.17120000000E+03  0.17120000000E+03 0.  0.
         13    1    1    2    0    0  0.53971069172E+01 -0.18069763781E+02  0.73175713504E+02  0.75566800495E+02  0.10566000000E+00 0. -1.
        994    1    1    2    0    0  0.67637078041E+01  0.31924844041E+01  0.27410360083E+01  0.17138521809E+03  0.17120000000E+03 0.  0.
        998    1    1    2    0    0 -0.12160814721E+02  0.14877279377E+02  0.14240832468E+04  0.14242479814E+04  0.10000000000E+02 0. -1.
</event>
<event>
 5    1  0.1147307E-008  0.3711377E+03  0.7957747E-01  0.3490678E+00
         13   -1    0    0    0    0  0.00000000000E+00  0.00000000000E+00  0.14999999963E+04  0.15000000000E+04  0.10566000000E+00 0.  1.
        994   -1    0    0    0    0 -0.00000000000E+00 -0.00000000000E+00  0.11368683772E-12  0.17120000000E+03  0.17120000000E+03 0.  0.
         13    1    1    2    0    0  0.64604093872E+01 -0.26384264921E+02  0.40084039304E+02  0.48421149262E+02  0.10566000000E+00 0.  1.
        994    1    1    2    0    0 -0.67409491090E+01  0.76456092653E+01  0.90335042920E+01  0.17174090932E+03  0.17120000000E+03 0.  0.
        998    1    1    2    0    0  0.28053972180E+00  0.18738655656E+02  0.14508824527E+04  0.14510379414E+04  0.10000000000E+02 0.  1.
</event>
<event>
 5    1  0.1147307E-008  0.3693457E+03  0.7957747E-01  0.3498903E+00
         13   -1    0    0    0    0  0.00000000000E+00  0.00000000000E+00  0.14999999963E+04  0.15000000000E+04  0.10566000000E+00 0. -1.
        994   -1    0    0    0    0 -0.00000000000E+00 -0.00000000000E+00  0.11368683772E-12  0.17120000000E+03  0.17120000000E+03 0.  0.
         13    1    1    2    0    0 -0.13951969360E+03 -0.42926893380E+02  0.61067831672E+03  0.62788253739E+03  0.10566000000E+00 0. -1.
        994    1    1    2    0    0  0.12640103709E+03  0.57571063351E+02  0.81261722260E+02  0.23495650027E+03  0.17120000000E+03 0.  0.
        998    1    1    2    0    0  0.13118656507E+02 -0.14644169971E+02  0.80805995729E+03  0.80836096235E+03  0.10000000000E+02 0. -1.
</event>
<event>
 5    1  0.1147307E-008  0.3748795E+03  0.7957747E-01  0.3473762E+00
         13   -1    0    0    0    0  0.00000000000E+00  0.00000000000E+00  0.14999999963E+04  0.15000000000E+04  0.10566000000E+00 0.  1.
        994   -1    0    0    0    0 -0.00000000000E+00 -0.00000000000E+00  0.11368683772E-12  0.17120000000E+03  0.17120000000E+03 0.  0.
         13    1    1    2    0    0  0.14139855952E+02  0.11627051088E+02  0.21134855892E+02  0.27960993204E+02  0.10566000000E+00 0.  1.
        994    1    1    2    0    0 -0.26029518944E+02 -0.13673662150E+02  0.96860312005E+01  0.17397633199E+03  0.17120000000E+03 0.  0.
        998    1    1    2    0    0  0.11889662992E+02  0.20466110620E+01  0.14691791092E+04  0.14692626748E+04  0.10000000000E+02 0.  1.
</event>
<event>
 5    1  0.1147307E-008  0.3775817E+03  0.7957747E-01  0.3461757E+00
         13   -1    0    0    0    0  0.00000000000E+00  0.00000000000E+00  0.14999999963E+04  0.15000000000E+04  0.10566000000E+00 0. -1.
        994   -1    0    0    0    0 -0.00000000000E+00 -0.00000000000E+00  0.11368683772E-12  0.17120000000E+03  0.17120000000E+03 0.  0.
         13    1    1    2    0    0 -0.49089733512E+02 -0.10348903706E+02  0.19583925940E+03  0.20216312332E+03  0.10566000000E+00 0. -1.
        994    1    1    2    0    0  0.55183973733E+02  0.11200015017E+02  0.16119309970E+02  0.18094193391E+03  0.17120000000E+03 0.  0.
        998    1    1    2    0    0 -0.60942402216E+01 -0.85111131086E+00  0.12880414269E+04  0.12880949428E+04  0.10000000000E+02 0. -1.
</event>
<event>
 5    1  0.1147307E-008  0.3815004E+03  0.7957747E-01  0.3444651E+00
         13   -1    0    0    0    0  0.00000000000E+00  0.00000000000E+00  0.14999999963E+04  0.15000000000E+04  0.10566000000E+00 0.  1.
        994   -1    0    0    0    0 -0.00000000000E+00 -0.00000000000E+00  0.11368683772E-12  0.17120000000E+03  0.17120000000E+03 0.  0.
         13    1    1    2    0    0 -0.10116950082E+02 -0.14709181631E+01  0.14129977407E+02  0.17440863074E+02  0.10566000000E+00 0.  1.
        994    1    1    2    0    0  0.65848264128E+01 -0.99901177039E+01  0.38540175485E+01  0.17166087452E+03  0.17120000000E+03 0.  0.
        998    1    1    2    0    0  0.35321236695E+01  0.11461035867E+02  0.14820160013E+04  0.14820982624E+04  0.10000000000E+02 0.  1.
</event>
<event>
 5    1  0.1147307E-008  0.3764393E+03  0.7957747E-01  0.3466811E+00
         13   -1    0    0    0    0  0.00000000000E+00  0.00000000000E+00  0.14999999963E+04  0.15000000000E+04  0.10566000000E+00 0. -1.
        994   -1    0    0    0    0 -0.00000000000E+00 -0.00000000000E+00  0.11368683772E-12  0.17120000000E+03  0.17120000000E+03 0.  0.
         13    1    1    2    0    0  0.25608732187E+02 -0.82079694025E+02  0.39958255402E+03  0.40872865324E+03  0.10566000000E+00 0. -1.
        994    1    1    2    0    0 -0.60301679166E+02  0.86174639765E+02  0.44330612810E+02  0.20575957883E+03  0.17120000000E+03 0.  0.
        998    1    1    2    0    0  0.34692946979E+02 -0.40949457404E+01  0.10560868294E+04  0.10567117679E+04  0.10000000000E+02 0. -1.
</event>
<event>
 5    1  0.1147307E-008  0.3739178E+03  0.7957747E-01  0.3478077E+00
         13   -1    0    0    0    0  0.00000000000E+00  0.00000000000E+00  0.14999999963E+04  0.15000000000E+04  0.10566000000E+00 0. -1.
        994   -1    0    0    0    0 -0.00000000000E+00 -0.00000000000E+00  0.11368683772E-12  0.17120000000E+03  0.17120000000E+03 0.  0.
         13    1    1    2    0    0 -0.17671842093E+02 -0.15704006153E+02  0.35496883010E+02  0.42649146295E+02  0.10566000000E+00 0. -1.
        994    1    1    2    0    0  0.22564808955E+02  0.17327470088E+01  0.89848161528E+01  0.17292293063E+03  0.17120000000E+03 0.  0.
        998    1    1    2    0    0 -0.48929668620E+01  0.13971259144E+02  0.14555182971E+04  0.14556279231E+04  0.10000000000E+02 0. -1.
</event>
<event>
 5    1  0.1147307E-008  0.3742597E+03  0.7957747E-01  0.3476540E+00
         13   -1    0    0    0    0  0.00000000000E+00  0.00000000000E+00  0.14999999963E+04  0.15000000000E+04  0.10566000000E+00 0.  1.
        994   -1    0    0    0    0 -0.00000000000E+00 -0.00000000000E+00  0.11368683772E-12  0.17120000000E+03  0.17120000000E+03 0.  0.
         13    1    1    2    0    0 -0.11950081756E+02  0.91076469975E+02  0.45940582820E+03  0.46849915046E+03  0.10566000000E+00 0.  1.
        994    1    1    2    0    0  0.17556716668E+02 -0.78935408812E+02  0.29680389135E+02  0.19164916531E+03  0.17120000000E+03 0.  0.
        998    1    1    2    0    0 -0.56066349122E+01 -0.12141061163E+02  0.10109137789E+04  0.10110516842E+04  0.10000000000E+02 0.  1.
</event>
<event>
 5    1  0.1147307E-008  0.3774474E+03  0.7957747E-01  0.3462349E+00
         13   -1    0    0    0    0  0.00000000000E+00  0.00000000000E+00  0.14999999963E+04  0.15000000000E+04  0.10566000000E+00 0.  1.
        994   -1    0    0    0    0 -0.00000000000E+00 -0.00000000000E+00  0.11368683772E-12  0.17120000000E+03  0.17120000000E+03 0.  0.
         13    1    1    2    0    0  0.28047409180E+02  0.46529681835E+02  0.26212511504E+03  0.26769620010E+03  0.10566000000E+00 0.  1.
        994    1    1    2    0    0 -0.39713322242E+02 -0.17960724212E+02  0.11858926693E+02  0.17705877476E+03  0.17120000000E+03 0.  0.
        998    1    1    2    0    0  0.11665913062E+02 -0.28568957623E+02  0.12260159546E+04  0.12264450251E+04  0.10000000000E+02 0. -1.
</event>
<event>
 5    1  0.1147307E-008  0.3841298E+03  0.7957747E-01  0.3433371E+00
         13   -1    0    0    0    0  0.00000000000E+00  0.00000000000E+00  0.14999999963E+04  0.15000000000E+04  0.10566000000E+00 0.  1.
        994   -1    0    0    0    0 -0.00000000000E+00 -0.00000000000E+00  0.11368683772E-12  0.17120000000E+03  0.17120000000E+03 0.  0.
         13    1    1    2    0    0 -0.18950113929E+02 -0.61337008968E+01  0.97649508713E+02  0.99660256976E+02  0.10566000000E+00 0.  1.
        994    1    1    2    0    0  0.98099443765E+01  0.15743658135E+01  0.23884080607E+01  0.17150468836E+03  0.17120000000E+03 0.  0.
        998    1    1    2    0    0  0.91401695526E+01  0.45593350834E+01  0.13999620795E+04  0.14000350547E+04  0.10000000000E+02 0.  1.
</event>
<event>
 5    1  0.1147307E-008  0.3897156E+03  0.7957747E-01  0.3409916E+00
         13   -1    0    0    0    0  0.00000000000E+00  0.00000000000E+00  0.14999999963E+04  0.15000000000E+04  0.10566000000E+00 0.  1.
        994   -1    0    0    0    0 -0.00000000000E+00 -0.00000000000E+00  0.11368683772E-12  0.17120000000E+03  0.17120000000E+03 0.  0.
         13    1    1    2    0    0  0.17259642316E+02  0.14504482034E+03  0.38931566444E+03  0.41581557559E+03  0.10566000000E+00 0.  1.
        994    1    1    2    0    0 -0.12353262498E+02 -0.12504485307E+03  0.83886370239E+02  0.22833129765E+03  0.17120000000E+03 0.  0.
        998    1    1    2    0    0 -0.49063798180E+01 -0.19999967267E+02  0.10267979616E+04  0.10270531268E+04  0.10000000000E+02 0. -1.
</event>
<event>
 5    1  0.1147307E-008  0.3724552E+03  0.7957747E-01  0.3484683E+00
         13   -1    0    0    0    0  0.00000000000E+00  0.00000000000E+00  0.14999999963E+04  0.15000000000E+04  0.10566000000E+00 0. -1.
        994   -1    0    0    0    0 -0.00000000000E+00 -0.00000000000E+00  0.11368683772E-12  0.17120000000E+03  0.17120000000E+03 0.  0.
         13    1    1    2    0    0  0.16162018714E+02 -0.44183849090E+02  0.17195924693E+03  0.17827904290E+03  0.10566000000E+00 0. -1.
        994    1    1    2    0    0  0.14000971281E+02 -0.12762621151E+02  0.92229039930E+01  0.17249177851E+03  0.17120000000E+03 0.  0.
        998    1    1    2    0    0 -0.30162989995E+02  0.56946470241E+02  0.13188178454E+04  0.13204291786E+04  0.10000000000E+02 0. -1.
</event>
<event>
 5    1  0.1147307E-008  0.3772845E+03  0.7957747E-01  0.3463068E+00
         13   -1    0    0    0    0  0.00000000000E+00  0.00000000000E+00  0.14999999963E+04  0.15000000000E+04  0.10566000000E+00 0.  1.
        994   -1    0    0    0    0 -0.00000000000E+00 -0.00000000000E+00  0.11368683772E-12  0.17120000000E+03  0.17120000000E+03 0.  0.
         13    1    1    2    0    0  0.59842628596E+02  0.15127324605E+01  0.27532405051E+03  0.28175658379E+03  0.10566000000E+00 0.  1.
        994    1    1    2    0    0 -0.55339819306E+02  0.26978973680E+01  0.15936163065E+02  0.18064654866E+03  0.17120000000E+03 0.  0.
        998    1    1    2    0    0 -0.45028092897E+01 -0.42106298284E+01  0.12087397827E+04  0.12087968675E+04  0.10000000000E+02 0.  1.
</event>
<event>
 5    1  0.1147307E-008  0.3699789E+03  0.7957747E-01  0.3495988E+00
         13   -1    0    0    0    0  0.00000000000E+00  0.00000000000E+00  0.14999999963E+04  0.15000000000E+04  0.10566000000E+00 0. -1.
        994   -1    0    0    0    0 -0.00000000000E+00 -0.00000000000E+00  0.11368683772E-12  0.17120000000E+03  0.17120000000E+03 0.  0.
         13    1    1    2    0    0 -0.10743352839E+03 -0.51602256015E+02  0.62643045455E+03  0.63766753202E+03  0.10566000000E+00 0. -1.
        994    1    1    2    0    0  0.68226690378E+02  0.67766113749E+02  0.41971622012E+02  0.20079388563E+03  0.17120000000E+03 0.  0.
        998    1    1    2    0    0  0.39206838014E+02 -0.16163857734E+02  0.83159791972E+03  0.83273858235E+03  0.10000000000E+02 0. -1.
</event>
<event>
 5    1  0.1147307E-008  0.3803643E+03  0.7957747E-01  0.3449574E+00
         13   -1    0    0    0    0  0.00000000000E+00  0.00000000000E+00  0.14999999963E+04  0.15000000000E+04  0.10566000000E+00 0. -1.
        994   -1    0    0    0    0 -0.00000000000E+00 -0.00000000000E+00  0.11368683772E-12  0.17120000000E+03  0.17120000000E+03 0.  0.
         13    1    1    2    0    0  0.10216109063E+02  0.12938385119E+02  0.32820468846E+02  0.36728259327E+02  0.10566000000E+00 0. -1.
        994    1    1    2    0    0 -0.72945183647E+01 -0.90486402851E+01  0.44005529305E+01  0.17165049594E+03  0.17120000000E+03 0.  0.
        998    1    1    2    0    0 -0.29215906985E+01 -0.38897448338E+01  0.14627789745E+04  0.14628212447E+04  0.10000000000E+02 0. -1.
</event>
<event>
 5    1  0.1147307E-008  0.3835442E+03  0.7957747E-01  0.3435870E+00
         13   -1    0    0    0    0  0.00000000000E+00  0.00000000000E+00  0.14999999963E+04  0.15000000000E+04  0.10566000000E+00 0. -1.
        994   -1    0    0    0    0 -0.00000000000E+00 -0.00000000000E+00  0.11368683772E-12  0.17120000000E+03  0.17120000000E+03 0.  0.
         13    1    1    2    0    0  0.10650955565E+02 -0.34484927310E+01  0.25706409626E+02  0.28038645054E+02  0.10566000000E+00 0. -1.
        994    1    1    2    0    0 -0.75006122554E+01  0.69049778578E+01  0.26981503585E+01  0.17152451113E+03  0.17120000000E+03 0.  0.
        998    1    1    2    0    0 -0.31503433091E+01 -0.34564851268E+01  0.14715954363E+04  0.14716368438E+04  0.10000000000E+02 0. -1.
</event>
<event>
 5    1  0.1147307E-008  0.3904352E+03  0.7957747E-01  0.3406943E+00
         13   -1    0    0    0    0  0.00000000000E+00  0.00000000000E+00  0.14999999963E+04  0.15000000000E+04  0.10566000000E+00 0.  1.
        994   -1    0    0    0    0 -0.00000000000E+00 -0.00000000000E+00  0.11368683772E-12  0.17120000000E+03  0.17120000000E+03 0.  0.
         13    1    1    2    0    0 -0.40508457070E+02  0.53887146653E+02  0.88969015332E+02  0.11162551913E+03  0.10566000000E+00 0.  1.
        994    1    1    2    0    0  0.46357536161E+02 -0.53345505526E+02  0.41259522546E+02  0.18975392570E+03  0.17120000000E+03 0.  0.
        998    1    1    2    0    0 -0.58490790911E+01 -0.54164112715E+00  0.13697714584E+04  0.13698205552E+04  0.10000000000E+02 0.  1.
</event>
<event>
 5    1  0.1147307E-008  0.3694374E+03  0.7957747E-01  0.3498481E+00
         13   -1    0    0    0    0  0.00000000000E+00  0.00000000000E+00  0.14999999963E+04  0.15000000000E+04  0.10566000000E+00 0. -1.
        994   -1    0    0    0    0 -0.00000000000E+00 -0.00000000000E+00  0.11368683772E-12  0.17120000000E+03  0.17120000000E+03 0.  0.
         13    1    1    2    0    0  0.28985838354E+02 -0.88596251746E+01  0.37426995291E+02  0.48160802774E+02  0.10566000000E+00 0. -1.
        994    1    1    2    0    0 -0.37559498904E+02  0.61742800582E+00  0.15581175907E+02  0.17596394579E+03  0.17120000000E+03 0.  0.
        998    1    1    2    0    0  0.85736605497E+01  0.82421971688E+01  0.14469918251E+04  0.14470752514E+04  0.10000000000E+02 0. -1.
</event>
<event>
 5    1  0.1147307E-008  0.3819572E+03  0.7957747E-01  0.3442681E+00
         13   -1    0    0    0    0  0.00000000000E+00  0.00000000000E+00  0.14999999963E+04  0.15000000000E+04  0.10566000000E+00 0.  1.
        994   -1    0    0    0    0 -0.00000000000E+00 -0.00000000000E+00  0.11368683772E-12  0.17120000000E+03  0.17120000000E+03 0.  0.
         13    1    1    2    0    0  0.15427996226E+02 -0.24281090085E+02  0.11982969514E+03  0.12323457877E+03  0.10566000000E+00 0.  1.
        994    1    1    2    0    0 -0.20078459810E+02  0.23749712603E+02  0.63675385243E+01  0.17411829009E+03  0.17120000000E+03 0.  0.
        998    1    1    2    0    0  0.46504635840E+01  0.53137748207E+00  0.13738027626E+04  0.13738471311E+04  0.10000000000E+02 0.  1.
</event>
<event>
 5    1  0.1147307E-008  0.3785393E+03  0.7957747E-01  0.3457544E+00
         13   -1    0    0    0    0  0.00000000000E+00  0.00000000000E+00  0.14999999963E+04  0.15000000000E+04  0.10566000000E+00 0. -1.
        994   -1    0    0    0    0 -0.00000000000E+00 -0.00000000000E+00  0.11368683772E-12  0.17120000000E+03  0.17120000000E+03 0.  0.
         13    1    1    2    0    0 -0.15775878644E+02 -0.74118299565E+01  0.28376548083E+02  0.33302450592E+02  0.10566000000E+00 0. -1.
        994    1    1    2    0    0  0.37256272895E+02 -0.29292148208E+02  0.12454494479E+02  0.17807474343E+03  0.17120000000E+03 0.  0.
        998    1    1    2    0    0 -0.21480394251E+02  0.36703978165E+02  0.14591689537E+04  0.14598228060E+04  0.10000000000E+02 0. -1.
</event>
<event>
 5    1  0.1147307E-008  0.3821665E+03  0.7957747E-01  0.3441779E+00
         13   -1    0    0    0    0  0.00000000000E+00  0.00000000000E+00  0.14999999963E+04  0.15000000000E+04  0.10566000000E+00 0. -1.
        994   -1    0    0    0    0 -0.00000000000E+00 -0.00000000000E+00  0.11368683772E-12  0.17120000000E+03  0.17120000000E+03 0.  0.
         13    1    1    2    0    0  0.20948239874E+02  0.71817735599E+01  0.96275313215E+02  0.98789441359E+02  0.10566000000E+00 0. -1.
        994    1    1    2    0    0  0.15378154808E+02  0.10780990187E+02  0.42150662855E+01  0.17227862368E+03  0.17120000000E+03 0.  0.
        998    1    1    2    0    0 -0.36326394682E+02 -0.17962763747E+02  0.13995096168E+04  0.14001319350E+04  0.10000000000E+02 0. -1.
</event>
<event>
 5    1  0.1147307E-008  0.3783333E+03  0.7957747E-01  0.3458448E+00
         13   -1    0    0    0    0  0.00000000000E+00  0.00000000000E+00  0.14999999963E+04  0.15000000000E+04  0.10566000000E+00 0. -1.
        994   -1    0    0    0    0 -0.00000000000E+00 -0.00000000000E+00  0.11368683772E-12  0.17120000000E+03  0.17120000000E+03 0.  0.
         13    1    1    2    0    0 -0.30440187915E+02 -0.48036742707E+02  0.93159927136E+02  0.10914630950E+03  0.10566000000E+00 0. -1.
        994    1    1    2    0    0  0.29859006575E+02  0.51105022532E+02  0.28142020063E+02  0.18331583918E+03  0.17120000000E+03 0.  0.
        998    1    1    2    0    0  0.58118134051E+00 -0.30682798250E+01  0.13786980491E+04  0.13787378513E+04  0.10000000000E+02 0. -1.
</event>
<event>
 5    1  0.1147307E-008  0.3804717E+03  0.7957747E-01  0.3449107E+00
         13   -1    0    0    0    0  0.00000000000E+00  0.00000000000E+00  0.14999999963E+04  0.15000000000E+04  0.10566000000E+00 0. -1.
        994   -1    0    0    0    0 -0.00000000000E+00 -0.00000000000E+00  0.11368683772E-12  0.17120000000E+03  0.17120000000E+03 0.  0.
         13    1    1    2    0    0  0.13083031642E+02 -0.10696272572E+02  0.33933783223E+02  0.37908953715E+02  0.10566000000E+00 0. -1.
        994    1    1    2    0    0 -0.17620209204E+02  0.13442080472E+02  0.55362884415E+01  0.17271725967E+03  0.17120000000E+03 0.  0.
        998    1    1    2    0    0  0.45371775617E+01 -0.27458078999E+01  0.14605299246E+04  0.14605737866E+04  0.10000000000E+02 0. -1.
</event>
<event>
 5    1  0.1147307E-008  0.3754411E+03  0.7957747E-01  0.3471252E+00
         13   -1    0    0    0    0  0.00000000000E+00  0.00000000000E+00  0.14999999963E+04  0.15000000000E+04  0.10566000000E+00 0.  1.
        994   -1    0    0    0    0 -0.00000000000E+00 -0.00000000000E+00  0.11368683772E-12  0.17120000000E+03  0.17120000000E+03 0.  0.
         13    1    1    2    0    0 -0.25755445249E+02 -0.48533602220E+02  0.27210738760E+03  0.27759916256E+03  0.10566000000E+00 0.  1.
        994    1    1    2    0    0 -0.11386338975E+02  0.17764595640E+02  0.79650011532E+01  0.17267921362E+03  0.17120000000E+03 0.  0.
        998    1    1    2    0    0  0.37141784224E+02  0.30769006580E+02  0.12199276075E+04  0.12209216238E+04  0.10000000000E+02 0.  1.
</event>
<event>
 5    1  0.1147307E-008  0.3846487E+03  0.7957747E-01  0.3431163E+00
         13   -1    0    0    0    0  0.00000000000E+00  0.00000000000E+00  0.14999999963E+04  0.15000000000E+04  0.10566000000E+00 0. -1.
        994   -1    0    0    0    0 -0.00000000000E+00 -0.00000000000E+00  0.11368683772E-12  0.17120000000E+03  0.17120000000E+03 0.  0.
         13    1    1    2    0    0 -0.81068304362E+01 -0.13863684780E+02  0.83227291253E+02  0.84762701872E+02  0.10566000000E+00 0. -1.
        994    1    1    2    0    0 -0.23677899683E+01 -0.11966121379E+02  0.22946969712E+01  0.17164935224E+03  0.17120000000E+03 0.  0.
        998    1    1    2    0    0  0.10474620405E+02  0.25829806159E+02  0.14144780081E+04  0.14147879459E+04  0.10000000000E+02 0. -1.
</event>
<event>
 5    1  0.1147307E-008  0.3853756E+03  0.7957747E-01  0.3428081E+00
         13   -1    0    0    0    0  0.00000000000E+00  0.00000000000E+00  0.14999999963E+04  0.15000000000E+04  0.10566000000E+00 0.  1.
        994   -1    0    0    0    0 -0.00000000000E+00 -0.00000000000E+00  0.11368683772E-12  0.17120000000E+03  0.17120000000E+03 0.  0.
         13    1    1    2    0    0  0.12561369187E+02  0.24316619415E+01  0.57056145311E+02  0.58473206321E+02  0.10566000000E+00 0.  1.
        994    1    1    2    0    0 -0.81506448652E+01 -0.28930510017E+00  0.16623061823E+01  0.17140221694E+03  0.17120000000E+03 0.  0.
        998    1    1    2    0    0 -0.44107243214E+01 -0.21423568414E+01  0.14412815448E+04  0.14413245767E+04  0.10000000000E+02 0.  1.
</event>
<event>
 5    1  0.1147307E-008  0.3839159E+03  0.7957747E-01  0.3434283E+00
         13   -1    0    0    0    0  0.00000000000E+00  0.00000000000E+00  0.14999999963E+04  0.15000000000E+04  0.10566000000E+00 0.  1.
        994   -1    0    0    0    0 -0.00000000000E+00 -0.00000000000E+00  0.11368683772E-12  0.17120000000E+03  0.17120000000E+03 0.  0.
         13    1    1    2    0    0 -0.63135301275E+00 -0.21006720245E+02  0.96629755500E+02  0.98888835134E+02  0.10566000000E+00 0.  1.
        994    1    1    2    0    0  0.28386097652E+01  0.20225004193E+02  0.35471240681E+01  0.17245037138E+03  0.17120000000E+03 0.  0.
        998    1    1    2    0    0 -0.22072567524E+01  0.78171605237E+00  0.13998231167E+04  0.13998607935E+04  0.10000000000E+02 0.  1.
</event>
<event>
 5    1  0.1147307E-008  0.3842977E+03  0.7957747E-01  0.3432656E+00
         13   -1    0    0    0    0  0.00000000000E+00  0.00000000000E+00  0.14999999963E+04  0.15000000000E+04  0.10566000000E+00 0. -1.
        994   -1    0    0    0    0 -0.00000000000E+00 -0.00000000000E+00  0.11368683772E-12  0.17120000000E+03  0.17120000000E+03 0.  0.
         13    1    1    2    0    0 -0.13719135248E+02 -0.56707842437E+01  0.55920212301E+02  0.57857184288E+02  0.10566000000E+00 0. -1.
        994    1    1    2    0    0  0.91683860806E+01 -0.15718151695E+01  0.22645013249E+01  0.17146748343E+03  0.17120000000E+03 0.  0.
        998    1    1    2    0    0  0.45507491670E+01  0.72425994131E+01  0.14418152827E+04  0.14418753323E+04  0.10000000000E+02 0. -1.
</event>
<event>
 5    1  0.1147307E-008  0.3696909E+03  0.7957747E-01  0.3497313E+00
         13   -1    0    0    0    0  0.00000000000E+00  0.00000000000E+00  0.14999999963E+04  0.15000000000E+04  0.10566000000E+00 0.  1.
        994   -1    0    0    0    0 -0.00000000000E+00 -0.00000000000E+00  0.11368683772E-12  0.17120000000E+03  0.17120000000E+03 0.  0.
         13    1    1    2    0    0 -0.16138310403E+02 -0.55812566284E+01  0.11839850183E+02  0.20779526092E+02  0.10566000000E+00 0.  1.
        994    1    1    2    0    0 -0.49048166574E+01 -0.12890456069E+02  0.10089427741E+02  0.17205074146E+03  0.17120000000E+03 0.  0.
        998    1    1    2    0    0  0.21043127060E+02  0.18471712698E+02  0.14780707184E+04  0.14783697324E+04  0.10000000000E+02 0.  1.
</event>
<event>
 5    1  0.1147307E-008  0.3821967E+03  0.7957747E-01  0.3441649E+00
         13   -1    0    0    0    0  0.00000000000E+00  0.00000000000E+00  0.14999999963E+04  0.15000000000E+04  0.10566000000E+00 0.  1.
        994   -1    0    0    0    0 -0.00000000000E+00 -0.00000000000E+00  0.11368683772E-12  0.17120000000E+03  0.17120000000E+03 0.  0.
         13    1    1    2    0    0 -0.18517097221E+01 -0.13294977667E+02  0.28170334026E+02  0.31205194171E+02  0.10566000000E+00 0.  1.
        994    1    1    2    0    0 -0.75140083270E+00  0.14328465840E+02  0.37118815111E+01  0.17184029679E+03  0.17120000000E+03 0.  0.
        998    1    1    2    0    0  0.26031105548E+01 -0.10334881728E+01  0.14681177807E+04  0.14681545090E+04  0.10000000000E+02 0.  1.
</event>
<event>
 5    1  0.1147307E-008  0.3856491E+03  0.7957747E-01  0.3426924E+00
         13   -1    0    0    0    0  0.00000000000E+00  0.00000000000E+00  0.14999999963E+04  0.15000000000E+04  0.10566000000E+00 0. -1.
        994   -1    0    0    0    0 -0.00000000000E+00 -0.00000000000E+00  0.11368683772E-12  0.17120000000E+03  0.17120000000E+03 0.  0.
         13    1    1    2    0    0 -0.84780503184E+01  0.88907096233E+01  0.54286538265E+02  0.55659333949E+02  0.10566000000E+00 0. -1.
        994    1    1    2    0    0  0.18126917145E+02 -0.87812775494E+01  0.26407137577E+01  0.17240101313E+03  0.17120000000E+03 0.  0.
        998    1    1    2    0    0 -0.96488668262E+01 -0.10943207390E+00  0.14430727443E+04  0.14431396529E+04  0.10000000000E+02 0. -1.
</event>
<event>
 5    1  0.1147307E-008  0.3738358E+03  0.7957747E-01  0.3478446E+00
         13   -1    0    0    0    0  0.00000000000E+00  0.00000000000E+00  0.14999999963E+04  0.15000000000E+04  0.10566000000E+00 0.  1.
        994   -1    0    0    0    0 -0.00000000000E+00 -0.00000000000E+00  0.11368683772E-12  0.17120000000E+03  0.17120000000E+03 0.  0.
         13    1    1    2    0    0 -0.14859317195E+03 -0.58592594384E+01  0.71515733498E+03  0.73045484912E+03  0.10566000000E+00 0.  1.
        994    1    1    2    0    0  0.15114379760E+03  0.38988224982E+02  0.95593973527E+02  0.25062357633E+03  0.17120000000E+03 0.  0.
        998    1    1    2    0    0 -0.25506256479E+01 -0.33128965543E+02  0.68924868778E+03  0.69012157454E+03  0.10000000000E+02 0.  1.
</event>
<event>
 5    1  0.1147307E-008  0.3694236E+03  0.7957747E-01  0.3498544E+00
         13   -1    0    0    0    0  0.00000000000E+00  0.00000000000E+00  0.14999999963E+04  0.15000000000E+04  0.10566000000E+00 0. -1.
        994   -1    0    0    0    0 -0.00000000000E+00 -0.00000000000E+00  0.11368683772E-12  0.17120000000E+03  0.17120000000E+03 0.  0.
         13    1    1    2    0    0  0.53948659841E+02 -0.13823922817E+01  0.13656526068E+03  0.14684158299E+03  0.10566000000E+00 0. -1.
        994    1    1    2    0    0 -0.53025625043E+02  0.71268846327E+01  0.19554272518E+02  0.18042815459E+03  0.17120000000E+03 0.  0.
        998    1    1    2    0    0 -0.92303479785E+00 -0.57444923510E+01  0.13438804631E+04  0.13439302624E+04  0.10000000000E+02 0. -1.
</event>
<event>
 5    1  0.1147307E-008  0.3782833E+03  0.7957747E-01  0.3458668E+00
         13   -1    0    0    0    0  0.00000000000E+00  0.00000000000E+00  0.14999999963E+04  0.15000000000E+04  0.10566000000E+00 0. -1.
        994   -1    0    0    0    0 -0.00000000000E+00 -0.00000000000E+00  0.11368683772E-12  0.17120000000E+03  0.17120000000E+03 0.  0.
         13    1    1    2    0    0  0.16954104280E+02 -0.41281209355E+00  0.26312035193E+02  0.31304095991E+02  0.10566000000E+00 0. -1.
        994    1    1    2    0    0 -0.16957738916E+02 -0.86355803572E+01  0.62207131048E+01  0.17236668886E+03  0.17120000000E+03 0.  0.
        998    1    1    2    0    0  0.36346366790E-02  0.90483924508E+01  0.14674672480E+04  0.14675292151E+04  0.10000000000E+02 0. -1.
</event>
<event>
 5    1  0.1147307E-008  0.3805337E+03  0.7957747E-01  0.3448838E+00
         13   -1    0    0    0    0  0.00000000000E+00  0.00000000000E+00  0.14999999963E+04  0.15000000000E+04  0.10566000000E+00 0.  1.
        994   -1    0    0    0    0 -0.00000000000E+00 -0.00000000000E+00  0.11368683772E-12  0.17120000000E+03  0.17120000000E+03 0.  0.
         13    1    1    2    0    0 -0.23889511036E+02 -0.30676874022E+02  0.22573701558E+03  0.22906110692E+03  0.10566000000E+00 0.  1.
        994    1    1    2    0    0 -0.37373444751E+01  0.88249367754E+01  0.41705413040E+01  0.17151874728E+03  0.17120000000E+03 0.  0.
        998    1    1    2    0    0  0.27626855511E+02  0.21851937247E+02  0.12700924394E+04  0.12706201458E+04  0.10000000000E+02 0.  1.
</event>
<event>
 5    1  0.1147307E-008  0.3825155E+03  0.7957747E-01  0.3440278E+00
         13   -1    0    0    0    0  0.00000000000E+00  0.00000000000E+00  0.14999999963E+04  0.15000000000E+04  0.10566000000E+00 0. -1.
        994   -1    0    0    0    0 -0.00000000000E+00 -0.00000000000E+00  0.11368683772E-12  0.17120000000E+03  0.17120000000E+03 0.  0.
         13    1    1    2    0    0  0.10118754105E+01  0.19184541652E+02  0.60894811710E+02  0.63853424242E+02  0.10566000000E+00 0. -1.
        994    1    1    2    0    0 -0.59637548074E+01 -0.20731013658E+02  0.44129639230E+01  0.17261012586E+03  0.17120000000E+03 0.  0.
        998    1    1    2    0    0  0.49518793968E+01  0.15464720062E+01  0.14346922206E+04  0.14347364499E+04  0.10000000000E+02 0. -1.
</event>
<event>
 5    1  0.1147307E-008  0.3800503E+03  0.7957747E-01  0.3450939E+00
         13   -1    0    0    0    0  0.00000000000E+00  0.00000000000E+00  0.14999999963E+04  0.15000000000E+04  0.10566000000E+00 0. -1.
        994   -1    0    0    0    0 -0.00000000000E+00 -0.00000000000E+00  0.11368683772E-12  0.17120000000E+03  0.17120000000E+03 0.  0.
         13    1    1    2    0    0 -0.57403062020E+02  0.14400277292E+02  0.34002712249E+03  0.34513900781E+03  0.10566000000E+00 0. -1.
        994    1    1    2    0    0  0.55429299138E+02 -0.11258541288E+02  0.14875582141E+02  0.18091402626E+03  0.17120000000E+03 0.  0.
        998    1    1    2    0    0  0.19737628815E+01 -0.31417360037E+01  0.11450972916E+04  0.11451469659E+04  0.10000000000E+02 0. -1.
</event>
<event>
 5    1  0.1147307E-008  0.3690030E+03  0.7957747E-01  0.3500486E+00
         13   -1    0    0    0    0  0.00000000000E+00  0.00000000000E+00  0.14999999963E+04  0.15000000000E+04  0.10566000000E+00 0. -1.
        994   -1    0    0    0    0 -0.00000000000E+00 -0.00000000000E+00  0.11368683772E-12  0.17120000000E+03  0.17120000000E+03 0.  0.
         13    1    1    2    0    0 -0.19340854542E+02  0.58777284620E+01  0.18182860671E+02  0.27189040669E+02  0.10566000000E+00 0. -1.
        994    1    1    2    0    0 -0.19272560721E+02  0.23223467576E+02  0.12957627266E+02  0.17432183210E+03  0.17120000000E+03 0.  0.
        998    1    1    2    0    0  0.38613415264E+02 -0.29101196038E+02  0.14688595083E+04  0.14696891272E+04  0.10000000000E+02 0. -1.
</event>
<event>
 5    1  0.1147307E-008  0.3831010E+03  0.7957747E-01  0.3437766E+00
         13   -1    0    0    0    0  0.00000000000E+00  0.00000000000E+00  0.14999999963E+04  0.15000000000E+04  0.10566000000E+00 0. -1.
        994   -1    0    0    0    0 -0.00000000000E+00 -0.00000000000E+00  0.11368683772E-12  0.17120000000E+03  0.17120000000E+03 0.  0.
         13    1    1    2    0    0 -0.69202262094E+01 -0.24008256058E+02  0.12788331536E+03  0.13030134075E+03  0.10566000000E+00 0. -1.
        994    1    1    2    0    0  0.12042147608E+01  0.69093430292E+01  0.27386949265E+01  0.17136548545E+03  0.17120000000E+03 0.  0.
        998    1    1    2    0    0  0.57160114486E+01  0.17098913029E+02  0.13693779860E+04  0.13695331738E+04  0.10000000000E+02 0. -1.
</event>
<event>
 5    1  0.1147307E-008  0.3767002E+03  0.7957747E-01  0.3465654E+00
         13   -1    0    0    0    0  0.00000000000E+00  0.00000000000E+00  0.14999999963E+04  0.15000000000E+04  0.10566000000E+00 0. -1.
        994   -1    0    0    0    0 -0.00000000000E+00 -0.00000000000E+00  0.11368683772E-12  0.17120000000E+03  0.17120000000E+03 0.  0.
         13    1    1    2    0    0  0.54233904578E+01  0.25511550048E+02  0.17157693609E+02  0.31219384426E+02  0.10566000000E+00 0. -1.
        994    1    1    2    0    0 -0.16528305518E+02 -0.19437486078E+02  0.16860520654E+02  0.17391008569E+03  0.17120000000E+03 0.  0.
        998    1    1    2    0    0  0.11104915060E+02 -0.60740639696E+01  0.14659817820E+04  0.14660705299E+04  0.10000000000E+02 0. -1.
</event>
<event>
 5    1  0.1147307E-008  0.3789783E+03  0.7957747E-01  0.3455619E+00
         13   -1    0    0    0    0  0.00000000000E+00  0.00000000000E+00  0.14999999963E+04  0.15000000000E+04  0.10566000000E+00 0. -1.
        994   -1    0    0    0    0 -0.00000000000E+00 -0.00000000000E+00  0.11368683772E-12  0.17120000000E+03  0.17120000000E+03 0.  0.
         13    1    1    2    0    0  0.11924220178E+02  0.26919781742E+02  0.90320517947E+02  0.94998256838E+02  0.10566000000E+00 0. -1.
        994    1    1    2    0    0 -0.93787555204E+00 -0.22619970895E+02  0.63708560850E+01  0.17280790057E+03  0.17120000000E+03 0.  0.
        998    1    1    2    0    0 -0.10986344626E+02 -0.42998108475E+01  0.14033086222E+04  0.14033938426E+04  0.10000000000E+02 0. -1.
</event>
<event>
 5    1  0.1147307E-008  0.3792294E+03  0.7957747E-01  0.3454521E+00
         13   -1    0    0    0    0  0.00000000000E+00  0.00000000000E+00  0.14999999963E+04  0.15000000000E+04  0.10566000000E+00 0. -1.
        994   -1    0    0    0    0 -0.00000000000E+00 -0.00000000000E+00  0.11368683772E-12  0.17120000000E+03  0.17120000000E+03 0.  0.
         13    1    1    2    0    0 -0.13535473079E+02 -0.24207022452E+02  0.86978324580E+02  0.91293094362E+02  0.10566000000E+00 0. -1.
        994    1    1    2    0    0  0.12339123803E+02  0.25447274778E+01  0.50547733461E+01  0.17173735863E+03  0.17120000000E+03 0.  0.
        998    1    1    2    0    0  0.11963492763E+01  0.21662294974E+02  0.14079668984E+04  0.14081695470E+04  0.10000000000E+02 0. -1.
</event>
<event>
 5    1  0.1147307E-008  0.3785837E+03  0.7957747E-01  0.3457349E+00
         13   -1    0    0    0    0  0.00000000000E+00  0.00000000000E+00  0.14999999963E+04  0.15000000000E+04  0.10566000000E+00 0. -1.
        994   -1    0    0    0    0 -0.00000000000E+00 -0.00000000000E+00  0.11368683772E-12  0.17120000000E+03  0.17120000000E+03 0.  0.
         13    1    1    2    0    0 -0.70776833275E+02  0.35257091877E+02  0.42082731200E+03  0.42819161638E+03  0.10566000000E+00 0. -1.
        994    1    1    2    0    0  0.70242592455E+02 -0.56454366934E+02  0.32628772940E+02  0.19620192192E+03  0.17120000000E+03 0.  0.
        998    1    1    2    0    0  0.53424081960E+00  0.21197275057E+02  0.10465439113E+04  0.10468064617E+04  0.10000000000E+02 0. -1.
</event>
<event>
 5    1  0.1147307E-008  0.3751406E+03  0.7957747E-01  0.3472594E+00
         13   -1    0    0    0    0  0.00000000000E+00  0.00000000000E+00  0.14999999963E+04  0.15000000000E+04  0.10566000000E+00 0.  1.
        994   -1    0    0    0    0 -0.00000000000E+00 -0.00000000000E+00  0.11368683772E-12  0.17120000000E+03  0.17120000000E+03 0.  0.
         13    1    1    2    0    0 -0.28780853248E+02  0.84865520702E+01  0.62766826781E+02  0.69570430414E+02  0.10566000000E+00 0.  1.
        994    1    1    2    0    0  0.29537246560E+02 -0.13592766438E+02  0.10206942904E+02  0.17455896974E+03  0.17120000000E+03 0.  0.
        998    1    1    2    0    0 -0.75639331210E+00  0.51062143677E+01  0.14270262266E+04  0.14270705998E+04  0.10000000000E+02 0.  1.
</event>
<event>
 5    1  0.1147307E-008  0.3857567E+03  0.7957747E-01  0.3426469E+00
         13   -1    0    0    0    0  0.00000000000E+00  0.00000000000E+00  0.14999999963E+04  0.15000000000E+04  0.10566000000E+00 0.  1.
        994   -1    0    0    0    0 -0.00000000000E+00 -0.00000000000E+00  0.11368683772E-12  0.17120000000E+03  0.17120000000E+03 0.  0.
         13    1    1    2    0    0  0.34253261678E+01  0.12024556432E+02  0.61942899782E+02  0.63192221153E+02  0.10566000000E+00 0.  1.
        994    1    1    2    0    0 -0.10075819132E+01 -0.10406308811E+02  0.16136007026E+01  0.17152652912E+03  0.17120000000E+03 0.  0.
        998    1    1    2    0    0 -0.24177442546E+01 -0.16182476210E+01  0.14364434958E+04  0.14364812497E+04  0.10000000000E+02 0.  0.
</event>
<event>
 5    1  0.1147307E-008  0.3796617E+03  0.7957747E-01  0.3452633E+00
         13   -1    0    0    0    0  0.00000000000E+00  0.00000000000E+00  0.14999999963E+04  0.15000000000E+04  0.10566000000E+00 0. -1.
        994   -1    0    0    0    0 -0.00000000000E+00 -0.00000000000E+00  0.11368683772E-12  0.17120000000E+03  0.17120000000E+03 0.  0.
         13    1    1    2    0    0 -0.26306500318E+02 -0.28746635972E+02  0.20014705318E+03  0.20390501490E+03  0.10566000000E+00 0. -1.
        994    1    1    2    0    0  0.19678991074E+02 -0.11020508858E+02  0.60083780485E+01  0.17278383869E+03  0.17120000000E+03 0.  0.
        998    1    1    2    0    0  0.66275092446E+01  0.39767144829E+02  0.12938445650E+04  0.12945111464E+04  0.10000000000E+02 0. -1.
</event>
<event>
 5    1  0.1745724E-008  0.3861436E+03  0.7957747E-01  0.3424836E+00
         13   -1    0    0    0    0  0.00000000000E+00  0.00000000000E+00  0.14999999963E+04  0.15000000000E+04  0.10566000000E+00 0.  1.
        994   -1    0    0    0    0 -0.00000000000E+00 -0.00000000000E+00  0.11368683772E-12  0.17120000000E+03  0.17120000000E+03 0.  0.
         13    1    1    2    0    0 -0.68578248662E+01 -0.79518582980E+01  0.52133820798E+02  0.53180901152E+02  0.10566000000E+00 0.  1.
        994    1    1    2    0    0  0.51457335483E+01  0.65362988889E+01  0.12901909128E+01  0.17140684458E+03  0.17120000000E+03 0.  0.
        998    1    1    2    0    0  0.17120913178E+01  0.14155594091E+01  0.14465759846E+04  0.14466122543E+04  0.10000000000E+02 0.  1.
</event>
<event>
 5    1  0.1147307E-008  0.3693157E+03  0.7957747E-01  0.3499042E+00
         13   -1    0    0    0    0  0.00000000000E+00  0.00000000000E+00  0.14999999963E+04  0.15000000000E+04  0.10566000000E+00 0.  1.
        994   -1    0    0    0    0 -0.00000000000E+00 -0.00000000000E+00  0.11368683772E-12  0.17120000000E+03  0.17120000000E+03 0.  0.
         13    1    1    2    0    0 -0.13336042568E+02 -0.34124440615E+01  0.53513226676E+01  0.14769652134E+02  0.10566000000E+00 0.  1.
        994    1    1    2    0    0  0.16074147583E+02  0.41731207250E+01  0.10583627390E+02  0.17232888999E+03  0.17120000000E+03 0.  0.
        998    1    1    2    0    0 -0.27381050149E+01 -0.76067666351E+00  0.14840650462E+04  0.14841014579E+04  0.10000000000E+02 0.  1.
</event>
<event>
 5    1  0.1147307E-008  0.3846661E+03  0.7957747E-01  0.3431089E+00
         13   -1    0    0    0    0  0.00000000000E+00  0.00000000000E+00  0.14999999963E+04  0.15000000000E+04  0.10566000000E+00 0.  1.
        994   -1    0    0    0    0 -0.00000000000E+00 -0.00000000000E+00  0.11368683772E-12  0.17120000000E+03  0.17120000000E+03 0.  0.
         13    1    1    2    0    0 -0.16869688067E+02  0.11295098549E+01  0.72880756823E+02  0.74816295331E+02  0.10566000000E+00 0.  1.
        994    1    1    2    0    0  0.24313205389E+02 -0.61813897711E+01  0.38706507338E+01  0.17307155593E+03  0.17120000000E+03 0.  0.
        998    1    1    2    0    0 -0.74435173214E+01  0.50518799162E+01  0.14232485887E+04  0.14233121487E+04  0.10000000000E+02 0.  1.
</event>
<event>
 5    1  0.1147307E-008  0.3833539E+03  0.7957747E-01  0.3436684E+00
         13   -1    0    0    0    0  0.00000000000E+00  0.00000000000E+00  0.14999999963E+04  0.15000000000E+04  0.10566000000E+00 0. -1.
        994   -1    0    0    0    0 -0.00000000000E+00 -0.00000000000E+00  0.11368683772E-12  0.17120000000E+03  0.17120000000E+03 0.  0.
         13    1    1    2    0    0  0.18076578623E+02 -0.45665686244E+01  0.70362634767E+02  0.72790986936E+02  0.10566000000E+00 0. -1.
        994    1    1    2    0    0 -0.11046806162E+02  0.46393034868E+01  0.29243766394E+01  0.17164366298E+03  0.17120000000E+03 0.  0.
        998    1    1    2    0    0 -0.70297724610E+01 -0.72734862354E-01  0.14267129849E+04  0.14267653501E+04  0.10000000000E+02 0. -1.
</event>
<event>
 5    1  0.1147307E-008  0.3725231E+03  0.7957747E-01  0.3484375E+00
         13   -1    0    0    0    0  0.00000000000E+00  0.00000000000E+00  0.14999999963E+04  0.15000000000E+04  0.10566000000E+00 0.  1.
        994   -1    0    0    0    0 -0.00000000000E+00 -0.00000000000E+00  0.11368683772E-12  0.17120000000E+03  0.17120000000E+03 0.  0.
         13    1    1    2    0    0  0.25609202997E+03 -0.10795939364E+03  0.10969392086E+04  0.11315979839E+04  0.10566000000E+00 0.  1.
        994    1    1    2    0    0 -0.27084011409E+03  0.92431793561E+02  0.38781617779E+03  0.51147710761E+03  0.17120000000E+03 0.  0.
        998    1    1    2    0    0  0.14748084124E+02  0.15527600083E+02  0.15244609871E+02  0.28124908529E+02  0.10000000000E+02 0.  1.
</event>
<event>
 5    1  0.1147307E-008  0.3743610E+03  0.7957747E-01  0.3476086E+00
         13   -1    0    0    0    0  0.00000000000E+00  0.00000000000E+00  0.14999999963E+04  0.15000000000E+04  0.10566000000E+00 0. -1.
        994   -1    0    0    0    0 -0.00000000000E+00 -0.00000000000E+00  0.11368683772E-12  0.17120000000E+03  0.17120000000E+03 0.  0.
         13    1    1    2    0    0 -0.40470865806E+02  0.31236011000E+01  0.10879457909E+03  0.11612028017E+03  0.10566000000E+00 0. -1.
        994    1    1    2    0    0  0.37099484946E+02 -0.11185164843E+02  0.12139293895E+02  0.17594965801E+03  0.17120000000E+03 0.  0.
        998    1    1    2    0    0  0.33713808597E+01  0.80615637425E+01  0.13790661233E+04  0.13791300618E+04  0.10000000000E+02 0. -1.
</event>
<event>
 5    1  0.1147307E-008  0.3836544E+03  0.7957747E-01  0.3435399E+00
         13   -1    0    0    0    0  0.00000000000E+00  0.00000000000E+00  0.14999999963E+04  0.15000000000E+04  0.10566000000E+00 0. -1.
        994   -1    0    0    0    0 -0.00000000000E+00 -0.00000000000E+00  0.11368683772E-12  0.17120000000E+03  0.17120000000E+03 0.  0.
         13    1    1    2    0    0 -0.13123631006E+02 -0.13135512110E+02  0.71092354050E+02  0.73477243672E+02  0.10566000000E+00 0. -1.
        994    1    1    2    0    0  0.98367003048E+01  0.18606625301E+02  0.37641902004E+01  0.17252992872E+03  0.17120000000E+03 0.  0.
        998    1    1    2    0    0  0.32869307015E+01 -0.54711131911E+01  0.14251434520E+04  0.14251928276E+04  0.10000000000E+02 0. -1.
</event>
<event>
 5    1  0.1147307E-008  0.3756697E+03  0.7957747E-01  0.3470233E+00
         13   -1    0    0    0    0  0.00000000000E+00  0.00000000000E+00  0.14999999963E+04  0.15000000000E+04  0.10566000000E+00 0. -1.
        994   -1    0    0    0    0 -0.00000000000E+00 -0.00000000000E+00  0.11368683772E-12  0.17120000000E+03  0.17120000000E+03 0.  0.
         13    1    1    2    0    0 -0.22065861958E+02 -0.18081852133E+02  0.60102532838E+02  0.66529551765E+02  0.10566000000E+00 0. -1.
        994    1    1    2    0    0  0.23794631377E+02  0.12849622475E+02  0.88194431297E+01  0.17354688086E+03  0.17120000000E+03 0.  0.
        998    1    1    2    0    0 -0.17287694194E+01  0.52322296573E+01  0.14310780203E+04  0.14311235674E+04  0.10000000000E+02 0. -1.
</event>
<event>
 5    1  0.1147307E-008  0.3696673E+03  0.7957747E-01  0.3497421E+00
         13   -1    0    0    0    0  0.00000000000E+00  0.00000000000E+00  0.14999999963E+04  0.15000000000E+04  0.10566000000E+00 0.  1.
        994   -1    0    0    0    0 -0.00000000000E+00 -0.00000000000E+00  0.11368683772E-12  0.17120000000E+03  0.17120000000E+03 0.  0.
         13    1    1    2    0    0  0.98858369795E+01 -0.15468928344E+02  0.13438184174E+02  0.22751120298E+02  0.10566000000E+00 0.  1.
        994    1    1    2    0    0 -0.10313679630E+02  0.19212215603E+02  0.11090708764E+02  0.17293907898E+03  0.17120000000E+03 0.  0.
        998    1    1    2    0    0  0.42784265007E+00 -0.37432872592E+01  0.14754711033E+04  0.14755098007E+04  0.10000000000E+02 0.  1.
</event>
<event>
 5    1  0.1147307E-008  0.3824671E+03  0.7957747E-01  0.3440486E+00
         13   -1    0    0    0    0  0.00000000000E+00  0.00000000000E+00  0.14999999963E+04  0.15000000000E+04  0.10566000000E+00 0. -1.
        994   -1    0    0    0    0 -0.00000000000E+00 -0.00000000000E+00  0.11368683772E-12  0.17120000000E+03  0.17120000000E+03 0.  0.
         13    1    1    2    0    0 -0.20815825785E+02  0.82606460304E+01  0.96535291722E+02  0.99098993879E+02  0.10566000000E+00 0. -1.
        994    1    1    2    0    0 -0.37957653281E+01  0.55685778125E+01  0.30435365870E+01  0.17135962187E+03  0.17120000000E+03 0.  0.
        998    1    1    2    0    0  0.24611591113E+02 -0.13829223843E+02  0.14004211680E+04  0.14007413842E+04  0.10000000000E+02 0. -1.
</event>
<event>
 5    1  0.1147307E-008  0.4433450E+03  0.7957747E-01  0.3214561E+00
         13   -1    0    0    0    0  0.00000000000E+00  0.00000000000E+00  0.14999999963E+04  0.15000000000E+04  0.10566000000E+00 0. -1.
        994   -1    0    0    0    0 -0.00000000000E+00 -0.00000000000E+00  0.11368683772E-12  0.17120000000E+03  0.17120000000E+03 0.  0.
         13    1    1    2    0    0  0.12477272387E+03 -0.17110324474E+02  0.18244968991E+03  0.22169550365E+03  0.10566000000E+00 0. -1.
        994    1    1    2    0    0  0.24800689584E+02  0.22569402724E+02  0.62179384475E+02  0.18520304532E+03  0.17120000000E+03 0.  0.
        998    1    1    2    0    0 -0.14957341345E+03 -0.54590782493E+01  0.12553709219E+04  0.12643014510E+04  0.10000000000E+02 0. -1.
</event>
<event>
 5    1  0.1147307E-008  0.3769273E+03  0.7957747E-01  0.3464648E+00
         13   -1    0    0    0    0  0.00000000000E+00  0.00000000000E+00  0.14999999963E+04  0.15000000000E+04  0.10566000000E+00 0. -1.
        994   -1    0    0    0    0 -0.00000000000E+00 -0.00000000000E+00  0.11368683772E-12  0.17120000000E+03  0.17120000000E+03 0.  0.
         13    1    1    2    0    0 -0.11850791647E+02  0.26654479503E+01  0.10413868757E+02  0.16000178186E+02  0.10566000000E+00 0. -1.
        994    1    1    2    0    0  0.70946122469E+01 -0.79679362733E+01  0.60768168737E+01  0.17163970763E+03  0.17120000000E+03 0.  0.
        998    1    1    2    0    0  0.47561794005E+01  0.53024883231E+01  0.14835093106E+04  0.14835601142E+04  0.10000000000E+02 0. -1.
</event>
<event>
 5    1  0.1147307E-008  0.3720099E+03  0.7957747E-01  0.3486705E+00
         13   -1    0    0    0    0  0.00000000000E+00  0.00000000000E+00  0.14999999963E+04  0.15000000000E+04  0.10566000000E+00 0.  1.
        994   -1    0    0    0    0 -0.00000000000E+00 -0.00000000000E+00  0.11368683772E-12  0.17120000000E+03  0.17120000000E+03 0.  0.
         13    1    1    2    0    0 -0.72193515280E+02  0.29334684706E+02  0.21421478834E+03  0.22794827063E+03  0.10566000000E+00 0.  1.
        994    1    1    2    0    0  0.69248535597E+02 -0.35047418769E+02  0.33527648998E+02  0.19093775031E+03  0.17120000000E+03 0.  0.
        998    1    1    2    0    0  0.29449796824E+01  0.57127340634E+01  0.12522575589E+04  0.12523139791E+04  0.10000000000E+02 0.  1.
</event>
<event>
 5    1  0.1147307E-008  0.3750025E+03  0.7957747E-01  0.3473212E+00
         13   -1    0    0    0    0  0.00000000000E+00  0.00000000000E+00  0.14999999963E+04  0.15000000000E+04  0.10566000000E+00 0.  1.
        994   -1    0    0    0    0 -0.00000000000E+00 -0.00000000000E+00  0.11368683772E-12  0.17120000000E+03  0.17120000000E+03 0.  0.
         13    1    1    2    0    0  0.64370071495E+02  0.63217506070E+02  0.41349916198E+03  0.42322751245E+03  0.10566000000E+00 0.  1.
        994    1    1    2    0    0 -0.65690792443E+02 -0.69403853304E+02  0.38382008798E+02  0.19978687060E+03  0.17120000000E+03 0.  0.
        998    1    1    2    0    0  0.13207209473E+01  0.61863472341E+01  0.10481188255E+04  0.10481856169E+04  0.10000000000E+02 0. -1.
</event>
<event>
 5    1  0.1147307E-008  0.3829244E+03  0.7957747E-01  0.3438523E+00
         13   -1    0    0    0    0  0.00000000000E+00  0.00000000000E+00  0.14999999963E+04  0.15000000000E+04  0.10566000000E+00 0. -1.
        994   -1    0    0    0    0 -0.00000000000E+00 -0.00000000000E+00  0.11368683772E-12  0.17120000000E+03  0.17120000000E+03 0.  0.
         13    1    1    2    0    0  0.25343588708E+02  0.24686481731E+02  0.16329069417E+03  0.16707956738E+03  0.10566000000E+00 0. -1.
        994    1    1    2    0    0 -0.58384544870E+02 -0.38089494244E+02  0.18923823842E+02  0.18581473505E+03  0.17120000000E+03 0.  0.
        998    1    1    2    0    0  0.33040956162E+02  0.13403012513E+02  0.13177854783E+04  0.13183056976E+04  0.10000000000E+02 0. -1.
</event>
<event>
 5    1  0.1147307E-008  0.3842398E+03  0.7957747E-01  0.3432903E+00
         13   -1    0    0    0    0  0.00000000000E+00  0.00000000000E+00  0.14999999963E+04  0.15000000000E+04  0.10566000000E+00 0.  1.
        994   -1    0    0    0    0 -0.00000000000E+00 -0.00000000000E+00  0.11368683772E-12  0.17120000000E+03  0.17120000000E+03 0.  0.
         13    1    1    2    0    0  0.53390279677E+01 -0.19667211370E+02  0.10025653768E+03  0.10230683719E+03  0.10566000000E+00 0.  1.
        994    1    1    2    0    0 -0.69228648070E+01  0.15468758445E+02  0.29554486347E+01  0.17206214930E+03  0.17120000000E+03 0.  0.
        998    1    1    2    0    0  0.15838368392E+01  0.41984529247E+01  0.13967880100E+04  0.13968310135E+04  0.10000000000E+02 0.  1.
</event>
<event>
 5    1  0.1147307E-008  0.3839054E+03  0.7957747E-01  0.3434328E+00
         13   -1    0    0    0    0  0.00000000000E+00  0.00000000000E+00  0.14999999963E+04  0.15000000000E+04  0.10566000000E+00 0.  1.
        994   -1    0    0    0    0 -0.00000000000E+00 -0.00000000000E+00  0.11368683772E-12  0.17120000000E+03  0.17120000000E+03 0.  0.
         13    1    1    2    0    0  0.83552253648E+01  0.10304615494E+02  0.40659867419E+02  0.42769508694E+02  0.10566000000E+00 0.  1.
        994    1    1    2    0    0  0.38073772913E+01 -0.93247956815E+01  0.25094442927E+01  0.17151438787E+03  0.17120000000E+03 0.  0.
        998    1    1    2    0    0 -0.12162602656E+02 -0.97981981205E+00  0.14568306846E+04  0.14569161034E+04  0.10000000000E+02 0.  1.
</event>
<event>
 5    1  0.1147307E-008  0.3807020E+03  0.7957747E-01  0.3448108E+00
         13   -1    0    0    0    0  0.00000000000E+00  0.00000000000E+00  0.14999999963E+04  0.15000000000E+04  0.10566000000E+00 0.  1.
        994   -1    0    0    0    0 -0.00000000000E+00 -0.00000000000E+00  0.11368683772E-12  0.17120000000E+03  0.17120000000E+03 0.  0.
         13    1    1    2    0    0  0.18712664976E+02  0.24988945192E+02  0.13362919737E+03  0.13722749275E+03  0.10566000000E+00 0.  1.
        994    1    1    2    0    0 -0.47113583911E+01 -0.10568339928E+02  0.42258857442E+01  0.17164260781E+03  0.17120000000E+03 0.  0.
        998    1    1    2    0    0 -0.14001306585E+02 -0.14420605264E+02  0.13621449132E+04  0.13623298994E+04  0.10000000000E+02 0.  1.
</event>
<event>
 5    1  0.1147307E-008  0.3834690E+03  0.7957747E-01  0.3436192E+00
         13   -1    0    0    0    0  0.00000000000E+00  0.00000000000E+00  0.14999999963E+04  0.15000000000E+04  0.10566000000E+00 0. -1.
        994   -1    0    0    0    0 -0.00000000000E+00 -0.00000000000E+00  0.11368683772E-12  0.17120000000E+03  0.17120000000E+03 0.  0.
         13    1    1    2    0    0  0.10635633501E+02  0.10444644957E+02  0.44617402298E+02  0.47041801200E+02  0.10566000000E+00 0. -1.
        994    1    1    2    0    0 -0.75539278017E+01 -0.14745662781E+02  0.32999356121E+01  0.17203146797E+03  0.17120000000E+03 0.  0.
        998    1    1    2    0    0 -0.30817056993E+01  0.43010178239E+01  0.14520826584E+04  0.14521267308E+04  0.10000000000E+02 0. -1.
</event>
<event>
 5    1  0.1367781E-008  0.3853434E+03  0.7957747E-01  0.3428217E+00
         13   -1    0    0    0    0  0.00000000000E+00  0.00000000000E+00  0.14999999963E+04  0.15000000000E+04  0.10566000000E+00 0. -1.
        994   -1    0    0    0    0 -0.00000000000E+00 -0.00000000000E+00  0.11368683772E-12  0.17120000000E+03  0.17120000000E+03 0.  0.
         13    1    1    2    0    0 -0.39865210658E+01 -0.10398980940E+02  0.44194807007E+02  0.45576565088E+02  0.10566000000E+00 0. -1.
        994    1    1    2    0    0  0.64907253422E+01 -0.17054930040E+01  0.16076980509E+01  0.17133902916E+03  0.17120000000E+03 0.  0.
        998    1    1    2    0    0 -0.25042042764E+01  0.12104473944E+02  0.14541974912E+04  0.14542844057E+04  0.10000000000E+02 0. -1.
</event>
<event>
 5    1  0.1147307E-008  0.3762155E+03  0.7957747E-01  0.3467804E+00
         13   -1    0    0    0    0  0.00000000000E+00  0.00000000000E+00  0.14999999963E+04  0.15000000000E+04  0.10566000000E+00 0. -1.
        994   -1    0    0    0    0 -0.00000000000E+00 -0.00000000000E+00  0.11368683772E-12  0.17120000000E+03  0.17120000000E+03 0.  0.
         13    1    1    2    0    0 -0.45889330798E+02 -0.35414859603E+02  0.27754285134E+03  0.28353145938E+03  0.10566000000E+00 0. -1.
        994    1    1    2    0    0  0.19517159942E+02  0.27432521686E+02  0.99025815800E+01  0.17475973192E+03  0.17120000000E+03 0.  0.
        998    1    1    2    0    0  0.26372170856E+02  0.79823379167E+01  0.12125545634E+04  0.12129088087E+04  0.10000000000E+02 0. -1.
</event>
<event>
 5    1  0.1889823E-008  0.3859452E+03  0.7957747E-01  0.3425673E+00
         13   -1    0    0    0    0  0.00000000000E+00  0.00000000000E+00  0.14999999963E+04  0.15000000000E+04  0.10566000000E+00 0.  1.
        994   -1    0    0    0    0 -0.00000000000E+00 -0.00000000000E+00  0.11368683772E-12  0.17120000000E+03  0.17120000000E+03 0.  0.
         13    1    1    2    0    0  0.11085207505E+02  0.63422669390E+00  0.54145938385E+02  0.55272758901E+02  0.10566000000E+00 0.  1.
        994    1    1    2    0    0 -0.59153822388E+01 -0.35333808717E+01  0.13172550188E+01  0.17134366545E+03  0.17120000000E+03 0.  0.
        998    1    1    2    0    0 -0.51698252660E+01  0.28991541778E+01  0.14445368029E+04  0.14445835757E+04  0.10000000000E+02 0.  1.
</event>
<event>
 5    1  0.1147307E-008  0.3814431E+03  0.7957747E-01  0.3444899E+00
         13   -1    0    0    0    0  0.00000000000E+00  0.00000000000E+00  0.14999999963E+04  0.15000000000E+04  0.10566000000E+00 0.  1.
        994   -1    0    0    0    0 -0.00000000000E+00 -0.00000000000E+00  0.11368683772E-12  0.17120000000E+03  0.17120000000E+03 0.  0.
         13    1    1    2    0    0  0.65381617622E+01  0.11424762507E+02  0.23591282369E+02  0.27015412739E+02  0.10566000000E+00 0.  1.
        994    1    1    2    0    0 -0.11137319010E+02 -0.12180480482E+02  0.43132779516E+01  0.17204780832E+03  0.17120000000E+03 0.  0.
        998    1    1    2    0    0  0.45991572474E+01  0.75571797485E+00  0.14720954360E+04  0.14721367789E+04  0.10000000000E+02 0.  1.
</event>
<event>
 5    1  0.1147307E-008  0.3832891E+03  0.7957747E-01  0.3436961E+00
         13   -1    0    0    0    0  0.00000000000E+00  0.00000000000E+00  0.14999999963E+04  0.15000000000E+04  0.10566000000E+00 0.  1.
        994   -1    0    0    0    0 -0.00000000000E+00 -0.00000000000E+00  0.11368683772E-12  0.17120000000E+03  0.17120000000E+03 0.  0.
         13    1    1    2    0    0 -0.16904866322E+01 -0.10102730533E+02  0.20313820959E+02  0.22750503187E+02  0.10566000000E+00 0.  1.
        994    1    1    2    0    0  0.62089428473E+01  0.51121245635E+01  0.26958863043E+01  0.17141001310E+03  0.17120000000E+03 0.  0.
        998    1    1    2    0    0 -0.45184562151E+01  0.49906059690E+01  0.14769902890E+04  0.14770394837E+04  0.10000000000E+02 0.  1.
</event>
<event>
 5    1  0.1147307E-008  0.3875677E+03  0.7957747E-01  0.3418855E+00
         13   -1    0    0    0    0  0.00000000000E+00  0.00000000000E+00  0.14999999963E+04  0.15000000000E+04  0.10566000000E+00 0.  1.
        994   -1    0    0    0    0 -0.00000000000E+00 -0.00000000000E+00  0.11368683772E-12  0.17120000000E+03  0.17120000000E+03 0.  0.
         13    1    1    2    0    0 -0.84261783034E+02 -0.18696061135E+02  0.15246167757E+03  0.17519750305E+03  0.10566000000E+00 0.  1.
        994    1    1    2    0    0  0.91366055429E+02  0.23569756880E+02  0.54553454941E+02  0.20295026231E+03  0.17120000000E+03 0.  0.
        998    1    1    2    0    0 -0.71042723955E+01 -0.48736957449E+01  0.12929848638E+04  0.12930522346E+04  0.10000000000E+02 0.  1.
</event>
<event>
 5    1  0.1147307E-008  0.3777475E+03  0.7957747E-01  0.3461026E+00
         13   -1    0    0    0    0  0.00000000000E+00  0.00000000000E+00  0.14999999963E+04  0.15000000000E+04  0.10566000000E+00 0.  1.
        994   -1    0    0    0    0 -0.00000000000E+00 -0.00000000000E+00  0.11368683772E-12  0.17120000000E+03  0.17120000000E+03 0.  0.
         13    1    1    2    0    0  0.17027253266E+02  0.13871210678E+02  0.44065208951E+02  0.49235065181E+02  0.10566000000E+00 0.  1.
        994    1    1    2    0    0 -0.55982184658E+01 -0.11658971636E+02  0.58381214481E+01  0.17178706392E+03  0.17120000000E+03 0.  0.
        998    1    1    2    0    0 -0.11429034801E+02 -0.22122390423E+01  0.14500966659E+04  0.14501778709E+04  0.10000000000E+02 0.  1.
</event>
<event>
 5    1  0.1147307E-008  0.3770469E+03  0.7957747E-01  0.3464119E+00
         13   -1    0    0    0    0  0.00000000000E+00  0.00000000000E+00  0.14999999963E+04  0.15000000000E+04  0.10566000000E+00 0.  1.
        994   -1    0    0    0    0 -0.00000000000E+00 -0.00000000000E+00  0.11368683772E-12  0.17120000000E+03  0.17120000000E+03 0.  0.
         13    1    1    2    0    0  0.40225496409E+02 -0.47582117973E+02  0.26291025328E+03  0.27019245170E+03  0.10566000000E+00 0.  1.
        994    1    1    2    0    0 -0.46457867702E+02  0.55296858666E+02  0.23447986069E+02  0.18728407327E+03  0.17120000000E+03 0.  0.
        998    1    1    2    0    0  0.62323712928E+01 -0.77147406934E+01  0.12136417569E+04  0.12137234750E+04  0.10000000000E+02 0.  1.
</event>
<event>
 5    1  0.1147307E-008  0.3802364E+03  0.7957747E-01  0.3450130E+00
         13   -1    0    0    0    0  0.00000000000E+00  0.00000000000E+00  0.14999999963E+04  0.15000000000E+04  0.10566000000E+00 0.  1.
        994   -1    0    0    0    0 -0.00000000000E+00 -0.00000000000E+00  0.11368683772E-12  0.17120000000E+03  0.17120000000E+03 0.  0.
         13    1    1    2    0    0  0.25143516204E+02  0.26258050457E+02  0.16957322773E+03  0.17342656183E+03  0.10566000000E+00 0.  1.
        994    1    1    2    0    0 -0.77262455136E+01 -0.14413620947E+02  0.49077189860E+01  0.17204933317E+03  0.17120000000E+03 0.  0.
        998    1    1    2    0    0 -0.17417270690E+02 -0.11844429510E+02  0.13255190496E+04  0.13257241050E+04  0.10000000000E+02 0.  1.
</event>
<event>
 5    1  0.1147307E-008  0.3836668E+03  0.7957747E-01  0.3435346E+00
         13   -1    0    0    0    0  0.00000000000E+00  0.00000000000E+00  0.14999999963E+04  0.15000000000E+04  0.10566000000E+00 0. -1.
        994   -1    0    0    0    0 -0.00000000000E+00 -0.00000000000E+00  0.11368683772E-12  0.17120000000E+03  0.17120000000E+03 0.  0.
         13    1    1    2    0    0  0.10708914470E+02 -0.46062633721E+01  0.28344999100E+02  0.30648795236E+02  0.10566000000E+00 0. -1.
        994    1    1    2    0    0 -0.12544401809E+02  0.47294311841E+01  0.28873673316E+01  0.17174838115E+03  0.17120000000E+03 0.  0.
        998    1    1    2    0    0  0.18354873399E+01 -0.12316781200E+00  0.14687676298E+04  0.14688028236E+04  0.10000000000E+02 0. -1.
</event>
<event>
 5    1  0.1147307E-008  0.3791831E+03  0.7957747E-01  0.3454723E+00
         13   -1    0    0    0    0  0.00000000000E+00  0.00000000000E+00  0.14999999963E+04  0.15000000000E+04  0.10566000000E+00 0.  1.
        994   -1    0    0    0    0 -0.00000000000E+00 -0.00000000000E+00  0.11368683772E-12  0.17120000000E+03  0.17120000000E+03 0.  0.
         13    1    1    2    0    0 -0.49349402457E+01 -0.66940174902E+02  0.39056188643E+03  0.39628769719E+03  0.10566000000E+00 0.  1.
        994    1    1    2    0    0 -0.23774514310E+01  0.61756916573E+02  0.17457414391E+02  0.18284903701E+03  0.17120000000E+03 0.  0.
        998    1    1    2    0    0  0.73123916768E+01  0.51832583283E+01  0.10919806955E+04  0.10920632658E+04  0.10000000000E+02 0.  1.
</event>
<event>
 5    1  0.1147307E-008  0.3797645E+03  0.7957747E-01  0.3452184E+00
         13   -1    0    0    0    0  0.00000000000E+00  0.00000000000E+00  0.14999999963E+04  0.15000000000E+04  0.10566000000E+00 0.  1.
        994   -1    0    0    0    0 -0.00000000000E+00 -0.00000000000E+00  0.11368683772E-12  0.17120000000E+03  0.17120000000E+03 0.  0.
         13    1    1    2    0    0 -0.88636854531E+01  0.63843725086E+01  0.12634644631E+02  0.16702411237E+02  0.10566000000E+00 0.  1.
        994    1    1    2    0    0 -0.11399127618E+02 -0.22838198195E+01  0.47043582004E+01  0.17165875139E+03  0.17120000000E+03 0.  0.
        998    1    1    2    0    0  0.20262813071E+02 -0.41005526891E+01  0.14826609934E+04  0.14828388374E+04  0.10000000000E+02 0.  1.
</event>
<event>
 5    1  0.1147307E-008  0.3685464E+03  0.7957747E-01  0.3502598E+00
         13   -1    0    0    0    0  0.00000000000E+00  0.00000000000E+00  0.14999999963E+04  0.15000000000E+04  0.10566000000E+00 0. -1.
        994   -1    0    0    0    0 -0.00000000000E+00 -0.00000000000E+00  0.11368683772E-12  0.17120000000E+03  0.17120000000E+03 0.  0.
         13    1    1    2    0    0 -0.26554158582E+02 -0.57642168890E+01  0.31265048124E+02  0.41422987973E+02  0.10566000000E+00 0. -1.
        994    1    1    2    0    0  0.31565355151E+02 -0.35299708351E+01  0.13689335467E+02  0.17465872508E+03  0.17120000000E+03 0.  0.
        998    1    1    2    0    0 -0.50111965687E+01  0.92941877241E+01  0.14550456127E+04  0.14551182870E+04  0.10000000000E+02 0. -1.
</event>
<event>
 5    1  0.1147307E-008  0.3753257E+03  0.7957747E-01  0.3471767E+00
         13   -1    0    0    0    0  0.00000000000E+00  0.00000000000E+00  0.14999999963E+04  0.15000000000E+04  0.10566000000E+00 0.  1.
        994   -1    0    0    0    0 -0.00000000000E+00 -0.00000000000E+00  0.11368683772E-12  0.17120000000E+03  0.17120000000E+03 0.  0.
         13    1    1    2    0    0  0.34889214175E+02  0.18852374374E+03  0.10292349602E+04  0.10469398615E+04  0.10566000000E+00 0.  1.
        994    1    1    2    0    0 -0.39008559710E+02 -0.17293098030E+03  0.12202181009E+03  0.27500100694E+03  0.17120000000E+03 0.  0.
        998    1    1    2    0    0  0.41193455347E+01 -0.15592763433E+02  0.34874322598E+03  0.34925913152E+03  0.10000000000E+02 0. -1.
</event>
<event>
 5    1  0.1147307E-008  0.3832278E+03  0.7957747E-01  0.3437223E+00
         13   -1    0    0    0    0  0.00000000000E+00  0.00000000000E+00  0.14999999963E+04  0.15000000000E+04  0.10566000000E+00 0. -1.
        994   -1    0    0    0    0 -0.00000000000E+00 -0.00000000000E+00  0.11368683772E-12  0.17120000000E+03  0.17120000000E+03 0.  0.
         13    1    1    2    0    0  0.19661270010E+02  0.78100812149E+01  0.92225150555E+02  0.94620571050E+02  0.10566000000E+00 0. -1.
        994    1    1    2    0    0 -0.55421610156E+01 -0.34741656847E+01  0.26540914165E+01  0.17134546850E+03  0.17120000000E+03 0.  0.
        998    1    1    2    0    0 -0.14119108994E+02 -0.43359155302E+01  0.14051207543E+04  0.14052339604E+04  0.10000000000E+02 0. -1.
</event>
<event>
 5    1  0.1147307E-008  0.3914775E+03  0.7957747E-01  0.3402657E+00
         13   -1    0    0    0    0  0.00000000000E+00  0.00000000000E+00  0.14999999963E+04  0.15000000000E+04  0.10566000000E+00 0. -1.
        994   -1    0    0    0    0 -0.00000000000E+00 -0.00000000000E+00  0.11368683772E-12  0.17120000000E+03  0.17120000000E+03 0.  0.
         13    1    1    2    0    0 -0.34550273755E+01 -0.15676732119E+02 -0.46092989009E+01  0.16701914396E+02  0.10566000000E+00 0. -1.
        994    1    1    2    0    0  0.16886834748E+00  0.14115751375E+02  0.23535218801E+02  0.17338578222E+03  0.17120000000E+03 0.  0.
        998    1    1    2    0    0  0.32861590280E+01  0.15609807440E+01  0.14810740764E+04  0.14811123034E+04  0.10000000000E+02 0. -1.
</event>
<event>
 5    1  0.1147307E-008  0.3795463E+03  0.7957747E-01  0.3453136E+00
         13   -1    0    0    0    0  0.00000000000E+00  0.00000000000E+00  0.14999999963E+04  0.15000000000E+04  0.10566000000E+00 0. -1.
        994   -1    0    0    0    0 -0.00000000000E+00 -0.00000000000E+00  0.11368683772E-12  0.17120000000E+03  0.17120000000E+03 0.  0.
         13    1    1    2    0    0  0.35380230680E+02  0.71290689464E+02  0.47854792209E+03  0.48512085920E+03  0.10566000000E+00 0. -1.
        994    1    1    2    0    0 -0.38217652509E+02 -0.72158040351E+02  0.27017748616E+02  0.19159011063E+03  0.17120000000E+03 0.  0.
        998    1    1    2    0    0  0.28374218296E+01  0.86735088668E+00  0.99443432557E+03  0.99448903017E+03  0.10000000000E+02 0.  0.
</event>
<event>
 5    1  0.1147307E-008  0.3845718E+03  0.7957747E-01  0.3431490E+00
         13   -1    0    0    0    0  0.00000000000E+00  0.00000000000E+00  0.14999999963E+04  0.15000000000E+04  0.10566000000E+00 0. -1.
        994   -1    0    0    0    0 -0.00000000000E+00 -0.00000000000E+00  0.11368683772E-12  0.17120000000E+03  0.17120000000E+03 0.  0.
         13    1    1    2    0    0 -0.15289816211E+02 -0.25437457460E+01  0.68422619236E+02  0.70156361859E+02  0.10566000000E+00 0. -1.
        994    1    1    2    0    0  0.30685939576E+01 -0.69258213770E+01  0.20318686468E+01  0.17137955468E+03  0.17120000000E+03 0.  0.
        998    1    1    2    0    0  0.12221222254E+02  0.94695671230E+01  0.14295455084E+04  0.14296640835E+04  0.10000000000E+02 0. -1.
</event>
<event>
 5    1  0.1147307E-008  0.3849830E+03  0.7957747E-01  0.3429744E+00
         13   -1    0    0    0    0  0.00000000000E+00  0.00000000000E+00  0.14999999963E+04  0.15000000000E+04  0.10566000000E+00 0.  1.
        994   -1    0    0    0    0 -0.00000000000E+00 -0.00000000000E+00  0.11368683772E-12  0.17120000000E+03  0.17120000000E+03 0.  0.
         13    1    1    2    0    0  0.16556415415E+02 -0.12348245596E+02  0.12350299802E+03  0.12521819254E+03  0.10566000000E+00 0.  1.
        994    1    1    2    0    0 -0.16913263184E+02  0.91408310012E+01  0.28551342646E+01  0.17229975350E+03  0.17120000000E+03 0.  0.
        998    1    1    2    0    0  0.35684776945E+00  0.32074145951E+01  0.13736418640E+04  0.13736820540E+04  0.10000000000E+02 0.  1.
</event>
<event>
 5    1  0.1147307E-008  0.3822095E+03  0.7957747E-01  0.3441594E+00
         13   -1    0    0    0    0  0.00000000000E+00  0.00000000000E+00  0.14999999963E+04  0.15000000000E+04  0.10566000000E+00 0.  1.
        994   -1    0    0    0    0 -0.00000000000E+00 -0.00000000000E+00  0.11368683772E-12  0.17120000000E+03  0.17120000000E+03 0.  0.
         13    1    1    2    0    0 -0.37228991834E+01  0.97073719419E+01  0.16469554205E+02  0.19476920396E+02  0.10566000000E+00 0.  1.
        994    1    1    2    0    0  0.64312887334E+01 -0.10045989095E+02  0.34942759692E+01  0.17165061414E+03  0.17120000000E+03 0.  0.
        998    1    1    2    0    0 -0.27083895500E+01  0.33861715315E+00  0.14800361661E+04  0.14800724655E+04  0.10000000000E+02 0.  1.
</event>
<event>
 5    1  0.1147307E-008  0.3815609E+03  0.7957747E-01  0.3444390E+00
         13   -1    0    0    0    0  0.00000000000E+00  0.00000000000E+00  0.14999999963E+04  0.15000000000E+04  0.10566000000E+00 0.  1.
        994   -1    0    0    0    0 -0.00000000000E+00 -0.00000000000E+00  0.11368683772E-12  0.17120000000E+03  0.17120000000E+03 0.  0.
         13    1    1    2    0    0  0.44602224903E+01 -0.31932558880E+02  0.17613263882E+03  0.17905948599E+03  0.10566000000E+00 0.  1.
        994    1    1    2    0    0 -0.79687251588E+01  0.79662498409E+00  0.35606318628E+01  0.17142419109E+03  0.17120000000E+03 0.  0.
        998    1    1    2    0    0  0.35085026685E+01  0.31135933896E+02  0.13203067256E+04  0.13207163229E+04  0.10000000000E+02 0.  1.
</event>
<event>
 5    1  0.1147307E-008  0.3789341E+03  0.7957747E-01  0.3455813E+00
         13   -1    0    0    0    0  0.00000000000E+00  0.00000000000E+00  0.14999999963E+04  0.15000000000E+04  0.10566000000E+00 0. -1.
        994   -1    0    0    0    0 -0.00000000000E+00 -0.00000000000E+00  0.11368683772E-12  0.17120000000E+03  0.17120000000E+03 0.  0.
         13    1    1    2    0    0  0.25213583414E+02 -0.13478768794E+02  0.74306554633E+02  0.79617066150E+02  0.10566000000E+00 0. -1.
        994    1    1    2    0    0 -0.41657354598E+02  0.32076025989E+02  0.14001859300E+02  0.17963768730E+03  0.17120000000E+03 0.  0.
        998    1    1    2    0    0  0.16443771184E+02 -0.18597257195E+02  0.14116915823E+04  0.14119452465E+04  0.10000000000E+02 0. -1.
</event>
<event>
 5    1  0.1147307E-008  0.3779165E+03  0.7957747E-01  0.3460281E+00
         13   -1    0    0    0    0  0.00000000000E+00  0.00000000000E+00  0.14999999963E+04  0.15000000000E+04  0.10566000000E+00 0. -1.
        994   -1    0    0    0    0 -0.00000000000E+00 -0.00000000000E+00  0.11368683772E-12  0.17120000000E+03  0.17120000000E+03 0.  0.
         13    1    1    2    0    0  0.40462047176E+02  0.97343854985E+01  0.50167671158E+02  0.65182374276E+02  0.10566000000E+00 0. -1.
        994    1    1    2    0    0 -0.36735235473E+02 -0.10476365250E+02  0.20453153783E+02  0.17659842370E+03  0.17120000000E+03 0.  0.
        998    1    1    2    0    0 -0.37268117034E+01  0.74197975128E+00  0.14293791713E+04  0.14294192020E+04  0.10000000000E+02 0. -1.
</event>
<event>
 5    1  0.1147307E-008  0.3703480E+03  0.7957747E-01  0.3494293E+00
         13   -1    0    0    0    0  0.00000000000E+00  0.00000000000E+00  0.14999999963E+04  0.15000000000E+04  0.10566000000E+00 0.  1.
        994   -1    0    0    0    0 -0.00000000000E+00 -0.00000000000E+00  0.11368683772E-12  0.17120000000E+03  0.17120000000E+03 0.  0.
         13    1    1    2    0    0 -0.12185703722E+02  0.57934680608E+02  0.21838093748E+03  0.22626348272E+03  0.10566000000E+00 0.  1.
        994    1    1    2    0    0 -0.92723254616E+01 -0.12097565947E+02  0.98900088927E+01  0.17216149220E+03  0.17120000000E+03 0.  0.
        998    1    1    2    0    0  0.21458029183E+02 -0.45837114661E+02  0.12717290499E+04  0.12727750251E+04  0.10000000000E+02 0.  1.
</event>
<event>
 5    1  0.1147307E-008  0.3848260E+03  0.7957747E-01  0.3430410E+00
         13   -1    0    0    0    0  0.00000000000E+00  0.00000000000E+00  0.14999999963E+04  0.15000000000E+04  0.10566000000E+00 0.  1.
        994   -1    0    0    0    0 -0.00000000000E+00 -0.00000000000E+00  0.11368683772E-12  0.17120000000E+03  0.17120000000E+03 0.  0.
         13    1    1    2    0    0  0.14586440815E+02  0.81074279720E+01  0.79262098158E+02  0.80999913657E+02  0.10566000000E+00 0.  1.
        994    1    1    2    0    0 -0.13287540985E+02 -0.52079828099E+01  0.23870399508E+01  0.17181041817E+03  0.17120000000E+03 0.  0.
        998    1    1    2    0    0 -0.12988998296E+01 -0.28994451621E+01  0.14183508582E+04  0.14183896682E+04  0.10000000000E+02 0.  1.
</event>
<event>
 5    1  0.1147307E-008  0.3721703E+03  0.7957747E-01  0.3485975E+00
         13   -1    0    0    0    0  0.00000000000E+00  0.00000000000E+00  0.14999999963E+04  0.15000000000E+04  0.10566000000E+00 0. -1.
        994   -1    0    0    0    0 -0.00000000000E+00 -0.00000000000E+00  0.11368683772E-12  0.17120000000E+03  0.17120000000E+03 0.  0.
         13    1    1    2    0    0  0.39732301020E+02 -0.87595758322E+02  0.39509475525E+03  0.40663441739E+03  0.10566000000E+00 0. -1.
        994    1    1    2    0    0 -0.54403517172E+02  0.86192507329E+02  0.44682411084E+02  0.20419316556E+03  0.17120000000E+03 0.  0.
        998    1    1    2    0    0  0.14671216153E+02  0.14032509935E+01  0.10602228299E+04  0.10603724170E+04  0.10000000000E+02 0. -1.
</event>
<event>
 5    1  0.1147307E-008  0.3802563E+03  0.7957747E-01  0.3450043E+00
         13   -1    0    0    0    0  0.00000000000E+00  0.00000000000E+00  0.14999999963E+04  0.15000000000E+04  0.10566000000E+00 0. -1.
        994   -1    0    0    0    0 -0.00000000000E+00 -0.00000000000E+00  0.11368683772E-12  0.17120000000E+03  0.17120000000E+03 0.  0.
         13    1    1    2    0    0  0.95292167395E+01 -0.77991586055E+01  0.16959139746E+02  0.20958445352E+02  0.10566000000E+00 0. -1.
        994    1    1    2    0    0 -0.13991902045E+02  0.68607392835E+01  0.48153638462E+01  0.17197520401E+03  0.17120000000E+03 0.  0.
        998    1    1    2    0    0  0.44626853053E+01  0.93841932207E+00  0.14782254927E+04  0.14782663506E+04  0.10000000000E+02 0. -1.
</event>
<event>
 5    1  0.1147307E-008  0.3840971E+03  0.7957747E-01  0.3433511E+00
         13   -1    0    0    0    0  0.00000000000E+00  0.00000000000E+00  0.14999999963E+04  0.15000000000E+04  0.10566000000E+00 0.  1.
        994   -1    0    0    0    0 -0.00000000000E+00 -0.00000000000E+00  0.11368683772E-12  0.17120000000E+03  0.17120000000E+03 0.  0.
         13    1    1    2    0    0 -0.11668404609E+02  0.11042076595E+02  0.70886054318E+02  0.72683718827E+02  0.10566000000E+00 0.  1.
        994    1    1    2    0    0 -0.58581693006E+01  0.12034310357E+02  0.26701672065E+01  0.17174315872E+03  0.17120000000E+03 0.  0.
        998    1    1    2    0    0  0.17526573910E+02 -0.23076386952E+02  0.14264437748E+04  0.14267731225E+04  0.10000000000E+02 0.  1.
</event>
<event>
 5    1  0.1147307E-008  0.3798265E+03  0.7957747E-01  0.3451914E+00
         13   -1    0    0    0    0  0.00000000000E+00  0.00000000000E+00  0.14999999963E+04  0.15000000000E+04  0.10566000000E+00 0. -1.
        994   -1    0    0    0    0 -0.00000000000E+00 -0.00000000000E+00  0.11368683772E-12  0.17120000000E+03  0.17120000000E+03 0.  0.
         13    1    1    2    0    0 -0.61016021543E+01  0.34971224108E+02  0.14683332935E+03  0.15106374097E+03  0.10566000000E+00 0. -1.
        994    1    1    2    0    0  0.81372004064E+01 -0.20949844998E+02  0.59121035816E+01  0.17277008712E+03  0.17120000000E+03 0.  0.
        998    1    1    2    0    0 -0.20355982521E+01 -0.14021379110E+02  0.13472545633E+04  0.13473661719E+04  0.10000000000E+02 0. -1.
</event>
<event>
 5    1  0.1147307E-008  0.3774820E+03  0.7957747E-01  0.3462196E+00
         13   -1    0    0    0    0  0.00000000000E+00  0.00000000000E+00  0.14999999963E+04  0.15000000000E+04  0.10566000000E+00 0.  1.
        994   -1    0    0    0    0 -0.00000000000E+00 -0.00000000000E+00  0.11368683772E-12  0.17120000000E+03  0.17120000000E+03 0.  0.
         13    1    1    2    0    0  0.50823212511E+00 -0.12620840764E+02  0.12313726999E+02  0.17640378628E+02  0.10566000000E+00 0.  1.
        994    1    1    2    0    0 -0.32315653730E+01  0.10329165873E+02  0.58045999695E+01  0.17163993726E+03  0.17120000000E+03 0.  0.
        998    1    1    2    0    0  0.27233332479E+01  0.22916748908E+01  0.14818816693E+04  0.14819196841E+04  0.10000000000E+02 0.  1.
</event>
<event>
 5    1  0.1147307E-008  0.3850048E+03  0.7957747E-01  0.3429652E+00
         13   -1    0    0    0    0  0.00000000000E+00  0.00000000000E+00  0.14999999963E+04  0.15000000000E+04  0.10566000000E+00 0. -1.
        994   -1    0    0    0    0 -0.00000000000E+00 -0.00000000000E+00  0.11368683772E-12  0.17120000000E+03  0.17120000000E+03 0.  0.
         13    1    1    2    0    0 -0.14627524703E+02  0.32553802026E-01  0.75242973121E+02  0.76651690828E+02  0.10566000000E+00 0. -1.
        994    1    1    2    0    0 -0.96582261166E+01  0.42527073591E+01  0.19940967791E+01  0.17153653626E+03  0.17120000000E+03 0.  0.
        998    1    1    2    0    0  0.24285750820E+02 -0.42852611611E+01  0.14227629264E+04  0.14230117729E+04  0.10000000000E+02 0. -1.
</event>
<event>
 5    1  0.1147307E-008  0.3849009E+03  0.7957747E-01  0.3430093E+00
         13   -1    0    0    0    0  0.00000000000E+00  0.00000000000E+00  0.14999999963E+04  0.15000000000E+04  0.10566000000E+00 0.  1.
        994   -1    0    0    0    0 -0.00000000000E+00 -0.00000000000E+00  0.11368683772E-12  0.17120000000E+03  0.17120000000E+03 0.  0.
         13    1    1    2    0    0  0.23281023787E+02  0.73398527449E+01  0.14373915591E+03  0.14579724145E+03  0.10566000000E+00 0.  1.
        994    1    1    2    0    0 -0.34656560254E+02 -0.17635343237E+02  0.66695742742E+01  0.17568723835E+03  0.17120000000E+03 0.  0.
        998    1    1    2    0    0  0.11375536467E+02  0.10295490492E+02  0.13495912661E+04  0.13497155202E+04  0.10000000000E+02 0.  1.
</event>
<event>
 5    1  0.1147307E-008  0.3820019E+03  0.7957747E-01  0.3442488E+00
         13   -1    0    0    0    0  0.00000000000E+00  0.00000000000E+00  0.14999999963E+04  0.15000000000E+04  0.10566000000E+00 0.  1.
        994   -1    0    0    0    0 -0.00000000000E+00 -0.00000000000E+00  0.11368683772E-12  0.17120000000E+03  0.17120000000E+03 0.  0.
         13    1    1    2    0    0 -0.10054176057E+02 -0.91979888552E+01  0.29083561276E+02  0.32117816795E+02  0.10566000000E+00 0.  1.
        994    1    1    2    0    0 -0.65265558166E+01  0.12591545845E+02  0.37942881955E+01  0.17182834336E+03  0.17120000000E+03 0.  0.
        998    1    1    2    0    0  0.16580731873E+02 -0.33935569902E+01  0.14671221468E+04  0.14672538398E+04  0.10000000000E+02 0.  1.
</event>
<event>
 5    1  0.1147307E-008  0.3812294E+03  0.7957747E-01  0.3445823E+00
         13   -1    0    0    0    0  0.00000000000E+00  0.00000000000E+00  0.14999999963E+04  0.15000000000E+04  0.10566000000E+00 0. -1.
        994   -1    0    0    0    0 -0.00000000000E+00 -0.00000000000E+00  0.11368683772E-12  0.17120000000E+03  0.17120000000E+03 0.  0.
         13    1    1    2    0    0 -0.88290315909E+01 -0.48146135764E+01  0.12920943047E+02  0.16373583480E+02  0.10566000000E+00 0. -1.
        994    1    1    2    0    0  0.56830532055E+01  0.26625726664E+01  0.36450026711E+01  0.17135376398E+03  0.17120000000E+03 0.  0.
        998    1    1    2    0    0  0.31459783854E+01  0.21520409100E+01  0.14834340506E+04  0.14834726525E+04  0.10000000000E+02 0. -1.
</event>
<event>
 5    1  0.1147307E-008  0.3847709E+03  0.7957747E-01  0.3430644E+00
         13   -1    0    0    0    0  0.00000000000E+00  0.00000000000E+00  0.14999999963E+04  0.15000000000E+04  0.10566000000E+00 0.  1.
        994   -1    0    0    0    0 -0.00000000000E+00 -0.00000000000E+00  0.11368683772E-12  0.17120000000E+03  0.17120000000E+03 0.  0.
         13    1    1    2    0    0 -0.12967894289E+02 -0.96869940845E+01  0.84523874008E+02  0.86059866245E+02  0.10566000000E+00 0.  1.
        994    1    1    2    0    0  0.46518486408E+00 -0.10704167383E+02  0.21218045199E+01  0.17154806222E+03  0.17120000000E+03 0.  0.
        998    1    1    2    0    0  0.12502709425E+02  0.20391161467E+02  0.14133543178E+04  0.14135920715E+04  0.10000000000E+02 0.  1.
</event>
<event>
 5    1  0.1254466E-008  0.3858913E+03  0.7957747E-01  0.3425901E+00
         13   -1    0    0    0    0  0.00000000000E+00  0.00000000000E+00  0.14999999963E+04  0.15000000000E+04  0.10566000000E+00 0.  1.
        994   -1    0    0    0    0 -0.00000000000E+00 -0.00000000000E+00  0.11368683772E-12  0.17120000000E+03  0.17120000000E+03 0.  0.
         13    1    1    2    0    0 -0.35486199613E+01  0.10832775606E+02  0.66906959231E+02  0.67871158002E+02  0.10566000000E+00 0.  1.
        994    1    1    2    0    0 -0.17477537651E+02  0.11924139806E+02  0.26575583711E+01  0.17252290297E+03  0.17120000000E+03 0.  0.
        998    1    1    2    0    0  0.21026157612E+02 -0.22756915412E+02  0.14304354787E+04  0.14308059390E+04  0.10000000000E+02 0.  1.
</event>
<event>
 5    1  0.1147307E-008  0.3739627E+03  0.7957747E-01  0.3477875E+00
         13   -1    0    0    0    0  0.00000000000E+00  0.00000000000E+00  0.14999999963E+04  0.15000000000E+04  0.10566000000E+00 0.  1.
        994   -1    0    0    0    0 -0.00000000000E+00 -0.00000000000E+00  0.11368683772E-12  0.17120000000E+03  0.17120000000E+03 0.  0.
         13    1    1    2    0    0 -0.39847793745E+02  0.45107606185E+02  0.21216724932E+03  0.22053910231E+03  0.10566000000E+00 0.  1.
        994    1    1    2    0    0  0.33221215581E+02 -0.53420018108E+02  0.20833774546E+02  0.18357786811E+03  0.17120000000E+03 0.  0.
        998    1    1    2    0    0  0.66265781649E+01  0.83124119232E+01  0.12669989724E+04  0.12670830296E+04  0.10000000000E+02 0.  1.
</event>
<event>
 5    1  0.1147307E-008  0.3852141E+03  0.7957747E-01  0.3428764E+00
         13   -1    0    0    0    0  0.00000000000E+00  0.00000000000E+00  0.14999999963E+04  0.15000000000E+04  0.10566000000E+00 0.  1.
        994   -1    0    0    0    0 -0.00000000000E+00 -0.00000000000E+00  0.11368683772E-12  0.17120000000E+03  0.17120000000E+03 0.  0.
         13    1    1    2    0    0 -0.14509731514E+02  0.13456528497E+01  0.64808066967E+02  0.66426198132E+02  0.10566000000E+00 0.  1.
        994    1    1    2    0    0  0.27433222832E+02  0.41051301066E+02  0.95767308611E+01  0.17843470741E+03  0.17120000000E+03 0.  0.
        998    1    1    2    0    0 -0.12923491318E+02 -0.42396953916E+02  0.14256151985E+04  0.14263390945E+04  0.10000000000E+02 0.  1.
</event>
<event>
 5    1  0.1147307E-008  0.3758759E+03  0.7957747E-01  0.3469315E+00
         13   -1    0    0    0    0  0.00000000000E+00  0.00000000000E+00  0.14999999963E+04  0.15000000000E+04  0.10566000000E+00 0.  1.
        994   -1    0    0    0    0 -0.00000000000E+00 -0.00000000000E+00  0.11368683772E-12  0.17120000000E+03  0.17120000000E+03 0.  0.
         13    1    1    2    0    0  0.27991453266E+02 -0.18474507274E+02  0.85479861218E+02  0.91823998567E+02  0.10566000000E+00 0.  1.
        994    1    1    2    0    0 -0.25004526540E+02  0.13076066921E+02  0.89328365420E+01  0.17373959089E+03  0.17120000000E+03 0.  0.
        998    1    1    2    0    0 -0.29869267268E+01  0.53984403526E+01  0.14055872985E+04  0.14056364105E+04  0.10000000000E+02 0.  1.
</event>
<event>
 5    1  0.1147307E-008  0.3710592E+03  0.7957747E-01  0.3491037E+00
         13   -1    0    0    0    0  0.00000000000E+00  0.00000000000E+00  0.14999999963E+04  0.15000000000E+04  0.10566000000E+00 0.  1.
        994   -1    0    0    0    0 -0.00000000000E+00 -0.00000000000E+00  0.11368683772E-12  0.17120000000E+03  0.17120000000E+03 0.  0.
         13    1    1    2    0    0 -0.27378246039E+01 -0.66222603199E+02  0.21097420807E+03  0.22114035473E+03  0.10566000000E+00 0.  1.
        994    1    1    2    0    0 -0.10619035866E+02  0.69943828935E+02  0.26161410074E+02  0.18707956197E+03  0.17120000000E+03 0.  0.
        998    1    1    2    0    0  0.13356860470E+02 -0.37212257368E+01  0.12628643781E+04  0.12629800833E+04  0.10000000000E+02 0.  1.
</event>
<event>
 5    1  0.1147307E-008  0.3838335E+03  0.7957747E-01  0.3434635E+00
         13   -1    0    0    0    0  0.00000000000E+00  0.00000000000E+00  0.14999999963E+04  0.15000000000E+04  0.10566000000E+00 0.  1.
        994   -1    0    0    0    0 -0.00000000000E+00 -0.00000000000E+00  0.11368683772E-12  0.17120000000E+03  0.17120000000E+03 0.  0.
         13    1    1    2    0    0 -0.23295773077E+02  0.36920998428E+01  0.10270089253E+03  0.10537461334E+03  0.10566000000E+00 0.  1.
        994    1    1    2    0    0  0.50592330160E+02  0.26186521476E+02  0.12998233324E+02  0.18089696473E+03  0.17120000000E+03 0.  0.
        998    1    1    2    0    0 -0.27296557083E+02 -0.29878621319E+02  0.13843008704E+04  0.13849284219E+04  0.10000000000E+02 0.  1.
</event>
<event>
 5    1  0.1147307E-008  0.3751775E+03  0.7957747E-01  0.3472430E+00
         13   -1    0    0    0    0  0.00000000000E+00  0.00000000000E+00  0.14999999963E+04  0.15000000000E+04  0.10566000000E+00 0. -1.
        994   -1    0    0    0    0 -0.00000000000E+00 -0.00000000000E+00  0.11368683772E-12  0.17120000000E+03  0.17120000000E+03 0.  0.
         13    1    1    2    0    0  0.74043080925E+00 -0.14131840394E+02  0.12646138356E+02  0.18978754703E+02  0.10566000000E+00 0. -1.
        994    1    1    2    0    0 -0.18327960705E+02 -0.41572285718E+01  0.77884073104E+01  0.17240445464E+03  0.17120000000E+03 0.  0.
        998    1    1    2    0    0  0.17587529896E+02  0.18289068966E+02  0.14795654506E+04  0.14798167907E+04  0.10000000000E+02 0. -1.
</event>
<event>
 5    1  0.1147307E-008  0.3817429E+03  0.7957747E-01  0.3443605E+00
         13   -1    0    0    0    0  0.00000000000E+00  0.00000000000E+00  0.14999999963E+04  0.15000000000E+04  0.10566000000E+00 0.  1.
        994   -1    0    0    0    0 -0.00000000000E+00 -0.00000000000E+00  0.11368683772E-12  0.17120000000E+03  0.17120000000E+03 0.  0.
         13    1    1    2    0    0 -0.22290008673E+02 -0.17534408466E+02  0.13027828497E+03  0.13332945161E+03  0.10566000000E+00 0.  1.
        994    1    1    2    0    0  0.97019162825E+01  0.95192251370E-01  0.35688948917E+01  0.17151184581E+03  0.17120000000E+03 0.  0.
        998    1    1    2    0    0  0.12588092391E+02  0.17439216215E+02  0.13661528164E+04  0.13663587026E+04  0.10000000000E+02 0.  1.
</event>
<event>
 5    1  0.1147307E-008  0.3778190E+03  0.7957747E-01  0.3460710E+00
         13   -1    0    0    0    0  0.00000000000E+00  0.00000000000E+00  0.14999999963E+04  0.15000000000E+04  0.10566000000E+00 0. -1.
        994   -1    0    0    0    0 -0.00000000000E+00 -0.00000000000E+00  0.11368683772E-12  0.17120000000E+03  0.17120000000E+03 0.  0.
         13    1    1    2    0    0 -0.26563757315E+02 -0.26333885949E+02  0.14792558151E+03  0.15258143918E+03  0.10566000000E+00 0. -1.
        994    1    1    2    0    0  0.66886970798E+01 -0.38888945931E+01  0.54397525823E+01  0.17146105411E+03  0.17120000000E+03 0.  0.
        998    1    1    2    0    0  0.19875060236E+02  0.30222780542E+02  0.13466346622E+04  0.13471575067E+04  0.10000000000E+02 0. -1.
</event>
<event>
 5    1  0.1147307E-008  0.3798480E+03  0.7957747E-01  0.3451821E+00
         13   -1    0    0    0    0  0.00000000000E+00  0.00000000000E+00  0.14999999963E+04  0.15000000000E+04  0.10566000000E+00 0. -1.
        994   -1    0    0    0    0 -0.00000000000E+00 -0.00000000000E+00  0.11368683772E-12  0.17120000000E+03  0.17120000000E+03 0.  0.
         13    1    1    2    0    0 -0.21684573525E+02  0.56586990996E+02  0.92653357527E+02  0.11071117425E+03  0.10566000000E+00 0. -1.
        994    1    1    2    0    0  0.43961162673E+02 -0.76503628049E+02  0.45012317971E+02  0.19779013549E+03  0.17120000000E+03 0.  0.
        998    1    1    2    0    0 -0.22276589148E+02  0.19916637053E+02  0.13623343208E+04  0.13626986903E+04  0.10000000000E+02 0. -1.
</event>
<event>
 5    1  0.1147307E-008  0.3733439E+03  0.7957747E-01  0.3480663E+00
         13   -1    0    0    0    0  0.00000000000E+00  0.00000000000E+00  0.14999999963E+04  0.15000000000E+04  0.10566000000E+00 0.  1.
        994   -1    0    0    0    0 -0.00000000000E+00 -0.00000000000E+00  0.11368683772E-12  0.17120000000E+03  0.17120000000E+03 0.  0.
         13    1    1    2    0    0  0.28413255346E+02  0.68154132266E+02  0.30875814230E+03  0.31746480187E+03  0.10566000000E+00 0.  1.
        994    1    1    2    0    0  0.41331554775E+01 -0.72017737822E+02  0.25533637519E+02  0.18752344968E+03  0.17120000000E+03 0.  0.
        998    1    1    2    0    0 -0.32546410824E+02  0.38636055556E+01  0.11657082165E+04  0.11662117485E+04  0.10000000000E+02 0.  1.
</event>
<event>
 5    1  0.1147307E-008  0.3833892E+03  0.7957747E-01  0.3436532E+00
         13   -1    0    0    0    0  0.00000000000E+00  0.00000000000E+00  0.14999999963E+04  0.15000000000E+04  0.10566000000E+00 0.  1.
        994   -1    0    0    0    0 -0.00000000000E+00 -0.00000000000E+00  0.11368683772E-12  0.17120000000E+03  0.17120000000E+03 0.  0.
         13    1    1    2    0    0 -0.12584349803E+02  0.10782165236E+02  0.55332188434E+02  0.57760567761E+02  0.10566000000E+00 0.  1.
        994    1    1    2    0    0  0.11156785356E+02 -0.63571701346E+01  0.29772561653E+01  0.17170670204E+03  0.17120000000E+03 0.  0.
        998    1    1    2    0    0  0.14275644471E+01 -0.44249951010E+01  0.14416905517E+04  0.14417327302E+04  0.10000000000E+02 0.  1.
</event>
<event>
 5    1  0.1147307E-008  0.3818370E+03  0.7957747E-01  0.3443198E+00
         13   -1    0    0    0    0  0.00000000000E+00  0.00000000000E+00  0.14999999963E+04  0.15000000000E+04  0.10566000000E+00 0. -1.
        994   -1    0    0    0    0 -0.00000000000E+00 -0.00000000000E+00  0.11368683772E-12  0.17120000000E+03  0.17120000000E+03 0.  0.
         13    1    1    2    0    0 -0.39477246590E+02 -0.11046345337E+02  0.20633982155E+03  0.21037254542E+03  0.10566000000E+00 0. -1.
        994    1    1    2    0    0  0.49835846931E+02  0.16915868127E+02  0.12467105850E+02  0.17954004278E+03  0.17120000000E+03 0.  0.
        998    1    1    2    0    0 -0.10358600342E+02 -0.58695227904E+01  0.12811930689E+04  0.12812874118E+04  0.10000000000E+02 0. -1.
</event>
<event>
 5    1  0.1147307E-008  0.3755386E+03  0.7957747E-01  0.3470818E+00
         13   -1    0    0    0    0  0.00000000000E+00  0.00000000000E+00  0.14999999963E+04  0.15000000000E+04  0.10566000000E+00 0.  1.
        994   -1    0    0    0    0 -0.00000000000E+00 -0.00000000000E+00  0.11368683772E-12  0.17120000000E+03  0.17120000000E+03 0.  0.
         13    1    1    2    0    0  0.84147421028E+01 -0.55222931126E+02  0.23344815325E+03  0.24003839574E+03  0.10566000000E+00 0.  1.
        994    1    1    2    0    0 -0.49189111173E+01  0.36967130043E+02  0.11135912732E+02  0.17556825722E+03  0.17120000000E+03 0.  0.
        998    1    1    2    0    0 -0.34958309855E+01  0.18255801083E+02  0.12554159303E+04  0.12555933470E+04  0.10000000000E+02 0.  1.
</event>
<event>
 5    1  0.1147307E-008  0.3687258E+03  0.7957747E-01  0.3501767E+00
         13   -1    0    0    0    0  0.00000000000E+00  0.00000000000E+00  0.14999999963E+04  0.15000000000E+04  0.10566000000E+00 0. -1.
        994   -1    0    0    0    0 -0.00000000000E+00 -0.00000000000E+00  0.11368683772E-12  0.17120000000E+03  0.17120000000E+03 0.  0.
         13    1    1    2    0    0  0.15148120934E+03  0.96116422616E+02  0.74302965620E+03  0.76438079819E+03  0.10566000000E+00 0. -1.
        994    1    1    2    0    0 -0.14692925564E+03 -0.94876158891E+02  0.12511820402E+03  0.27487032700E+03  0.17120000000E+03 0.  0.
        998    1    1    2    0    0 -0.45519537012E+01 -0.12402637250E+01  0.63185213606E+03  0.63194887481E+03  0.10000000000E+02 0.  0.
</event>
<event>
 5    1  0.1147307E-008  0.3814788E+03  0.7957747E-01  0.3444745E+00
         13   -1    0    0    0    0  0.00000000000E+00  0.00000000000E+00  0.14999999963E+04  0.15000000000E+04  0.10566000000E+00 0. -1.
        994   -1    0    0    0    0 -0.00000000000E+00 -0.00000000000E+00  0.11368683772E-12  0.17120000000E+03  0.17120000000E+03 0.  0.
         13    1    1    2    0    0 -0.79180184585E+01  0.18127798415E+02  0.54831808094E+02  0.58291083662E+02  0.10566000000E+00 0. -1.
        994    1    1    2    0    0  0.73670677102E+01 -0.18814643251E+02  0.47478599080E+01  0.17245360727E+03  0.17120000000E+03 0.  0.
        998    1    1    2    0    0  0.55095074831E+00  0.68684483650E+00  0.14404203283E+04  0.14404553091E+04  0.10000000000E+02 0.  0.
</event>
<event>
 5    1  0.1147307E-008  0.3806423E+03  0.7957747E-01  0.3448367E+00
         13   -1    0    0    0    0  0.00000000000E+00  0.00000000000E+00  0.14999999963E+04  0.15000000000E+04  0.10566000000E+00 0.  1.
        994   -1    0    0    0    0 -0.00000000000E+00 -0.00000000000E+00  0.11368683772E-12  0.17120000000E+03  0.17120000000E+03 0.  0.
         13    1    1    2    0    0 -0.53417366432E+02 -0.11186519880E+02  0.30567151217E+03  0.31050545531E+03  0.10566000000E+00 0.  1.
        994    1    1    2    0    0  0.57176188497E+02  0.47527013394E+01  0.14868931455E+02  0.18116906420E+03  0.17120000000E+03 0.  0.
        998    1    1    2    0    0 -0.37588220655E+01  0.64338185406E+01  0.11794595527E+04  0.11795254805E+04  0.10000000000E+02 0.  1.
</event>
<event>
 5    1  0.1147307E-008  0.3792591E+03  0.7957747E-01  0.3454391E+00
         13   -1    0    0    0    0  0.00000000000E+00  0.00000000000E+00  0.14999999963E+04  0.15000000000E+04  0.10566000000E+00 0.  1.
        994   -1    0    0    0    0 -0.00000000000E+00 -0.00000000000E+00  0.11368683772E-12  0.17120000000E+03  0.17120000000E+03 0.  0.
         13    1    1    2    0    0 -0.30417497391E+02 -0.13216776832E+03  0.65906110570E+03  0.67287078651E+03  0.10566000000E+00 0.  1.
        994    1    1    2    0    0  0.62406749913E+02  0.15752186340E+03  0.10763624079E+03  0.26382331249E+03  0.17120000000E+03 0.  0.
        998    1    1    2    0    0 -0.31989252521E+02 -0.25354095072E+02  0.73330264978E+03  0.73450590099E+03  0.10000000000E+02 0.  1.
</event>
<event>
 5    1  0.1147307E-008  0.3795446E+03  0.7957747E-01  0.3453144E+00
         13   -1    0    0    0    0  0.00000000000E+00  0.00000000000E+00  0.14999999963E+04  0.15000000000E+04  0.10566000000E+00 0.  1.
        994   -1    0    0    0    0 -0.00000000000E+00 -0.00000000000E+00  0.11368683772E-12  0.17120000000E+03  0.17120000000E+03 0.  0.
         13    1    1    2    0    0  0.35312457332E+02  0.21196445833E+02  0.23481648260E+03  0.23840102899E+03  0.10566000000E+00 0.  1.
        994    1    1    2    0    0 -0.47841309056E+01  0.83168141282E+01  0.46714432971E+01  0.17153227011E+03  0.17120000000E+03 0.  0.
        998    1    1    2    0    0 -0.30528326426E+02 -0.29513259961E+02  0.12605120704E+04  0.12612667009E+04  0.10000000000E+02 0.  1.
</event>
<event>
 5    1  0.1147307E-008  0.3795853E+03  0.7957747E-01  0.3452966E+00
         13   -1    0    0    0    0  0.00000000000E+00  0.00000000000E+00  0.14999999963E+04  0.15000000000E+04  0.10566000000E+00 0.  1.
        994   -1    0    0    0    0 -0.00000000000E+00 -0.00000000000E+00  0.11368683772E-12  0.17120000000E+03  0.17120000000E+03 0.  0.
         13    1    1    2    0    0  0.21234314633E+02 -0.52704397860E+01  0.52520424128E+02  0.56895340478E+02  0.10566000000E+00 0.  1.
        994    1    1    2    0    0 -0.18996398147E+02  0.26251700632E+01  0.55746262757E+01  0.17236087467E+03  0.17120000000E+03 0.  0.
        998    1    1    2    0    0 -0.22379164862E+01  0.26452697228E+01  0.14419049459E+04  0.14419437848E+04  0.10000000000E+02 0.  1.
</event>
<event>
 5    1  0.1147307E-008  0.3837948E+03  0.7957747E-01  0.3434800E+00
         13   -1    0    0    0    0  0.00000000000E+00  0.00000000000E+00  0.14999999963E+04  0.15000000000E+04  0.10566000000E+00 0. -1.
        994   -1    0    0    0    0 -0.00000000000E+00 -0.00000000000E+00  0.11368683772E-12  0.17120000000E+03  0.17120000000E+03 0.  0.
         13    1    1    2    0    0 -0.14963434196E+02  0.59158561236E+01  0.55159492855E+02  0.57458528807E+02  0.10566000000E+00 0. -1.
        994    1    1    2    0    0  0.17750896536E+02 -0.66071307021E+01  0.34149909483E+01  0.17227841033E+03  0.17120000000E+03 0.  0.
        998    1    1    2    0    0 -0.27874623404E+01  0.69127457845E+00  0.14414255125E+04  0.14414630609E+04  0.10000000000E+02 0. -1.
</event>
<event>
 5    1  0.1147307E-008  0.3803068E+03  0.7957747E-01  0.3449824E+00
         13   -1    0    0    0    0  0.00000000000E+00  0.00000000000E+00  0.14999999963E+04  0.15000000000E+04  0.10566000000E+00 0.  1.
        994   -1    0    0    0    0 -0.00000000000E+00 -0.00000000000E+00  0.11368683772E-12  0.17120000000E+03  0.17120000000E+03 0.  0.
         13    1    1    2    0    0 -0.68841135947E+01 -0.22065798063E+02  0.65242991982E+02  0.69216686073E+02  0.10566000000E+00 0.  1.
        994    1    1    2    0    0 -0.15584343953E+01  0.17702520442E+02  0.50337007629E+01  0.17219345542E+03  0.17120000000E+03 0.  0.
        998    1    1    2    0    0  0.84425479900E+01  0.43632776212E+01  0.14297233035E+04  0.14297898585E+04  0.10000000000E+02 0.  1.
</event>
<event>
 5    1  0.1147307E-008  0.3837686E+03  0.7957747E-01  0.3434911E+00
         13   -1    0    0    0    0  0.00000000000E+00  0.00000000000E+00  0.14999999963E+04  0.15000000000E+04  0.10566000000E+00 0. -1.
        994   -1    0    0    0    0 -0.00000000000E+00 -0.00000000000E+00  0.11368683772E-12  0.17120000000E+03  0.17120000000E+03 0.  0.
         13    1    1    2    0    0 -0.19587196233E+02  0.10536447561E+02  0.11574612658E+03  0.11786370080E+03  0.10566000000E+00 0. -1.
        994    1    1    2    0    0  0.20418540421E+01 -0.10276695857E+02  0.26052820691E+01  0.17154010359E+03  0.17120000000E+03 0.  0.
        998    1    1    2    0    0  0.17545342191E+02 -0.25975170393E+00  0.13816485876E+04  0.13817961956E+04  0.10000000000E+02 0. -1.
</event>
<event>
 5    1  0.1147307E-008  0.3797146E+03  0.7957747E-01  0.3452402E+00
         13   -1    0    0    0    0  0.00000000000E+00  0.00000000000E+00  0.14999999963E+04  0.15000000000E+04  0.10566000000E+00 0.  1.
        994   -1    0    0    0    0 -0.00000000000E+00 -0.00000000000E+00  0.11368683772E-12  0.17120000000E+03  0.17120000000E+03 0.  0.
         13    1    1    2    0    0 -0.10019300195E+03  0.75408969245E+01  0.59013629701E+03  0.59862873551E+03  0.10566000000E+00 0.  1.
        994    1    1    2    0    0 -0.62421361570E+01  0.33821123898E+02  0.20463977568E+02  0.17581537778E+03  0.17120000000E+03 0.  0.
        998    1    1    2    0    0  0.10643513811E+03 -0.41362020823E+02  0.88939972170E+03  0.89675588671E+03  0.10000000000E+02 0.  1.
</event>
<event>
 5    1  0.1147307E-008  0.3813683E+03  0.7957747E-01  0.3445222E+00
         13   -1    0    0    0    0  0.00000000000E+00  0.00000000000E+00  0.14999999963E+04  0.15000000000E+04  0.10566000000E+00 0. -1.
        994   -1    0    0    0    0 -0.00000000000E+00 -0.00000000000E+00  0.11368683772E-12  0.17120000000E+03  0.17120000000E+03 0.  0.
         13    1    1    2    0    0 -0.97686945719E+01 -0.53145977085E+01  0.16730351024E+02  0.20089503524E+02  0.10566000000E+00 0. -1.
        994    1    1    2    0    0 -0.31407071720E+00  0.75808864444E+01  0.36356398560E+01  0.17140661118E+03  0.17120000000E+03 0.  0.
        998    1    1    2    0    0  0.10082765289E+02 -0.22662887359E+01  0.14796340054E+04  0.14797038853E+04  0.10000000000E+02 0. -1.
</event>
<event>
 5    1  0.1147307E-008  0.3843860E+03  0.7957747E-01  0.3432280E+00
         13   -1    0    0    0    0  0.00000000000E+00  0.00000000000E+00  0.14999999963E+04  0.15000000000E+04  0.10566000000E+00 0.  1.
        994   -1    0    0    0    0 -0.00000000000E+00 -0.00000000000E+00  0.11368683772E-12  0.17120000000E+03  0.17120000000E+03 0.  0.
         13    1    1    2    0    0  0.23140078853E+01 -0.13865515558E+02  0.84088467850E+02  0.85255432341E+02  0.10566000000E+00 0.  1.
        994    1    1    2    0    0  0.45198041006E+02 -0.50617930084E+02  0.17260153532E+02  0.18496591755E+03  0.17120000000E+03 0.  0.
        998    1    1    2    0    0 -0.47512048891E+02  0.64483445642E+02  0.13986513749E+04  0.14009786501E+04  0.10000000000E+02 0.  1.
</event>
<event>
 5    1  0.1147307E-008  0.3825069E+03  0.7957747E-01  0.3440315E+00
         13   -1    0    0    0    0  0.00000000000E+00  0.00000000000E+00  0.14999999963E+04  0.15000000000E+04  0.10566000000E+00 0. -1.
        994   -1    0    0    0    0 -0.00000000000E+00 -0.00000000000E+00  0.11368683772E-12  0.17120000000E+03  0.17120000000E+03 0.  0.
         13    1    1    2    0    0 -0.50070465361E+00 -0.10557794991E+02  0.17998488654E+02  0.20872817205E+02  0.10566000000E+00 0. -1.
        994    1    1    2    0    0 -0.49620504464E+01  0.13774448591E+02  0.35840135667E+01  0.17186227780E+03  0.17120000000E+03 0.  0.
        998    1    1    2    0    0  0.54627551000E+01 -0.32166535996E+01  0.14784174941E+04  0.14784649050E+04  0.10000000000E+02 0. -1.
</event>
<event>
 5    1  0.1147307E-008  0.3853546E+03  0.7957747E-01  0.3428170E+00
         13   -1    0    0    0    0  0.00000000000E+00  0.00000000000E+00  0.14999999963E+04  0.15000000000E+04  0.10566000000E+00 0.  1.
        994   -1    0    0    0    0 -0.00000000000E+00 -0.00000000000E+00  0.11368683772E-12  0.17120000000E+03  0.17120000000E+03 0.  0.
         13    1    1    2    0    0  0.12888154597E+02  0.97719726937E+01  0.94334664187E+02  0.95711211519E+02  0.10566000000E+00 0.  1.
        994    1    1    2    0    0 -0.13138446077E+00 -0.82533640972E+01  0.16780207919E+01  0.17140709155E+03  0.17120000000E+03 0.  0.
        998    1    1    2    0    0 -0.12756770136E+02 -0.15186085965E+01  0.14039873113E+04  0.14040816969E+04  0.10000000000E+02 0.  1.
</event>
<event>
 5    1  0.1147307E-008  0.3858100E+03  0.7957747E-01  0.3426244E+00
         13   -1    0    0    0    0  0.00000000000E+00  0.00000000000E+00  0.14999999963E+04  0.15000000000E+04  0.10566000000E+00 0.  1.
        994   -1    0    0    0    0 -0.00000000000E+00 -0.00000000000E+00  0.11368683772E-12  0.17120000000E+03  0.17120000000E+03 0.  0.
         13    1    1    2    0    0 -0.36172914737E+01 -0.11747655695E+02  0.59751063047E+02  0.61002400864E+02  0.10566000000E+00 0.  1.
        994    1    1    2    0    0  0.24214122137E+01  0.13538774437E+02  0.18492313023E+01  0.17176152452E+03  0.17120000000E+03 0.  0.
        998    1    1    2    0    0  0.11958792600E+01 -0.17911187420E+01  0.14383997019E+04  0.14384360746E+04  0.10000000000E+02 0.  1.
</event>
<event>
 5    1  0.1147307E-008  0.3806180E+03  0.7957747E-01  0.3448472E+00
         13   -1    0    0    0    0  0.00000000000E+00  0.00000000000E+00  0.14999999963E+04  0.15000000000E+04  0.10566000000E+00 0.  1.
        994   -1    0    0    0    0 -0.00000000000E+00 -0.00000000000E+00  0.11368683772E-12  0.17120000000E+03  0.17120000000E+03 0.  0.
         13    1    1    2    0    0  0.10170885690E+02 -0.24660337045E+00  0.12312833773E+02  0.15972625598E+02  0.10566000000E+00 0.  1.
        994    1    1    2    0    0  0.76159079276E+01  0.71783774057E+01  0.41869994683E+01  0.17157069132E+03  0.17120000000E+03 0.  0.
        998    1    1    2    0    0 -0.17786793618E+02 -0.69317740352E+01  0.14835001630E+04  0.14836566831E+04  0.10000000000E+02 0.  1.
</event>
<event>
 5    1  0.1147307E-008  0.3846708E+03  0.7957747E-01  0.3431069E+00
         13   -1    0    0    0    0  0.00000000000E+00  0.00000000000E+00  0.14999999963E+04  0.15000000000E+04  0.10566000000E+00 0. -1.
        994   -1    0    0    0    0 -0.00000000000E+00 -0.00000000000E+00  0.11368683772E-12  0.17120000000E+03  0.17120000000E+03 0.  0.
         13    1    1    2    0    0 -0.63164201298E+01  0.14219174226E+02  0.65629298210E+02  0.67448484242E+02  0.10566000000E+00 0. -1.
        994    1    1    2    0    0  0.34297802684E+01 -0.14277577681E+02  0.25038092912E+01  0.17184679711E+03  0.17120000000E+03 0.  0.
        998    1    1    2    0    0  0.28866398614E+01  0.58403455394E-01  0.14318668888E+04  0.14319047186E+04  0.10000000000E+02 0. -1.
</event>
<event>
 5    1  0.1147307E-008  0.3844056E+03  0.7957747E-01  0.3432197E+00
         13   -1    0    0    0    0  0.00000000000E+00  0.00000000000E+00  0.14999999963E+04  0.15000000000E+04  0.10566000000E+00 0.  1.
        994   -1    0    0    0    0 -0.00000000000E+00 -0.00000000000E+00  0.11368683772E-12  0.17120000000E+03  0.17120000000E+03 0.  0.
         13    1    1    2    0    0  0.84484054582E+01  0.15569865710E+02  0.82722018065E+02  0.84597515979E+02  0.10566000000E+00 0.  1.
        994    1    1    2    0    0 -0.50848528208E+01 -0.70751623652E+01  0.21756931494E+01  0.17143537351E+03  0.17120000000E+03 0.  0.
        998    1    1    2    0    0 -0.33635526374E+01 -0.84947033445E+01  0.14151022851E+04  0.14151671105E+04  0.10000000000E+02 0.  1.
</event>
<event>
 5    1  0.1147307E-008  0.3737738E+03  0.7957747E-01  0.3478725E+00
         13   -1    0    0    0    0  0.00000000000E+00  0.00000000000E+00  0.14999999963E+04  0.15000000000E+04  0.10566000000E+00 0.  1.
        994   -1    0    0    0    0 -0.00000000000E+00 -0.00000000000E+00  0.11368683772E-12  0.17120000000E+03  0.17120000000E+03 0.  0.
         13    1    1    2    0    0  0.78100479019E+02 -0.14602630558E+02  0.37511246924E+03  0.38343486720E+03  0.10566000000E+00 0.  1.
        994    1    1    2    0    0 -0.63891372726E+02 -0.28671775430E+01  0.21402417049E+02  0.18400497730E+03  0.17120000000E+03 0.  0.
        998    1    1    2    0    0 -0.14209106293E+02  0.17469808101E+02  0.11034851100E+04  0.11037601555E+04  0.10000000000E+02 0.  1.
</event>
<event>
 5    1  0.1147307E-008  0.3847491E+03  0.7957747E-01  0.3430737E+00
         13   -1    0    0    0    0  0.00000000000E+00  0.00000000000E+00  0.14999999963E+04  0.15000000000E+04  0.10566000000E+00 0.  1.
        994   -1    0    0    0    0 -0.00000000000E+00 -0.00000000000E+00  0.11368683772E-12  0.17120000000E+03  0.17120000000E+03 0.  0.
         13    1    1    2    0    0 -0.10922948459E+02  0.95959916901E+01  0.66163023555E+02  0.67741794407E+02  0.10566000000E+00 0.  1.
        994    1    1    2    0    0 -0.65169527735E+01  0.11974157120E+01  0.18992584338E+01  0.17133870450E+03  0.17120000000E+03 0.  0.
        998    1    1    2    0    0  0.17439901232E+02 -0.10793407402E+02  0.14319377143E+04  0.14321195011E+04  0.10000000000E+02 0.  1.
</event>
<event>
 5    1  0.1147307E-008  0.3787317E+03  0.7957747E-01  0.3456699E+00
         13   -1    0    0    0    0  0.00000000000E+00  0.00000000000E+00  0.14999999963E+04  0.15000000000E+04  0.10566000000E+00 0. -1.
        994   -1    0    0    0    0 -0.00000000000E+00 -0.00000000000E+00  0.11368683772E-12  0.17120000000E+03  0.17120000000E+03 0.  0.
         13    1    1    2    0    0 -0.30562569117E+02 -0.79321348313E+01  0.11833342311E+03  0.12247366894E+03  0.10566000000E+00 0. -1.
        994    1    1    2    0    0 -0.75362053711E+01 -0.21342024768E+00  0.49655558078E+01  0.17143785079E+03  0.17120000000E+03 0.  0.
        998    1    1    2    0    0  0.38098774488E+02  0.81455550789E+01  0.13767010174E+04  0.13772884803E+04  0.10000000000E+02 0. -1.
</event>
<event>
 5    1  0.1147307E-008  0.3850507E+03  0.7957747E-01  0.3429457E+00
         13   -1    0    0    0    0  0.00000000000E+00  0.00000000000E+00  0.14999999963E+04  0.15000000000E+04  0.10566000000E+00 0.  1.
        994   -1    0    0    0    0 -0.00000000000E+00 -0.00000000000E+00  0.11368683772E-12  0.17120000000E+03  0.17120000000E+03 0.  0.
         13    1    1    2    0    0  0.10939667182E+02 -0.27736139386E+01  0.39338682455E+02  0.40925693075E+02  0.10566000000E+00 0.  1.
        994    1    1    2    0    0 -0.79095742873E+01  0.45494253066E+01  0.18787931009E+01  0.17145328372E+03  0.17120000000E+03 0.  0.
        998    1    1    2    0    0 -0.30300928947E+01 -0.17758113680E+01  0.14587825207E+04  0.14588210232E+04  0.10000000000E+02 0.  1.
</event>
<event>
 5    1  0.1147307E-008  0.3834620E+03  0.7957747E-01  0.3436221E+00
         13   -1    0    0    0    0  0.00000000000E+00  0.00000000000E+00  0.14999999963E+04  0.15000000000E+04  0.10566000000E+00 0. -1.
        994   -1    0    0    0    0 -0.00000000000E+00 -0.00000000000E+00  0.11368683772E-12  0.17120000000E+03  0.17120000000E+03 0.  0.
         13    1    1    2    0    0 -0.48720518894E+01 -0.15953363938E+02  0.55201838147E+02  0.57667155378E+02  0.10566000000E+00 0. -1.
        994    1    1    2    0    0 -0.80712614318E+01  0.22542588346E+02  0.42928214615E+01  0.17291958208E+03  0.17120000000E+03 0.  0.
        998    1    1    2    0    0  0.12943313321E+02 -0.65892244073E+01  0.14405053367E+04  0.14406132625E+04  0.10000000000E+02 0. -1.
</event>
<event>
 5    1  0.1147307E-008  0.3745421E+03  0.7957747E-01  0.3475273E+00
         13   -1    0    0    0    0  0.00000000000E+00  0.00000000000E+00  0.14999999963E+04  0.15000000000E+04  0.10566000000E+00 0. -1.
        994   -1    0    0    0    0 -0.00000000000E+00 -0.00000000000E+00  0.11368683772E-12  0.17120000000E+03  0.17120000000E+03 0.  0.
         13    1    1    2    0    0 -0.19753115161E+02 -0.16032730014E+02  0.42490495441E+02  0.49524613649E+02  0.10566000000E+00 0. -1.
        994    1    1    2    0    0  0.20158776595E+02  0.21590572294E+02  0.98902590555E+01  0.17401087986E+03  0.17120000000E+03 0.  0.
        998    1    1    2    0    0 -0.40566143373E+00 -0.55578422799E+01  0.14476192418E+04  0.14476645065E+04  0.10000000000E+02 0. -1.
</event>
<event>
 5    1  0.1147307E-008  0.3852621E+03  0.7957747E-01  0.3428561E+00
         13   -1    0    0    0    0  0.00000000000E+00  0.00000000000E+00  0.14999999963E+04  0.15000000000E+04  0.10566000000E+00 0.  1.
        994   -1    0    0    0    0 -0.00000000000E+00 -0.00000000000E+00  0.11368683772E-12  0.17120000000E+03  0.17120000000E+03 0.  0.
         13    1    1    2    0    0 -0.22311049939E+01  0.10387600066E+02  0.37537777239E+02  0.39012510157E+02  0.10566000000E+00 0.  1.
        994    1    1    2    0    0  0.17191701391E+01 -0.72840400903E+01  0.16841297757E+01  0.17137178612E+03  0.17120000000E+03 0.  0.
        998    1    1    2    0    0  0.51193485480E+00 -0.31035599759E+01  0.14607780893E+04  0.14608157037E+04  0.10000000000E+02 0.  1.
</event>
<event>
 5    1  0.1147307E-008  0.3773149E+03  0.7957747E-01  0.3462934E+00
         13   -1    0    0    0    0  0.00000000000E+00  0.00000000000E+00  0.14999999963E+04  0.15000000000E+04  0.10566000000E+00 0. -1.
        994   -1    0    0    0    0 -0.00000000000E+00 -0.00000000000E+00  0.11368683772E-12  0.17120000000E+03  0.17120000000E+03 0.  0.
         13    1    1    2    0    0 -0.33427389648E+02  0.26075322764E+01  0.91261553382E+02  0.97225880778E+02  0.10566000000E+00 0. -1.
        994    1    1    2    0    0  0.41877745953E+02 -0.73583113535E+01  0.11616893973E+02  0.17678315128E+03  0.17120000000E+03 0.  0.
        998    1    1    2    0    0 -0.84503563051E+01  0.47507790771E+01  0.13971215489E+04  0.13971909679E+04  0.10000000000E+02 0. -1.
</event>
<event>
 5    1  0.1147307E-008  0.3792426E+03  0.7957747E-01  0.3454463E+00
         13   -1    0    0    0    0  0.00000000000E+00  0.00000000000E+00  0.14999999963E+04  0.15000000000E+04  0.10566000000E+00 0.  1.
        994   -1    0    0    0    0 -0.00000000000E+00 -0.00000000000E+00  0.11368683772E-12  0.17120000000E+03  0.17120000000E+03 0.  0.
         13    1    1    2    0    0 -0.44355997557E+01  0.30289261210E+02  0.11195683981E+03  0.11606661464E+03  0.10566000000E+00 0.  1.
        994    1    1    2    0    0 -0.62910799019E+01 -0.22436570386E+01  0.46654954943E+01  0.17139375290E+03  0.17120000000E+03 0.  0.
        998    1    1    2    0    0  0.10726679658E+02 -0.28045604172E+02  0.13833776610E+04  0.13837396325E+04  0.10000000000E+02 0.  1.
</event>
<event>
 5    1  0.1147307E-008  0.3846091E+03  0.7957747E-01  0.3431332E+00
         13   -1    0    0    0    0  0.00000000000E+00  0.00000000000E+00  0.14999999963E+04  0.15000000000E+04  0.10566000000E+00 0. -1.
        994   -1    0    0    0    0 -0.00000000000E+00 -0.00000000000E+00  0.11368683772E-12  0.17120000000E+03  0.17120000000E+03 0.  0.
         13    1    1    2    0    0 -0.18594936993E+02  0.17042268630E+02  0.14592271846E+03  0.14808666897E+03  0.10566000000E+00 0. -1.
        994    1    1    2    0    0  0.24315748057E+02 -0.25973654275E+02  0.60038186578E+01  0.17496105898E+03  0.17120000000E+03 0.  0.
        998    1    1    2    0    0 -0.57208110645E+01  0.89313856454E+01  0.13480734592E+04  0.13481522720E+04  0.10000000000E+02 0.  1.
</event>
<event>
 5    1  0.1147307E-008  0.3730523E+03  0.7957747E-01  0.3481980E+00
         13   -1    0    0    0    0  0.00000000000E+00  0.00000000000E+00  0.14999999963E+04  0.15000000000E+04  0.10566000000E+00 0.  1.
        994   -1    0    0    0    0 -0.00000000000E+00 -0.00000000000E+00  0.11368683772E-12  0.17120000000E+03  0.17120000000E+03 0.  0.
         13    1    1    2    0    0 -0.26702162429E+02  0.13647510061E+02  0.53748753126E+02  0.61548352016E+02  0.10566000000E+00 0.  1.
        994    1    1    2    0    0  0.25879753334E+02 -0.16140574363E+02  0.10872077944E+02  0.17423524859E+03  0.17120000000E+03 0.  0.
        998    1    1    2    0    0  0.82240909512E+00  0.24930643022E+01  0.14353791652E+04  0.14354163994E+04  0.10000000000E+02 0.  1.
</event>
<event>
 5    1  0.1147307E-008  0.3766779E+03  0.7957747E-01  0.3465752E+00
         13   -1    0    0    0    0  0.00000000000E+00  0.00000000000E+00  0.14999999963E+04  0.15000000000E+04  0.10566000000E+00 0.  1.
        994   -1    0    0    0    0 -0.00000000000E+00 -0.00000000000E+00  0.11368683772E-12  0.17120000000E+03  0.17120000000E+03 0.  0.
         13    1    1    2    0    0  0.16010010810E+03  0.57204442451E+02  0.90998293484E+03  0.92572854861E+03  0.10566000000E+00 0.  1.
        994    1    1    2    0    0 -0.15449614077E+03 -0.59841299024E+02  0.10507168509E+03  0.26038344339E+03  0.17120000000E+03 0.  0.
        998    1    1    2    0    0 -0.56039673224E+01  0.26368565730E+01  0.48494537635E+03  0.48508800800E+03  0.10000000000E+02 0. -1.
</event>
<event>
 5    1  0.1480569E-008  0.3863807E+03  0.7957747E-01  0.3423838E+00
         13   -1    0    0    0    0  0.00000000000E+00  0.00000000000E+00  0.14999999963E+04  0.15000000000E+04  0.10566000000E+00 0. -1.
        994   -1    0    0    0    0 -0.00000000000E+00 -0.00000000000E+00  0.11368683772E-12  0.17120000000E+03  0.17120000000E+03 0.  0.
         13    1    1    2    0    0 -0.36099122051E+01  0.10095566792E+02  0.62351139010E+02  0.63266323070E+02  0.10566000000E+00 0. -1.
        994    1    1    2    0    0  0.14344664468E+02 -0.18519020191E+01  0.16314177631E+01  0.17181763723E+03  0.17120000000E+03 0.  0.
        998    1    1    2    0    0 -0.10734752263E+02 -0.82436647726E+01  0.14360174395E+04  0.14361160397E+04  0.10000000000E+02 0. -1.
</event>
<event>
 5    1  0.1147307E-008  0.3825580E+03  0.7957747E-01  0.3440096E+00
         13   -1    0    0    0    0  0.00000000000E+00  0.00000000000E+00  0.14999999963E+04  0.15000000000E+04  0.10566000000E+00 0. -1.
        994   -1    0    0    0    0 -0.00000000000E+00 -0.00000000000E+00  0.11368683772E-12  0.17120000000E+03  0.17120000000E+03 0.  0.
         13    1    1    2    0    0 -0.58496174212E+01  0.32060298709E+02  0.16914265021E+03  0.17225367358E+03  0.10566000000E+00 0. -1.
        994    1    1    2    0    0  0.21432691746E+02 -0.27982700362E+02  0.69767789836E+01  0.17493000669E+03  0.17120000000E+03 0.  0.
        998    1    1    2    0    0 -0.15583074325E+02 -0.40775983467E+01  0.13238805671E+04  0.13240163197E+04  0.10000000000E+02 0. -1.
</event>
<event>
 5    1  0.1147307E-008  0.3728489E+03  0.7957747E-01  0.3482899E+00
         13   -1    0    0    0    0  0.00000000000E+00  0.00000000000E+00  0.14999999963E+04  0.15000000000E+04  0.10566000000E+00 0. -1.
        994   -1    0    0    0    0 -0.00000000000E+00 -0.00000000000E+00  0.11368683772E-12  0.17120000000E+03  0.17120000000E+03 0.  0.
         13    1    1    2    0    0 -0.98481811632E+01  0.11348600154E+02  0.10958042511E+02  0.18597506752E+02  0.10566000000E+00 0. -1.
        994    1    1    2    0    0  0.77815162445E+01 -0.11063023917E+02  0.84141675837E+01  0.17193946815E+03  0.17120000000E+03 0.  0.
        998    1    1    2    0    0  0.20666649187E+01 -0.28557623769E+00  0.14806277862E+04  0.14806630251E+04  0.10000000000E+02 0. -1.
</event>
<event>
 5    1  0.1147307E-008  0.3752870E+03  0.7957747E-01  0.3471940E+00
         13   -1    0    0    0    0  0.00000000000E+00  0.00000000000E+00  0.14999999963E+04  0.15000000000E+04  0.10566000000E+00 0. -1.
        994   -1    0    0    0    0 -0.00000000000E+00 -0.00000000000E+00  0.11368683772E-12  0.17120000000E+03  0.17120000000E+03 0.  0.
         13    1    1    2    0    0 -0.18871102432E+01  0.27307792609E+02  0.54213081434E+02  0.60731755160E+02  0.10566000000E+00 0. -1.
        994    1    1    2    0    0  0.60157617669E+01 -0.21006812386E+02  0.81545869420E+01  0.17278140191E+03  0.17120000000E+03 0.  0.
        998    1    1    2    0    0 -0.41286515237E+01 -0.63009802233E+01  0.14376323279E+04  0.14376868429E+04  0.10000000000E+02 0. -1.
</event>
<event>
 5    1  0.1147307E-008  0.3729002E+03  0.7957747E-01  0.3482667E+00
         13   -1    0    0    0    0  0.00000000000E+00  0.00000000000E+00  0.14999999963E+04  0.15000000000E+04  0.10566000000E+00 0. -1.
        994   -1    0    0    0    0 -0.00000000000E+00 -0.00000000000E+00  0.11368683772E-12  0.17120000000E+03  0.17120000000E+03 0.  0.
         13    1    1    2    0    0 -0.30074226094E+02  0.10609992422E+02  0.56604031831E+02  0.64969674448E+02  0.10566000000E+00 0. -1.
        994    1    1    2    0    0  0.54128629972E+02 -0.31573268227E+01  0.17893308956E+02  0.18047018535E+03  0.17120000000E+03 0.  0.
        998    1    1    2    0    0 -0.24054403879E+02 -0.74526655994E+01  0.14255026555E+04  0.14257601402E+04  0.10000000000E+02 0. -1.
</event>
<event>
 5    1  0.1147307E-008  0.3743094E+03  0.7957747E-01  0.3476317E+00
         13   -1    0    0    0    0  0.00000000000E+00  0.00000000000E+00  0.14999999963E+04  0.15000000000E+04  0.10566000000E+00 0.  1.
        994   -1    0    0    0    0 -0.00000000000E+00 -0.00000000000E+00  0.11368683772E-12  0.17120000000E+03  0.17120000000E+03 0.  0.
         13    1    1    2    0    0 -0.28486084316E+02 -0.43795219356E+02  0.18318129276E+03  0.19048589297E+03  0.10566000000E+00 0.  1.
        994    1    1    2    0    0  0.26898348630E+02  0.28697792290E+02  0.12323232820E+02  0.17609198309E+03  0.17120000000E+03 0.  0.
        998    1    1    2    0    0  0.15877356862E+01  0.15097427066E+02  0.13044954707E+04  0.13046221239E+04  0.10000000000E+02 0.  1.
</event>
<event>
 5    1  0.1147307E-008  0.3829814E+03  0.7957747E-01  0.3438279E+00
         13   -1    0    0    0    0  0.00000000000E+00  0.00000000000E+00  0.14999999963E+04  0.15000000000E+04  0.10566000000E+00 0. -1.
        994   -1    0    0    0    0 -0.00000000000E+00 -0.00000000000E+00  0.11368683772E-12  0.17120000000E+03  0.17120000000E+03 0.  0.
         13    1    1    2    0    0 -0.20903480313E+02  0.99406102138E+01  0.11315891204E+03  0.11550204223E+03  0.10566000000E+00 0. -1.
        994    1    1    2    0    0 -0.53899928273E+01 -0.55920702120E+01  0.28353576614E+01  0.17139954062E+03  0.17120000000E+03 0.  0.
        998    1    1    2    0    0  0.26293473141E+02 -0.43485400018E+01  0.13840057266E+04  0.13842984171E+04  0.10000000000E+02 0. -1.
</event>
<event>
 5    1  0.1147307E-008  0.3850195E+03  0.7957747E-01  0.3429590E+00
         13   -1    0    0    0    0  0.00000000000E+00  0.00000000000E+00  0.14999999963E+04  0.15000000000E+04  0.10566000000E+00 0.  1.
        994   -1    0    0    0    0 -0.00000000000E+00 -0.00000000000E+00  0.11368683772E-12  0.17120000000E+03  0.17120000000E+03 0.  0.
         13    1    1    2    0    0 -0.14989484941E+02 -0.39997496235E+01  0.75613225038E+02  0.77188429317E+02  0.10566000000E+00 0.  1.
        994    1    1    2    0    0  0.78565943194E+01  0.86467566560E-01  0.18235149234E+01  0.17138990273E+03  0.17120000000E+03 0.  0.
        998    1    1    2    0    0  0.71328906215E+01  0.39132820570E+01  0.14225632563E+04  0.14226216680E+04  0.10000000000E+02 0.  1.
</event>
<event>
 5    1  0.1147307E-008  0.3754681E+03  0.7957747E-01  0.3471132E+00
         13   -1    0    0    0    0  0.00000000000E+00  0.00000000000E+00  0.14999999963E+04  0.15000000000E+04  0.10566000000E+00 0. -1.
        994   -1    0    0    0    0 -0.00000000000E+00 -0.00000000000E+00  0.11368683772E-12  0.17120000000E+03  0.17120000000E+03 0.  0.
         13    1    1    2    0    0 -0.10613518320E+02 -0.56890286722E+01  0.82712590537E+01  0.14609473253E+02  0.10566000000E+00 0. -1.
        994    1    1    2    0    0  0.17174511284E+02 -0.60621681741E+01  0.75651125303E+01  0.17233219272E+03  0.17120000000E+03 0.  0.
        998    1    1    2    0    0 -0.65609929647E+01  0.11751196846E+02  0.14841636247E+04  0.14842583340E+04  0.10000000000E+02 0. -1.
</event>
<event>
 5    1  0.1147307E-008  0.3835370E+03  0.7957747E-01  0.3435901E+00
         13   -1    0    0    0    0  0.00000000000E+00  0.00000000000E+00  0.14999999963E+04  0.15000000000E+04  0.10566000000E+00 0.  1.
        994   -1    0    0    0    0 -0.00000000000E+00 -0.00000000000E+00  0.11368683772E-12  0.17120000000E+03  0.17120000000E+03 0.  0.
         13    1    1    2    0    0  0.11671297811E+02  0.25572403914E+02  0.15753458558E+03  0.16002288540E+03  0.10566000000E+00 0.  1.
        994    1    1    2    0    0 -0.19503319044E+02 -0.17398580253E+02  0.46186540481E+01  0.17324509232E+03  0.17120000000E+03 0.  0.
        998    1    1    2    0    0  0.78320212333E+01 -0.81738236607E+01  0.13378467567E+04  0.13379320223E+04  0.10000000000E+02 0.  1.
</event>
<event>
 5    1  0.1147307E-008  0.3854721E+03  0.7957747E-01  0.3427672E+00
         13   -1    0    0    0    0  0.00000000000E+00  0.00000000000E+00  0.14999999963E+04  0.15000000000E+04  0.10566000000E+00 0.  1.
        994   -1    0    0    0    0 -0.00000000000E+00 -0.00000000000E+00  0.11368683772E-12  0.17120000000E+03  0.17120000000E+03 0.  0.
         13    1    1    2    0    0  0.66931110367E+01 -0.10113003056E+02  0.52869807050E+02  0.54242955558E+02  0.10566000000E+00 0.  1.
        994    1    1    2    0    0 -0.80573991196E+01  0.45558957894E+01  0.16773106613E+01  0.17145824926E+03  0.17120000000E+03 0.  0.
        998    1    1    2    0    0  0.13642880829E+01  0.55571072671E+01  0.14454528786E+04  0.14454987952E+04  0.10000000000E+02 0.  1.
</event>
<event>
 5    1  0.1147307E-008  0.3840489E+03  0.7957747E-01  0.3433716E+00
         13   -1    0    0    0    0  0.00000000000E+00  0.00000000000E+00  0.14999999963E+04  0.15000000000E+04  0.10566000000E+00 0.  1.
        994   -1    0    0    0    0 -0.00000000000E+00 -0.00000000000E+00  0.11368683772E-12  0.17120000000E+03  0.17120000000E+03 0.  0.
         13    1    1    2    0    0 -0.13066913157E+02 -0.12472253839E+02  0.86243324119E+02  0.88114831070E+02  0.10566000000E+00 0.  1.
        994    1    1    2    0    0 -0.12849495487E+01 -0.62380878877E+01  0.22369106649E+01  0.17133303419E+03  0.17120000000E+03 0.  0.
        998    1    1    2    0    0  0.14351862706E+02  0.18710341726E+02  0.14115197615E+04  0.14117521347E+04  0.10000000000E+02 0.  1.
</event>
<event>
 5    1  0.1147307E-008  0.3857511E+03  0.7957747E-01  0.3426493E+00
         13   -1    0    0    0    0  0.00000000000E+00  0.00000000000E+00  0.14999999963E+04  0.15000000000E+04  0.10566000000E+00 0. -1.
        994   -1    0    0    0    0 -0.00000000000E+00 -0.00000000000E+00  0.11368683772E-12  0.17120000000E+03  0.17120000000E+03 0.  0.
         13    1    1    2    0    0 -0.17370916113E+02 -0.62646372523E+01  0.99297733493E+02  0.10100022499E+03  0.10566000000E+00 0. -1.
        994    1    1    2    0    0  0.50581928350E+02  0.71960689157E+01  0.98685445378E+01  0.17893334808E+03  0.17120000000E+03 0.  0.
        998    1    1    2    0    0 -0.33211012237E+02 -0.93143166342E+00  0.13908337182E+04  0.13912664269E+04  0.10000000000E+02 0. -1.
</event>
<event>
 5    1  0.1147307E-008  0.3816078E+03  0.7957747E-01  0.3444187E+00
         13   -1    0    0    0    0  0.00000000000E+00  0.00000000000E+00  0.14999999963E+04  0.15000000000E+04  0.10566000000E+00 0. -1.
        994   -1    0    0    0    0 -0.00000000000E+00 -0.00000000000E+00  0.11368683772E-12  0.17120000000E+03  0.17120000000E+03 0.  0.
         13    1    1    2    0    0  0.95687440689E+01 -0.44966818859E+01  0.15349120406E+02  0.18638338775E+02  0.10566000000E+00 0. -1.
        994    1    1    2    0    0 -0.11401993122E+02 -0.15930802737E+01  0.37645900777E+01  0.17162795661E+03  0.17120000000E+03 0.  0.
        998    1    1    2    0    0  0.18332490530E+01  0.60897621597E+01  0.14808862858E+04  0.14809337046E+04  0.10000000000E+02 0. -1.
</event>
<event>
 5    1  0.1147307E-008  0.3863437E+03  0.7957747E-01  0.3423993E+00
         13   -1    0    0    0    0  0.00000000000E+00  0.00000000000E+00  0.14999999963E+04  0.15000000000E+04  0.10566000000E+00 0.  1.
        994   -1    0    0    0    0 -0.00000000000E+00 -0.00000000000E+00  0.11368683772E-12  0.17120000000E+03  0.17120000000E+03 0.  0.
         13    1    1    2    0    0 -0.46310392944E+01 -0.99506482077E+01  0.62268005390E+02  0.63227981021E+02  0.10566000000E+00 0.  1.
        994    1    1    2    0    0  0.51415974368E+01  0.86106525053E+01  0.12938729912E+01  0.17149837745E+03  0.17120000000E+03 0.  0.
        998    1    1    2    0    0 -0.51055814239E+00  0.13399957024E+01  0.14364381179E+04  0.14364736415E+04  0.10000000000E+02 0.  1.
</event>
<event>
 5    1  0.1147307E-008  0.3815797E+03  0.7957747E-01  0.3444309E+00
         13   -1    0    0    0    0  0.00000000000E+00  0.00000000000E+00  0.14999999963E+04  0.15000000000E+04  0.10566000000E+00 0.  1.
        994   -1    0    0    0    0 -0.00000000000E+00 -0.00000000000E+00  0.11368683772E-12  0.17120000000E+03  0.17120000000E+03 0.  0.
         13    1    1    2    0    0 -0.14819180760E+02 -0.24746076260E+01  0.32666515514E+02  0.35956142746E+02  0.10566000000E+00 0.  1.
        994    1    1    2    0    0  0.10253827495E+02 -0.48034937584E+01  0.37643418585E+01  0.17161533964E+03  0.17120000000E+03 0.  0.
        998    1    1    2    0    0  0.45653532650E+01  0.72781013845E+01  0.14635691389E+04  0.14636285176E+04  0.10000000000E+02 0.  1.
</event>
<event>
 5    1  0.1147307E-008  0.3826007E+03  0.7957747E-01  0.3439912E+00
         13   -1    0    0    0    0  0.00000000000E+00  0.00000000000E+00  0.14999999963E+04  0.15000000000E+04  0.10566000000E+00 0. -1.
        994   -1    0    0    0    0 -0.00000000000E+00 -0.00000000000E+00  0.11368683772E-12  0.17120000000E+03  0.17120000000E+03 0.  0.
         13    1    1    2    0    0 -0.24379611117E+02 -0.18161066834E+02  0.18295712833E+03  0.18546566194E+03  0.10566000000E+00 0. -1.
        994    1    1    2    0    0  0.88803321226E+01 -0.47111810793E+01  0.31610600720E+01  0.17152401531E+03  0.17120000000E+03 0.  0.
        998    1    1    2    0    0  0.15499278995E+02  0.22872247913E+02  0.13138818079E+04  0.13142103228E+04  0.10000000000E+02 0. -1.
</event>
<event>
 5    1  0.1147307E-008  0.3769084E+03  0.7957747E-01  0.3464731E+00
         13   -1    0    0    0    0  0.00000000000E+00  0.00000000000E+00  0.14999999963E+04  0.15000000000E+04  0.10566000000E+00 0.  1.
        994   -1    0    0    0    0 -0.00000000000E+00 -0.00000000000E+00  0.11368683772E-12  0.17120000000E+03  0.17120000000E+03 0.  0.
         13    1    1    2    0    0  0.59049166879E+02  0.18046749988E+02  0.11753234102E+03  0.13276427096E+03  0.10566000000E+00 0.  1.
        994    1    1    2    0    0 -0.64079394512E+02  0.10433545557E+02  0.29900268682E+02  0.18552221900E+03  0.17120000000E+03 0.  0.
        998    1    1    2    0    0  0.50302276328E+01 -0.28480295546E+02  0.13525673866E+04  0.13529135100E+04  0.10000000000E+02 0.  1.
</event>
<event>
 5    1  0.1147307E-008  0.3840145E+03  0.7957747E-01  0.3433863E+00
         13   -1    0    0    0    0  0.00000000000E+00  0.00000000000E+00  0.14999999963E+04  0.15000000000E+04  0.10566000000E+00 0.  1.
        994   -1    0    0    0    0 -0.00000000000E+00 -0.00000000000E+00  0.11368683772E-12  0.17120000000E+03  0.17120000000E+03 0.  0.
         13    1    1    2    0    0  0.28097601306E+02  0.12670489858E+02  0.16866341586E+03  0.17145662870E+03  0.10566000000E+00 0.  1.
        994    1    1    2    0    0 -0.55019792572E+02 -0.31405477920E+01  0.12205153034E+02  0.18026493385E+03  0.17120000000E+03 0.  0.
        998    1    1    2    0    0  0.26922191266E+02 -0.95299420662E+01  0.13191314274E+04  0.13194784375E+04  0.10000000000E+02 0.  1.
</event>
<event>
 5    1  0.1147307E-008  0.3739298E+03  0.7957747E-01  0.3478023E+00
         13   -1    0    0    0    0  0.00000000000E+00  0.00000000000E+00  0.14999999963E+04  0.15000000000E+04  0.10566000000E+00 0. -1.
        994   -1    0    0    0    0 -0.00000000000E+00 -0.00000000000E+00  0.11368683772E-12  0.17120000000E+03  0.17120000000E+03 0.  0.
         13    1    1    2    0    0  0.98402420535E+01 -0.36242267617E+02  0.10508676173E+03  0.11159556882E+03  0.10566000000E+00 0. -1.
        994    1    1    2    0    0  0.60255937072E+01  0.73845556345E+00  0.73550663161E+01  0.17146541954E+03  0.17120000000E+03 0.  0.
        998    1    1    2    0    0 -0.15865835761E+02  0.35503812054E+02  0.13875581682E+04  0.13881390116E+04  0.10000000000E+02 0. -1.
</event>
<event>
 5    1  0.1147307E-008  0.3742074E+03  0.7957747E-01  0.3476775E+00
         13   -1    0    0    0    0  0.00000000000E+00  0.00000000000E+00  0.14999999963E+04  0.15000000000E+04  0.10566000000E+00 0.  1.
        994   -1    0    0    0    0 -0.00000000000E+00 -0.00000000000E+00  0.11368683772E-12  0.17120000000E+03  0.17120000000E+03 0.  0.
         13    1    1    2    0    0 -0.15055091070E+02 -0.88839047740E+01  0.61869520020E+01  0.18543707026E+02  0.10566000000E+00 0.  1.
        994    1    1    2    0    0 -0.26325765935E+02  0.11067955805E+02  0.16080274619E+02  0.17430880881E+03  0.17120000000E+03 0.  0.
        998    1    1    2    0    0  0.41380857005E+02 -0.21840510312E+01  0.14777327697E+04  0.14783474842E+04  0.10000000000E+02 0.  1.
</event>
<event>
 5    1  0.1147307E-008  0.3755008E+03  0.7957747E-01  0.3470986E+00
         13   -1    0    0    0    0  0.00000000000E+00  0.00000000000E+00  0.14999999963E+04  0.15000000000E+04  0.10566000000E+00 0.  1.
        994   -1    0    0    0    0 -0.00000000000E+00 -0.00000000000E+00  0.11368683772E-12  0.17120000000E+03  0.17120000000E+03 0.  0.
         13    1    1    2    0    0 -0.14506355075E+02 -0.11945770818E+02  0.24710267612E+02  0.31044230824E+02  0.10566000000E+00 0.  1.
        994    1    1    2    0    0  0.51518534214E+01  0.16448542706E+02  0.74306041148E+01  0.17222586922E+03  0.17120000000E+03 0.  0.
        998    1    1    2    0    0  0.93545016532E+01 -0.45027718880E+01  0.14678591246E+04  0.14679299000E+04  0.10000000000E+02 0.  1.
</event>
<event>
 5    1  0.1147307E-008  0.3730479E+03  0.7957747E-01  0.3482000E+00
         13   -1    0    0    0    0  0.00000000000E+00  0.00000000000E+00  0.14999999963E+04  0.15000000000E+04  0.10566000000E+00 0.  1.
        994   -1    0    0    0    0 -0.00000000000E+00 -0.00000000000E+00  0.11368683772E-12  0.17120000000E+03  0.17120000000E+03 0.  0.
         13    1    1    2    0    0 -0.10443551940E+03 -0.10223698147E+03  0.72522609681E+03  0.73980543439E+03  0.10566000000E+00 0.  1.
        994    1    1    2    0    0  0.10937473296E+03  0.88605317516E+02  0.78846674702E+02  0.23524449539E+03  0.17120000000E+03 0.  0.
        998    1    1    2    0    0 -0.49392135564E+01  0.13631663959E+02  0.69592722477E+03  0.69615007022E+03  0.10000000000E+02 0.  1.
</event>
<event>
 5    1  0.1147307E-008  0.3837997E+03  0.7957747E-01  0.3434779E+00
         13   -1    0    0    0    0  0.00000000000E+00  0.00000000000E+00  0.14999999963E+04  0.15000000000E+04  0.10566000000E+00 0.  1.
        994   -1    0    0    0    0 -0.00000000000E+00 -0.00000000000E+00  0.11368683772E-12  0.17120000000E+03  0.17120000000E+03 0.  0.
         13    1    1    2    0    0  0.53395502086E+01 -0.14386046397E+02  0.53161578041E+02  0.55332031150E+02  0.10566000000E+00 0.  1.
        994    1    1    2    0    0 -0.13002752966E+02  0.27277747233E+01  0.28102007831E+01  0.17173773484E+03  0.17120000000E+03 0.  0.
        998    1    1    2    0    0  0.76632027578E+01  0.11658271674E+02  0.14440282175E+04  0.14441302340E+04  0.10000000000E+02 0.  1.
</event>
<event>
 5    1  0.1147307E-008  0.3713751E+03  0.7957747E-01  0.3489595E+00
         13   -1    0    0    0    0  0.00000000000E+00  0.00000000000E+00  0.14999999963E+04  0.15000000000E+04  0.10566000000E+00 0.  1.
        994   -1    0    0    0    0 -0.00000000000E+00 -0.00000000000E+00  0.11368683772E-12  0.17120000000E+03  0.17120000000E+03 0.  0.
         13    1    1    2    0    0 -0.18669953518E+02  0.40217934089E+02  0.10673559180E+03  0.11557918111E+03  0.10566000000E+00 0.  1.
        994    1    1    2    0    0  0.13259798707E+02 -0.37315992856E+02  0.13968464027E+02  0.17627496581E+03  0.17120000000E+03 0.  0.
        998    1    1    2    0    0  0.54101548111E+01 -0.29019412322E+01  0.13792959405E+04  0.13793458531E+04  0.10000000000E+02 0.  1.
</event>
<event>
 5    1  0.1924123E-008  0.3854297E+03  0.7957747E-01  0.3427852E+00
         13   -1    0    0    0    0  0.00000000000E+00  0.00000000000E+00  0.14999999963E+04  0.15000000000E+04  0.10566000000E+00 0.  1.
        994   -1    0    0    0    0 -0.00000000000E+00 -0.00000000000E+00  0.11368683772E-12  0.17120000000E+03  0.17120000000E+03 0.  0.
         13    1    1    2    0    0 -0.11218054206E+02 -0.65798693205E+01  0.61506215238E+02  0.62866247680E+02  0.10566000000E+00 0.  1.
        994    1    1    2    0    0  0.18253310484E+01  0.62955263666E+01  0.15580719649E+01  0.17133252194E+03  0.17120000000E+03 0.  0.
        998    1    1    2    0    0  0.93927231579E+01  0.28434295387E+00  0.14369357091E+04  0.14370012304E+04  0.10000000000E+02 0.  1.
</event>
<event>
 5    1  0.1147307E-008  0.3840963E+03  0.7957747E-01  0.3433514E+00
         13   -1    0    0    0    0  0.00000000000E+00  0.00000000000E+00  0.14999999963E+04  0.15000000000E+04  0.10566000000E+00 0.  1.
        994   -1    0    0    0    0 -0.00000000000E+00 -0.00000000000E+00  0.11368683772E-12  0.17120000000E+03  0.17120000000E+03 0.  0.
         13    1    1    2    0    0  0.19910881103E+02 -0.10729325336E+02  0.10789432969E+03  0.11023955348E+03  0.10566000000E+00 0.  1.
        994    1    1    2    0    0 -0.33116281405E+02  0.62355341700E+01  0.58339514208E+01  0.17458248758E+03  0.17120000000E+03 0.  0.
        998    1    1    2    0    0  0.13205400302E+02  0.44937911660E+01  0.13862717152E+04  0.13863779589E+04  0.10000000000E+02 0.  1.
</event>
<event>
 5    1  0.1147307E-008  0.3711728E+03  0.7957747E-01  0.3490518E+00
         13   -1    0    0    0    0  0.00000000000E+00  0.00000000000E+00  0.14999999963E+04  0.15000000000E+04  0.10566000000E+00 0. -1.
        994   -1    0    0    0    0 -0.00000000000E+00 -0.00000000000E+00  0.11368683772E-12  0.17120000000E+03  0.17120000000E+03 0.  0.
         13    1    1    2    0    0  0.20156381550E+02 -0.25606835785E+02  0.58520510522E+02  0.66982468392E+02  0.10566000000E+00 0. -1.
        994    1    1    2    0    0 -0.29317834530E+02  0.73349974914E+00  0.11624903123E+02  0.17408231333E+03  0.17120000000E+03 0.  0.
        998    1    1    2    0    0  0.91614529800E+01  0.24873336036E+02  0.14298545826E+04  0.14301352183E+04  0.10000000000E+02 0. -1.
</event>
<event>
 5    1  0.1147307E-008  0.3799826E+03  0.7957747E-01  0.3451234E+00
         13   -1    0    0    0    0  0.00000000000E+00  0.00000000000E+00  0.14999999963E+04  0.15000000000E+04  0.10566000000E+00 0.  1.
        994   -1    0    0    0    0 -0.00000000000E+00 -0.00000000000E+00  0.11368683772E-12  0.17120000000E+03  0.17120000000E+03 0.  0.
         13    1    1    2    0    0 -0.32719930220E+02  0.10548433280E+02  0.15818302002E+03  0.16187570005E+03  0.10566000000E+00 0.  1.
        994    1    1    2    0    0  0.43244115309E+01  0.31619003315E+01  0.42378783854E+01  0.17133621264E+03  0.17120000000E+03 0.  0.
        998    1    1    2    0    0  0.28395518689E+02 -0.13710333611E+02  0.13375790979E+04  0.13379880873E+04  0.10000000000E+02 0.  1.
</event>
<event>
 5    1  0.1147307E-008  0.3836138E+03  0.7957747E-01  0.3435573E+00
         13   -1    0    0    0    0  0.00000000000E+00  0.00000000000E+00  0.14999999963E+04  0.15000000000E+04  0.10566000000E+00 0. -1.
        994   -1    0    0    0    0 -0.00000000000E+00 -0.00000000000E+00  0.11368683772E-12  0.17120000000E+03  0.17120000000E+03 0.  0.
         13    1    1    2    0    0  0.31104423233E+00  0.15653529242E+02  0.52403177683E+02  0.54692174226E+02  0.10566000000E+00 0. -1.
        994    1    1    2    0    0 -0.11727380012E+01 -0.96620947579E+01  0.26329314750E+01  0.17149665804E+03  0.17120000000E+03 0.  0.
        998    1    1    2    0    0  0.86169376891E+00 -0.59914344845E+01  0.14449638871E+04  0.14450111677E+04  0.10000000000E+02 0. -1.
</event>
<event>
 5    1  0.1147307E-008  0.3802774E+03  0.7957747E-01  0.3449952E+00
         13   -1    0    0    0    0  0.00000000000E+00  0.00000000000E+00  0.14999999963E+04  0.15000000000E+04  0.10566000000E+00 0. -1.
        994   -1    0    0    0    0 -0.00000000000E+00 -0.00000000000E+00  0.11368683772E-12  0.17120000000E+03  0.17120000000E+03 0.  0.
         13    1    1    2    0    0 -0.10861725302E+02  0.12567084960E+02  0.32748463095E+02  0.36720317265E+02  0.10566000000E+00 0. -1.
        994    1    1    2    0    0  0.13413392079E+02 -0.62876126881E+01  0.47264632937E+01  0.17190471959E+03  0.17120000000E+03 0.  0.
        998    1    1    2    0    0 -0.25516667769E+01 -0.62794722721E+01  0.14625250699E+04  0.14625749631E+04  0.10000000000E+02 0. -1.
</event>
<event>
 5    1  0.1147307E-008  0.3842904E+03  0.7957747E-01  0.3432687E+00
         13   -1    0    0    0    0  0.00000000000E+00  0.00000000000E+00  0.14999999963E+04  0.15000000000E+04  0.10566000000E+00 0. -1.
        994   -1    0    0    0    0 -0.00000000000E+00 -0.00000000000E+00  0.11368683772E-12  0.17120000000E+03  0.17120000000E+03 0.  0.
         13    1    1    2    0    0  0.15574291601E+02  0.94001371554E+01  0.10490951016E+03  0.10647505634E+03  0.10566000000E+00 0. -1.
        994    1    1    2    0    0  0.19085915029E+02  0.43532521839E+01  0.32470569976E+01  0.17234618167E+03  0.17120000000E+03 0.  0.
        998    1    1    2    0    0 -0.34660206631E+02 -0.13753389339E+02  0.13918434291E+04  0.13923787620E+04  0.10000000000E+02 0. -1.
</event>
<event>
 5    1  0.1147307E-008  0.3724188E+03  0.7957747E-01  0.3484848E+00
         13   -1    0    0    0    0  0.00000000000E+00  0.00000000000E+00  0.14999999963E+04  0.15000000000E+04  0.10566000000E+00 0.  1.
        994   -1    0    0    0    0 -0.00000000000E+00 -0.00000000000E+00  0.11368683772E-12  0.17120000000E+03  0.17120000000E+03 0.  0.
         13    1    1    2    0    0 -0.78364809070E+01 -0.28541443305E+02  0.54887586010E+02  0.62359303083E+02  0.10566000000E+00 0.  1.
        994    1    1    2    0    0 -0.20145659665E+02  0.48862169033E+01  0.94851636881E+01  0.17271112022E+03  0.17120000000E+03 0.  0.
        998    1    1    2    0    0  0.27982140572E+02  0.23655226402E+02  0.14356272466E+04  0.14361295767E+04  0.10000000000E+02 0.  1.
</event>
<event>
 5    1  0.1147307E-008  0.3853688E+03  0.7957747E-01  0.3428109E+00
         13   -1    0    0    0    0  0.00000000000E+00  0.00000000000E+00  0.14999999963E+04  0.15000000000E+04  0.10566000000E+00 0. -1.
        994   -1    0    0    0    0 -0.00000000000E+00 -0.00000000000E+00  0.11368683772E-12  0.17120000000E+03  0.17120000000E+03 0.  0.
         13    1    1    2    0    0 -0.11508161028E+02 -0.49780124528E+01  0.53503657028E+02  0.54953351651E+02  0.10566000000E+00 0. -1.
        994    1    1    2    0    0  0.11194934025E+02  0.28425966751E+01  0.18854532342E+01  0.17159953915E+03  0.17120000000E+03 0.  0.
        998    1    1    2    0    0  0.31322700387E+00  0.21354157776E+01  0.14446108860E+04  0.14446471092E+04  0.10000000000E+02 0. -1.
</event>
<event>
 5    1  0.1147307E-008  0.3695506E+03  0.7957747E-01  0.3497959E+00
         13   -1    0    0    0    0  0.00000000000E+00  0.00000000000E+00  0.14999999963E+04  0.15000000000E+04  0.10566000000E+00 0.  1.
        994   -1    0    0    0    0 -0.00000000000E+00 -0.00000000000E+00  0.11368683772E-12  0.17120000000E+03  0.17120000000E+03 0.  0.
         13    1    1    2    0    0  0.44697670635E+01  0.13304457452E+02  0.64729385073E+01  0.15456309477E+02  0.10566000000E+00 0.  1.
        994    1    1    2    0    0  0.12914871266E+02  0.13884747341E+02  0.10750355913E+02  0.17258212613E+03  0.17120000000E+03 0.  0.
        998    1    1    2    0    0 -0.17384638330E+02 -0.27189204793E+02  0.14827767019E+04  0.14831615644E+04  0.10000000000E+02 0.  1.
</event>
<event>
 5    1  0.1147307E-008  0.3821847E+03  0.7957747E-01  0.3441701E+00
         13   -1    0    0    0    0  0.00000000000E+00  0.00000000000E+00  0.14999999963E+04  0.15000000000E+04  0.10566000000E+00 0.  1.
        994   -1    0    0    0    0 -0.00000000000E+00 -0.00000000000E+00  0.11368683772E-12  0.17120000000E+03  0.17120000000E+03 0.  0.
         13    1    1    2    0    0  0.13398444756E+02 -0.26528006488E+02  0.16578919709E+03  0.16843195209E+03  0.10566000000E+00 0.  1.
        994    1    1    2    0    0  0.11233562373E+02  0.62021908506E+01  0.35810617214E+01  0.17171757073E+03  0.17120000000E+03 0.  0.
        998    1    1    2    0    0 -0.24632007128E+02  0.20325815637E+02  0.13306297375E+04  0.13310504772E+04  0.10000000000E+02 0.  1.
</event>
<event>
 5    1  0.1147307E-008  0.3773535E+03  0.7957747E-01  0.3462764E+00
         13   -1    0    0    0    0  0.00000000000E+00  0.00000000000E+00  0.14999999963E+04  0.15000000000E+04  0.10566000000E+00 0.  1.
        994   -1    0    0    0    0 -0.00000000000E+00 -0.00000000000E+00  0.11368683772E-12  0.17120000000E+03  0.17120000000E+03 0.  0.
         13    1    1    2    0    0 -0.26807394554E+01  0.28984231650E+02  0.21914338585E+02  0.36435167737E+02  0.10566000000E+00 0.  1.
        994    1    1    2    0    0  0.98295978411E+01 -0.28599687904E+02  0.18170096976E+02  0.17479747014E+03  0.17120000000E+03 0.  0.
        998    1    1    2    0    0 -0.71488583858E+01 -0.38454374552E+00  0.14599155607E+04  0.14599673621E+04  0.10000000000E+02 0.  1.
</event>
<event>
 5    1  0.1147307E-008  0.3853262E+03  0.7957747E-01  0.3428290E+00
         13   -1    0    0    0    0  0.00000000000E+00  0.00000000000E+00  0.14999999963E+04  0.15000000000E+04  0.10566000000E+00 0.  1.
        994   -1    0    0    0    0 -0.00000000000E+00 -0.00000000000E+00  0.11368683772E-12  0.17120000000E+03  0.17120000000E+03 0.  0.
         13    1    1    2    0    0  0.49879302762E+01 -0.18335895489E+02  0.11417449447E+03  0.11574502522E+03  0.10566000000E+00 0.  1.
        994    1    1    2    0    0 -0.57522195422E+01  0.20001795084E+02  0.28925820375E+01  0.17248468589E+03  0.17120000000E+03 0.  0.
        998    1    1    2    0    0  0.76428926595E+00 -0.16658995946E+01  0.13829329198E+04  0.13829702889E+04  0.10000000000E+02 0.  1.
</event>
<event>
 5    1  0.1147307E-008  0.3789247E+03  0.7957747E-01  0.3455854E+00
         13   -1    0    0    0    0  0.00000000000E+00  0.00000000000E+00  0.14999999963E+04  0.15000000000E+04  0.10566000000E+00 0. -1.
        994   -1    0    0    0    0 -0.00000000000E+00 -0.00000000000E+00  0.11368683772E-12  0.17120000000E+03  0.17120000000E+03 0.  0.
         13    1    1    2    0    0  0.24567451721E+02 -0.14895567305E+02  0.86539194410E+02  0.91183775655E+02  0.10566000000E+00 0. -1.
        994    1    1    2    0    0 -0.17283015732E+02  0.58930466582E+01  0.57963225344E+01  0.17226859257E+03  0.17120000000E+03 0.  0.
        998    1    1    2    0    0 -0.72844359891E+01  0.90025206467E+01  0.14076644793E+04  0.14077476318E+04  0.10000000000E+02 0. -1.
</event>
<event>
 5    1  0.1236817E-008  0.3860283E+03  0.7957747E-01  0.3425323E+00
         13   -1    0    0    0    0  0.00000000000E+00  0.00000000000E+00  0.14999999963E+04  0.15000000000E+04  0.10566000000E+00 0. -1.
        994   -1    0    0    0    0 -0.00000000000E+00 -0.00000000000E+00  0.11368683772E-12  0.17120000000E+03  0.17120000000E+03 0.  0.
         13    1    1    2    0    0  0.10464864683E+02 -0.56391677331E+01  0.68678063711E+02  0.69699363015E+02  0.10566000000E+00 0. -1.
        994    1    1    2    0    0 -0.55322973851E+01 -0.12436056333E+02  0.17279479733E+01  0.17174890863E+03  0.17120000000E+03 0.  0.
        998    1    1    2    0    0 -0.49325672984E+01  0.18075224066E+02  0.14295939846E+04  0.14297517284E+04  0.10000000000E+02 0. -1.
</event>
<event>
 5    1  0.1147307E-008  0.3811616E+03  0.7957747E-01  0.3446116E+00
         13   -1    0    0    0    0  0.00000000000E+00  0.00000000000E+00  0.14999999963E+04  0.15000000000E+04  0.10566000000E+00 0.  1.
        994   -1    0    0    0    0 -0.00000000000E+00 -0.00000000000E+00  0.11368683772E-12  0.17120000000E+03  0.17120000000E+03 0.  0.
         13    1    1    2    0    0  0.13917507819E+02  0.54705535204E+01  0.29860438596E+02  0.33395822148E+02  0.10566000000E+00 0.  1.
        994    1    1    2    0    0 -0.12687846069E+02 -0.37760998033E+01  0.41317196230E+01  0.17176073904E+03  0.17120000000E+03 0.  0.
        998    1    1    2    0    0 -0.12296617498E+01 -0.16944537170E+01  0.14660078381E+04  0.14660434388E+04  0.10000000000E+02 0.  1.
</event>
<event>
 5    1  0.1147307E-008  0.3783343E+03  0.7957747E-01  0.3458444E+00
         13   -1    0    0    0    0  0.00000000000E+00  0.00000000000E+00  0.14999999963E+04  0.15000000000E+04  0.10566000000E+00 0. -1.
        994   -1    0    0    0    0 -0.00000000000E+00 -0.00000000000E+00  0.11368683772E-12  0.17120000000E+03  0.17120000000E+03 0.  0.
         13    1    1    2    0    0 -0.70940011502E+01  0.79005454117E+01  0.94366438799E+01  0.14205804513E+02  0.10566000000E+00 0. -1.
        994    1    1    2    0    0 -0.12065877359E+02  0.12739377855E+01  0.54713269789E+01  0.17171657967E+03  0.17120000000E+03 0.  0.
        998    1    1    2    0    0  0.19159878509E+02 -0.91744831972E+01  0.14850920254E+04  0.14852776158E+04  0.10000000000E+02 0. -1.
</event>
<event>
 5    1  0.1147307E-008  0.3841636E+03  0.7957747E-01  0.3433227E+00
         13   -1    0    0    0    0  0.00000000000E+00  0.00000000000E+00  0.14999999963E+04  0.15000000000E+04  0.10566000000E+00 0.  1.
        994   -1    0    0    0    0 -0.00000000000E+00 -0.00000000000E+00  0.11368683772E-12  0.17120000000E+03  0.17120000000E+03 0.  0.
         13    1    1    2    0    0  0.13899133012E+03  0.18756559736E+03  0.11533654634E+04  0.11767545821E+04  0.10566000000E+00 0.  1.
        994    1    1    2    0    0 -0.13940989437E+03 -0.19029988195E+03  0.21448030020E+03  0.36188451596E+03  0.17120000000E+03 0.  0.
        998    1    1    2    0    0  0.41856425870E+00  0.27342845840E+01  0.13215423269E+03  0.13256090196E+03  0.10000000000E+02 0. -1.
</event>
<event>
 5    1  0.1147307E-008  0.3817080E+03  0.7957747E-01  0.3443755E+00
         13   -1    0    0    0    0  0.00000000000E+00  0.00000000000E+00  0.14999999963E+04  0.15000000000E+04  0.10566000000E+00 0.  1.
        994   -1    0    0    0    0 -0.00000000000E+00 -0.00000000000E+00  0.11368683772E-12  0.17120000000E+03  0.17120000000E+03 0.  0.
         13    1    1    2    0    0 -0.16814716540E+02  0.21809743811E+02  0.12488738268E+03  0.12788772081E+03  0.10566000000E+00 0.  1.
        994    1    1    2    0    0 -0.87090161899E+01 -0.11502854315E+02  0.39657021775E+01  0.17185263866E+03  0.17120000000E+03 0.  0.
        998    1    1    2    0    0  0.25523732730E+02 -0.10306889497E+02  0.13711469114E+04  0.13714596405E+04  0.10000000000E+02 0.  1.
</event>
<event>
 5    1  0.1147307E-008  0.3695533E+03  0.7957747E-01  0.3497947E+00
         13   -1    0    0    0    0  0.00000000000E+00  0.00000000000E+00  0.14999999963E+04  0.15000000000E+04  0.10566000000E+00 0.  1.
        994   -1    0    0    0    0 -0.00000000000E+00 -0.00000000000E+00  0.11368683772E-12  0.17120000000E+03  0.17120000000E+03 0.  0.
         13    1    1    2    0    0 -0.24556293746E+02  0.21202623980E+01  0.27749782264E+02  0.37115612010E+02  0.10566000000E+00 0.  1.
        994    1    1    2    0    0  0.21372351075E+02 -0.24246272745E+01  0.11106558902E+02  0.17290301287E+03  0.17120000000E+03 0.  0.
        998    1    1    2    0    0  0.31839426712E+01  0.30436487652E+00  0.14611436551E+04  0.14611813751E+04  0.10000000000E+02 0.  1.
</event>
<event>
 5    1  0.1147307E-008  0.3852803E+03  0.7957747E-01  0.3428484E+00
         13   -1    0    0    0    0  0.00000000000E+00  0.00000000000E+00  0.14999999963E+04  0.15000000000E+04  0.10566000000E+00 0. -1.
        994   -1    0    0    0    0 -0.00000000000E+00 -0.00000000000E+00  0.11368683772E-12  0.17120000000E+03  0.17120000000E+03 0.  0.
         13    1    1    2    0    0  0.10235295917E+02 -0.26051609388E+01  0.36585571393E+02  0.38079697271E+02  0.10566000000E+00 0. -1.
        994    1    1    2    0    0 -0.10921700355E+02  0.34584717965E+01  0.19223920139E+01  0.17159364836E+03  0.17120000000E+03 0.  0.
        998    1    1    2    0    0  0.68640443793E+00 -0.85331085774E+00  0.14614920329E+04  0.14615266544E+04  0.10000000000E+02 0. -1.
</event>
<event>
 5    1  0.1147307E-008  0.3848049E+03  0.7957747E-01  0.3430500E+00
         13   -1    0    0    0    0  0.00000000000E+00  0.00000000000E+00  0.14999999963E+04  0.15000000000E+04  0.10566000000E+00 0.  1.
        994   -1    0    0    0    0 -0.00000000000E+00 -0.00000000000E+00  0.11368683772E-12  0.17120000000E+03  0.17120000000E+03 0.  0.
         13    1    1    2    0    0 -0.64971332282E+01 -0.13060511574E+02  0.60685331096E+02  0.62414023080E+02  0.10566000000E+00 0.  1.
        994    1    1    2    0    0  0.95918509223E+01  0.85379973368E+01  0.22698624664E+01  0.17169593262E+03  0.17120000000E+03 0.  0.
        998    1    1    2    0    0 -0.30947176941E+01  0.45225142370E+01  0.14370448027E+04  0.14370900443E+04  0.10000000000E+02 0.  1.
</event>
<event>
 5    1  0.1147307E-008  0.3723989E+03  0.7957747E-01  0.3484938E+00
         13   -1    0    0    0    0  0.00000000000E+00  0.00000000000E+00  0.14999999963E+04  0.15000000000E+04  0.10566000000E+00 0. -1.
        994   -1    0    0    0    0 -0.00000000000E+00 -0.00000000000E+00  0.11368683772E-12  0.17120000000E+03  0.17120000000E+03 0.  0.
         13    1    1    2    0    0  0.28174543743E+02 -0.11571155868E+03  0.53599413905E+03  0.54906529483E+03  0.10566000000E+00 0. -1.
        994    1    1    2    0    0 -0.39432424751E+02  0.11481532963E+03  0.60384896753E+02  0.21838784718E+03  0.17120000000E+03 0.  0.
        998    1    1    2    0    0  0.11257881008E+02  0.89622905117E+00  0.90362096048E+03  0.90374685799E+03  0.10000000000E+02 0. -1.
</event>
<event>
 5    1  0.1147307E-008  0.3806809E+03  0.7957747E-01  0.3448199E+00
         13   -1    0    0    0    0  0.00000000000E+00  0.00000000000E+00  0.14999999963E+04  0.15000000000E+04  0.10566000000E+00 0. -1.
        994   -1    0    0    0    0 -0.00000000000E+00 -0.00000000000E+00  0.11368683772E-12  0.17120000000E+03  0.17120000000E+03 0.  0.
         13    1    1    2    0    0  0.13917330703E+02 -0.21669971632E+02  0.12704194678E+02  0.28717372631E+02  0.10566000000E+00 0. -1.
        994    1    1    2    0    0 -0.66878960799E+01  0.20686514413E+02  0.18420560046E+02  0.17355522713E+03  0.17120000000E+03 0.  0.
        998    1    1    2    0    0 -0.72294346228E+01  0.98345721900E+00  0.14688752416E+04  0.14689274002E+04  0.10000000000E+02 0. -1.
</event>
<event>
 5    1  0.1147307E-008  0.3857602E+03  0.7957747E-01  0.3426454E+00
         13   -1    0    0    0    0  0.00000000000E+00  0.00000000000E+00  0.14999999963E+04  0.15000000000E+04  0.10566000000E+00 0. -1.
        994   -1    0    0    0    0 -0.00000000000E+00 -0.00000000000E+00  0.11368683772E-12  0.17120000000E+03  0.17120000000E+03 0.  0.
         13    1    1    2    0    0 -0.99934601079E+01 -0.35110553565E+01  0.43042125311E+02  0.44326430828E+02  0.10566000000E+00 0. -1.
        994    1    1    2    0    0  0.16679159336E+02 -0.15888264713E+01  0.21746190398E+01  0.17203164736E+03  0.17120000000E+03 0.  0.
        998    1    1    2    0    0 -0.66856992278E+01  0.50998818279E+01  0.14547832519E+04  0.14548419218E+04  0.10000000000E+02 0. -1.
</event>
<event>
 5    1  0.1147307E-008  0.3839929E+03  0.7957747E-01  0.3433955E+00
         13   -1    0    0    0    0  0.00000000000E+00  0.00000000000E+00  0.14999999963E+04  0.15000000000E+04  0.10566000000E+00 0. -1.
        994   -1    0    0    0    0 -0.00000000000E+00 -0.00000000000E+00  0.11368683772E-12  0.17120000000E+03  0.17120000000E+03 0.  0.
         13    1    1    2    0    0 -0.14038693443E+02 -0.58946870044E+01  0.51995696297E+02  0.54179293517E+02  0.10566000000E+00 0. -1.
        994    1    1    2    0    0  0.19179543727E+02 -0.68055166879E+00  0.33471634809E+01  0.17230485063E+03  0.17120000000E+03 0.  0.
        998    1    1    2    0    0 -0.51408502841E+01  0.65752386732E+01  0.14446571365E+04  0.14447158559E+04  0.10000000000E+02 0. -1.
</event>
<event>
 5    1  0.1147307E-008  0.3837149E+03  0.7957747E-01  0.3435141E+00
         13   -1    0    0    0    0  0.00000000000E+00  0.00000000000E+00  0.14999999963E+04  0.15000000000E+04  0.10566000000E+00 0.  1.
        994   -1    0    0    0    0 -0.00000000000E+00 -0.00000000000E+00  0.11368683772E-12  0.17120000000E+03  0.17120000000E+03 0.  0.
         13    1    1    2    0    0  0.49702672801E+01  0.13512380352E+02  0.44611873474E+02  0.46877696173E+02  0.10566000000E+00 0.  1.
        994    1    1    2    0    0 -0.75242005399E+01 -0.99210462453E+01  0.27816699815E+01  0.17167474608E+03  0.17120000000E+03 0.  0.
        998    1    1    2    0    0  0.25539332598E+01 -0.35913341070E+01  0.14526064528E+04  0.14526475578E+04  0.10000000000E+02 0.  1.
</event>
<event>
 5    1  0.1147307E-008  0.3732759E+03  0.7957747E-01  0.3480969E+00
         13   -1    0    0    0    0  0.00000000000E+00  0.00000000000E+00  0.14999999963E+04  0.15000000000E+04  0.10566000000E+00 0. -1.
        994   -1    0    0    0    0 -0.00000000000E+00 -0.00000000000E+00  0.11368683772E-12  0.17120000000E+03  0.17120000000E+03 0.  0.
         13    1    1    2    0    0 -0.73039566719E+02  0.14783370729E+02  0.18849310739E+03  0.20268939058E+03  0.10566000000E+00 0. -1.
        994    1    1    2    0    0  0.68032424243E+02 -0.39040768137E+02  0.34772892973E+02  0.19149722298E+03  0.17120000000E+03 0.  0.
        998    1    1    2    0    0  0.50071424755E+01  0.24257397408E+02  0.12767339959E+04  0.12770133864E+04  0.10000000000E+02 0. -1.
</event>
<event>
 5    1  0.1147307E-008  0.3818519E+03  0.7957747E-01  0.3443134E+00
         13   -1    0    0    0    0  0.00000000000E+00  0.00000000000E+00  0.14999999963E+04  0.15000000000E+04  0.10566000000E+00 0.  1.
        994   -1    0    0    0    0 -0.00000000000E+00 -0.00000000000E+00  0.11368683772E-12  0.17120000000E+03  0.17120000000E+03 0.  0.
         13    1    1    2    0    0  0.17567018835E+02  0.84726410067E+01  0.56783781992E+02  0.60039943852E+02  0.10566000000E+00 0.  1.
        994    1    1    2    0    0 -0.20710795958E+02 -0.31406338213E+00  0.46280463304E+01  0.17251056350E+03  0.17120000000E+03 0.  0.
        998    1    1    2    0    0  0.31437771232E+01 -0.81585776246E+01  0.14385881680E+04  0.14386494927E+04  0.10000000000E+02 0.  1.
</event>
<event>
 5    1  0.1147307E-008  0.3834757E+03  0.7957747E-01  0.3436163E+00
         13   -1    0    0    0    0  0.00000000000E+00  0.00000000000E+00  0.14999999963E+04  0.15000000000E+04  0.10566000000E+00 0.  1.
        994   -1    0    0    0    0 -0.00000000000E+00 -0.00000000000E+00  0.11368683772E-12  0.17120000000E+03  0.17120000000E+03 0.  0.
         13    1    1    2    0    0  0.13070323086E+02 -0.25779787620E+02  0.16102112189E+03  0.16359475436E+03  0.10566000000E+00 0.  1.
        994    1    1    2    0    0 -0.20447500542E+02  0.19689824600E+02  0.50564632570E+01  0.17361105176E+03  0.17120000000E+03 0.  0.
        998    1    1    2    0    0  0.73771774556E+01  0.60899630205E+01  0.13339224111E+04  0.13339941939E+04  0.10000000000E+02 0.  1.
</event>
<event>
 5    1  0.1147307E-008  0.3816716E+03  0.7957747E-01  0.3443912E+00
         13   -1    0    0    0    0  0.00000000000E+00  0.00000000000E+00  0.14999999963E+04  0.15000000000E+04  0.10566000000E+00 0. -1.
        994   -1    0    0    0    0 -0.00000000000E+00 -0.00000000000E+00  0.11368683772E-12  0.17120000000E+03  0.17120000000E+03 0.  0.
         13    1    1    2    0    0  0.18591248344E+02  0.18478303896E+02  0.10642918183E+03  0.10960959875E+03  0.10566000000E+00 0. -1.
        994    1    1    2    0    0 -0.44404334272E+01 -0.11042509623E+02  0.37627737948E+01  0.17165445795E+03  0.17120000000E+03 0.  0.
        998    1    1    2    0    0 -0.14150814917E+02 -0.74357942729E+01  0.13898080407E+04  0.13899359433E+04  0.10000000000E+02 0. -1.
</event>
<event>
 5    1  0.1147307E-008  0.3795318E+03  0.7957747E-01  0.3453200E+00
         13   -1    0    0    0    0  0.00000000000E+00  0.00000000000E+00  0.14999999963E+04  0.15000000000E+04  0.10566000000E+00 0.  1.
        994   -1    0    0    0    0 -0.00000000000E+00 -0.00000000000E+00  0.11368683772E-12  0.17120000000E+03  0.17120000000E+03 0.  0.
         13    1    1    2    0    0  0.50001532208E+01  0.16263246844E+02  0.30683963350E+02  0.35085773485E+02  0.10566000000E+00 0.  1.
        994    1    1    2    0    0 -0.10435985201E+02 -0.16617730020E+02  0.56599481225E+01  0.17241384443E+03  0.17120000000E+03 0.  0.
        998    1    1    2    0    0  0.54358319801E+01  0.35448317578E+00  0.14636560848E+04  0.14637003821E+04  0.10000000000E+02 0.  1.
</event>
<event>
 5    1  0.1147307E-008  0.3725441E+03  0.7957747E-01  0.3484280E+00
         13   -1    0    0    0    0  0.00000000000E+00  0.00000000000E+00  0.14999999963E+04  0.15000000000E+04  0.10566000000E+00 0. -1.
        994   -1    0    0    0    0 -0.00000000000E+00 -0.00000000000E+00  0.11368683772E-12  0.17120000000E+03  0.17120000000E+03 0.  0.
         13    1    1    2    0    0 -0.34383772898E+01 -0.33570338523E+02  0.70084633686E+02  0.77785969878E+02  0.10566000000E+00 0. -1.
        994    1    1    2    0    0 -0.15052651852E+01  0.16082794309E+02  0.88401347790E+01  0.17218742718E+03  0.17120000000E+03 0.  0.
        998    1    1    2    0    0  0.49436424750E+01  0.17487544214E+02  0.14210752278E+04  0.14212266029E+04  0.10000000000E+02 0. -1.
</event>
<event>
 5    1  0.1147307E-008  0.3739400E+03  0.7957747E-01  0.3477977E+00
         13   -1    0    0    0    0  0.00000000000E+00  0.00000000000E+00  0.14999999963E+04  0.15000000000E+04  0.10566000000E+00 0.  1.
        994   -1    0    0    0    0 -0.00000000000E+00 -0.00000000000E+00  0.11368683772E-12  0.17120000000E+03  0.17120000000E+03 0.  0.
         13    1    1    2    0    0 -0.25631577289E+02 -0.10365000919E+01  0.41331054971E+02  0.48644828664E+02  0.10566000000E+00 0.  1.
        994    1    1    2    0    0  0.28344915479E+02 -0.25793839170E+01  0.99925560326E+01  0.17383721877E+03  0.17120000000E+03 0.  0.
        998    1    1    2    0    0 -0.27133381902E+01  0.36158840089E+01  0.14486763853E+04  0.14487179526E+04  0.10000000000E+02 0.  1.
</event>
<event>
 5    1  0.1147307E-008  0.3710185E+03  0.7957747E-01  0.3491223E+00
         13   -1    0    0    0    0  0.00000000000E+00  0.00000000000E+00  0.14999999963E+04  0.15000000000E+04  0.10566000000E+00 0. -1.
        994   -1    0    0    0    0 -0.00000000000E+00 -0.00000000000E+00  0.11368683772E-12  0.17120000000E+03  0.17120000000E+03 0.  0.
         13    1    1    2    0    0 -0.43261836448E+02 -0.36654090500E+02  0.14095262547E+03  0.15193012419E+03  0.10566000000E+00 0. -1.
        994    1    1    2    0    0  0.31102713407E+02  0.46614556956E+01  0.14956530635E+02  0.17470616978E+03  0.17120000000E+03 0.  0.
        998    1    1    2    0    0  0.12159123041E+02  0.31992634804E+02  0.13440908402E+04  0.13445637060E+04  0.10000000000E+02 0. -1.
</event>
<event>
 5    1  0.1147307E-008  0.3842398E+03  0.7957747E-01  0.3432903E+00
         13   -1    0    0    0    0  0.00000000000E+00  0.00000000000E+00  0.14999999963E+04  0.15000000000E+04  0.10566000000E+00 0.  1.
        994   -1    0    0    0    0 -0.00000000000E+00 -0.00000000000E+00  0.11368683772E-12  0.17120000000E+03  0.17120000000E+03 0.  0.
         13    1    1    2    0    0  0.25207556157E+02  0.14888692788E+01  0.14491363059E+03  0.14709727773E+03  0.10566000000E+00 0.  1.
        994    1    1    2    0    0 -0.25578352945E+02 -0.41017289003E+01  0.42235655011E+01  0.17320033148E+03  0.17120000000E+03 0.  0.
        998    1    1    2    0    0  0.37079678746E+00  0.26128596214E+01  0.13508628002E+04  0.13509023908E+04  0.10000000000E+02 0.  1.
</event>
<event>
 5    1  0.1147307E-008  0.3839942E+03  0.7957747E-01  0.3433949E+00
         13   -1    0    0    0    0  0.00000000000E+00  0.00000000000E+00  0.14999999963E+04  0.15000000000E+04  0.10566000000E+00 0. -1.
        994   -1    0    0    0    0 -0.00000000000E+00 -0.00000000000E+00  0.11368683772E-12  0.17120000000E+03  0.17120000000E+03 0.  0.
         13    1    1    2    0    0  0.86812342991E+01 -0.12457543714E+02  0.58104636032E+02  0.60055924910E+02  0.10566000000E+00 0. -1.
        994    1    1    2    0    0  0.13758600107E+02  0.39239476490E+01  0.28059664190E+01  0.17181970169E+03  0.17120000000E+03 0.  0.
        998    1    1    2    0    0 -0.22439834406E+02  0.85335960649E+01  0.14390893938E+04  0.14393243734E+04  0.10000000000E+02 0. -1.
</event>
<event>
 5    1  0.1147307E-008  0.3789698E+03  0.7957747E-01  0.3455657E+00
         13   -1    0    0    0    0  0.00000000000E+00  0.00000000000E+00  0.14999999963E+04  0.15000000000E+04  0.10566000000E+00 0. -1.
        994   -1    0    0    0    0 -0.00000000000E+00 -0.00000000000E+00  0.11368683772E-12  0.17120000000E+03  0.17120000000E+03 0.  0.
         13    1    1    2    0    0 -0.21734199343E+02 -0.20378514005E+01  0.61621538355E+02  0.65373950567E+02  0.10566000000E+00 0. -1.
        994    1    1    2    0    0 -0.40292403832E+02 -0.10450247046E+02  0.10488161155E+02  0.17649965154E+03  0.17120000000E+03 0.  0.
        998    1    1    2    0    0  0.62026603176E+02  0.12488098446E+02  0.14278902968E+04  0.14293263979E+04  0.10000000000E+02 0. -1.
</event>
<event>
 5    1  0.1147307E-008  0.3892535E+03  0.7957747E-01  0.3411830E+00
         13   -1    0    0    0    0  0.00000000000E+00  0.00000000000E+00  0.14999999963E+04  0.15000000000E+04  0.10566000000E+00 0.  1.
        994   -1    0    0    0    0 -0.00000000000E+00 -0.00000000000E+00  0.11368683772E-12  0.17120000000E+03  0.17120000000E+03 0.  0.
         13    1    1    2    0    0  0.38543749134E+02  0.16322292309E+02  0.31304625079E+02  0.52268810383E+02  0.10566000000E+00 0.  1.
        994    1    1    2    0    0 -0.43760775756E+02 -0.16669485850E+02  0.29777999837E+02  0.17996957112E+03  0.17120000000E+03 0.  0.
        998    1    1    2    0    0  0.52170266227E+01  0.34719354115E+00  0.14389173714E+04  0.14389616185E+04  0.10000000000E+02 0.  1.
</event>
<event>
 5    1  0.1147307E-008  0.3716185E+03  0.7957747E-01  0.3488485E+00
         13   -1    0    0    0    0  0.00000000000E+00  0.00000000000E+00  0.14999999963E+04  0.15000000000E+04  0.10566000000E+00 0. -1.
        994   -1    0    0    0    0 -0.00000000000E+00 -0.00000000000E+00  0.11368683772E-12  0.17120000000E+03  0.17120000000E+03 0.  0.
         13    1    1    2    0    0 -0.10952069490E+02 -0.78545822430E+01  0.56459523049E+01  0.14612673601E+02  0.10566000000E+00 0. -1.
        994    1    1    2    0    0  0.42284720476E+02  0.75559771974E+02  0.34663218312E+02  0.19495706048E+03  0.17120000000E+03 0.  0.
        998    1    1    2    0    0 -0.31332650986E+02 -0.67705189731E+02  0.14596908257E+04  0.14616302659E+04  0.10000000000E+02 0. -1.
</event>
<event>
 5    1  0.1147307E-008  0.3835443E+03  0.7957747E-01  0.3435870E+00
         13   -1    0    0    0    0  0.00000000000E+00  0.00000000000E+00  0.14999999963E+04  0.15000000000E+04  0.10566000000E+00 0. -1.
        994   -1    0    0    0    0 -0.00000000000E+00 -0.00000000000E+00  0.11368683772E-12  0.17120000000E+03  0.17120000000E+03 0.  0.
         13    1    1    2    0    0 -0.11145839156E+02  0.13794898961E+01  0.25862167791E+02  0.28195666507E+02  0.10566000000E+00 0. -1.
        994    1    1    2    0    0  0.10322724057E+02  0.65070199593E+01  0.28467722893E+01  0.17165792744E+03  0.17120000000E+03 0.  0.
        998    1    1    2    0    0  0.82311509916E+00 -0.78865098554E+01  0.14712910562E+04  0.14713464061E+04  0.10000000000E+02 0. -1.
</event>
<event>
 5    1  0.1147307E-008  0.3757550E+03  0.7957747E-01  0.3469853E+00
         13   -1    0    0    0    0  0.00000000000E+00  0.00000000000E+00  0.14999999963E+04  0.15000000000E+04  0.10566000000E+00 0. -1.
        994   -1    0    0    0    0 -0.00000000000E+00 -0.00000000000E+00  0.11368683772E-12  0.17120000000E+03  0.17120000000E+03 0.  0.
         13    1    1    2    0    0 -0.46587585730E+02 -0.14470876902E+02  0.23170853573E+03  0.23678823053E+03  0.10566000000E+00 0. -1.
        994    1    1    2    0    0 -0.70960985491E+01  0.13984637681E+02  0.71257995943E+01  0.17206435344E+03  0.17120000000E+03 0.  0.
        998    1    1    2    0    0  0.53683684279E+02  0.48623922177E+00  0.12611656609E+04  0.12623474160E+04  0.10000000000E+02 0.  1.
</event>
<event>
 5    1  0.1147307E-008  0.3740199E+03  0.7957747E-01  0.3477618E+00
         13   -1    0    0    0    0  0.00000000000E+00  0.00000000000E+00  0.14999999963E+04  0.15000000000E+04  0.10566000000E+00 0. -1.
        994   -1    0    0    0    0 -0.00000000000E+00 -0.00000000000E+00  0.11368683772E-12  0.17120000000E+03  0.17120000000E+03 0.  0.
         13    1    1    2    0    0  0.14643638628E+02 -0.30690863067E+02  0.79930062768E+02  0.86863060770E+02  0.10566000000E+00 0. -1.
        994    1    1    2    0    0 -0.14974578777E+01  0.15232729157E+02  0.79823086528E+01  0.17206811346E+03  0.17120000000E+03 0.  0.
        998    1    1    2    0    0 -0.13146180750E+02  0.15458133910E+02  0.14120876249E+04  0.14122688258E+04  0.10000000000E+02 0. -1.
</event>
<event>
 5    1  0.1147307E-008  0.3939204E+03  0.7957747E-01  0.3392699E+00
         13   -1    0    0    0    0  0.00000000000E+00  0.00000000000E+00  0.14999999963E+04  0.15000000000E+04  0.10566000000E+00 0. -1.
        994   -1    0    0    0    0 -0.00000000000E+00 -0.00000000000E+00  0.11368683772E-12  0.17120000000E+03  0.17120000000E+03 0.  0.
         13    1    1    2    0    0  0.34720835167E+02  0.58341785447E+01  0.19592798911E+02  0.40292219685E+02  0.10566000000E+00 0. -1.
        994    1    1    2    0    0  0.61797065567E+02  0.80156305626E+02  0.64501673899E+02  0.20907849382E+03  0.17120000000E+03 0.  0.
        998    1    1    2    0    0 -0.96517900734E+02 -0.85990484171E+02  0.14159055235E+04  0.14218292865E+04  0.10000000000E+02 0. -1.
</event>
<event>
 5    1  0.1147307E-008  0.3841714E+03  0.7957747E-01  0.3433194E+00
         13   -1    0    0    0    0  0.00000000000E+00  0.00000000000E+00  0.14999999963E+04  0.15000000000E+04  0.10566000000E+00 0.  1.
        994   -1    0    0    0    0 -0.00000000000E+00 -0.00000000000E+00  0.11368683772E-12  0.17120000000E+03  0.17120000000E+03 0.  0.
         13    1    1    2    0    0 -0.14289079250E+02 -0.66175440147E+01  0.58940070406E+02  0.61007481001E+02  0.10566000000E+00 0.  1.
        994    1    1    2    0    0  0.15373097061E+02  0.17558941059E+01  0.28319271047E+01  0.17192113043E+03  0.17120000000E+03 0.  0.
        998    1    1    2    0    0 -0.10840178111E+01  0.48616499088E+01  0.14382279988E+04  0.14382713886E+04  0.10000000000E+02 0.  1.
</event>
<event>
 5    1  0.1147307E-008  0.3685274E+03  0.7957747E-01  0.3502686E+00
         13   -1    0    0    0    0  0.00000000000E+00  0.00000000000E+00  0.14999999963E+04  0.15000000000E+04  0.10566000000E+00 0. -1.
        994   -1    0    0    0    0 -0.00000000000E+00 -0.00000000000E+00  0.11368683772E-12  0.17120000000E+03  0.17120000000E+03 0.  0.
         13    1    1    2    0    0 -0.19887514314E+02 -0.33749405037E+01  0.15658772517E+02  0.25536479197E+02  0.10566000000E+00 0. -1.
        994    1    1    2    0    0  0.20755313373E+02  0.64850007846E+01  0.11685818016E+02  0.17297062355E+03  0.17120000000E+03 0.  0.
        998    1    1    2    0    0 -0.86779905920E+00 -0.31100602809E+01  0.14726554057E+04  0.14726928973E+04  0.10000000000E+02 0. -1.
</event>
<event>
 5    1  0.1147307E-008  0.3810288E+03  0.7957747E-01  0.3446691E+00
         13   -1    0    0    0    0  0.00000000000E+00  0.00000000000E+00  0.14999999963E+04  0.15000000000E+04  0.10566000000E+00 0. -1.
        994   -1    0    0    0    0 -0.00000000000E+00 -0.00000000000E+00  0.11368683772E-12  0.17120000000E+03  0.17120000000E+03 0.  0.
         13    1    1    2    0    0  0.76697743472E-01  0.10690459872E+02  0.14313101399E+02  0.17865269394E+02  0.10566000000E+00 0. -1.
        994    1    1    2    0    0 -0.65953170173E+01 -0.65445160137E+01  0.39023932545E+01  0.17149634856E+03  0.17120000000E+03 0.  0.
        998    1    1    2    0    0  0.65186192738E+01 -0.41459438583E+01  0.14817845016E+04  0.14818383820E+04  0.10000000000E+02 0. -1.
</event>
<event>
 5    1  0.1147307E-008  0.4010947E+03  0.7957747E-01  0.3364155E+00
         13   -1    0    0    0    0  0.00000000000E+00  0.00000000000E+00  0.14999999963E+04  0.15000000000E+04  0.10566000000E+00 0.  1.
        994   -1    0    0    0    0 -0.00000000000E+00 -0.00000000000E+00  0.11368683772E-12  0.17120000000E+03  0.17120000000E+03 0.  0.
         13    1    1    2    0    0 -0.58627372805E+02  0.85526271848E+02  0.17000478924E+03  0.19913199529E+03  0.10566000000E+00 0.  1.
        994    1    1    2    0    0  0.63975636068E+02 -0.62443258741E+02  0.60610952127E+02  0.20242324494E+03  0.17120000000E+03 0.  0.
        998    1    1    2    0    0 -0.53482632629E+01 -0.23083013107E+02  0.12693842549E+04  0.12696447598E+04  0.10000000000E+02 0.  1.
</event>
<event>
 5    1  0.1147307E-008  0.3828383E+03  0.7957747E-01  0.3438892E+00
         13   -1    0    0    0    0  0.00000000000E+00  0.00000000000E+00  0.14999999963E+04  0.15000000000E+04  0.10566000000E+00 0. -1.
        994   -1    0    0    0    0 -0.00000000000E+00 -0.00000000000E+00  0.11368683772E-12  0.17120000000E+03  0.17120000000E+03 0.  0.
         13    1    1    2    0    0 -0.16346270591E+02  0.12223600980E+02  0.76781857976E+02  0.79448611451E+02  0.10566000000E+00 0. -1.
        994    1    1    2    0    0  0.10457248910E+02 -0.51359325613E+01  0.31568476108E+01  0.17162499103E+03  0.17120000000E+03 0.  0.
        998    1    1    2    0    0  0.58890216809E+01 -0.70876684182E+01  0.14200612907E+04  0.14201263975E+04  0.10000000000E+02 0. -1.
</event>
<event>
 5    1  0.1147307E-008  0.3810460E+03  0.7957747E-01  0.3446616E+00
         13   -1    0    0    0    0  0.00000000000E+00  0.00000000000E+00  0.14999999963E+04  0.15000000000E+04  0.10566000000E+00 0. -1.
        994   -1    0    0    0    0 -0.00000000000E+00 -0.00000000000E+00  0.11368683772E-12  0.17120000000E+03  0.17120000000E+03 0.  0.
         13    1    1    2    0    0 -0.31879438644E+02 -0.68305630111E+01  0.13358442149E+03  0.13750550545E+03  0.10566000000E+00 0. -1.
        994    1    1    2    0    0  0.31630373998E+02  0.13851292687E+02  0.75883997975E+01  0.17481236421E+03  0.17120000000E+03 0.  0.
        998    1    1    2    0    0  0.24906464551E+00 -0.70207296763E+01  0.13588271750E+04  0.13588821303E+04  0.10000000000E+02 0. -1.
</event>
<event>
 5    1  0.1147307E-008  0.3835824E+03  0.7957747E-01  0.3435707E+00
         13   -1    0    0    0    0  0.00000000000E+00  0.00000000000E+00  0.14999999963E+04  0.15000000000E+04  0.10566000000E+00 0.  1.
        994   -1    0    0    0    0 -0.00000000000E+00 -0.00000000000E+00  0.11368683772E-12  0.17120000000E+03  0.17120000000E+03 0.  0.
         13    1    1    2    0    0 -0.33596259563E+00  0.20724838543E+02  0.86631820399E+02  0.89077018772E+02  0.10566000000E+00 0.  1.
        994    1    1    2    0    0  0.64454579523E+01 -0.21770032301E+02  0.40404847677E+01  0.17274618303E+03  0.17120000000E+03 0.  0.
        998    1    1    2    0    0 -0.61094953567E+01  0.10451937586E+01  0.14093276911E+04  0.14093767982E+04  0.10000000000E+02 0.  1.
</event>
<event>
 5    1  0.1147307E-008  0.3763975E+03  0.7957747E-01  0.3466996E+00
         13   -1    0    0    0    0  0.00000000000E+00  0.00000000000E+00  0.14999999963E+04  0.15000000000E+04  0.10566000000E+00 0. -1.
        994   -1    0    0    0    0 -0.00000000000E+00 -0.00000000000E+00  0.11368683772E-12  0.17120000000E+03  0.17120000000E+03 0.  0.
         13    1    1    2    0    0  0.37195499292E+01  0.50763776380E+02  0.21154556222E+03  0.21758293155E+03  0.10566000000E+00 0. -1.
        994    1    1    2    0    0 -0.27311820960E+00 -0.32107268980E+02  0.94587218666E+01  0.17444156252E+03  0.17120000000E+03 0.  0.
        998    1    1    2    0    0 -0.34464317196E+01 -0.18656507400E+02  0.12789957122E+04  0.12791755059E+04  0.10000000000E+02 0. -1.
</event>
<event>
 5    1  0.1147307E-008  0.3774147E+03  0.7957747E-01  0.3462493E+00
         13   -1    0    0    0    0  0.00000000000E+00  0.00000000000E+00  0.14999999963E+04  0.15000000000E+04  0.10566000000E+00 0.  1.
        994   -1    0    0    0    0 -0.00000000000E+00 -0.00000000000E+00  0.11368683772E-12  0.17120000000E+03  0.17120000000E+03 0.  0.
         13    1    1    2    0    0 -0.61514564978E+02  0.19108624961E+03  0.82133026826E+03  0.84550660389E+03  0.10566000000E+00 0.  1.
        994    1    1    2    0    0  0.84784396676E+02 -0.20675516340E+03  0.19814929226E+03  0.34425088749E+03  0.17120000000E+03 0.  0.
        998    1    1    2    0    0 -0.23269831698E+02  0.15668913794E+02  0.48052043576E+03  0.48144250862E+03  0.10000000000E+02 0. -1.
</event>
<event>
 5    1  0.1147307E-008  0.3848860E+03  0.7957747E-01  0.3430156E+00
         13   -1    0    0    0    0  0.00000000000E+00  0.00000000000E+00  0.14999999963E+04  0.15000000000E+04  0.10566000000E+00 0.  1.
        994   -1    0    0    0    0 -0.00000000000E+00 -0.00000000000E+00  0.11368683772E-12  0.17120000000E+03  0.17120000000E+03 0.  0.
         13    1    1    2    0    0 -0.28081832971E+01 -0.15897196798E+02  0.81424028574E+02  0.83008977543E+02  0.10566000000E+00 0.  1.
        994    1    1    2    0    0 -0.79601947842E+01  0.45369397451E+01  0.19629525207E+01  0.17145623846E+03  0.17120000000E+03 0.  0.
        998    1    1    2    0    0  0.10768378081E+02  0.11360257053E+02  0.14166130152E+04  0.14167347840E+04  0.10000000000E+02 0.  1.
</event>
<event>
 5    1  0.1147307E-008  0.3834845E+03  0.7957747E-01  0.3436125E+00
         13   -1    0    0    0    0  0.00000000000E+00  0.00000000000E+00  0.14999999963E+04  0.15000000000E+04  0.10566000000E+00 0.  1.
        994   -1    0    0    0    0 -0.00000000000E+00 -0.00000000000E+00  0.11368683772E-12  0.17120000000E+03  0.17120000000E+03 0.  0.
         13    1    1    2    0    0 -0.10972567019E+02 -0.66275851644E+01  0.39125248486E+02  0.41171814938E+02  0.10566000000E+00 0.  1.
        994    1    1    2    0    0 -0.37746408511E+02  0.13469937984E+02  0.77110304444E+01  0.17599753003E+03  0.17120000000E+03 0.  0.
        998    1    1    2    0    0  0.48718975530E+02 -0.68423528194E+01  0.14531637173E+04  0.14540306550E+04  0.10000000000E+02 0.  1.
</event>
<event>
 5    1  0.1147307E-008  0.3028462E+03  0.7957747E-01  0.3875907E+00
         13   -1    0    0    0    0  0.00000000000E+00  0.00000000000E+00  0.14999999963E+04  0.15000000000E+04  0.10566000000E+00 0.  1.
        994   -1    0    0    0    0 -0.00000000000E+00 -0.00000000000E+00  0.11368683772E-12  0.17120000000E+03  0.17120000000E+03 0.  0.
         13    1    1    2    0    0  0.10157938519E+03  0.13401954496E+03  0.10138439999E+04  0.10276961016E+04  0.10566000000E+00 0.  1.
        994    1    1    2    0    0 -0.18481566115E+01 -0.17563192568E+02  0.47244382462E+02  0.17847507694E+03  0.17120000000E+03 0.  0.
        998    1    1    2    0    0 -0.99731228575E+02 -0.11645635239E+03  0.43891161394E+03  0.46502882149E+03  0.10000000000E+02 0. -1.
</event>
<event>
 5    1  0.1147307E-008  0.3896982E+03  0.7957747E-01  0.3409988E+00
         13   -1    0    0    0    0  0.00000000000E+00  0.00000000000E+00  0.14999999963E+04  0.15000000000E+04  0.10566000000E+00 0.  1.
        994   -1    0    0    0    0 -0.00000000000E+00 -0.00000000000E+00  0.11368683772E-12  0.17120000000E+03  0.17120000000E+03 0.  0.
         13    1    1    2    0    0 -0.86807910302E+02  0.94387878906E+02  0.48049038479E+03  0.49730846164E+03  0.10566000000E+00 0.  1.
        994    1    1    2    0    0  0.35348223187E+02 -0.19608024604E+02  0.27924729128E+02  0.17811008396E+03  0.17120000000E+03 0.  0.
        998    1    1    2    0    0  0.51459687115E+02 -0.74779854302E+02  0.99158488236E+03  0.99578145440E+03  0.10000000000E+02 0.  1.
</event>
<event>
 5    1  0.1147307E-008  0.3771618E+03  0.7957747E-01  0.3463610E+00
         13   -1    0    0    0    0  0.00000000000E+00  0.00000000000E+00  0.14999999963E+04  0.15000000000E+04  0.10566000000E+00 0.  1.
        994   -1    0    0    0    0 -0.00000000000E+00 -0.00000000000E+00  0.11368683772E-12  0.17120000000E+03  0.17120000000E+03 0.  0.
         13    1    1    2    0    0 -0.29641252754E+02  0.84852609490E+00  0.71876053354E+02  0.77752826773E+02  0.10566000000E+00 0.  1.
        994    1    1    2    0    0  0.35759343583E+02 -0.16240448987E+00  0.99001871627E+01  0.17517480051E+03  0.17120000000E+03 0.  0.
        998    1    1    2    0    0 -0.61180908287E+01 -0.68612160503E+00  0.14182237558E+04  0.14182723727E+04  0.10000000000E+02 0.  1.
</event>
<event>
 5    1  0.1147307E-008  0.3029243E+03  0.7957747E-01  0.3875361E+00
         13   -1    0    0    0    0  0.00000000000E+00  0.00000000000E+00  0.14999999963E+04  0.15000000000E+04  0.10566000000E+00 0.  1.
        994   -1    0    0    0    0 -0.00000000000E+00 -0.00000000000E+00  0.11368683772E-12  0.17120000000E+03  0.17120000000E+03 0.  0.
         13    1    1    2    0    0 -0.10846783966E+03  0.14264922716E+03  0.72163012957E+03  0.74354833690E+03  0.10566000000E+00 0.  1.
        994    1    1    2    0    0  0.86568284948E+02 -0.11511934261E+03  0.94608612143E+02  0.24291307189E+03  0.17120000000E+03 0.  0.
        998    1    1    2    0    0  0.21899554714E+02 -0.27529884541E+02  0.68376125457E+03  0.68473859121E+03  0.10000000000E+02 0.  1.
</event>
<event>
 5    1  0.1147307E-008  0.3841544E+03  0.7957747E-01  0.3433266E+00
         13   -1    0    0    0    0  0.00000000000E+00  0.00000000000E+00  0.14999999963E+04  0.15000000000E+04  0.10566000000E+00 0. -1.
        994   -1    0    0    0    0 -0.00000000000E+00 -0.00000000000E+00  0.11368683772E-12  0.17120000000E+03  0.17120000000E+03 0.  0.
         13    1    1    2    0    0  0.48062324819E+01  0.21085087919E+02  0.11464047502E+03  0.11666246388E+03  0.10566000000E+00 0. -1.
        994    1    1    2    0    0  0.10858092519E+02 -0.15422731868E+02  0.32245822540E+01  0.17226606387E+03  0.17120000000E+03 0.  0.
        998    1    1    2    0    0 -0.15664325001E+02 -0.56623560502E+01  0.13821349390E+04  0.13822714722E+04  0.10000000000E+02 0. -1.
</event>
<event>
 5    1  0.1147307E-008  0.3778076E+03  0.7957747E-01  0.3460761E+00
         13   -1    0    0    0    0  0.00000000000E+00  0.00000000000E+00  0.14999999963E+04  0.15000000000E+04  0.10566000000E+00 0.  1.
        994   -1    0    0    0    0 -0.00000000000E+00 -0.00000000000E+00  0.11368683772E-12  0.17120000000E+03  0.17120000000E+03 0.  0.
         13    1    1    2    0    0 -0.41362052245E+02 -0.13673239434E+02  0.18303255654E+03  0.18814543513E+03  0.10566000000E+00 0.  1.
        994    1    1    2    0    0  0.23115211516E+02  0.12118016330E+00  0.70453041043E+01  0.17289709077E+03  0.17120000000E+03 0.  0.
        998    1    1    2    0    0  0.18246840729E+02  0.13552059271E+02  0.13099221356E+04  0.13101574741E+04  0.10000000000E+02 0.  1.
</event>
<event>
 5    1  0.1147307E-008  0.3787576E+03  0.7957747E-01  0.3456586E+00
         13   -1    0    0    0    0  0.00000000000E+00  0.00000000000E+00  0.14999999963E+04  0.15000000000E+04  0.10566000000E+00 0. -1.
        994   -1    0    0    0    0 -0.00000000000E+00 -0.00000000000E+00  0.11368683772E-12  0.17120000000E+03  0.17120000000E+03 0.  0.
         13    1    1    2    0    0 -0.64820949275E+01  0.32250135610E+02  0.12370464313E+03  0.12800366673E+03  0.10566000000E+00 0. -1.
        994    1    1    2    0    0 -0.25714709888E+02 -0.72922817747E+01  0.71634053888E+01  0.17342196532E+03  0.17120000000E+03 0.  0.
        998    1    1    2    0    0  0.32196804815E+02 -0.24957853835E+02  0.13691319478E+04  0.13697743680E+04  0.10000000000E+02 0. -1.
</event>
<event>
 5    1  0.1147307E-008  0.3823210E+03  0.7957747E-01  0.3441114E+00
         13   -1    0    0    0    0  0.00000000000E+00  0.00000000000E+00  0.14999999963E+04  0.15000000000E+04  0.10566000000E+00 0. -1.
        994   -1    0    0    0    0 -0.00000000000E+00 -0.00000000000E+00  0.11368683772E-12  0.17120000000E+03  0.17120000000E+03 0.  0.
         13    1    1    2    0    0 -0.20159488143E+02  0.68895305572E+01  0.77832517902E+02  0.80695616985E+02  0.10566000000E+00 0. -1.
        994    1    1    2    0    0  0.70617822576E+01 -0.37765647319E+01  0.31788656039E+01  0.17141667479E+03  0.17120000000E+03 0.  0.
        998    1    1    2    0    0  0.13097705886E+02 -0.31129658253E+01  0.14189886128E+04  0.14190877082E+04  0.10000000000E+02 0. -1.
</event>
<event>
 5    1  0.1147307E-008  0.3711487E+03  0.7957747E-01  0.3490628E+00
         13   -1    0    0    0    0  0.00000000000E+00  0.00000000000E+00  0.14999999963E+04  0.15000000000E+04  0.10566000000E+00 0.  1.
        994   -1    0    0    0    0 -0.00000000000E+00 -0.00000000000E+00  0.11368683772E-12  0.17120000000E+03  0.17120000000E+03 0.  0.
         13    1    1    2    0    0  0.79161152149E+02 -0.21534427837E+02  0.29809035336E+03  0.30917323546E+03  0.10566000000E+00 0.  1.
        994    1    1    2    0    0 -0.82662234259E+02  0.25500793707E+02  0.34901538113E+02  0.19496382438E+03  0.17120000000E+03 0.  0.
        998    1    1    2    0    0  0.35010821108E+01 -0.39663658701E+01  0.11670081048E+04  0.11670629402E+04  0.10000000000E+02 0.  1.
</event>
<event>
 5    1  0.1147307E-008  0.3779497E+03  0.7957747E-01  0.3460135E+00
         13   -1    0    0    0    0  0.00000000000E+00  0.00000000000E+00  0.14999999963E+04  0.15000000000E+04  0.10566000000E+00 0.  1.
        994   -1    0    0    0    0 -0.00000000000E+00 -0.00000000000E+00  0.11368683772E-12  0.17120000000E+03  0.17120000000E+03 0.  0.
         13    1    1    2    0    0  0.33324801893E+02 -0.25222066393E+01  0.12175095351E+03  0.12625454365E+03  0.10566000000E+00 0.  1.
        994    1    1    2    0    0  0.60480701173E+01  0.28596584146E+00  0.52951040663E+01  0.17138885336E+03  0.17120000000E+03 0.  0.
        998    1    1    2    0    0 -0.39372872011E+02  0.22362407978E+01  0.13729539387E+04  0.13735566030E+04  0.10000000000E+02 0.  1.
</event>
<event>
 5    1  0.1147307E-008  0.3820529E+03  0.7957747E-01  0.3442268E+00
         13   -1    0    0    0    0  0.00000000000E+00  0.00000000000E+00  0.14999999963E+04  0.15000000000E+04  0.10566000000E+00 0. -1.
        994   -1    0    0    0    0 -0.00000000000E+00 -0.00000000000E+00  0.11368683772E-12  0.17120000000E+03  0.17120000000E+03 0.  0.
         13    1    1    2    0    0 -0.10822487435E+02 -0.39894920192E+01  0.19958848986E+02  0.23052312199E+02  0.10566000000E+00 0. -1.
        994    1    1    2    0    0  0.11599767830E+02  0.54461834512E+01  0.36458890143E+01  0.17171764043E+03  0.17120000000E+03 0.  0.
        998    1    1    2    0    0 -0.77728039556E+00 -0.14566914320E+01  0.14763952583E+04  0.14764300474E+04  0.10000000000E+02 0. -1.
</event>
<event>
 5    1  0.1147307E-008  0.4019190E+03  0.7957747E-01  0.3360940E+00
         13   -1    0    0    0    0  0.00000000000E+00  0.00000000000E+00  0.14999999963E+04  0.15000000000E+04  0.10566000000E+00 0.  1.
        994   -1    0    0    0    0 -0.00000000000E+00 -0.00000000000E+00  0.11368683772E-12  0.17120000000E+03  0.17120000000E+03 0.  0.
         13    1    1    2    0    0 -0.94348515796E+02 -0.23711571472E+02  0.18647047994E+03  0.21032149702E+03  0.10566000000E+00 0.  1.
        994    1    1    2    0    0  0.49449571572E+01  0.37456362682E+02  0.34582227213E+02  0.17869751578E+03  0.17120000000E+03 0.  0.
        998    1    1    2    0    0  0.89403558639E+02 -0.13744791211E+02  0.12789472891E+04  0.12821809872E+04  0.10000000000E+02 0.  1.
</event>
<event>
 5    1  0.1147307E-008  0.3848326E+03  0.7957747E-01  0.3430383E+00
         13   -1    0    0    0    0  0.00000000000E+00  0.00000000000E+00  0.14999999963E+04  0.15000000000E+04  0.10566000000E+00 0.  1.
        994   -1    0    0    0    0 -0.00000000000E+00 -0.00000000000E+00  0.11368683772E-12  0.17120000000E+03  0.17120000000E+03 0.  0.
         13    1    1    2    0    0  0.16202554140E+02  0.63769656524E+01  0.96754785890E+02  0.98309146106E+02  0.10566000000E+00 0.  1.
        994    1    1    2    0    0 -0.25200468379E+01  0.75583496660E+01  0.19221873831E+01  0.17139607373E+03  0.17120000000E+03 0.  0.
        998    1    1    2    0    0 -0.13682507302E+02 -0.13935315318E+02  0.14013230230E+04  0.14014947802E+04  0.10000000000E+02 0.  1.
</event>
<event>
 5    1  0.1147307E-008  0.3832280E+03  0.7957747E-01  0.3437223E+00
         13   -1    0    0    0    0  0.00000000000E+00  0.00000000000E+00  0.14999999963E+04  0.15000000000E+04  0.10566000000E+00 0.  1.
        994   -1    0    0    0    0 -0.00000000000E+00 -0.00000000000E+00  0.11368683772E-12  0.17120000000E+03  0.17120000000E+03 0.  0.
         13    1    1    2    0    0 -0.59256639072E+00 -0.11211444938E+02  0.23249541766E+02  0.25818597733E+02  0.10566000000E+00 0.  1.
        994    1    1    2    0    0  0.22233696654E+01  0.19834385668E+02  0.38311830495E+01  0.17240204231E+03  0.17120000000E+03 0.  0.
        998    1    1    2    0    0 -0.16308032747E+01 -0.86229407305E+01  0.14729192715E+04  0.14729793600E+04  0.10000000000E+02 0.  1.
</event>
<event>
 5    1  0.1147307E-008  0.3781769E+03  0.7957747E-01  0.3459135E+00
         13   -1    0    0    0    0  0.00000000000E+00  0.00000000000E+00  0.14999999963E+04  0.15000000000E+04  0.10566000000E+00 0.  1.
        994   -1    0    0    0    0 -0.00000000000E+00 -0.00000000000E+00  0.11368683772E-12  0.17120000000E+03  0.17120000000E+03 0.  0.
         13    1    1    2    0    0 -0.13291788422E+02 -0.89741369102E+01  0.23158555913E+02  0.28169782547E+02  0.10566000000E+00 0.  1.
        994    1    1    2    0    0  0.98647968702E+01  0.99865639964E+01  0.57192552308E+01  0.17186970518E+03  0.17120000000E+03 0.  0.
        998    1    1    2    0    0  0.34269915519E+01 -0.10124270862E+01  0.14711221851E+04  0.14711605123E+04  0.10000000000E+02 0.  1.
</event>
<event>
 5    1  0.1147307E-008  0.3816286E+03  0.7957747E-01  0.3444098E+00
         13   -1    0    0    0    0  0.00000000000E+00  0.00000000000E+00  0.14999999963E+04  0.15000000000E+04  0.10566000000E+00 0.  1.
        994   -1    0    0    0    0 -0.00000000000E+00 -0.00000000000E+00  0.11368683772E-12  0.17120000000E+03  0.17120000000E+03 0.  0.
         13    1    1    2    0    0 -0.74634263617E+01 -0.17256290497E+02  0.51268031372E+02  0.54606817336E+02  0.10566000000E+00 0.  1.
        994    1    1    2    0    0  0.78709670671E+01  0.14675713187E+02  0.42359573058E+01  0.17206019881E+03  0.17120000000E+03 0.  0.
        998    1    1    2    0    0 -0.40754070543E+00  0.25805773097E+01  0.14444960076E+04  0.14445329839E+04  0.10000000000E+02 0.  1.
</event>
<event>
 5    1  0.1147307E-008  0.3841535E+03  0.7957747E-01  0.3433270E+00
         13   -1    0    0    0    0  0.00000000000E+00  0.00000000000E+00  0.14999999963E+04  0.15000000000E+04  0.10566000000E+00 0.  1.
        994   -1    0    0    0    0 -0.00000000000E+00 -0.00000000000E+00  0.11368683772E-12  0.17120000000E+03  0.17120000000E+03 0.  0.
         13    1    1    2    0    0 -0.14781700389E+02 -0.76312211970E+01  0.73910608658E+02  0.75759642552E+02  0.10566000000E+00 0.  1.
        994    1    1    2    0    0 -0.10483874245E+02  0.10137367497E+02  0.27526490223E+01  0.17184206387E+03  0.17120000000E+03 0.  0.
        998    1    1    2    0    0  0.25265574634E+02 -0.25061463001E+01  0.14233367386E+04  0.14235982936E+04  0.10000000000E+02 0.  1.
</event>
<event>
 5    1  0.1147307E-008  0.2789124E+03  0.7957747E-01  0.4059106E+00
         13   -1    0    0    0    0  0.00000000000E+00  0.00000000000E+00  0.14999999963E+04  0.15000000000E+04  0.10566000000E+00 0.  1.
        994   -1    0    0    0    0 -0.00000000000E+00 -0.00000000000E+00  0.11368683772E-12  0.17120000000E+03  0.17120000000E+03 0.  0.
         13    1    1    2    0    0 -0.93738405105E+02 -0.29521154897E+03  0.60254215751E+03  0.67749081911E+03  0.10566000000E+00 0.  1.
        994    1    1    2    0    0  0.49315995312E+02  0.12094079811E+03  0.29720385436E+03  0.36701269064E+03  0.17120000000E+03 0.  0.
        998    1    1    2    0    0  0.44422409793E+02  0.17427075086E+03  0.60025398441E+03  0.62669649026E+03  0.10000000000E+02 0. -1.
</event>
<event>
 5    1  0.1147307E-008  0.3830772E+03  0.7957747E-01  0.3437868E+00
         13   -1    0    0    0    0  0.00000000000E+00  0.00000000000E+00  0.14999999963E+04  0.15000000000E+04  0.10566000000E+00 0. -1.
        994   -1    0    0    0    0 -0.00000000000E+00 -0.00000000000E+00  0.11368683772E-12  0.17120000000E+03  0.17120000000E+03 0.  0.
         13    1    1    2    0    0 -0.17328826273E+02  0.28984073990E+02  0.18821214638E+03  0.19121764556E+03  0.10566000000E+00 0. -1.
        994    1    1    2    0    0  0.14041982967E+02 -0.35521419593E+02  0.74308810114E+01  0.17556653020E+03  0.17120000000E+03 0.  0.
        998    1    1    2    0    0  0.32868433066E+01  0.65373456030E+01  0.13043569689E+04  0.13044158242E+04  0.10000000000E+02 0. -1.
</event>
<event>
 5    1  0.1147307E-008  0.3484319E+03  0.7957747E-01  0.3601293E+00
         13   -1    0    0    0    0  0.00000000000E+00  0.00000000000E+00  0.14999999963E+04  0.15000000000E+04  0.10566000000E+00 0.  1.
        994   -1    0    0    0    0 -0.00000000000E+00 -0.00000000000E+00  0.11368683772E-12  0.17120000000E+03  0.17120000000E+03 0.  0.
         13    1    1    2    0    0 -0.18863628149E+03  0.68066002356E+02  0.10565923585E+04  0.10754552760E+04  0.10566000000E+00 0.  1.
        994    1    1    2    0    0  0.17248251421E+03 -0.30526445326E+02  0.12577506133E+03  0.27533777007E+03  0.17120000000E+03 0.  0.
        998    1    1    2    0    0  0.16153767276E+02 -0.37539557030E+02  0.31763257641E+03  0.32040695395E+03  0.10000000000E+02 0.  1.
</event>
<event>
 5    1  0.1147307E-008  0.3849795E+03  0.7957747E-01  0.3429759E+00
         13   -1    0    0    0    0  0.00000000000E+00  0.00000000000E+00  0.14999999963E+04  0.15000000000E+04  0.10566000000E+00 0. -1.
        994   -1    0    0    0    0 -0.00000000000E+00 -0.00000000000E+00  0.11368683772E-12  0.17120000000E+03  0.17120000000E+03 0.  0.
         13    1    1    2    0    0 -0.15020854016E+02  0.92911061661E+01  0.91689193092E+02  0.93374889575E+02  0.10566000000E+00 0. -1.
        994    1    1    2    0    0  0.64778619728E+01 -0.21121830642E+02  0.32472161283E+01  0.17265016316E+03  0.17120000000E+03 0.  0.
        998    1    1    2    0    0  0.85429920435E+01  0.11830724476E+02  0.14050635871E+04  0.14051749473E+04  0.10000000000E+02 0. -1.
</event>
<event>
 5    1  0.1147307E-008  0.3948058E+03  0.7957747E-01  0.3389120E+00
         13   -1    0    0    0    0  0.00000000000E+00  0.00000000000E+00  0.14999999963E+04  0.15000000000E+04  0.10566000000E+00 0.  1.
        994   -1    0    0    0    0 -0.00000000000E+00 -0.00000000000E+00  0.11368683772E-12  0.17120000000E+03  0.17120000000E+03 0.  0.
         13    1    1    2    0    0 -0.61446256098E+01  0.28888645235E+02  0.71900311283E+01  0.30397663710E+02  0.10566000000E+00 0.  1.
        994    1    1    2    0    0  0.44064711755E+01 -0.27545611738E+02  0.27698875821E+02  0.17565547369E+03  0.17120000000E+03 0.  0.
        998    1    1    2    0    0  0.17381544343E+01 -0.13430334969E+01  0.14651110893E+04  0.14651468626E+04  0.10000000000E+02 0.  0.
</event>
<event>
 5    1  0.1147307E-008  0.3756337E+03  0.7957747E-01  0.3470394E+00
         13   -1    0    0    0    0  0.00000000000E+00  0.00000000000E+00  0.14999999963E+04  0.15000000000E+04  0.10566000000E+00 0. -1.
        994   -1    0    0    0    0 -0.00000000000E+00 -0.00000000000E+00  0.11368683772E-12  0.17120000000E+03  0.17120000000E+03 0.  0.
         13    1    1    2    0    0  0.37203231242E+02 -0.20858609220E+02  0.15169474210E+03  0.15757686359E+03  0.10566000000E+00 0. -1.
        994    1    1    2    0    0 -0.17280305943E+02 -0.69957998153E+01  0.75334289421E+01  0.17237674652E+03  0.17120000000E+03 0.  0.
        998    1    1    2    0    0 -0.19922925300E+02  0.27854409035E+02  0.13407718252E+04  0.13412463899E+04  0.10000000000E+02 0. -1.
</event>
<event>
 5    1  0.1147307E-008  0.3832975E+03  0.7957747E-01  0.3436925E+00
         13   -1    0    0    0    0  0.00000000000E+00  0.00000000000E+00  0.14999999963E+04  0.15000000000E+04  0.10566000000E+00 0. -1.
        994   -1    0    0    0    0 -0.00000000000E+00 -0.00000000000E+00  0.11368683772E-12  0.17120000000E+03  0.17120000000E+03 0.  0.
         13    1    1    2    0    0 -0.20729280997E+02 -0.85889004397E+01  0.10224484238E+03  0.10467803618E+03  0.10566000000E+00 0. -1.
        994    1    1    2    0    0  0.13521689792E+02 -0.12461849423E+01  0.30877718357E+01  0.17176543135E+03  0.17120000000E+03 0.  0.
        998    1    1    2    0    0  0.72075912059E+01  0.98350853820E+01  0.13946673821E+04  0.13947565325E+04  0.10000000000E+02 0. -1.
</event>
<event>
 5    1  0.1147307E-008  0.3759575E+03  0.7957747E-01  0.3468952E+00
         13   -1    0    0    0    0  0.00000000000E+00  0.00000000000E+00  0.14999999963E+04  0.15000000000E+04  0.10566000000E+00 0. -1.
        994   -1    0    0    0    0 -0.00000000000E+00 -0.00000000000E+00  0.11368683772E-12  0.17120000000E+03  0.17120000000E+03 0.  0.
         13    1    1    2    0    0 -0.38368012998E+01  0.58537793155E+02  0.24063721609E+03  0.24768462852E+03  0.10566000000E+00 0. -1.
        994    1    1    2    0    0 -0.67327469632E+01 -0.54722483241E+02  0.16558186817E+02  0.18061974866E+03  0.17120000000E+03 0.  0.
        998    1    1    2    0    0  0.10569548263E+02 -0.38153099147E+01  0.12428045934E+04  0.12428956228E+04  0.10000000000E+02 0. -1.
</event>
<event>
 5    1  0.1147307E-008  0.3782672E+03  0.7957747E-01  0.3458739E+00
         13   -1    0    0    0    0  0.00000000000E+00  0.00000000000E+00  0.14999999963E+04  0.15000000000E+04  0.10566000000E+00 0.  1.
        994   -1    0    0    0    0 -0.00000000000E+00 -0.00000000000E+00  0.11368683772E-12  0.17120000000E+03  0.17120000000E+03 0.  0.
         13    1    1    2    0    0  0.19349115975E+03 -0.12535443721E+02  0.93197921350E+03  0.95193551873E+03  0.10566000000E+00 0.  1.
        994    1    1    2    0    0 -0.19984793339E+03  0.33141807224E+02  0.15834882693E+03  0.30890349117E+03  0.17120000000E+03 0.  0.
        998    1    1    2    0    0  0.63567736421E+01 -0.20606363503E+02  0.40967195585E+03  0.41036099010E+03  0.10000000000E+02 0. -1.
</event>
<event>
 5    1  0.1147307E-008  0.3832665E+03  0.7957747E-01  0.3437058E+00
         13   -1    0    0    0    0  0.00000000000E+00  0.00000000000E+00  0.14999999963E+04  0.15000000000E+04  0.10566000000E+00 0. -1.
        994   -1    0    0    0    0 -0.00000000000E+00 -0.00000000000E+00  0.11368683772E-12  0.17120000000E+03  0.17120000000E+03 0.  0.
         13    1    1    2    0    0 -0.15577513501E+02  0.16134759659E+01  0.51574785195E+02  0.53900202815E+02  0.10566000000E+00 0. -1.
        994    1    1    2    0    0 -0.39553447895E+01 -0.12083254072E+02  0.30280551809E+01  0.17169816219E+03  0.17120000000E+03 0.  0.
        998    1    1    2    0    0  0.19532858291E+02  0.10469778106E+02  0.14453971559E+04  0.14456016350E+04  0.10000000000E+02 0. -1.
</event>
<event>
 5    1  0.1147307E-008  0.3742538E+03  0.7957747E-01  0.3476567E+00
         13   -1    0    0    0    0  0.00000000000E+00  0.00000000000E+00  0.14999999963E+04  0.15000000000E+04  0.10566000000E+00 0. -1.
        994   -1    0    0    0    0 -0.00000000000E+00 -0.00000000000E+00  0.11368683772E-12  0.17120000000E+03  0.17120000000E+03 0.  0.
         13    1    1    2    0    0  0.37367610836E+02 -0.74859068086E+01  0.91714875515E+02  0.99317705849E+02  0.10566000000E+00 0. -1.
        994    1    1    2    0    0 -0.44700783605E+02  0.11434000850E+02  0.14352075484E+02  0.17788850019E+03  0.17120000000E+03 0.  0.
        998    1    1    2    0    0  0.73331727690E+01 -0.39480940418E+01  0.13939330453E+04  0.13939937940E+04  0.10000000000E+02 0. -1.
</event>
<event>
 5    1  0.1147307E-008  0.4403171E+03  0.7957747E-01  0.3224348E+00
         13   -1    0    0    0    0  0.00000000000E+00  0.00000000000E+00  0.14999999963E+04  0.15000000000E+04  0.10566000000E+00 0. -1.
        994   -1    0    0    0    0 -0.00000000000E+00 -0.00000000000E+00  0.11368683772E-12  0.17120000000E+03  0.17120000000E+03 0.  0.
         13    1    1    2    0    0  0.12997341797E+03  0.20830007341E+02  0.13666980982E+03  0.18975148659E+03  0.10566000000E+00 0. -1.
        994    1    1    2    0    0 -0.12187908269E+03  0.31238714581E+02  0.13451612534E+03  0.25146450259E+03  0.17120000000E+03 0.  0.
        998    1    1    2    0    0 -0.80943352776E+01 -0.52068721922E+02  0.12288140611E+04  0.12299840108E+04  0.10000000000E+02 0. -1.
</event>
<event>
 5    1  0.1147307E-008  0.3735116E+03  0.7957747E-01  0.3479906E+00
         13   -1    0    0    0    0  0.00000000000E+00  0.00000000000E+00  0.14999999963E+04  0.15000000000E+04  0.10566000000E+00 0.  1.
        994   -1    0    0    0    0 -0.00000000000E+00 -0.00000000000E+00  0.11368683772E-12  0.17120000000E+03  0.17120000000E+03 0.  0.
         13    1    1    2    0    0 -0.17841947729E+02 -0.11388185914E+01  0.18279550995E+02  0.25569222811E+02  0.10566000000E+00 0.  1.
        994    1    1    2    0    0  0.10790521754E+02  0.17556168580E+02  0.88971390511E+01  0.17266514848E+03  0.17120000000E+03 0.  0.
        998    1    1    2    0    0  0.70514259750E+01 -0.16417349988E+02  0.14728233062E+04  0.14729656287E+04  0.10000000000E+02 0.  1.
</event>
<event>
 5    1  0.1147307E-008  0.3854527E+03  0.7957747E-01  0.3427755E+00
         13   -1    0    0    0    0  0.00000000000E+00  0.00000000000E+00  0.14999999963E+04  0.15000000000E+04  0.10566000000E+00 0.  1.
        994   -1    0    0    0    0 -0.00000000000E+00 -0.00000000000E+00  0.11368683772E-12  0.17120000000E+03  0.17120000000E+03 0.  0.
         13    1    1    2    0    0 -0.84985481890E+01 -0.14397367033E+02  0.99229751155E+02  0.10062834679E+03  0.10566000000E+00 0.  1.
        994    1    1    2    0    0  0.81842686304E+01  0.85152556931E+01  0.18637664928E+01  0.17161703138E+03  0.17120000000E+03 0.  0.
        998    1    1    2    0    0  0.31427955856E+00  0.58821113394E+01  0.13989064786E+04  0.13989546218E+04  0.10000000000E+02 0.  1.
</event>
<event>
 5    1  0.1147307E-008  0.3812004E+03  0.7957747E-01  0.3445948E+00
         13   -1    0    0    0    0  0.00000000000E+00  0.00000000000E+00  0.14999999963E+04  0.15000000000E+04  0.10566000000E+00 0. -1.
        994   -1    0    0    0    0 -0.00000000000E+00 -0.00000000000E+00  0.11368683772E-12  0.17120000000E+03  0.17120000000E+03 0.  0.
         13    1    1    2    0    0 -0.44300534110E+02 -0.10009349285E+02  0.24094797955E+03  0.24519107735E+03  0.10566000000E+00 0. -1.
        994    1    1    2    0    0  0.47145559453E+02  0.97201050204E+01  0.11282751237E+02  0.17819630943E+03  0.17120000000E+03 0.  0.
        998    1    1    2    0    0 -0.28450253433E+01  0.28924426501E+00  0.12477692655E+04  0.12478126132E+04  0.10000000000E+02 0. -1.
</event>
<event>
 5    1  0.1147307E-008  0.3814361E+03  0.7957747E-01  0.3444929E+00
         13   -1    0    0    0    0  0.00000000000E+00  0.00000000000E+00  0.14999999963E+04  0.15000000000E+04  0.10566000000E+00 0.  1.
        994   -1    0    0    0    0 -0.00000000000E+00 -0.00000000000E+00  0.11368683772E-12  0.17120000000E+03  0.17120000000E+03 0.  0.
         13    1    1    2    0    0  0.10247818587E+02 -0.14281502376E+02  0.45371217662E+02  0.48657349415E+02  0.10566000000E+00 0.  1.
        994    1    1    2    0    0 -0.27519927679E+02 -0.14181907738E+02  0.66054692574E+01  0.17410211128E+03  0.17120000000E+03 0.  0.
        998    1    1    2    0    0  0.17272109093E+02  0.28463410114E+02  0.14480233094E+04  0.14484405393E+04  0.10000000000E+02 0.  1.
</event>
<event>
 5    1  0.1147307E-008  0.3863792E+03  0.7957747E-01  0.3423844E+00
         13   -1    0    0    0    0  0.00000000000E+00  0.00000000000E+00  0.14999999963E+04  0.15000000000E+04  0.10566000000E+00 0.  1.
        994   -1    0    0    0    0 -0.00000000000E+00 -0.00000000000E+00  0.11368683772E-12  0.17120000000E+03  0.17120000000E+03 0.  0.
         13    1    1    2    0    0  0.51162206442E+01  0.89723634863E+01  0.47758862112E+02  0.48863064727E+02  0.10566000000E+00 0.  1.
        994    1    1    2    0    0 -0.72891067346E+02 -0.34816058621E+01  0.18579711431E+02  0.18702907516E+03  0.17120000000E+03 0.  0.
        998    1    1    2    0    0  0.67774846702E+02 -0.54907576242E+01  0.14336614227E+04  0.14353078601E+04  0.10000000000E+02 0.  1.
</event>
<event>
 5    1  0.1147307E-008  0.3812704E+03  0.7957747E-01  0.3445646E+00
         13   -1    0    0    0    0  0.00000000000E+00  0.00000000000E+00  0.14999999963E+04  0.15000000000E+04  0.10566000000E+00 0.  1.
        994   -1    0    0    0    0 -0.00000000000E+00 -0.00000000000E+00  0.11368683772E-12  0.17120000000E+03  0.17120000000E+03 0.  0.
         13    1    1    2    0    0 -0.95717880195E+01 -0.25600428539E+02  0.10158213206E+03  0.10519478022E+03  0.10566000000E+00 0.  1.
        994    1    1    2    0    0  0.78868262540E+01  0.22574259930E+02  0.53990455920E+01  0.17294620242E+03  0.17120000000E+03 0.  0.
        998    1    1    2    0    0  0.16849617655E+01  0.30261686090E+01  0.13930188186E+04  0.13930590174E+04  0.10000000000E+02 0.  0.
</event>
<event>
 5    1  0.1147307E-008  0.3747940E+03  0.7957747E-01  0.3474145E+00
         13   -1    0    0    0    0  0.00000000000E+00  0.00000000000E+00  0.14999999963E+04  0.15000000000E+04  0.10566000000E+00 0. -1.
        994   -1    0    0    0    0 -0.00000000000E+00 -0.00000000000E+00  0.11368683772E-12  0.17120000000E+03  0.17120000000E+03 0.  0.
         13    1    1    2    0    0 -0.12048717349E+02  0.18519433707E+02  0.31942983778E+02  0.38839495250E+02  0.10566000000E+00 0. -1.
        994    1    1    2    0    0  0.14370022964E+02 -0.25504393178E+02  0.97051110179E+01  0.17395574383E+03  0.17120000000E+03 0.  0.
        998    1    1    2    0    0 -0.23213056152E+01  0.69849594705E+01  0.14583519015E+04  0.14584047609E+04  0.10000000000E+02 0. -1.
</event>
<event>
 5    1  0.1147307E-008  0.3748050E+03  0.7957747E-01  0.3474095E+00
         13   -1    0    0    0    0  0.00000000000E+00  0.00000000000E+00  0.14999999963E+04  0.15000000000E+04  0.10566000000E+00 0. -1.
        994   -1    0    0    0    0 -0.00000000000E+00 -0.00000000000E+00  0.11368683772E-12  0.17120000000E+03  0.17120000000E+03 0.  0.
         13    1    1    2    0    0  0.59785185311E+02 -0.67808354746E+00  0.23601541731E+03  0.24347077145E+03  0.10566000000E+00 0. -1.
        994    1    1    2    0    0 -0.50314322380E+02 -0.71142639035E+00  0.15440693038E+02  0.17910860439E+03  0.17120000000E+03 0.  0.
        998    1    1    2    0    0 -0.94708629305E+01  0.13895099378E+01  0.12485438859E+04  0.12486206242E+04  0.10000000000E+02 0. -1.
</event>
<event>
 5    1  0.1147307E-008  0.3757058E+03  0.7957747E-01  0.3470072E+00
         13   -1    0    0    0    0  0.00000000000E+00  0.00000000000E+00  0.14999999963E+04  0.15000000000E+04  0.10566000000E+00 0. -1.
        994   -1    0    0    0    0 -0.00000000000E+00 -0.00000000000E+00  0.11368683772E-12  0.17120000000E+03  0.17120000000E+03 0.  0.
         13    1    1    2    0    0 -0.12377506088E+02 -0.61095101425E+00  0.93595476114E+01  0.15530235466E+02  0.10566000000E+00 0. -1.
        994    1    1    2    0    0  0.67435339007E+01 -0.22140443947E+01  0.64875950627E+01  0.17146984030E+03  0.17120000000E+03 0.  0.
        998    1    1    2    0    0  0.56339721869E+01  0.28249954089E+01  0.14841528536E+04  0.14841999242E+04  0.10000000000E+02 0. -1.
</event>
<event>
 5    1  0.1147307E-008  0.3846016E+03  0.7957747E-01  0.3431364E+00
         13   -1    0    0    0    0  0.00000000000E+00  0.00000000000E+00  0.14999999963E+04  0.15000000000E+04  0.10566000000E+00 0. -1.
        994   -1    0    0    0    0 -0.00000000000E+00 -0.00000000000E+00  0.11368683772E-12  0.17120000000E+03  0.17120000000E+03 0.  0.
         13    1    1    2    0    0 -0.86662878858E+01 -0.16975732589E+02  0.88471207527E+02  0.90501081584E+02  0.10566000000E+00 0. -1.
        994    1    1    2    0    0  0.22099154583E+02  0.21253189474E+02  0.49297745995E+01  0.17399371648E+03  0.17120000000E+03 0.  0.
        998    1    1    2    0    0 -0.13432866697E+02 -0.42774568851E+01  0.14065990142E+04  0.14067052019E+04  0.10000000000E+02 0. -1.
</event>
<event>
 5    1  0.1147307E-008  0.3832335E+03  0.7957747E-01  0.3437199E+00
         13   -1    0    0    0    0  0.00000000000E+00  0.00000000000E+00  0.14999999963E+04  0.15000000000E+04  0.10566000000E+00 0.  1.
        994   -1    0    0    0    0 -0.00000000000E+00 -0.00000000000E+00  0.11368683772E-12  0.17120000000E+03  0.17120000000E+03 0.  0.
         13    1    1    2    0    0 -0.23572897005E+02  0.49667795145E-01  0.10979071321E+03  0.11229290187E+03  0.10566000000E+00 0.  1.
        994    1    1    2    0    0  0.14875091541E+02  0.54556376059E+01  0.33404768096E+01  0.17196404018E+03  0.17120000000E+03 0.  0.
        998    1    1    2    0    0  0.86978054640E+01 -0.55053054010E+01  0.13868688063E+04  0.13869430579E+04  0.10000000000E+02 0.  1.
</event>
<event>
 5    1  0.1147307E-008  0.3844940E+03  0.7957747E-01  0.3431821E+00
         13   -1    0    0    0    0  0.00000000000E+00  0.00000000000E+00  0.14999999963E+04  0.15000000000E+04  0.10566000000E+00 0. -1.
        994   -1    0    0    0    0 -0.00000000000E+00 -0.00000000000E+00  0.11368683772E-12  0.17120000000E+03  0.17120000000E+03 0.  0.
         13    1    1    2    0    0  0.50080077220E+01  0.17941569601E+02  0.89417900962E+02  0.91337572978E+02  0.10566000000E+00 0. -1.
        994    1    1    2    0    0 -0.57656219019E+01 -0.15002188857E+02  0.27329211833E+01  0.17197446591E+03  0.17120000000E+03 0.  0.
        998    1    1    2    0    0  0.75761417991E+00 -0.29393807445E+01  0.14078491741E+04  0.14078879611E+04  0.10000000000E+02 0. -1.
</event>
<event>
 5    1  0.1147307E-008  0.2733129E+03  0.7957747E-01  0.4107121E+00
         13   -1    0    0    0    0  0.00000000000E+00  0.00000000000E+00  0.14999999963E+04  0.15000000000E+04  0.10566000000E+00 0.  1.
        994   -1    0    0    0    0 -0.00000000000E+00 -0.00000000000E+00  0.11368683772E-12  0.17120000000E+03  0.17120000000E+03 0.  0.
         13    1    1    2    0    0 -0.10438873902E+03 -0.79099775995E+02  0.16774768767E+02  0.13204236982E+03  0.10566000000E+00 0.  1.
        994    1    1    2    0    0  0.57616132075E+02  0.86798605165E+01  0.28254827579E+03  0.33546672980E+03  0.17120000000E+03 0.  0.
        998    1    1    2    0    0  0.46772606940E+02  0.70419915478E+02  0.12006769517E+04  0.12036909004E+04  0.10000000000E+02 0.  1.
</event>
<event>
 5    1  0.1594698E-008  0.3861440E+03  0.7957747E-01  0.3424835E+00
         13   -1    0    0    0    0  0.00000000000E+00  0.00000000000E+00  0.14999999963E+04  0.15000000000E+04  0.10566000000E+00 0. -1.
        994   -1    0    0    0    0 -0.00000000000E+00 -0.00000000000E+00  0.11368683772E-12  0.17120000000E+03  0.17120000000E+03 0.  0.
         13    1    1    2    0    0  0.10749651239E+02 -0.19659030112E+00  0.54190962303E+02  0.55247309517E+02  0.10566000000E+00 0. -1.
        994    1    1    2    0    0 -0.10366979703E+02 -0.16300575807E+02  0.22869281707E+01  0.17230163400E+03  0.17120000000E+03 0.  0.
        998    1    1    2    0    0 -0.38267153635E+00  0.16497166108E+02  0.14435221058E+04  0.14436510565E+04  0.10000000000E+02 0. -1.
</event>
<event>
 5    1  0.1147307E-008  0.3740009E+03  0.7957747E-01  0.3477703E+00
         13   -1    0    0    0    0  0.00000000000E+00  0.00000000000E+00  0.14999999963E+04  0.15000000000E+04  0.10566000000E+00 0.  1.
        994   -1    0    0    0    0 -0.00000000000E+00 -0.00000000000E+00  0.11368683772E-12  0.17120000000E+03  0.17120000000E+03 0.  0.
         13    1    1    2    0    0  0.57710251309E+02 -0.19021952452E+02  0.25938745756E+03  0.26640978226E+03  0.10566000000E+00 0.  1.
        994    1    1    2    0    0 -0.30104958210E+02  0.10821007832E+02  0.10691153027E+02  0.17449109855E+03  0.17120000000E+03 0.  0.
        998    1    1    2    0    0 -0.27605293099E+02  0.82009446201E+01  0.12299213857E+04  0.12302991192E+04  0.10000000000E+02 0.  1.
</event>
<event>
 5    1  0.1147307E-008  0.3766999E+03  0.7957747E-01  0.3465655E+00
         13   -1    0    0    0    0  0.00000000000E+00  0.00000000000E+00  0.14999999963E+04  0.15000000000E+04  0.10566000000E+00 0.  1.
        994   -1    0    0    0    0 -0.00000000000E+00 -0.00000000000E+00  0.11368683772E-12  0.17120000000E+03  0.17120000000E+03 0.  0.
         13    1    1    2    0    0 -0.20612061275E+02 -0.28150699473E+02  0.34421112944E+02  0.49011663216E+02  0.10566000000E+00 0.  1.
        994    1    1    2    0    0  0.20893596473E+02  0.40562936965E+02  0.22017356526E+02  0.17853878631E+03  0.17120000000E+03 0.  0.
        998    1    1    2    0    0 -0.28153519797E+00 -0.12412237492E+02  0.14435615268E+04  0.14436495505E+04  0.10000000000E+02 0.  1.
</event>
<event>
 5    1  0.1147307E-008  0.3845036E+03  0.7957747E-01  0.3431780E+00
         13   -1    0    0    0    0  0.00000000000E+00  0.00000000000E+00  0.14999999963E+04  0.15000000000E+04  0.10566000000E+00 0.  1.
        994   -1    0    0    0    0 -0.00000000000E+00 -0.00000000000E+00  0.11368683772E-12  0.17120000000E+03  0.17120000000E+03 0.  0.
         13    1    1    2    0    0 -0.54428269824E+01  0.84860767940E+01  0.26252513393E+02  0.28121939627E+02  0.10566000000E+00 0.  1.
        994    1    1    2    0    0  0.57395521112E+01 -0.87500751238E+01  0.22375705477E+01  0.17153411613E+03  0.17120000000E+03 0.  0.
        998    1    1    2    0    0 -0.29672512879E+00  0.26399832981E+00  0.14715099123E+04  0.14715439442E+04  0.10000000000E+02 0.  1.
</event>
<event>
 5    1  0.1147307E-008  0.3847149E+03  0.7957747E-01  0.3430882E+00
         13   -1    0    0    0    0  0.00000000000E+00  0.00000000000E+00  0.14999999963E+04  0.15000000000E+04  0.10566000000E+00 0.  1.
        994   -1    0    0    0    0 -0.00000000000E+00 -0.00000000000E+00  0.11368683772E-12  0.17120000000E+03  0.17120000000E+03 0.  0.
         13    1    1    2    0    0  0.75923060293E+01  0.75244264845E+01  0.32341760035E+02  0.34062599885E+02  0.10566000000E+00 0.  1.
        994    1    1    2    0    0  0.15472995590E+01 -0.77103634033E+01  0.19753637830E+01  0.17139190734E+03  0.17120000000E+03 0.  0.
        998    1    1    2    0    0 -0.91396055882E+01  0.18593691887E+00  0.14656828725E+04  0.14657454928E+04  0.10000000000E+02 0.  1.
</event>
<event>
 5    1  0.1147307E-008  0.3685490E+03  0.7957747E-01  0.3502586E+00
         13   -1    0    0    0    0  0.00000000000E+00  0.00000000000E+00  0.14999999963E+04  0.15000000000E+04  0.10566000000E+00 0. -1.
        994   -1    0    0    0    0 -0.00000000000E+00 -0.00000000000E+00  0.11368683772E-12  0.17120000000E+03  0.17120000000E+03 0.  0.
         13    1    1    2    0    0  0.74792630423E+02  0.49108136389E+01  0.29919155894E+03  0.30843743898E+03  0.10566000000E+00 0. -1.
        994    1    1    2    0    0 -0.30533702961E+02 -0.18502069482E+02  0.14471883113E+02  0.17548079380E+03  0.17120000000E+03 0.  0.
        998    1    1    2    0    0 -0.44258927462E+02  0.13591255844E+02  0.11863365542E+04  0.11872817672E+04  0.10000000000E+02 0.  0.
</event>
