<event>
 5    1  0.1252319E-008  0.3805169E+03  0.7957747E-01  0.3448911E+00
         13   -1    0    0    0    0  0.00000000000E+00  0.00000000000E+00  0.14999999963E+04  0.15000000000E+04  0.10566000000E+00 0. -1.
        994   -1    0    0    0    0 -0.00000000000E+00 -0.00000000000E+00  0.11368683772E-12  0.17120000000E+03  0.17120000000E+03 0.  0.
         13    1    1    2    0    0 -0.17943490140E+02 -0.53712135093E+01  0.44907998022E+02  0.48657560804E+02  0.10566000000E+00 0. -1.
        994    1    1    2    0    0  0.52913407846E+01  0.29466280039E+01  0.39948645237E+01  0.17135366890E+03  0.17120000000E+03 0.  0.
        998    1    1    2    0    0  0.12652149356E+02  0.24245855053E+01  0.14510971337E+04  0.14511887703E+04  0.10000000000E+02 0. -1.
</event>
<event>
 5    1  0.1252319E-008  0.3825327E+03  0.7957747E-01  0.3440204E+00
         13   -1    0    0    0    0  0.00000000000E+00  0.00000000000E+00  0.14999999963E+04  0.15000000000E+04  0.10566000000E+00 0. -1.
        994   -1    0    0    0    0 -0.00000000000E+00 -0.00000000000E+00  0.11368683772E-12  0.17120000000E+03  0.17120000000E+03 0.  0.
         13    1    1    2    0    0  0.52839798022E+01 -0.11369635392E+02  0.27199296699E+02  0.29949990926E+02  0.10566000000E+00 0. -1.
        994    1    1    2    0    0  0.50181128471E+01  0.25919209196E+01  0.29658313053E+01  0.17131881294E+03  0.17120000000E+03 0.  0.
        998    1    1    2    0    0 -0.10302092649E+02  0.87777144723E+01  0.14698348683E+04  0.14699311961E+04  0.10000000000E+02 0. -1.
</event>
<event>
 5    1  0.1252319E-008  0.3765751E+03  0.7957747E-01  0.3466208E+00
         13   -1    0    0    0    0  0.00000000000E+00  0.00000000000E+00  0.14999999963E+04  0.15000000000E+04  0.10566000000E+00 0. -1.
        994   -1    0    0    0    0 -0.00000000000E+00 -0.00000000000E+00  0.11368683772E-12  0.17120000000E+03  0.17120000000E+03 0.  0.
         13    1    1    2    0    0  0.35502187491E+02 -0.70720486687E+01  0.10666189825E+03  0.11263743113E+03  0.10566000000E+00 0. -1.
        994    1    1    2    0    0 -0.27494489795E+02  0.37892402479E+01  0.84810474000E+01  0.17364237235E+03  0.17120000000E+03 0.  0.
        998    1    1    2    0    0 -0.80076976959E+01  0.32828084208E+01  0.13848570506E+04  0.13849201965E+04  0.10000000000E+02 0. -1.
</event>
<event>
 5    1  0.1252319E-008  0.3839218E+03  0.7957747E-01  0.3434258E+00
         13   -1    0    0    0    0  0.00000000000E+00  0.00000000000E+00  0.14999999963E+04  0.15000000000E+04  0.10566000000E+00 0.  1.
        994   -1    0    0    0    0 -0.00000000000E+00 -0.00000000000E+00  0.11368683772E-12  0.17120000000E+03  0.17120000000E+03 0.  0.
         13    1    1    2    0    0  0.20483751903E+02  0.19723931878E+02  0.17159169866E+03  0.17393199761E+03  0.10566000000E+00 0.  1.
        994    1    1    2    0    0 -0.23327520566E+02 -0.13291830078E+02  0.45489232500E+01  0.17335218102E+03  0.17120000000E+03 0.  0.
        998    1    1    2    0    0  0.28437686633E+01 -0.64321017998E+01  0.13238593744E+04  0.13239158214E+04  0.10000000000E+02 0.  1.
</event>
<event>
 5    1  0.1252319E-008  0.3772094E+03  0.7957747E-01  0.3463400E+00
         13   -1    0    0    0    0  0.00000000000E+00  0.00000000000E+00  0.14999999963E+04  0.15000000000E+04  0.10566000000E+00 0. -1.
        994   -1    0    0    0    0 -0.00000000000E+00 -0.00000000000E+00  0.11368683772E-12  0.17120000000E+03  0.17120000000E+03 0.  0.
         13    1    1    2    0    0  0.18154903366E+02  0.17891214962E+02  0.54633007432E+02  0.60286588510E+02  0.10566000000E+00 0. -1.
        994    1    1    2    0    0 -0.17122773296E+02 -0.19328989275E+02  0.78016058354E+01  0.17331215839E+03  0.17120000000E+03 0.  0.
        998    1    1    2    0    0 -0.10321300691E+01  0.14377743135E+01  0.14375653830E+04  0.14376012531E+04  0.10000000000E+02 0. -1.
</event>
<event>
 5    1  0.1252319E-008  0.3787836E+03  0.7957747E-01  0.3456472E+00
         13   -1    0    0    0    0  0.00000000000E+00  0.00000000000E+00  0.14999999963E+04  0.15000000000E+04  0.10566000000E+00 0. -1.
        994   -1    0    0    0    0 -0.00000000000E+00 -0.00000000000E+00  0.11368683772E-12  0.17120000000E+03  0.17120000000E+03 0.  0.
         13    1    1    2    0    0 -0.22928234669E+02 -0.23217369733E+02  0.11671649182E+03  0.12119199985E+03  0.10566000000E+00 0. -1.
        994    1    1    2    0    0  0.10944696057E+02  0.21208223360E+01  0.51656869905E+01  0.17164034660E+03  0.17120000000E+03 0.  0.
        998    1    1    2    0    0  0.11983538611E+02  0.21096547397E+02  0.13781178175E+04  0.13783676535E+04  0.10000000000E+02 0. -1.
</event>
<event>
 5    1  0.1252319E-008  0.3858210E+03  0.7957747E-01  0.3426198E+00
         13   -1    0    0    0    0  0.00000000000E+00  0.00000000000E+00  0.14999999963E+04  0.15000000000E+04  0.10566000000E+00 0.  1.
        994   -1    0    0    0    0 -0.00000000000E+00 -0.00000000000E+00  0.11368683772E-12  0.17120000000E+03  0.17120000000E+03 0.  0.
         13    1    1    2    0    0  0.48322769688E+01 -0.10100815742E+02  0.56667816409E+02  0.57763569487E+02  0.10566000000E+00 0.  1.
        994    1    1    2    0    0  0.94647689538E+00 -0.58915172260E+01  0.13398746734E+01  0.17130919724E+03  0.17120000000E+03 0.  0.
        998    1    1    2    0    0 -0.57787538642E+01  0.15992332968E+02  0.14419923052E+04  0.14421272333E+04  0.10000000000E+02 0.  1.
</event>
<event>
 5    1  0.1252319E-008  0.3524829E+03  0.7957747E-01  0.3580484E+00
         13   -1    0    0    0    0  0.00000000000E+00  0.00000000000E+00  0.14999999963E+04  0.15000000000E+04  0.10566000000E+00 0.  1.
        994   -1    0    0    0    0 -0.00000000000E+00 -0.00000000000E+00  0.11368683772E-12  0.17120000000E+03  0.17120000000E+03 0.  0.
         13    1    1    2    0    0  0.20415733295E+03  0.18676934034E+03  0.10862594154E+04  0.11209471584E+04  0.10566000000E+00 0.  1.
        994    1    1    2    0    0 -0.15271073851E+03 -0.13948982728E+03  0.23040511564E+03  0.35379929180E+03  0.17120000000E+03 0.  0.
        998    1    1    2    0    0 -0.51446594442E+02 -0.47279513061E+02  0.18333546523E+03  0.19645354985E+03  0.10000000000E+02 0.  1.
</event>
<event>
 5    1  0.1252319E-008  0.3767593E+03  0.7957747E-01  0.3465392E+00
         13   -1    0    0    0    0  0.00000000000E+00  0.00000000000E+00  0.14999999963E+04  0.15000000000E+04  0.10566000000E+00 0. -1.
        994   -1    0    0    0    0 -0.00000000000E+00 -0.00000000000E+00  0.11368683772E-12  0.17120000000E+03  0.17120000000E+03 0.  0.
         13    1    1    2    0    0 -0.37640594538E+02 -0.13196918823E+01  0.11257707133E+03  0.11871042118E+03  0.10566000000E+00 0. -1.
        994    1    1    2    0    0  0.37668826377E+02 -0.29844944152E+01  0.10618164567E+02  0.17564177495E+03  0.17120000000E+03 0.  0.
        998    1    1    2    0    0 -0.28231838807E-01  0.43041862975E+01  0.13768047604E+04  0.13768478039E+04  0.10000000000E+02 0. -1.
</event>
<event>
 5    1  0.1252319E-008  0.3830522E+03  0.7957747E-01  0.3437975E+00
         13   -1    0    0    0    0  0.00000000000E+00  0.00000000000E+00  0.14999999963E+04  0.15000000000E+04  0.10566000000E+00 0. -1.
        994   -1    0    0    0    0 -0.00000000000E+00 -0.00000000000E+00  0.11368683772E-12  0.17120000000E+03  0.17120000000E+03 0.  0.
         13    1    1    2    0    0 -0.15103475982E+02  0.13990789217E+02  0.84465689769E+02  0.86938605245E+02  0.10566000000E+00 0. -1.
        994    1    1    2    0    0  0.66269365490E+01 -0.76682725004E+00  0.27475738852E+01  0.17135195789E+03  0.17120000000E+03 0.  0.
        998    1    1    2    0    0  0.84765394334E+01 -0.13223961967E+02  0.14127867326E+04  0.14129094369E+04  0.10000000000E+02 0. -1.
</event>
<event>
 5    1  0.1252319E-008  0.3842359E+03  0.7957747E-01  0.3432919E+00
         13   -1    0    0    0    0  0.00000000000E+00  0.00000000000E+00  0.14999999963E+04  0.15000000000E+04  0.10566000000E+00 0. -1.
        994   -1    0    0    0    0 -0.00000000000E+00 -0.00000000000E+00  0.11368683772E-12  0.17120000000E+03  0.17120000000E+03 0.  0.
         13    1    1    2    0    0 -0.11860626912E+02  0.18155968036E+02  0.10790804031E+03  0.11006575296E+03  0.10566000000E+00 0. -1.
        994    1    1    2    0    0  0.15873527755E+02 -0.18535885880E+02  0.39758666100E+01  0.17297628584E+03  0.17120000000E+03 0.  0.
        998    1    1    2    0    0 -0.40129008429E+01  0.37991784391E+00  0.13881160894E+04  0.13881579612E+04  0.10000000000E+02 0. -1.
</event>
<event>
 5    1  0.1252319E-008  0.3699128E+03  0.7957747E-01  0.3496292E+00
         13   -1    0    0    0    0  0.00000000000E+00  0.00000000000E+00  0.14999999963E+04  0.15000000000E+04  0.10566000000E+00 0.  1.
        994   -1    0    0    0    0 -0.00000000000E+00 -0.00000000000E+00  0.11368683772E-12  0.17120000000E+03  0.17120000000E+03 0.  0.
         13    1    1    2    0    0  0.19513777498E+01 -0.13324292233E+02  0.35734444778E+01  0.13932885849E+02  0.10566000000E+00 0.  1.
        994    1    1    2    0    0  0.26988342318E+01 -0.10171823626E+02  0.11279875530E+02  0.17189364530E+03  0.17120000000E+03 0.  0.
        998    1    1    2    0    0 -0.46502119816E+01  0.23496115859E+02  0.14851466763E+04  0.14853734689E+04  0.10000000000E+02 0.  1.
</event>
<event>
 5    1  0.1252319E-008  0.4660914E+03  0.7957747E-01  0.3144965E+00
         13   -1    0    0    0    0  0.00000000000E+00  0.00000000000E+00  0.14999999963E+04  0.15000000000E+04  0.10566000000E+00 0.  1.
        994   -1    0    0    0    0 -0.00000000000E+00 -0.00000000000E+00  0.11368683772E-12  0.17120000000E+03  0.17120000000E+03 0.  0.
         13    1    1    2    0    0  0.31869727641E+02 -0.73754360324E+02  0.26048740870E+02  0.84462614639E+02  0.10566000000E+00 0.  1.
        994    1    1    2    0    0  0.11321061174E+02  0.24774369868E+02  0.79485233055E+02  0.19070731004E+03  0.17120000000E+03 0.  0.
        998    1    1    2    0    0 -0.43190788815E+02  0.48979990457E+02  0.13944660224E+04  0.13960300753E+04  0.10000000000E+02 0.  1.
</event>
<event>
 5    1  0.1252319E-008  0.2795779E+03  0.7957747E-01  0.4053543E+00
         13   -1    0    0    0    0  0.00000000000E+00  0.00000000000E+00  0.14999999963E+04  0.15000000000E+04  0.10566000000E+00 0. -1.
        994   -1    0    0    0    0 -0.00000000000E+00 -0.00000000000E+00  0.11368683772E-12  0.17120000000E+03  0.17120000000E+03 0.  0.
         13    1    1    2    0    0  0.50086161827E+02 -0.16853189724E+03  0.48674071709E+03  0.51752116945E+03  0.10566000000E+00 0. -1.
        994    1    1    2    0    0 -0.67715148246E+02  0.17649732067E+03  0.16200310850E+03  0.30214415876E+03  0.17120000000E+03 0.  0.
        998    1    1    2    0    0  0.17628986419E+02 -0.79654234349E+01  0.85125617069E+03  0.85153467179E+03  0.10000000000E+02 0. -1.
</event>
<event>
 5    1  0.1252319E-008  0.3858105E+03  0.7957747E-01  0.3426242E+00
         13   -1    0    0    0    0  0.00000000000E+00  0.00000000000E+00  0.14999999963E+04  0.15000000000E+04  0.10566000000E+00 0.  1.
        994   -1    0    0    0    0 -0.00000000000E+00 -0.00000000000E+00  0.11368683772E-12  0.17120000000E+03  0.17120000000E+03 0.  0.
         13    1    1    2    0    0 -0.14983980725E+02 -0.90397356812E+01  0.10388807775E+03  0.10535169843E+03  0.10566000000E+00 0.  1.
        994    1    1    2    0    0  0.24763434546E+02  0.22161247794E+02  0.48589693347E+01  0.17446317141E+03  0.17120000000E+03 0.  0.
        998    1    1    2    0    0 -0.97794538210E+01 -0.13121512113E+02  0.13912529492E+04  0.13913851302E+04  0.10000000000E+02 0.  1.
</event>
<event>
 5    1  0.1252319E-008  0.3761326E+03  0.7957747E-01  0.3468173E+00
         13   -1    0    0    0    0  0.00000000000E+00  0.00000000000E+00  0.14999999963E+04  0.15000000000E+04  0.10566000000E+00 0.  1.
        994   -1    0    0    0    0 -0.00000000000E+00 -0.00000000000E+00  0.11368683772E-12  0.17120000000E+03  0.17120000000E+03 0.  0.
         13    1    1    2    0    0  0.60178416724E+02 -0.53580860523E+02  0.41231785654E+03  0.42011709848E+03  0.10566000000E+00 0.  1.
        994    1    1    2    0    0 -0.69401879276E+02  0.33467759826E+02  0.26474009506E+02  0.18959700676E+03  0.17120000000E+03 0.  0.
        998    1    1    2    0    0  0.92234625520E+01  0.20113100696E+02  0.10612081302E+04  0.10614858948E+04  0.10000000000E+02 0.  1.
</event>
<event>
 5    1  0.1252319E-008  0.3837969E+03  0.7957747E-01  0.3434791E+00
         13   -1    0    0    0    0  0.00000000000E+00  0.00000000000E+00  0.14999999963E+04  0.15000000000E+04  0.10566000000E+00 0. -1.
        994   -1    0    0    0    0 -0.00000000000E+00 -0.00000000000E+00  0.11368683772E-12  0.17120000000E+03  0.17120000000E+03 0.  0.
         13    1    1    2    0    0 -0.16830140960E+02 -0.19029922369E+02  0.13468076480E+03  0.13705586876E+03  0.10566000000E+00 0. -1.
        994    1    1    2    0    0  0.17948461407E+02  0.16440876397E+02  0.41870690243E+01  0.17297231348E+03  0.17120000000E+03 0.  0.
        998    1    1    2    0    0 -0.11183204464E+01  0.25890459723E+01  0.13611321625E+04  0.13611718178E+04  0.10000000000E+02 0.  0.
</event>
<event>
 5    1  0.1252319E-008  0.3920040E+03  0.7957747E-01  0.3400500E+00
         13   -1    0    0    0    0  0.00000000000E+00  0.00000000000E+00  0.14999999963E+04  0.15000000000E+04  0.10566000000E+00 0. -1.
        994   -1    0    0    0    0 -0.00000000000E+00 -0.00000000000E+00  0.11368683772E-12  0.17120000000E+03  0.17120000000E+03 0.  0.
         13    1    1    2    0    0  0.68050687869E+02 -0.16773573640E+02  0.11595438213E+03  0.13549051182E+03  0.10566000000E+00 0. -1.
        994    1    1    2    0    0  0.79062360917E+01  0.18624162564E+02  0.24637599531E+02  0.17414310010E+03  0.17120000000E+03 0.  0.
        998    1    1    2    0    0 -0.75956923960E+02 -0.18505889238E+01  0.13594080146E+04  0.13615663881E+04  0.10000000000E+02 0. -1.
</event>
<event>
 5    1  0.1252319E-008  0.3838301E+03  0.7957747E-01  0.3434649E+00
         13   -1    0    0    0    0  0.00000000000E+00  0.00000000000E+00  0.14999999963E+04  0.15000000000E+04  0.10566000000E+00 0.  1.
        994   -1    0    0    0    0 -0.00000000000E+00 -0.00000000000E+00  0.11368683772E-12  0.17120000000E+03  0.17120000000E+03 0.  0.
         13    1    1    2    0    0 -0.18939431261E+02 -0.16904674592E+02  0.14067697689E+03  0.14294926747E+03  0.10566000000E+00 0.  1.
        994    1    1    2    0    0  0.90967880340E+01  0.18868795134E+02  0.36619220114E+01  0.17251560119E+03  0.17120000000E+03 0.  0.
        998    1    1    2    0    0  0.98426432272E+01 -0.19641205417E+01  0.13556610974E+04  0.13557351313E+04  0.10000000000E+02 0.  1.
</event>
<event>
 5    1  0.1252319E-008  0.3773274E+03  0.7957747E-01  0.3462879E+00
         13   -1    0    0    0    0  0.00000000000E+00  0.00000000000E+00  0.14999999963E+04  0.15000000000E+04  0.10566000000E+00 0. -1.
        994   -1    0    0    0    0 -0.00000000000E+00 -0.00000000000E+00  0.11368683772E-12  0.17120000000E+03  0.17120000000E+03 0.  0.
         13    1    1    2    0    0 -0.14800641781E+02 -0.96679755606E+01  0.26497145310E+02  0.31853392632E+02  0.10566000000E+00 0. -1.
        994    1    1    2    0    0  0.61233280223E+01  0.52054758939E+01  0.57062472294E+01  0.17148350761E+03  0.17120000000E+03 0.  0.
        998    1    1    2    0    0  0.86773137585E+01  0.44624996666E+01  0.14677966037E+04  0.14678630998E+04  0.10000000000E+02 0. -1.
</event>
<event>
 5    1  0.1252319E-008  0.3695401E+03  0.7957747E-01  0.3498007E+00
         13   -1    0    0    0    0  0.00000000000E+00  0.00000000000E+00  0.14999999963E+04  0.15000000000E+04  0.10566000000E+00 0. -1.
        994   -1    0    0    0    0 -0.00000000000E+00 -0.00000000000E+00  0.11368683772E-12  0.17120000000E+03  0.17120000000E+03 0.  0.
         13    1    1    2    0    0 -0.14948261600E+02 -0.59238472055E+02  0.15801053036E+03  0.16941070204E+03  0.10566000000E+00 0. -1.
        994    1    1    2    0    0  0.26815052696E+02  0.76316618946E+02  0.32524711779E+02  0.19212123843E+03  0.17120000000E+03 0.  0.
        998    1    1    2    0    0 -0.11866791096E+02 -0.17078146891E+02  0.13094647541E+04  0.13096680595E+04  0.10000000000E+02 0. -1.
</event>
<event>
 5    1  0.1252319E-008  0.3763286E+03  0.7957747E-01  0.3467302E+00
         13   -1    0    0    0    0  0.00000000000E+00  0.00000000000E+00  0.14999999963E+04  0.15000000000E+04  0.10566000000E+00 0.  1.
        994   -1    0    0    0    0 -0.00000000000E+00 -0.00000000000E+00  0.11368683772E-12  0.17120000000E+03  0.17120000000E+03 0.  0.
         13    1    1    2    0    0 -0.13928681111E+03  0.61090652388E+02  0.72403719164E+03  0.73983967831E+03  0.10566000000E+00 0.  1.
        994    1    1    2    0    0  0.13876695872E+03 -0.11469911785E+03  0.12499170839E+03  0.27810883415E+03  0.17120000000E+03 0.  0.
        998    1    1    2    0    0  0.51985239075E+00  0.53608465464E+02  0.65097109625E+03  0.65325148753E+03  0.10000000000E+02 0.  1.
</event>
<event>
 5    1  0.1252319E-008  0.3687189E+03  0.7957747E-01  0.3501800E+00
         13   -1    0    0    0    0  0.00000000000E+00  0.00000000000E+00  0.14999999963E+04  0.15000000000E+04  0.10566000000E+00 0. -1.
        994   -1    0    0    0    0 -0.00000000000E+00 -0.00000000000E+00  0.11368683772E-12  0.17120000000E+03  0.17120000000E+03 0.  0.
         13    1    1    2    0    0 -0.57118987360E+02  0.18074951714E+02  0.23015873098E+03  0.23782837342E+03  0.10566000000E+00 0. -1.
        994    1    1    2    0    0 -0.92716032511E+01  0.25691947305E+02  0.12863845286E+02  0.17384175936E+03  0.17120000000E+03 0.  0.
        998    1    1    2    0    0  0.66390590611E+02 -0.43766899019E+02  0.12569774200E+04  0.12595298672E+04  0.10000000000E+02 0. -1.
</event>
<event>
 5    1  0.1252319E-008  0.3754873E+03  0.7957747E-01  0.3471046E+00
         13   -1    0    0    0    0  0.00000000000E+00  0.00000000000E+00  0.14999999963E+04  0.15000000000E+04  0.10566000000E+00 0. -1.
        994   -1    0    0    0    0 -0.00000000000E+00 -0.00000000000E+00  0.11368683772E-12  0.17120000000E+03  0.17120000000E+03 0.  0.
         13    1    1    2    0    0  0.87342362074E+01  0.41399500885E+02  0.14359642657E+03  0.14970020188E+03  0.10566000000E+00 0. -1.
        994    1    1    2    0    0 -0.31387554078E+01 -0.15698273428E+02  0.72989368018E+01  0.17210172007E+03  0.17120000000E+03 0.  0.
        998    1    1    2    0    0 -0.55954807996E+01 -0.25701227457E+02  0.13491046329E+04  0.13493980780E+04  0.10000000000E+02 0. -1.
</event>
<event>
 5    1  0.1252319E-008  0.3787919E+03  0.7957747E-01  0.3456436E+00
         13   -1    0    0    0    0  0.00000000000E+00  0.00000000000E+00  0.14999999963E+04  0.15000000000E+04  0.10566000000E+00 0.  1.
        994   -1    0    0    0    0 -0.00000000000E+00 -0.00000000000E+00  0.11368683772E-12  0.17120000000E+03  0.17120000000E+03 0.  0.
         13    1    1    2    0    0  0.84292177541E+01 -0.37383157431E+02  0.14356092350E+03  0.14858769159E+03  0.10566000000E+00 0.  1.
        994    1    1    2    0    0 -0.19503952792E+01  0.34207679467E+02  0.86945136541E+01  0.17481133814E+03  0.17120000000E+03 0.  0.
        998    1    1    2    0    0 -0.64788224750E+01  0.31754779637E+01  0.13477445591E+04  0.13478009703E+04  0.10000000000E+02 0.  1.
</event>
<event>
 5    1  0.1252319E-008  0.3774389E+03  0.7957747E-01  0.3462387E+00
         13   -1    0    0    0    0  0.00000000000E+00  0.00000000000E+00  0.14999999963E+04  0.15000000000E+04  0.10566000000E+00 0. -1.
        994   -1    0    0    0    0 -0.00000000000E+00 -0.00000000000E+00  0.11368683772E-12  0.17120000000E+03  0.17120000000E+03 0.  0.
         13    1    1    2    0    0  0.18181134963E+02  0.16320466709E+02  0.52088521416E+02  0.57533785983E+02  0.10566000000E+00 0. -1.
        994    1    1    2    0    0  0.85445565232E+01 -0.39843901269E+02  0.11050612260E+02  0.17632952659E+03  0.17120000000E+03 0.  0.
        998    1    1    2    0    0 -0.26725691486E+02  0.23523434560E+02  0.14368608626E+04  0.14373366874E+04  0.10000000000E+02 0. -1.
</event>
<event>
 5    1  0.1252319E-008  0.3002284E+03  0.7957747E-01  0.3894390E+00
         13   -1    0    0    0    0  0.00000000000E+00  0.00000000000E+00  0.14999999963E+04  0.15000000000E+04  0.10566000000E+00 0.  1.
        994   -1    0    0    0    0 -0.00000000000E+00 -0.00000000000E+00  0.11368683772E-12  0.17120000000E+03  0.17120000000E+03 0.  0.
         13    1    1    2    0    0 -0.19391955903E+03  0.79351674047E+01  0.65166976203E+03  0.67995680169E+03  0.10566000000E+00 0.  1.
        994    1    1    2    0    0  0.17530044911E+03 -0.58661036016E+00  0.13929814401E+03  0.28185812831E+03  0.17120000000E+03 0.  0.
        998    1    1    2    0    0  0.18619109917E+02 -0.73485570445E+01  0.70903209024E+03  0.70938507000E+03  0.10000000000E+02 0. -1.
</event>
<event>
 5    1  0.1252319E-008  0.3742079E+03  0.7957747E-01  0.3476773E+00
         13   -1    0    0    0    0  0.00000000000E+00  0.00000000000E+00  0.14999999963E+04  0.15000000000E+04  0.10566000000E+00 0.  1.
        994   -1    0    0    0    0 -0.00000000000E+00 -0.00000000000E+00  0.11368683772E-12  0.17120000000E+03  0.17120000000E+03 0.  0.
         13    1    1    2    0    0 -0.10236268117E+03 -0.12465416124E+03  0.95911065341E+03  0.97257906365E+03  0.10566000000E+00 0.  1.
        994    1    1    2    0    0  0.10311984654E+03  0.97887403511E+02  0.79453370540E+02  0.23630049641E+03  0.17120000000E+03 0.  0.
        998    1    1    2    0    0 -0.75716536903E+00  0.26766757730E+02  0.46143597233E+03  0.46232043993E+03  0.10000000000E+02 0.  1.
</event>
<event>
 5    1  0.1252319E-008  0.3744302E+03  0.7957747E-01  0.3475775E+00
         13   -1    0    0    0    0  0.00000000000E+00  0.00000000000E+00  0.14999999963E+04  0.15000000000E+04  0.10566000000E+00 0. -1.
        994   -1    0    0    0    0 -0.00000000000E+00 -0.00000000000E+00  0.11368683772E-12  0.17120000000E+03  0.17120000000E+03 0.  0.
         13    1    1    2    0    0 -0.81782862542E+02 -0.13604111441E+03  0.73901951447E+03  0.75587398113E+03  0.10566000000E+00 0. -1.
        994    1    1    2    0    0  0.10744389368E+03  0.12981165059E+03  0.11081234504E+03  0.26454502591E+03  0.17120000000E+03 0.  0.
        998    1    1    2    0    0 -0.25661031142E+02  0.62294638239E+01  0.65016813677E+03  0.65078099297E+03  0.10000000000E+02 0. -1.
</event>
<event>
 5    1  0.1252319E-008  0.3800182E+03  0.7957747E-01  0.3451079E+00
         13   -1    0    0    0    0  0.00000000000E+00  0.00000000000E+00  0.14999999963E+04  0.15000000000E+04  0.10566000000E+00 0. -1.
        994   -1    0    0    0    0 -0.00000000000E+00 -0.00000000000E+00  0.11368683772E-12  0.17120000000E+03  0.17120000000E+03 0.  0.
         13    1    1    2    0    0  0.23280836127E+02 -0.39551111895E+02  0.25635015614E+03  0.26042600004E+03  0.10566000000E+00 0. -1.
        994    1    1    2    0    0 -0.41545756070E+02  0.68860769966E+01  0.10075019787E+02  0.17659109244E+03  0.17120000000E+03 0.  0.
        998    1    1    2    0    0  0.18264919943E+02  0.32665034898E+02  0.12335748204E+04  0.12341829075E+04  0.10000000000E+02 0. -1.
</event>
<event>
 5    1  0.1252319E-008  0.3806954E+03  0.7957747E-01  0.3448136E+00
         13   -1    0    0    0    0  0.00000000000E+00  0.00000000000E+00  0.14999999963E+04  0.15000000000E+04  0.10566000000E+00 0. -1.
        994   -1    0    0    0    0 -0.00000000000E+00 -0.00000000000E+00  0.11368683772E-12  0.17120000000E+03  0.17120000000E+03 0.  0.
         13    1    1    2    0    0  0.13098737793E+02  0.11866924813E+02  0.41640277460E+02  0.45236320664E+02  0.10566000000E+00 0. -1.
        994    1    1    2    0    0 -0.42711707424E+01  0.50650011461E+01  0.39289555132E+01  0.17137320044E+03  0.17120000000E+03 0.  0.
        998    1    1    2    0    0 -0.88275670508E+01 -0.16931925959E+02  0.14544307633E+04  0.14545904789E+04  0.10000000000E+02 0. -1.
</event>
<event>
 5    1  0.1252319E-008  0.3843142E+03  0.7957747E-01  0.3432586E+00
         13   -1    0    0    0    0  0.00000000000E+00  0.00000000000E+00  0.14999999963E+04  0.15000000000E+04  0.10566000000E+00 0. -1.
        994   -1    0    0    0    0 -0.00000000000E+00 -0.00000000000E+00  0.11368683772E-12  0.17120000000E+03  0.17120000000E+03 0.  0.
         13    1    1    2    0    0 -0.57032862709E+01  0.12737456002E+02  0.51326161515E+02  0.53189813683E+02  0.10566000000E+00 0. -1.
        994    1    1    2    0    0  0.19644596665E+02  0.77157164929E+01  0.34405384486E+01  0.17253034447E+03  0.17120000000E+03 0.  0.
        998    1    1    2    0    0 -0.13941310394E+02 -0.20453172495E+02  0.14452332963E+04  0.14454798418E+04  0.10000000000E+02 0. -1.
</event>
<event>
 5    1  0.1252319E-008  0.3851132E+03  0.7957747E-01  0.3429192E+00
         13   -1    0    0    0    0  0.00000000000E+00  0.00000000000E+00  0.14999999963E+04  0.15000000000E+04  0.10566000000E+00 0.  1.
        994   -1    0    0    0    0 -0.00000000000E+00 -0.00000000000E+00  0.11368683772E-12  0.17120000000E+03  0.17120000000E+03 0.  0.
         13    1    1    2    0    0 -0.19169884490E+03  0.76873266809E+02  0.10855980534E+04  0.11050706272E+04  0.10566000000E+00 0.  1.
        994    1    1    2    0    0  0.20289446230E+03 -0.88885562618E+02  0.18418821324E+03  0.33511422526E+03  0.17120000000E+03 0.  0.
        998    1    1    2    0    0 -0.11195617406E+02  0.12012295810E+02  0.23021372963E+03  0.23101514758E+03  0.10000000000E+02 0.  1.
</event>
<event>
 5    1  0.1252319E-008  0.3723822E+03  0.7957747E-01  0.3485014E+00
         13   -1    0    0    0    0  0.00000000000E+00  0.00000000000E+00  0.14999999963E+04  0.15000000000E+04  0.10566000000E+00 0.  1.
        994   -1    0    0    0    0 -0.00000000000E+00 -0.00000000000E+00  0.11368683772E-12  0.17120000000E+03  0.17120000000E+03 0.  0.
         13    1    1    2    0    0  0.38549988511E+01 -0.36371548894E+02  0.75842477729E+02  0.84201206507E+02  0.10566000000E+00 0.  1.
        994    1    1    2    0    0  0.63845870874E+00  0.40025883615E+02  0.13544890418E+02  0.17633883022E+03  0.17120000000E+03 0.  0.
        998    1    1    2    0    0 -0.44934575598E+01 -0.36543347207E+01  0.14106126281E+04  0.14106599633E+04  0.10000000000E+02 0.  1.
</event>
<event>
 5    1  0.1252319E-008  0.3848221E+03  0.7957747E-01  0.3430427E+00
         13   -1    0    0    0    0  0.00000000000E+00  0.00000000000E+00  0.14999999963E+04  0.15000000000E+04  0.10566000000E+00 0.  1.
        994   -1    0    0    0    0 -0.00000000000E+00 -0.00000000000E+00  0.11368683772E-12  0.17120000000E+03  0.17120000000E+03 0.  0.
         13    1    1    2    0    0  0.11428435173E+02 -0.68633571707E+01  0.51255115436E+02  0.52960483613E+02  0.10566000000E+00 0.  1.
        994    1    1    2    0    0 -0.94583061321E+01  0.37148128421E+01  0.20583552529E+01  0.17151366189E+03  0.17120000000E+03 0.  0.
        998    1    1    2    0    0 -0.19701290411E+01  0.31485443286E+01  0.14466865256E+04  0.14467258545E+04  0.10000000000E+02 0.  1.
</event>
<event>
 5    1  0.1252319E-008  0.3779527E+03  0.7957747E-01  0.3460122E+00
         13   -1    0    0    0    0  0.00000000000E+00  0.00000000000E+00  0.14999999963E+04  0.15000000000E+04  0.10566000000E+00 0.  1.
        994   -1    0    0    0    0 -0.00000000000E+00 -0.00000000000E+00  0.11368683772E-12  0.17120000000E+03  0.17120000000E+03 0.  0.
         13    1    1    2    0    0 -0.20139340515E+02  0.28776666545E+02  0.12214440770E+03  0.12709428418E+03  0.10566000000E+00 0.  1.
        994    1    1    2    0    0 -0.18344190425E+02 -0.30417377322E+02  0.94285515640E+01  0.17510015348E+03  0.17120000000E+03 0.  0.
        998    1    1    2    0    0  0.38483530939E+02  0.16407107765E+01  0.13684270370E+04  0.13690055623E+04  0.10000000000E+02 0.  1.
</event>
<event>
 5    1  0.1252319E-008  0.3790661E+03  0.7957747E-01  0.3455235E+00
         13   -1    0    0    0    0  0.00000000000E+00  0.00000000000E+00  0.14999999963E+04  0.15000000000E+04  0.10566000000E+00 0. -1.
        994   -1    0    0    0    0 -0.00000000000E+00 -0.00000000000E+00  0.11368683772E-12  0.17120000000E+03  0.17120000000E+03 0.  0.
         13    1    1    2    0    0  0.26777936227E+02  0.11925523548E+02  0.99369832192E+02  0.10360333341E+03  0.10566000000E+00 0. -1.
        994    1    1    2    0    0 -0.42377427276E+01  0.54921041609E+01  0.47667132063E+01  0.17140677707E+03  0.17120000000E+03 0.  0.
        998    1    1    2    0    0 -0.22540193499E+02 -0.17417627709E+02  0.13958634509E+04  0.13961898895E+04  0.10000000000E+02 0. -1.
</event>
<event>
 5    1  0.1252319E-008  0.3854566E+03  0.7957747E-01  0.3427738E+00
         13   -1    0    0    0    0  0.00000000000E+00  0.00000000000E+00  0.14999999963E+04  0.15000000000E+04  0.10566000000E+00 0. -1.
        994   -1    0    0    0    0 -0.00000000000E+00 -0.00000000000E+00  0.11368683772E-12  0.17120000000E+03  0.17120000000E+03 0.  0.
         13    1    1    2    0    0  0.90359849366E+01  0.13929977270E+02  0.97033811512E+02  0.98444222944E+02  0.10566000000E+00 0. -1.
        994    1    1    2    0    0 -0.72557913872E+01 -0.10369592100E+02  0.19297592874E+01  0.17167800942E+03  0.17120000000E+03 0.  0.
        998    1    1    2    0    0 -0.17801935495E+01 -0.35603851698E+01  0.14010364255E+04  0.14010777676E+04  0.10000000000E+02 0. -1.
</event>
<event>
 5    1  0.1252319E-008  0.3794994E+03  0.7957747E-01  0.3453341E+00
         13   -1    0    0    0    0  0.00000000000E+00  0.00000000000E+00  0.14999999963E+04  0.15000000000E+04  0.10566000000E+00 0. -1.
        994   -1    0    0    0    0 -0.00000000000E+00 -0.00000000000E+00  0.11368683772E-12  0.17120000000E+03  0.17120000000E+03 0.  0.
         13    1    1    2    0    0  0.71423121918E+01  0.13091438278E+02  0.23081102499E+02  0.27479935157E+02  0.10566000000E+00 0. -1.
        994    1    1    2    0    0 -0.64141816389E+01 -0.16439928830E+02  0.54295171328E+01  0.17219271948E+03  0.17120000000E+03 0.  0.
        998    1    1    2    0    0 -0.72813055289E+00  0.33484905526E+01  0.14714893766E+04  0.14715273454E+04  0.10000000000E+02 0. -1.
</event>
<event>
 5    1  0.1252319E-008  0.3852730E+03  0.7957747E-01  0.3428515E+00
         13   -1    0    0    0    0  0.00000000000E+00  0.00000000000E+00  0.14999999963E+04  0.15000000000E+04  0.10566000000E+00 0. -1.
        994   -1    0    0    0    0 -0.00000000000E+00 -0.00000000000E+00  0.11368683772E-12  0.17120000000E+03  0.17120000000E+03 0.  0.
         13    1    1    2    0    0  0.13735082053E+02  0.66472215997E+01  0.77187612680E+02  0.78681489241E+02  0.10566000000E+00 0. -1.
        994    1    1    2    0    0 -0.63833444601E+01 -0.13830655521E+02  0.22574121010E+01  0.17189115750E+03  0.17120000000E+03 0.  0.
        998    1    1    2    0    0 -0.73517375927E+01  0.71834339212E+01  0.14205549715E+04  0.14206273533E+04  0.10000000000E+02 0. -1.
</event>
<event>
 5    1  0.1252319E-008  0.3816606E+03  0.7957747E-01  0.3443960E+00
         13   -1    0    0    0    0  0.00000000000E+00  0.00000000000E+00  0.14999999963E+04  0.15000000000E+04  0.10566000000E+00 0.  1.
        994   -1    0    0    0    0 -0.00000000000E+00 -0.00000000000E+00  0.11368683772E-12  0.17120000000E+03  0.17120000000E+03 0.  0.
         13    1    1    2    0    0  0.31638760467E+02  0.10487469952E+02  0.17755648209E+03  0.18065800200E+03  0.10566000000E+00 0.  1.
        994    1    1    2    0    0 -0.48416141691E+01 -0.25899522059E+02  0.56087176530E+01  0.17330644588E+03  0.17120000000E+03 0.  0.
        998    1    1    2    0    0 -0.26797146298E+02  0.15412052107E+02  0.13168347965E+04  0.13172355521E+04  0.10000000000E+02 0.  1.
</event>
<event>
 5    1  0.1252319E-008  0.3826486E+03  0.7957747E-01  0.3439706E+00
         13   -1    0    0    0    0  0.00000000000E+00  0.00000000000E+00  0.14999999963E+04  0.15000000000E+04  0.10566000000E+00 0.  1.
        994   -1    0    0    0    0 -0.00000000000E+00 -0.00000000000E+00  0.11368683772E-12  0.17120000000E+03  0.17120000000E+03 0.  0.
         13    1    1    2    0    0 -0.54452503124E+01 -0.11705104781E+02  0.28928365807E+02  0.31678411279E+02  0.10566000000E+00 0.  1.
        994    1    1    2    0    0 -0.35567173809E+01  0.94077700428E+01  0.31373758252E+01  0.17152387444E+03  0.17120000000E+03 0.  0.
        998    1    1    2    0    0  0.90019676932E+01  0.22973347382E+01  0.14679342546E+04  0.14679977143E+04  0.10000000000E+02 0.  1.
</event>
<event>
 5    1  0.1252319E-008  0.3847044E+03  0.7957747E-01  0.3430927E+00
         13   -1    0    0    0    0  0.00000000000E+00  0.00000000000E+00  0.14999999963E+04  0.15000000000E+04  0.10566000000E+00 0. -1.
        994   -1    0    0    0    0 -0.00000000000E+00 -0.00000000000E+00  0.11368683772E-12  0.17120000000E+03  0.17120000000E+03 0.  0.
         13    1    1    2    0    0  0.14230513999E+02  0.70678807748E+01  0.67099053291E+02  0.68954743012E+02  0.10566000000E+00 0. -1.
        994    1    1    2    0    0 -0.16954369198E+02 -0.95229565079E+01  0.30227011830E+01  0.17232734565E+03  0.17120000000E+03 0.  0.
        998    1    1    2    0    0  0.27238551994E+01  0.24550757331E+01  0.14298782418E+04  0.14299179113E+04  0.10000000000E+02 0. -1.
</event>
<event>
 5    1  0.1252319E-008  0.3828541E+03  0.7957747E-01  0.3438825E+00
         13   -1    0    0    0    0  0.00000000000E+00  0.00000000000E+00  0.14999999963E+04  0.15000000000E+04  0.10566000000E+00 0. -1.
        994   -1    0    0    0    0 -0.00000000000E+00 -0.00000000000E+00  0.11368683772E-12  0.17120000000E+03  0.17120000000E+03 0.  0.
         13    1    1    2    0    0  0.10652661569E+02  0.97169608477E+01  0.36571475698E+02  0.39311353645E+02  0.10566000000E+00 0. -1.
        994    1    1    2    0    0 -0.76171345836E+01 -0.16940640573E+02  0.38426936198E+01  0.17224753216E+03  0.17120000000E+03 0.  0.
        998    1    1    2    0    0 -0.30355269854E+01  0.72236797252E+01  0.14595858270E+04  0.14596411142E+04  0.10000000000E+02 0. -1.
</event>
<event>
 5    1  0.1252319E-008  0.3764183E+03  0.7957747E-01  0.3466904E+00
         13   -1    0    0    0    0  0.00000000000E+00  0.00000000000E+00  0.14999999963E+04  0.15000000000E+04  0.10566000000E+00 0. -1.
        994   -1    0    0    0    0 -0.00000000000E+00 -0.00000000000E+00  0.11368683772E-12  0.17120000000E+03  0.17120000000E+03 0.  0.
         13    1    1    2    0    0 -0.12298296410E+02  0.15168825798E+02  0.27502906738E+02  0.33730733964E+02  0.10566000000E+00 0. -1.
        994    1    1    2    0    0  0.86819921735E+00 -0.50233529412E+02  0.14539682922E+02  0.17901118296E+03  0.17120000000E+03 0.  0.
        998    1    1    2    0    0  0.11430097193E+02  0.35064703613E+02  0.14579574066E+04  0.14584580831E+04  0.10000000000E+02 0. -1.
</event>
<event>
 5    1  0.1252319E-008  0.3811618E+03  0.7957747E-01  0.3446115E+00
         13   -1    0    0    0    0  0.00000000000E+00  0.00000000000E+00  0.14999999963E+04  0.15000000000E+04  0.10566000000E+00 0. -1.
        994   -1    0    0    0    0 -0.00000000000E+00 -0.00000000000E+00  0.11368683772E-12  0.17120000000E+03  0.17120000000E+03 0.  0.
         13    1    1    2    0    0 -0.13386937450E+02 -0.21362249750E+02  0.90193541521E+02  0.93650637504E+02  0.10566000000E+00 0. -1.
        994    1    1    2    0    0  0.47645195649E+01  0.10811918474E+02  0.40128197498E+01  0.17165413176E+03  0.17120000000E+03 0.  0.
        998    1    1    2    0    0  0.86224178852E+01  0.10550331276E+02  0.14057936350E+04  0.14058952307E+04  0.10000000000E+02 0.  1.
</event>
<event>
 5    1  0.1252319E-008  0.3791371E+03  0.7957747E-01  0.3454925E+00
         13   -1    0    0    0    0  0.00000000000E+00  0.00000000000E+00  0.14999999963E+04  0.15000000000E+04  0.10566000000E+00 0. -1.
        994   -1    0    0    0    0 -0.00000000000E+00 -0.00000000000E+00  0.11368683772E-12  0.17120000000E+03  0.17120000000E+03 0.  0.
         13    1    1    2    0    0 -0.25059463040E+02 -0.22675276514E+02  0.11524998559E+03  0.12010293583E+03  0.10566000000E+00 0. -1.
        994    1    1    2    0    0  0.23338175877E+02  0.23791997271E+02  0.83020656938E+01  0.17461126505E+03  0.17120000000E+03 0.  0.
        998    1    1    2    0    0  0.17212871634E+01 -0.11167207571E+01  0.13764479450E+04  0.13764857991E+04  0.10000000000E+02 0. -1.
</event>
<event>
 5    1  0.1252319E-008  0.3810141E+03  0.7957747E-01  0.3446755E+00
         13   -1    0    0    0    0  0.00000000000E+00  0.00000000000E+00  0.14999999963E+04  0.15000000000E+04  0.10566000000E+00 0. -1.
        994   -1    0    0    0    0 -0.00000000000E+00 -0.00000000000E+00  0.11368683772E-12  0.17120000000E+03  0.17120000000E+03 0.  0.
         13    1    1    2    0    0 -0.18321320476E+02 -0.23936987094E+03  0.10654336039E+04  0.10921457693E+04  0.10566000000E+00 0. -1.
        994    1    1    2    0    0  0.15967699777E+02  0.24115610189E+03  0.23201203583E+03  0.37623165428E+03  0.17120000000E+03 0.  0.
        998    1    1    2    0    0  0.23536206986E+01 -0.17862309482E+01  0.20255435655E+03  0.20282257642E+03  0.10000000000E+02 0.  0.
</event>
<event>
 5    1  0.1252319E-008  0.3688168E+03  0.7957747E-01  0.3501347E+00
         13   -1    0    0    0    0  0.00000000000E+00  0.00000000000E+00  0.14999999963E+04  0.15000000000E+04  0.10566000000E+00 0. -1.
        994   -1    0    0    0    0 -0.00000000000E+00 -0.00000000000E+00  0.11368683772E-12  0.17120000000E+03  0.17120000000E+03 0.  0.
         13    1    1    2    0    0  0.10690273341E+02  0.29175807301E+02  0.45268626344E+02  0.54906915511E+02  0.10566000000E+00 0. -1.
        994    1    1    2    0    0 -0.18061543639E+02  0.66479607917E+01  0.11605170444E+02  0.17266885858E+03  0.17120000000E+03 0.  0.
        998    1    1    2    0    0  0.73712702980E+01 -0.35823768093E+02  0.14431261995E+04  0.14436242259E+04  0.10000000000E+02 0. -1.
</event>
<event>
 5    1  0.1252319E-008  0.3860560E+03  0.7957747E-01  0.3425206E+00
         13   -1    0    0    0    0  0.00000000000E+00  0.00000000000E+00  0.14999999963E+04  0.15000000000E+04  0.10566000000E+00 0. -1.
        994   -1    0    0    0    0 -0.00000000000E+00 -0.00000000000E+00  0.11368683772E-12  0.17120000000E+03  0.17120000000E+03 0.  0.
         13    1    1    2    0    0  0.10993766665E+02  0.42792473256E+01  0.64526292936E+02  0.65595948863E+02  0.10566000000E+00 0. -1.
        994    1    1    2    0    0 -0.30810108456E+01 -0.91927048571E+01  0.14149102874E+01  0.17148014585E+03  0.17120000000E+03 0.  0.
        998    1    1    2    0    0 -0.79127558192E+01  0.49134575316E+01  0.14340587931E+04  0.14341239053E+04  0.10000000000E+02 0. -1.
</event>
<event>
 5    1  0.1252319E-008  0.3851275E+03  0.7957747E-01  0.3429132E+00
         13   -1    0    0    0    0  0.00000000000E+00  0.00000000000E+00  0.14999999963E+04  0.15000000000E+04  0.10566000000E+00 0.  1.
        994   -1    0    0    0    0 -0.00000000000E+00 -0.00000000000E+00  0.11368683772E-12  0.17120000000E+03  0.17120000000E+03 0.  0.
         13    1    1    2    0    0  0.10518600410E+02 -0.76797069916E+01  0.56542755772E+02  0.58023385358E+02  0.10566000000E+00 0.  1.
        994    1    1    2    0    0  0.33264902628E+01  0.73922195341E+01  0.17828902472E+01  0.17140107685E+03  0.17120000000E+03 0.  0.
        998    1    1    2    0    0 -0.13845090673E+02  0.28748745752E+00  0.14416743503E+04  0.14417755378E+04  0.10000000000E+02 0.  1.
</event>
<event>
 5    1  0.1252319E-008  0.3812148E+03  0.7957747E-01  0.3445886E+00
         13   -1    0    0    0    0  0.00000000000E+00  0.00000000000E+00  0.14999999963E+04  0.15000000000E+04  0.10566000000E+00 0.  1.
        994   -1    0    0    0    0 -0.00000000000E+00 -0.00000000000E+00  0.11368683772E-12  0.17120000000E+03  0.17120000000E+03 0.  0.
         13    1    1    2    0    0  0.13908516347E+02  0.10032946930E+02  0.39784242305E+02  0.43323249542E+02  0.10566000000E+00 0.  1.
        994    1    1    2    0    0 -0.11849080817E+02 -0.11135541946E+02  0.44020190227E+01  0.17202679670E+03  0.17120000000E+03 0.  0.
        998    1    1    2    0    0 -0.20594355305E+01  0.11025950151E+01  0.14558137350E+04  0.14558499538E+04  0.10000000000E+02 0.  1.
</event>
<event>
 5    1  0.1252319E-008  0.3832060E+03  0.7957747E-01  0.3437317E+00
         13   -1    0    0    0    0  0.00000000000E+00  0.00000000000E+00  0.14999999963E+04  0.15000000000E+04  0.10566000000E+00 0.  1.
        994   -1    0    0    0    0 -0.00000000000E+00 -0.00000000000E+00  0.11368683772E-12  0.17120000000E+03  0.17120000000E+03 0.  0.
         13    1    1    2    0    0  0.84589482709E+01 -0.80715599779E+01  0.26429934598E+02  0.28900804370E+02  0.10566000000E+00 0.  1.
        994    1    1    2    0    0  0.42665840755E+01  0.12976832460E+02  0.31409505364E+01  0.17177283688E+03  0.17120000000E+03 0.  0.
        998    1    1    2    0    0 -0.12725532346E+02 -0.49052724822E+01  0.14704291111E+04  0.14705263587E+04  0.10000000000E+02 0.  1.
</event>
<event>
 5    1  0.1252319E-008  0.3697440E+03  0.7957747E-01  0.3497068E+00
         13   -1    0    0    0    0  0.00000000000E+00  0.00000000000E+00  0.14999999963E+04  0.15000000000E+04  0.10566000000E+00 0. -1.
        994   -1    0    0    0    0 -0.00000000000E+00 -0.00000000000E+00  0.11368683772E-12  0.17120000000E+03  0.17120000000E+03 0.  0.
         13    1    1    2    0    0 -0.22337940370E+02  0.26060781515E+02  0.59416468990E+02  0.68618334754E+02  0.10566000000E+00 0. -1.
        994    1    1    2    0    0  0.12791634539E+02 -0.16559225139E+02  0.10919579183E+02  0.17281930176E+03  0.17120000000E+03 0.  0.
        998    1    1    2    0    0  0.95463058307E+01 -0.95015563756E+01  0.14296639481E+04  0.14297623635E+04  0.10000000000E+02 0. -1.
</event>
<event>
 5    1  0.1252319E-008  0.3854315E+03  0.7957747E-01  0.3427844E+00
         13   -1    0    0    0    0  0.00000000000E+00  0.00000000000E+00  0.14999999963E+04  0.15000000000E+04  0.10566000000E+00 0.  1.
        994   -1    0    0    0    0 -0.00000000000E+00 -0.00000000000E+00  0.11368683772E-12  0.17120000000E+03  0.17120000000E+03 0.  0.
         13    1    1    2    0    0 -0.11420555375E+02  0.12552034192E+00  0.45157720095E+02  0.46579777680E+02  0.10566000000E+00 0.  1.
        994    1    1    2    0    0  0.11699149307E+02 -0.57331635204E+01  0.19736782117E+01  0.17170636175E+03  0.17120000000E+03 0.  0.
        998    1    1    2    0    0 -0.27859393182E+00  0.56076431785E+01  0.14528685980E+04  0.14529138606E+04  0.10000000000E+02 0.  1.
</event>
<event>
 5    1  0.1252319E-008  0.3692323E+03  0.7957747E-01  0.3499427E+00
         13   -1    0    0    0    0  0.00000000000E+00  0.00000000000E+00  0.14999999963E+04  0.15000000000E+04  0.10566000000E+00 0.  1.
        994   -1    0    0    0    0 -0.00000000000E+00 -0.00000000000E+00  0.11368683772E-12  0.17120000000E+03  0.17120000000E+03 0.  0.
         13    1    1    2    0    0 -0.17899173953E+02  0.23031794964E+02  0.35278257437E+02  0.45775655313E+02  0.10566000000E+00 0.  1.
        994    1    1    2    0    0  0.17410679683E+02 -0.24477108741E+02  0.13685744561E+02  0.17435309066E+03  0.17120000000E+03 0.  0.
        998    1    1    2    0    0  0.48849427012E+00  0.14453137772E+01  0.14510359943E+04  0.14510712540E+04  0.10000000000E+02 0.  1.
</event>
<event>
 5    1  0.1252319E-008  0.3840417E+03  0.7957747E-01  0.3433747E+00
         13   -1    0    0    0    0  0.00000000000E+00  0.00000000000E+00  0.14999999963E+04  0.15000000000E+04  0.10566000000E+00 0. -1.
        994   -1    0    0    0    0 -0.00000000000E+00 -0.00000000000E+00  0.11368683772E-12  0.17120000000E+03  0.17120000000E+03 0.  0.
         13    1    1    2    0    0  0.16771406861E+02  0.12232360387E+02  0.11688071388E+03  0.11870982761E+03  0.10566000000E+00 0. -1.
        994    1    1    2    0    0  0.47968647749E+01  0.15281358864E+01  0.21902940853E+01  0.17128801038E+03  0.17120000000E+03 0.  0.
        998    1    1    2    0    0 -0.21568271636E+02 -0.13760496273E+02  0.13809289883E+04  0.13812021620E+04  0.10000000000E+02 0. -1.
</event>
<event>
 5    1  0.1252319E-008  0.3842712E+03  0.7957747E-01  0.3432769E+00
         13   -1    0    0    0    0  0.00000000000E+00  0.00000000000E+00  0.14999999963E+04  0.15000000000E+04  0.10566000000E+00 0.  1.
        994   -1    0    0    0    0 -0.00000000000E+00 -0.00000000000E+00  0.11368683772E-12  0.17120000000E+03  0.17120000000E+03 0.  0.
         13    1    1    2    0    0  0.54904949854E+01 -0.13708128961E+02  0.55775445411E+02  0.57697225320E+02  0.10566000000E+00 0.  1.
        994    1    1    2    0    0  0.42832286838E+01  0.71718986297E+01  0.22224739275E+01  0.17141808997E+03  0.17120000000E+03 0.  0.
        998    1    1    2    0    0 -0.97737236692E+01  0.65362303313E+01  0.14420020769E+04  0.14420846847E+04  0.10000000000E+02 0.  1.
</event>
<event>
 5    1  0.1252319E-008  0.3705576E+03  0.7957747E-01  0.3493332E+00
         13   -1    0    0    0    0  0.00000000000E+00  0.00000000000E+00  0.14999999963E+04  0.15000000000E+04  0.10566000000E+00 0. -1.
        994   -1    0    0    0    0 -0.00000000000E+00 -0.00000000000E+00  0.11368683772E-12  0.17120000000E+03  0.17120000000E+03 0.  0.
         13    1    1    2    0    0 -0.21717199015E+02 -0.52970371105E+01  0.24352126481E+02  0.33056505614E+02  0.10566000000E+00 0. -1.
        994    1    1    2    0    0  0.12808620903E+02 -0.72587079057E+01  0.97262309560E+01  0.17210691206E+03  0.17120000000E+03 0.  0.
        998    1    1    2    0    0  0.89085781124E+01  0.12555745016E+02  0.14659216388E+04  0.14660365823E+04  0.10000000000E+02 0. -1.
</event>
<event>
 5    1  0.1252319E-008  0.3824673E+03  0.7957747E-01  0.3440485E+00
         13   -1    0    0    0    0  0.00000000000E+00  0.00000000000E+00  0.14999999963E+04  0.15000000000E+04  0.10566000000E+00 0.  1.
        994   -1    0    0    0    0 -0.00000000000E+00 -0.00000000000E+00  0.11368683772E-12  0.17120000000E+03  0.17120000000E+03 0.  0.
         13    1    1    2    0    0  0.19259607100E+02  0.24234612305E+02  0.15140212987E+03  0.15453434891E+03  0.10566000000E+00 0.  1.
        994    1    1    2    0    0 -0.16049263725E+02 -0.25287635126E+02  0.58730298591E+01  0.17389932673E+03  0.17120000000E+03 0.  0.
        998    1    1    2    0    0 -0.32103433743E+01  0.10530228209E+01  0.13427248366E+04  0.13427663244E+04  0.10000000000E+02 0.  1.
</event>
<event>
 5    1  0.1252319E-008  0.3817705E+03  0.7957747E-01  0.3443485E+00
         13   -1    0    0    0    0  0.00000000000E+00  0.00000000000E+00  0.14999999963E+04  0.15000000000E+04  0.10566000000E+00 0. -1.
        994   -1    0    0    0    0 -0.00000000000E+00 -0.00000000000E+00  0.11368683772E-12  0.17120000000E+03  0.17120000000E+03 0.  0.
         13    1    1    2    0    0  0.27498384531E+02  0.13989971769E+02  0.17551457799E+03  0.17820566409E+03  0.10566000000E+00 0. -1.
        994    1    1    2    0    0 -0.17273475263E+00  0.11410540495E+02  0.36749958513E+01  0.17161927592E+03  0.17120000000E+03 0.  0.
        998    1    1    2    0    0 -0.27325649778E+02 -0.25400512264E+02  0.13208104224E+04  0.13213750600E+04  0.10000000000E+02 0. -1.
</event>
<event>
 5    1  0.1252319E-008  0.3827665E+03  0.7957747E-01  0.3439200E+00
         13   -1    0    0    0    0  0.00000000000E+00  0.00000000000E+00  0.14999999963E+04  0.15000000000E+04  0.10566000000E+00 0. -1.
        994   -1    0    0    0    0 -0.00000000000E+00 -0.00000000000E+00  0.11368683772E-12  0.17120000000E+03  0.17120000000E+03 0.  0.
         13    1    1    2    0    0 -0.26319379940E+01 -0.10945152991E+02  0.21905935072E+02  0.24629344835E+02  0.10566000000E+00 0. -1.
        994    1    1    2    0    0  0.71896965004E+01  0.89241858727E+01  0.31783031709E+01  0.17161257075E+03  0.17120000000E+03 0.  0.
        998    1    1    2    0    0 -0.45577585065E+01  0.20209671181E+01  0.14749157580E+04  0.14749580844E+04  0.10000000000E+02 0. -1.
</event>
<event>
 5    1  0.1252319E-008  0.3807228E+03  0.7957747E-01  0.3448017E+00
         13   -1    0    0    0    0  0.00000000000E+00  0.00000000000E+00  0.14999999963E+04  0.15000000000E+04  0.10566000000E+00 0. -1.
        994   -1    0    0    0    0 -0.00000000000E+00 -0.00000000000E+00  0.11368683772E-12  0.17120000000E+03  0.17120000000E+03 0.  0.
         13    1    1    2    0    0 -0.15608125370E+02  0.13582073280E+02  0.56935894854E+02  0.60578821208E+02  0.10566000000E+00 0. -1.
        994    1    1    2    0    0  0.16056165097E+01 -0.87063156457E+01  0.40301710010E+01  0.17147612141E+03  0.17120000000E+03 0.  0.
        998    1    1    2    0    0  0.14002508861E+02 -0.48757576338E+01  0.14390339304E+04  0.14391450574E+04  0.10000000000E+02 0. -1.
</event>
<event>
 5    1  0.1252319E-008  0.3836864E+03  0.7957747E-01  0.3435262E+00
         13   -1    0    0    0    0  0.00000000000E+00  0.00000000000E+00  0.14999999963E+04  0.15000000000E+04  0.10566000000E+00 0.  1.
        994   -1    0    0    0    0 -0.00000000000E+00 -0.00000000000E+00  0.11368683772E-12  0.17120000000E+03  0.17120000000E+03 0.  0.
         13    1    1    2    0    0  0.95536925808E+02 -0.68666522394E+02  0.27881925173E+03  0.30262614195E+03  0.10566000000E+00 0.  1.
        994    1    1    2    0    0 -0.10249162906E+03  0.77786303925E+02  0.82047851536E+02  0.22933934038E+03  0.17120000000E+03 0.  0.
        998    1    1    2    0    0  0.69547032476E+01 -0.91197815309E+01  0.11391328930E+04  0.11392345177E+04  0.10000000000E+02 0.  1.
</event>
<event>
 5    1  0.1252319E-008  0.3757213E+03  0.7957747E-01  0.3470003E+00
         13   -1    0    0    0    0  0.00000000000E+00  0.00000000000E+00  0.14999999963E+04  0.15000000000E+04  0.10566000000E+00 0. -1.
        994   -1    0    0    0    0 -0.00000000000E+00 -0.00000000000E+00  0.11368683772E-12  0.17120000000E+03  0.17120000000E+03 0.  0.
         13    1    1    2    0    0 -0.36393771803E+02  0.42990046227E+02  0.21937644993E+03  0.22649213816E+03  0.10566000000E+00 0. -1.
        994    1    1    2    0    0  0.32251902761E+02 -0.41655948160E+02  0.15778750278E+02  0.17981605103E+03  0.17120000000E+03 0.  0.
        998    1    1    2    0    0  0.41418690417E+01 -0.13340980666E+01  0.12648447961E+04  0.12648918108E+04  0.10000000000E+02 0. -1.
</event>
<event>
 5    1  0.1252319E-008  0.3842430E+03  0.7957747E-01  0.3432889E+00
         13   -1    0    0    0    0  0.00000000000E+00  0.00000000000E+00  0.14999999963E+04  0.15000000000E+04  0.10566000000E+00 0. -1.
        994   -1    0    0    0    0 -0.00000000000E+00 -0.00000000000E+00  0.11368683772E-12  0.17120000000E+03  0.17120000000E+03 0.  0.
         13    1    1    2    0    0  0.30012252722E+01 -0.19772699867E+02  0.10206157212E+03  0.10400260901E+03  0.10566000000E+00 0. -1.
        994    1    1    2    0    0  0.18692368678E+01  0.92692995584E+01  0.23012611925E+01  0.17147638252E+03  0.17120000000E+03 0.  0.
        998    1    1    2    0    0 -0.48704621400E+01  0.10503400309E+02  0.13956371630E+04  0.13957210085E+04  0.10000000000E+02 0. -1.
</event>
<event>
 5    1  0.1252319E-008  0.3837765E+03  0.7957747E-01  0.3434878E+00
         13   -1    0    0    0    0  0.00000000000E+00  0.00000000000E+00  0.14999999963E+04  0.15000000000E+04  0.10566000000E+00 0.  1.
        994   -1    0    0    0    0 -0.00000000000E+00 -0.00000000000E+00  0.11368683772E-12  0.17120000000E+03  0.17120000000E+03 0.  0.
         13    1    1    2    0    0  0.24143715478E+02  0.23769126501E+02  0.23940706592E+02  0.41485647734E+02  0.10566000000E+00 0.  1.
        994    1    1    2    0    0 -0.91141190107E+01 -0.22808506672E+02  0.20637067025E+02  0.17417986014E+03  0.17120000000E+03 0.  0.
        998    1    1    2    0    0 -0.15029596467E+02 -0.96061982947E+00  0.14554222227E+04  0.14555344921E+04  0.10000000000E+02 0.  1.
</event>
<event>
 5    1  0.1252319E-008  0.3844453E+03  0.7957747E-01  0.3432028E+00
         13   -1    0    0    0    0  0.00000000000E+00  0.00000000000E+00  0.14999999963E+04  0.15000000000E+04  0.10566000000E+00 0.  1.
        994   -1    0    0    0    0 -0.00000000000E+00 -0.00000000000E+00  0.11368683772E-12  0.17120000000E+03  0.17120000000E+03 0.  0.
         13    1    1    2    0    0 -0.12848054009E+02 -0.32175096501E+01  0.46397128905E+02  0.48250695278E+02  0.10566000000E+00 0.  1.
        994    1    1    2    0    0  0.56499255047E+01  0.15724627377E+01  0.20191063394E+01  0.17131232030E+03  0.17120000000E+03 0.  0.
        998    1    1    2    0    0  0.71981285044E+01  0.16450469124E+01  0.14515837610E+04  0.14516369844E+04  0.10000000000E+02 0.  1.
</event>
<event>
 5    1  0.1252319E-008  0.3021513E+03  0.7957747E-01  0.3880779E+00
         13   -1    0    0    0    0  0.00000000000E+00  0.00000000000E+00  0.14999999963E+04  0.15000000000E+04  0.10566000000E+00 0. -1.
        994   -1    0    0    0    0 -0.00000000000E+00 -0.00000000000E+00  0.11368683772E-12  0.17120000000E+03  0.17120000000E+03 0.  0.
         13    1    1    2    0    0 -0.70260964087E+02  0.12601072603E+03  0.77684851812E+03  0.79013222780E+03  0.10566000000E+00 0. -1.
        994    1    1    2    0    0  0.68827477080E+02 -0.70212618881E+02  0.47522946687E+02  0.20306379272E+03  0.17120000000E+03 0.  0.
        998    1    1    2    0    0  0.14334870072E+01 -0.55798107148E+02  0.67562853147E+03  0.67800397948E+03  0.10000000000E+02 0.  1.
</event>
<event>
 5    1  0.1252319E-008  0.3725108E+03  0.7957747E-01  0.3484431E+00
         13   -1    0    0    0    0  0.00000000000E+00  0.00000000000E+00  0.14999999963E+04  0.15000000000E+04  0.10566000000E+00 0. -1.
        994   -1    0    0    0    0 -0.00000000000E+00 -0.00000000000E+00  0.11368683772E-12  0.17120000000E+03  0.17120000000E+03 0.  0.
         13    1    1    2    0    0 -0.41341625468E+02  0.10818153501E+03  0.47749479481E+03  0.49133864569E+03  0.10566000000E+00 0. -1.
        994    1    1    2    0    0  0.55448292699E+02 -0.11866355441E+03  0.69273379585E+02  0.22641509099E+03  0.17120000000E+03 0.  0.
        998    1    1    2    0    0 -0.14106667231E+02  0.10482019403E+02  0.95323182188E+03  0.95344626332E+03  0.10000000000E+02 0.  0.
</event>
<event>
 5    1  0.1252319E-008  0.3855232E+03  0.7957747E-01  0.3427456E+00
         13   -1    0    0    0    0  0.00000000000E+00  0.00000000000E+00  0.14999999963E+04  0.15000000000E+04  0.10566000000E+00 0.  1.
        994   -1    0    0    0    0 -0.00000000000E+00 -0.00000000000E+00  0.11368683772E-12  0.17120000000E+03  0.17120000000E+03 0.  0.
         13    1    1    2    0    0 -0.45581854333E+01  0.10550594709E+02  0.46530337645E+02  0.47928859662E+02  0.10566000000E+00 0.  1.
        994    1    1    2    0    0  0.20352691521E+01 -0.14963270556E+02  0.21196594288E+01  0.17187779014E+03  0.17120000000E+03 0.  0.
        998    1    1    2    0    0  0.25229162812E+01  0.44126758472E+01  0.14513499992E+04  0.14513933502E+04  0.10000000000E+02 0.  1.
</event>
<event>
 5    1  0.1252319E-008  0.3851765E+03  0.7957747E-01  0.3428924E+00
         13   -1    0    0    0    0  0.00000000000E+00  0.00000000000E+00  0.14999999963E+04  0.15000000000E+04  0.10566000000E+00 0.  1.
        994   -1    0    0    0    0 -0.00000000000E+00 -0.00000000000E+00  0.11368683772E-12  0.17120000000E+03  0.17120000000E+03 0.  0.
         13    1    1    2    0    0 -0.15393768470E+02  0.67177786450E+01  0.84335196240E+02  0.85991471359E+02  0.10566000000E+00 0.  1.
        994    1    1    2    0    0  0.20901788224E+02 -0.76790808161E+01  0.31740050857E+01  0.17267126959E+03  0.17120000000E+03 0.  0.
        998    1    1    2    0    0 -0.55080197546E+01  0.96130217107E+00  0.14124907950E+04  0.14125372591E+04  0.10000000000E+02 0.  1.
</event>
<event>
 5    1  0.1252319E-008  0.3758798E+03  0.7957747E-01  0.3469297E+00
         13   -1    0    0    0    0  0.00000000000E+00  0.00000000000E+00  0.14999999963E+04  0.15000000000E+04  0.10566000000E+00 0. -1.
        994   -1    0    0    0    0 -0.00000000000E+00 -0.00000000000E+00  0.11368683772E-12  0.17120000000E+03  0.17120000000E+03 0.  0.
         13    1    1    2    0    0  0.40391497322E+02 -0.18862351277E+02  0.14938475986E+03  0.15589444825E+03  0.10566000000E+00 0. -1.
        994    1    1    2    0    0 -0.24715639391E+02  0.33533528035E+02  0.12131736733E+02  0.17661251193E+03  0.17120000000E+03 0.  0.
        998    1    1    2    0    0 -0.15675857931E+02 -0.14671176758E+02  0.13384834997E+04  0.13386930398E+04  0.10000000000E+02 0. -1.
</event>
<event>
 5    1  0.1252319E-008  0.3747757E+03  0.7957747E-01  0.3474227E+00
         13   -1    0    0    0    0  0.00000000000E+00  0.00000000000E+00  0.14999999963E+04  0.15000000000E+04  0.10566000000E+00 0.  1.
        994   -1    0    0    0    0 -0.00000000000E+00 -0.00000000000E+00  0.11368683772E-12  0.17120000000E+03  0.17120000000E+03 0.  0.
         13    1    1    2    0    0 -0.43807518036E+02 -0.30055126071E+02  0.21933707564E+03  0.22567935917E+03  0.10566000000E+00 0.  1.
        994    1    1    2    0    0  0.14518802081E+02  0.14839315187E+02  0.82615008231E+01  0.17265194260E+03  0.17120000000E+03 0.  0.
        998    1    1    2    0    0  0.29288715955E+02  0.15215810884E+02  0.12724014198E+04  0.12728686982E+04  0.10000000000E+02 0.  1.
</event>
<event>
 5    1  0.1252319E-008  0.3750910E+03  0.7957747E-01  0.3472816E+00
         13   -1    0    0    0    0  0.00000000000E+00  0.00000000000E+00  0.14999999963E+04  0.15000000000E+04  0.10566000000E+00 0.  1.
        994   -1    0    0    0    0 -0.00000000000E+00 -0.00000000000E+00  0.11368683772E-12  0.17120000000E+03  0.17120000000E+03 0.  0.
         13    1    1    2    0    0 -0.19134331068E+01  0.19205454837E+02  0.26738836515E+02  0.32977071792E+02  0.10566000000E+00 0.  1.
        994    1    1    2    0    0 -0.50245850345E+02  0.42525644814E+01  0.15322079425E+02  0.17912826661E+03  0.17120000000E+03 0.  0.
        998    1    1    2    0    0  0.52159283452E+02 -0.23458019318E+02  0.14579390803E+04  0.14590946616E+04  0.10000000000E+02 0.  1.
</event>
<event>
 5    1  0.1252319E-008  0.3852601E+03  0.7957747E-01  0.3428570E+00
         13   -1    0    0    0    0  0.00000000000E+00  0.00000000000E+00  0.14999999963E+04  0.15000000000E+04  0.10566000000E+00 0. -1.
        994   -1    0    0    0    0 -0.00000000000E+00 -0.00000000000E+00  0.11368683772E-12  0.17120000000E+03  0.17120000000E+03 0.  0.
         13    1    1    2    0    0 -0.73947350424E+01 -0.14333563748E+02  0.79435243798E+02  0.81056167423E+02  0.10566000000E+00 0. -1.
        994    1    1    2    0    0  0.30871983436E+02  0.10796479875E+02  0.50236787705E+01  0.17436834772E+03  0.17120000000E+03 0.  0.
        998    1    1    2    0    0 -0.23477248394E+02  0.35370838736E+01  0.14155410737E+04  0.14157754849E+04  0.10000000000E+02 0. -1.
</event>
<event>
 5    1  0.1252319E-008  0.3858106E+03  0.7957747E-01  0.3426242E+00
         13   -1    0    0    0    0  0.00000000000E+00  0.00000000000E+00  0.14999999963E+04  0.15000000000E+04  0.10566000000E+00 0. -1.
        994   -1    0    0    0    0 -0.00000000000E+00 -0.00000000000E+00  0.11368683772E-12  0.17120000000E+03  0.17120000000E+03 0.  0.
         13    1    1    2    0    0 -0.89218374522E+01  0.11334581087E+02  0.82120490461E+02  0.83377802979E+02  0.10566000000E+00 0. -1.
        994    1    1    2    0    0  0.65375074512E+01 -0.13080830102E+02  0.19299615431E+01  0.17183425698E+03  0.17120000000E+03 0.  0.
        998    1    1    2    0    0  0.23843300010E+01  0.17462490152E+01  0.14159495443E+04  0.14159879400E+04  0.10000000000E+02 0. -1.
</event>
<event>
 5    1  0.1252319E-008  0.3854573E+03  0.7957747E-01  0.3427735E+00
         13   -1    0    0    0    0  0.00000000000E+00  0.00000000000E+00  0.14999999963E+04  0.15000000000E+04  0.10566000000E+00 0. -1.
        994   -1    0    0    0    0 -0.00000000000E+00 -0.00000000000E+00  0.11368683772E-12  0.17120000000E+03  0.17120000000E+03 0.  0.
         13    1    1    2    0    0 -0.14340304814E+02 -0.87485612971E+01  0.94592193834E+02  0.96072243470E+02  0.10566000000E+00 0. -1.
        994    1    1    2    0    0  0.17052837510E+02  0.82604896394E+01  0.25831554965E+01  0.17226476032E+03  0.17120000000E+03 0.  0.
        998    1    1    2    0    0 -0.27125326965E+01  0.48807165768E+00  0.14028246469E+04  0.14028629962E+04  0.10000000000E+02 0. -1.
</event>
<event>
 5    1  0.1252319E-008  0.3712667E+03  0.7957747E-01  0.3490090E+00
         13   -1    0    0    0    0  0.00000000000E+00  0.00000000000E+00  0.14999999963E+04  0.15000000000E+04  0.10566000000E+00 0. -1.
        994   -1    0    0    0    0 -0.00000000000E+00 -0.00000000000E+00  0.11368683772E-12  0.17120000000E+03  0.17120000000E+03 0.  0.
         13    1    1    2    0    0  0.97202027704E+01  0.16951619877E+02  0.18470309896E+02  0.26888720127E+02  0.10566000000E+00 0. -1.
        994    1    1    2    0    0 -0.11490446724E+02 -0.96405954075E+01  0.93833503091E+01  0.17211176226E+03  0.17120000000E+03 0.  0.
        998    1    1    2    0    0  0.17702439536E+01 -0.73110244696E+01  0.14721463361E+04  0.14721995176E+04  0.10000000000E+02 0. -1.
</event>
<event>
 5    1  0.1252319E-008  0.3729579E+03  0.7957747E-01  0.3482406E+00
         13   -1    0    0    0    0  0.00000000000E+00  0.00000000000E+00  0.14999999963E+04  0.15000000000E+04  0.10566000000E+00 0. -1.
        994   -1    0    0    0    0 -0.00000000000E+00 -0.00000000000E+00  0.11368683772E-12  0.17120000000E+03  0.17120000000E+03 0.  0.
         13    1    1    2    0    0  0.17781015370E+01 -0.19157039016E+02  0.21435027557E+02  0.28803217864E+02  0.10566000000E+00 0. -1.
        994    1    1    2    0    0 -0.34995712853E+02 -0.64509719659E+01  0.12077801863E+02  0.17527586330E+03  0.17120000000E+03 0.  0.
        998    1    1    2    0    0  0.33217611316E+02  0.25608010982E+02  0.14664871669E+04  0.14671209188E+04  0.10000000000E+02 0. -1.
</event>
<event>
 5    1  0.1252319E-008  0.3859954E+03  0.7957747E-01  0.3425461E+00
         13   -1    0    0    0    0  0.00000000000E+00  0.00000000000E+00  0.14999999963E+04  0.15000000000E+04  0.10566000000E+00 0.  1.
        994   -1    0    0    0    0 -0.00000000000E+00 -0.00000000000E+00  0.11368683772E-12  0.17120000000E+03  0.17120000000E+03 0.  0.
         13    1    1    2    0    0 -0.13526739211E+02  0.36777731824E+01  0.83105169109E+02  0.84279172907E+02  0.10566000000E+00 0.  1.
        994    1    1    2    0    0  0.15306232312E+02 -0.13854439058E+01  0.19113911942E+01  0.17189907975E+03  0.17120000000E+03 0.  0.
        998    1    1    2    0    0 -0.17794931011E+01 -0.22923292766E+01  0.14149834360E+04  0.14150217473E+04  0.10000000000E+02 0.  1.
</event>
<event>
 5    1  0.1252319E-008  0.3374915E+03  0.7957747E-01  0.3660079E+00
         13   -1    0    0    0    0  0.00000000000E+00  0.00000000000E+00  0.14999999963E+04  0.15000000000E+04  0.10566000000E+00 0.  1.
        994   -1    0    0    0    0 -0.00000000000E+00 -0.00000000000E+00  0.11368683772E-12  0.17120000000E+03  0.17120000000E+03 0.  0.
         13    1    1    2    0    0 -0.52851939545E+02 -0.19184143962E+03  0.96251750051E+03  0.98287151522E+03  0.10566000000E+00 0.  1.
        994    1    1    2    0    0  0.43546817243E+02  0.16191992252E+03  0.11719431231E+03  0.26675519384E+03  0.17120000000E+03 0.  0.
        998    1    1    2    0    0  0.93051223018E+01  0.29921517096E+02  0.42028818345E+03  0.42157329094E+03  0.10000000000E+02 0.  0.
</event>
<event>
 5    1  0.1252319E-008  0.3692486E+03  0.7957747E-01  0.3499351E+00
         13   -1    0    0    0    0  0.00000000000E+00  0.00000000000E+00  0.14999999963E+04  0.15000000000E+04  0.10566000000E+00 0. -1.
        994   -1    0    0    0    0 -0.00000000000E+00 -0.00000000000E+00  0.11368683772E-12  0.17120000000E+03  0.17120000000E+03 0.  0.
         13    1    1    2    0    0 -0.21266789593E+02 -0.14140676582E+02  0.30271749355E+02  0.39605871368E+02  0.10566000000E+00 0. -1.
        994    1    1    2    0    0  0.69972060112E+01  0.10118226047E+02  0.10187140558E+02  0.17194347101E+03  0.17120000000E+03 0.  0.
        998    1    1    2    0    0  0.14269583582E+02  0.40224505354E+01  0.14595411064E+04  0.14596506576E+04  0.10000000000E+02 0. -1.
</event>
<event>
 5    1  0.1252319E-008  0.3816578E+03  0.7957747E-01  0.3443972E+00
         13   -1    0    0    0    0  0.00000000000E+00  0.00000000000E+00  0.14999999963E+04  0.15000000000E+04  0.10566000000E+00 0. -1.
        994   -1    0    0    0    0 -0.00000000000E+00 -0.00000000000E+00  0.11368683772E-12  0.17120000000E+03  0.17120000000E+03 0.  0.
         13    1    1    2    0    0  0.21888105442E+02  0.10344753511E+02  0.95066255324E+02  0.98100495159E+02  0.10566000000E+00 0. -1.
        994    1    1    2    0    0 -0.26153108972E+01  0.38419559034E+01  0.33704343063E+01  0.17129623552E+03  0.17120000000E+03 0.  0.
        998    1    1    2    0    0 -0.19272794545E+02 -0.14186709415E+02  0.14015633066E+04  0.14018032693E+04  0.10000000000E+02 0. -1.
</event>
<event>
 5    1  0.1252319E-008  0.3828125E+03  0.7957747E-01  0.3439003E+00
         13   -1    0    0    0    0  0.00000000000E+00  0.00000000000E+00  0.14999999963E+04  0.15000000000E+04  0.10566000000E+00 0.  1.
        994   -1    0    0    0    0 -0.00000000000E+00 -0.00000000000E+00  0.11368683772E-12  0.17120000000E+03  0.17120000000E+03 0.  0.
         13    1    1    2    0    0  0.55242550876E+01  0.13149001172E+02  0.35841540034E+02  0.38575131654E+02  0.10566000000E+00 0.  1.
        994    1    1    2    0    0 -0.35907329810E+01 -0.13994372052E+02  0.34117566878E+01  0.17184241588E+03  0.17120000000E+03 0.  0.
        998    1    1    2    0    0 -0.19335221066E+01  0.84537088019E+00  0.14607466996E+04  0.14607824525E+04  0.10000000000E+02 0.  1.
</event>
<event>
 5    1  0.1252319E-008  0.3862461E+03  0.7957747E-01  0.3424405E+00
         13   -1    0    0    0    0  0.00000000000E+00  0.00000000000E+00  0.14999999963E+04  0.15000000000E+04  0.10566000000E+00 0. -1.
        994   -1    0    0    0    0 -0.00000000000E+00 -0.00000000000E+00  0.11368683772E-12  0.17120000000E+03  0.17120000000E+03 0.  0.
         13    1    1    2    0    0 -0.24819422245E+01 -0.12239895246E+02  0.68839385108E+02  0.69963184453E+02  0.10566000000E+00 0. -1.
        994    1    1    2    0    0 -0.74065474677E+01  0.26512053782E+02  0.34986079534E+01  0.17343421288E+03  0.17120000000E+03 0.  0.
        998    1    1    2    0    0  0.98884896923E+01 -0.14272158536E+02  0.14276620032E+04  0.14278026027E+04  0.10000000000E+02 0. -1.
</event>
<event>
 5    1  0.1252319E-008  0.3728073E+03  0.7957747E-01  0.3483088E+00
         13   -1    0    0    0    0  0.00000000000E+00  0.00000000000E+00  0.14999999963E+04  0.15000000000E+04  0.10566000000E+00 0.  1.
        994   -1    0    0    0    0 -0.00000000000E+00 -0.00000000000E+00  0.11368683772E-12  0.17120000000E+03  0.17120000000E+03 0.  0.
         13    1    1    2    0    0 -0.87880439484E+02  0.34632390404E+02  0.38229348950E+03  0.39379016923E+03  0.10566000000E+00 0.  1.
        994    1    1    2    0    0  0.99226171416E+02 -0.34435897815E+02  0.46586372676E+02  0.20618291460E+03  0.17120000000E+03 0.  0.
        998    1    1    2    0    0 -0.11345731932E+02 -0.19649258855E+00  0.10711201341E+04  0.10712269162E+04  0.10000000000E+02 0.  1.
</event>
<event>
 5    1  0.1480986E-008  0.3859697E+03  0.7957747E-01  0.3425570E+00
         13   -1    0    0    0    0  0.00000000000E+00  0.00000000000E+00  0.14999999963E+04  0.15000000000E+04  0.10566000000E+00 0.  1.
        994   -1    0    0    0    0 -0.00000000000E+00 -0.00000000000E+00  0.11368683772E-12  0.17120000000E+03  0.17120000000E+03 0.  0.
         13    1    1    2    0    0  0.90090192000E+01  0.92711198078E+01  0.74039669947E+02  0.75159829559E+02  0.10566000000E+00 0.  1.
        994    1    1    2    0    0 -0.72082072129E+01 -0.36444878253E+01  0.13633580143E+01  0.17139585552E+03  0.17120000000E+03 0.  0.
        998    1    1    2    0    0 -0.18008119871E+01 -0.56266319825E+01  0.14245969683E+04  0.14246443149E+04  0.10000000000E+02 0.  1.
</event>
<event>
 5    1  0.1252319E-008  0.3815609E+03  0.7957747E-01  0.3444390E+00
         13   -1    0    0    0    0  0.00000000000E+00  0.00000000000E+00  0.14999999963E+04  0.15000000000E+04  0.10566000000E+00 0. -1.
        994   -1    0    0    0    0 -0.00000000000E+00 -0.00000000000E+00  0.11368683772E-12  0.17120000000E+03  0.17120000000E+03 0.  0.
         13    1    1    2    0    0 -0.13166272009E+02 -0.15346683168E+01  0.24660835490E+02  0.27997748063E+02  0.10566000000E+00 0. -1.
        994    1    1    2    0    0  0.12968623273E+02 -0.17141547874E+00  0.39069155581E+01  0.17173502427E+03  0.17120000000E+03 0.  0.
        998    1    1    2    0    0  0.19764873656E+00  0.17060837956E+01  0.14714322452E+04  0.14714672277E+04  0.10000000000E+02 0. -1.
</event>
<event>
 5    1  0.1252319E-008  0.3817385E+03  0.7957747E-01  0.3443623E+00
         13   -1    0    0    0    0  0.00000000000E+00  0.00000000000E+00  0.14999999963E+04  0.15000000000E+04  0.10566000000E+00 0.  1.
        994   -1    0    0    0    0 -0.00000000000E+00 -0.00000000000E+00  0.11368683772E-12  0.17120000000E+03  0.17120000000E+03 0.  0.
         13    1    1    2    0    0 -0.10609175421E+02  0.15577942568E+01  0.16162118012E+02  0.19396044667E+02  0.10566000000E+00 0.  1.
        994    1    1    2    0    0  0.95271567545E+01 -0.10068387648E+02  0.38970138427E+01  0.17180444075E+03  0.17120000000E+03 0.  0.
        998    1    1    2    0    0  0.10820186664E+01  0.85105933916E+01  0.14799408644E+04  0.14799995146E+04  0.10000000000E+02 0.  1.
</event>
<event>
 5    1  0.1252319E-008  0.3741043E+03  0.7957747E-01  0.3477238E+00
         13   -1    0    0    0    0  0.00000000000E+00  0.00000000000E+00  0.14999999963E+04  0.15000000000E+04  0.10566000000E+00 0.  1.
        994   -1    0    0    0    0 -0.00000000000E+00 -0.00000000000E+00  0.11368683772E-12  0.17120000000E+03  0.17120000000E+03 0.  0.
         13    1    1    2    0    0 -0.44633494917E+02  0.10542857655E+02  0.14342118170E+03  0.15057538723E+03  0.10566000000E+00 0.  1.
        994    1    1    2    0    0  0.27618203027E+02 -0.10866075434E+02  0.10148497787E+02  0.17404961575E+03  0.17120000000E+03 0.  0.
        998    1    1    2    0    0  0.17015291890E+02  0.32321777851E+00  0.13464303168E+04  0.13465749970E+04  0.10000000000E+02 0.  1.
</event>
<event>
 5    1  0.1252319E-008  0.3823002E+03  0.7957747E-01  0.3441204E+00
         13   -1    0    0    0    0  0.00000000000E+00  0.00000000000E+00  0.14999999963E+04  0.15000000000E+04  0.10566000000E+00 0. -1.
        994   -1    0    0    0    0 -0.00000000000E+00 -0.00000000000E+00  0.11368683772E-12  0.17120000000E+03  0.17120000000E+03 0.  0.
         13    1    1    2    0    0 -0.15505429345E+02  0.84749130990E+00  0.39142080057E+02  0.42109977154E+02  0.10566000000E+00 0. -1.
        994    1    1    2    0    0  0.12726265476E+02  0.10284479563E+01  0.35175281583E+01  0.17171146887E+03  0.17120000000E+03 0.  0.
        998    1    1    2    0    0  0.27791638694E+01 -0.18759392662E+01  0.14573403881E+04  0.14573785540E+04  0.10000000000E+02 0. -1.
</event>
<event>
 5    1  0.1252319E-008  0.3754259E+03  0.7957747E-01  0.3471320E+00
         13   -1    0    0    0    0  0.00000000000E+00  0.00000000000E+00  0.14999999963E+04  0.15000000000E+04  0.10566000000E+00 0. -1.
        994   -1    0    0    0    0 -0.00000000000E+00 -0.00000000000E+00  0.11368683772E-12  0.17120000000E+03  0.17120000000E+03 0.  0.
         13    1    1    2    0    0 -0.43108909050E+02  0.10822321903E+03  0.61884373940E+03  0.62971281402E+03  0.10566000000E+00 0. -1.
        994    1    1    2    0    0  0.52838661866E+02 -0.10126618168E+03  0.52118636270E+02  0.21230298157E+03  0.17120000000E+03 0.  0.
        998    1    1    2    0    0 -0.97297528155E+01 -0.69570373553E+01  0.82903762061E+03  0.82918420441E+03  0.10000000000E+02 0.  1.
</event>
<event>
 5    1  0.1252319E-008  0.3828695E+03  0.7957747E-01  0.3438759E+00
         13   -1    0    0    0    0  0.00000000000E+00  0.00000000000E+00  0.14999999963E+04  0.15000000000E+04  0.10566000000E+00 0. -1.
        994   -1    0    0    0    0 -0.00000000000E+00 -0.00000000000E+00  0.11368683772E-12  0.17120000000E+03  0.17120000000E+03 0.  0.
         13    1    1    2    0    0  0.42615821886E+02  0.80884724902E+01  0.26158747228E+03  0.26515947744E+03  0.10566000000E+00 0. -1.
        994    1    1    2    0    0 -0.55218911819E+02  0.11030242973E+01  0.12859359753E+02  0.18034729834E+03  0.17120000000E+03 0.  0.
        998    1    1    2    0    0  0.12603089933E+02 -0.91914967875E+01  0.12255531642E+04  0.12256932242E+04  0.10000000000E+02 0. -1.
</event>
<event>
 5    1  0.1252319E-008  0.3685192E+03  0.7957747E-01  0.3502724E+00
         13   -1    0    0    0    0  0.00000000000E+00  0.00000000000E+00  0.14999999963E+04  0.15000000000E+04  0.10566000000E+00 0.  1.
        994   -1    0    0    0    0 -0.00000000000E+00 -0.00000000000E+00  0.11368683772E-12  0.17120000000E+03  0.17120000000E+03 0.  0.
         13    1    1    2    0    0 -0.73658224168E+01  0.46138198994E+02  0.10387249739E+03  0.11389686398E+03  0.10566000000E+00 0.  1.
        994    1    1    2    0    0  0.76730622773E+01 -0.31869127055E+02  0.13788676153E+02  0.17485446730E+03  0.17120000000E+03 0.  0.
        998    1    1    2    0    0 -0.30723986055E+00 -0.14269071939E+02  0.13823388227E+04  0.13824486687E+04  0.10000000000E+02 0.  1.
</event>
<event>
 5    1  0.1252319E-008  0.3829830E+03  0.7957747E-01  0.3438272E+00
         13   -1    0    0    0    0  0.00000000000E+00  0.00000000000E+00  0.14999999963E+04  0.15000000000E+04  0.10566000000E+00 0.  1.
        994   -1    0    0    0    0 -0.00000000000E+00 -0.00000000000E+00  0.11368683772E-12  0.17120000000E+03  0.17120000000E+03 0.  0.
         13    1    1    2    0    0  0.19100411314E+02  0.23885045037E+02  0.17054731944E+03  0.17326777086E+03  0.10566000000E+00 0.  1.
        994    1    1    2    0    0 -0.13778058476E+02 -0.17573954469E+02  0.42873986228E+01  0.17270350476E+03  0.17120000000E+03 0.  0.
        998    1    1    2    0    0 -0.53223528383E+01 -0.63110905681E+01  0.13251652782E+04  0.13252287244E+04  0.10000000000E+02 0.  1.
</event>
<event>
 5    1  0.1252319E-008  0.3786583E+03  0.7957747E-01  0.3457021E+00
         13   -1    0    0    0    0  0.00000000000E+00  0.00000000000E+00  0.14999999963E+04  0.15000000000E+04  0.10566000000E+00 0.  1.
        994   -1    0    0    0    0 -0.00000000000E+00 -0.00000000000E+00  0.11368683772E-12  0.17120000000E+03  0.17120000000E+03 0.  0.
         13    1    1    2    0    0 -0.93267080438E+01 -0.35731745037E+02  0.22021768942E+03  0.22329260396E+03  0.10566000000E+00 0.  1.
        994    1    1    2    0    0 -0.17241950337E+02 -0.32141436649E+02  0.92920030198E+01  0.17528872788E+03  0.17120000000E+03 0.  0.
        998    1    1    2    0    0  0.26568658381E+02  0.67873181685E+02  0.12704903038E+04  0.12726186682E+04  0.10000000000E+02 0.  1.
</event>
<event>
 5    1  0.1252319E-008  0.3727826E+03  0.7957747E-01  0.3483199E+00
         13   -1    0    0    0    0  0.00000000000E+00  0.00000000000E+00  0.14999999963E+04  0.15000000000E+04  0.10566000000E+00 0. -1.
        994   -1    0    0    0    0 -0.00000000000E+00 -0.00000000000E+00  0.11368683772E-12  0.17120000000E+03  0.17120000000E+03 0.  0.
         13    1    1    2    0    0  0.57739640896E+02  0.67317415239E+02  0.36862205026E+03  0.37914077547E+03  0.10566000000E+00 0. -1.
        994    1    1    2    0    0 -0.56468384860E+02 -0.70681892266E+02  0.36394713715E+02  0.19702442379E+03  0.17120000000E+03 0.  0.
        998    1    1    2    0    0 -0.12712560361E+01  0.33644770270E+01  0.10949832323E+04  0.10950348007E+04  0.10000000000E+02 0. -1.
</event>
<event>
 5    1  0.1252319E-008  0.3852624E+03  0.7957747E-01  0.3428560E+00
         13   -1    0    0    0    0  0.00000000000E+00  0.00000000000E+00  0.14999999963E+04  0.15000000000E+04  0.10566000000E+00 0. -1.
        994   -1    0    0    0    0 -0.00000000000E+00 -0.00000000000E+00  0.11368683772E-12  0.17120000000E+03  0.17120000000E+03 0.  0.
         13    1    1    2    0    0 -0.35621110276E+01 -0.14893512333E+02  0.69293412366E+02  0.70965438813E+02  0.10566000000E+00 0. -1.
        994    1    1    2    0    0 -0.15807701145E+02  0.33888106105E+02  0.61080250581E+01  0.17534262209E+03  0.17120000000E+03 0.  0.
        998    1    1    2    0    0  0.19369812172E+02 -0.18994593773E+02  0.14245985589E+04  0.14248919391E+04  0.10000000000E+02 0. -1.
</event>
<event>
 5    1  0.1252319E-008  0.3691011E+03  0.7957747E-01  0.3500032E+00
         13   -1    0    0    0    0  0.00000000000E+00  0.00000000000E+00  0.14999999963E+04  0.15000000000E+04  0.10566000000E+00 0. -1.
        994   -1    0    0    0    0 -0.00000000000E+00 -0.00000000000E+00  0.11368683772E-12  0.17120000000E+03  0.17120000000E+03 0.  0.
         13    1    1    2    0    0  0.10386506259E+02  0.55801271829E+01  0.26221097902E+01  0.12079070967E+02  0.10566000000E+00 0. -1.
        994    1    1    2    0    0 -0.14531277713E+02  0.86671300020E+01  0.10733187688E+02  0.17236855424E+03  0.17120000000E+03 0.  0.
        998    1    1    2    0    0  0.41447714540E+01 -0.14247257185E+02  0.14866446988E+04  0.14867523748E+04  0.10000000000E+02 0. -1.
</event>
<event>
 5    1  0.1252319E-008  0.3830615E+03  0.7957747E-01  0.3437935E+00
         13   -1    0    0    0    0  0.00000000000E+00  0.00000000000E+00  0.14999999963E+04  0.15000000000E+04  0.10566000000E+00 0. -1.
        994   -1    0    0    0    0 -0.00000000000E+00 -0.00000000000E+00  0.11368683772E-12  0.17120000000E+03  0.17120000000E+03 0.  0.
         13    1    1    2    0    0  0.18152653205E+02  0.14678033931E+02  0.97587121620E+02  0.10034052506E+03  0.10566000000E+00 0. -1.
        994    1    1    2    0    0 -0.17801656536E+02 -0.17962742703E+02  0.47150883556E+01  0.17312201235E+03  0.17120000000E+03 0.  0.
        998    1    1    2    0    0 -0.35099666899E+00  0.32847087716E+01  0.13976977863E+04  0.13977374626E+04  0.10000000000E+02 0. -1.
</event>
<event>
 5    1  0.1252319E-008  0.3851209E+03  0.7957747E-01  0.3429160E+00
         13   -1    0    0    0    0  0.00000000000E+00  0.00000000000E+00  0.14999999963E+04  0.15000000000E+04  0.10566000000E+00 0. -1.
        994   -1    0    0    0    0 -0.00000000000E+00 -0.00000000000E+00  0.11368683772E-12  0.17120000000E+03  0.17120000000E+03 0.  0.
         13    1    1    2    0    0  0.96965562856E+01 -0.57006832915E+01  0.39250731288E+02  0.40830773498E+02  0.10566000000E+00 0. -1.
        994    1    1    2    0    0 -0.18545148272E+02 -0.67163721170E+01  0.28500740713E+01  0.17235601266E+03  0.17120000000E+03 0.  0.
        998    1    1    2    0    0  0.88485919869E+01  0.12417055408E+02  0.14578991909E+04  0.14580132138E+04  0.10000000000E+02 0. -1.
</event>
<event>
 5    1  0.1252319E-008  0.3856063E+03  0.7957747E-01  0.3427105E+00
         13   -1    0    0    0    0  0.00000000000E+00  0.00000000000E+00  0.14999999963E+04  0.15000000000E+04  0.10566000000E+00 0. -1.
        994   -1    0    0    0    0 -0.00000000000E+00 -0.00000000000E+00  0.11368683772E-12  0.17120000000E+03  0.17120000000E+03 0.  0.
         13    1    1    2    0    0 -0.10750351294E+02  0.94131466331E+01  0.73471441740E+02  0.74848121539E+02  0.10566000000E+00 0. -1.
        994    1    1    2    0    0  0.10550736465E+02 -0.12634664983E+02  0.22192687211E+01  0.17200383122E+03  0.17120000000E+03 0.  0.
        998    1    1    2    0    0  0.19961482984E+00  0.32215183501E+01  0.14243092858E+04  0.14243480472E+04  0.10000000000E+02 0. -1.
</event>
<event>
 5    1  0.1252319E-008  0.3771485E+03  0.7957747E-01  0.3463669E+00
         13   -1    0    0    0    0  0.00000000000E+00  0.00000000000E+00  0.14999999963E+04  0.15000000000E+04  0.10566000000E+00 0. -1.
        994   -1    0    0    0    0 -0.00000000000E+00 -0.00000000000E+00  0.11368683772E-12  0.17120000000E+03  0.17120000000E+03 0.  0.
         13    1    1    2    0    0  0.12839990529E+02 -0.24381066461E+01  0.12684438971E+02  0.18213068848E+02  0.10566000000E+00 0. -1.
        994    1    1    2    0    0 -0.14503445210E+02  0.23443381950E+01  0.63083169746E+01  0.17194499326E+03  0.17120000000E+03 0.  0.
        998    1    1    2    0    0  0.16634546814E+01  0.93768451168E-01  0.14810072403E+04  0.14810419379E+04  0.10000000000E+02 0. -1.
</event>
<event>
 5    1  0.1252319E-008  0.3830918E+03  0.7957747E-01  0.3437806E+00
         13   -1    0    0    0    0  0.00000000000E+00  0.00000000000E+00  0.14999999963E+04  0.15000000000E+04  0.10566000000E+00 0.  1.
        994   -1    0    0    0    0 -0.00000000000E+00 -0.00000000000E+00  0.11368683772E-12  0.17120000000E+03  0.17120000000E+03 0.  0.
         13    1    1    2    0    0  0.11721613720E+02 -0.19864187995E+02  0.13231491421E+03  0.13431020020E+03  0.10566000000E+00 0.  1.
        994    1    1    2    0    0  0.93079754176E+01 -0.16766868226E+02  0.37984153943E+01  0.17231260614E+03  0.17120000000E+03 0.  0.
        998    1    1    2    0    0 -0.21029589138E+02  0.36631056221E+02  0.13638866667E+04  0.13645771937E+04  0.10000000000E+02 0. -1.
</event>
<event>
 5    1  0.1252319E-008  0.3850565E+03  0.7957747E-01  0.3429432E+00
         13   -1    0    0    0    0  0.00000000000E+00  0.00000000000E+00  0.14999999963E+04  0.15000000000E+04  0.10566000000E+00 0.  1.
        994   -1    0    0    0    0 -0.00000000000E+00 -0.00000000000E+00  0.11368683772E-12  0.17120000000E+03  0.17120000000E+03 0.  0.
         13    1    1    2    0    0 -0.15846037933E+02  0.11508884163E+02  0.11050096146E+03  0.11222310359E+03  0.10566000000E+00 0.  1.
        994    1    1    2    0    0  0.16304695778E+02 -0.15342266459E+02  0.32518648656E+01  0.17268828237E+03  0.17120000000E+03 0.  0.
        998    1    1    2    0    0 -0.45865784505E+00  0.38333822958E+01  0.13862471700E+04  0.13862886140E+04  0.10000000000E+02 0.  1.
</event>
<event>
 5    1  0.1252319E-008  0.3745929E+03  0.7957747E-01  0.3475046E+00
         13   -1    0    0    0    0  0.00000000000E+00  0.00000000000E+00  0.14999999963E+04  0.15000000000E+04  0.10566000000E+00 0. -1.
        994   -1    0    0    0    0 -0.00000000000E+00 -0.00000000000E+00  0.11368683772E-12  0.17120000000E+03  0.17120000000E+03 0.  0.
         13    1    1    2    0    0  0.24199403161E+02  0.25197548607E+02  0.73688038186E+02  0.81550387521E+02  0.10566000000E+00 0. -1.
        994    1    1    2    0    0 -0.45132979723E+02 -0.45802151003E+02  0.21095265678E+02  0.18409039391E+03  0.17120000000E+03 0.  0.
        998    1    1    2    0    0  0.20933576562E+02  0.20604602396E+02  0.14052166924E+04  0.14055592186E+04  0.10000000000E+02 0. -1.
</event>
<event>
 5    1  0.1252319E-008  0.3737931E+03  0.7957747E-01  0.3478638E+00
         13   -1    0    0    0    0  0.00000000000E+00  0.00000000000E+00  0.14999999963E+04  0.15000000000E+04  0.10566000000E+00 0.  1.
        994   -1    0    0    0    0 -0.00000000000E+00 -0.00000000000E+00  0.11368683772E-12  0.17120000000E+03  0.17120000000E+03 0.  0.
         13    1    1    2    0    0  0.24983714215E+02 -0.75172876236E+01  0.42195447491E+02  0.49610105242E+02  0.10566000000E+00 0.  1.
        994    1    1    2    0    0 -0.28963298460E+02  0.68970422860E+01  0.10331268631E+02  0.17407646872E+03  0.17120000000E+03 0.  0.
        998    1    1    2    0    0  0.39795842454E+01  0.62024533754E+00  0.14474732802E+04  0.14475134260E+04  0.10000000000E+02 0.  1.
</event>
<event>
 5    1  0.1252319E-008  0.3768348E+03  0.7957747E-01  0.3465057E+00
         13   -1    0    0    0    0  0.00000000000E+00  0.00000000000E+00  0.14999999963E+04  0.15000000000E+04  0.10566000000E+00 0. -1.
        994   -1    0    0    0    0 -0.00000000000E+00 -0.00000000000E+00  0.11368683772E-12  0.17120000000E+03  0.17120000000E+03 0.  0.
         13    1    1    2    0    0  0.14732094220E+03 -0.62443422078E+02  0.85689802096E+03  0.87170916622E+03  0.10566000000E+00 0. -1.
        994    1    1    2    0    0 -0.14622597749E+03  0.61563991830E+02  0.96142381104E+02  0.25243803007E+03  0.17120000000E+03 0.  0.
        998    1    1    2    0    0 -0.10949647127E+01  0.87943024788E+00  0.54695959421E+03  0.54705280371E+03  0.10000000000E+02 0.  0.
</event>
<event>
 5    1  0.1252319E-008  0.3785581E+03  0.7957747E-01  0.3457461E+00
         13   -1    0    0    0    0  0.00000000000E+00  0.00000000000E+00  0.14999999963E+04  0.15000000000E+04  0.10566000000E+00 0.  1.
        994   -1    0    0    0    0 -0.00000000000E+00 -0.00000000000E+00  0.11368683772E-12  0.17120000000E+03  0.17120000000E+03 0.  0.
         13    1    1    2    0    0 -0.10005864847E+03  0.12848615080E+01  0.44327536059E+03  0.45442979708E+03  0.10566000000E+00 0.  1.
        994    1    1    2    0    0  0.12967805127E+02 -0.26784892744E+02  0.18736059007E+02  0.17477435268E+03  0.17120000000E+03 0.  0.
        998    1    1    2    0    0  0.87090843346E+02  0.25500031236E+02  0.10379885767E+04  0.10419958502E+04  0.10000000000E+02 0.  1.
</event>
<event>
 5    1  0.1252319E-008  0.4112396E+03  0.7957747E-01  0.3325480E+00
         13   -1    0    0    0    0  0.00000000000E+00  0.00000000000E+00  0.14999999963E+04  0.15000000000E+04  0.10566000000E+00 0.  1.
        994   -1    0    0    0    0 -0.00000000000E+00 -0.00000000000E+00  0.11368683772E-12  0.17120000000E+03  0.17120000000E+03 0.  0.
         13    1    1    2    0    0  0.41694558113E+01  0.27312317101E+02 -0.38037180326E+01  0.27889540371E+02  0.10566000000E+00 0.  1.
        994    1    1    2    0    0 -0.58819871902E+02 -0.16745884351E+02  0.50189408661E+02  0.18859644407E+03  0.17120000000E+03 0.  0.
        998    1    1    2    0    0  0.54650416090E+02 -0.10566432750E+02  0.14536143057E+04  0.14547140156E+04  0.10000000000E+02 0.  1.
</event>
<event>
 5    1  0.1252319E-008  0.3749514E+03  0.7957747E-01  0.3473440E+00
         13   -1    0    0    0    0  0.00000000000E+00  0.00000000000E+00  0.14999999963E+04  0.15000000000E+04  0.10566000000E+00 0. -1.
        994   -1    0    0    0    0 -0.00000000000E+00 -0.00000000000E+00  0.11368683772E-12  0.17120000000E+03  0.17120000000E+03 0.  0.
         13    1    1    2    0    0  0.14376627521E+02  0.49915755202E+01  0.14875865052E+02  0.21281582886E+02  0.10566000000E+00 0. -1.
        994    1    1    2    0    0  0.10761615350E+02 -0.13923228205E+02  0.77571627433E+01  0.17227676054E+03  0.17120000000E+03 0.  0.
        998    1    1    2    0    0 -0.25138242871E+02  0.89316526849E+01  0.14773669685E+04  0.14776416566E+04  0.10000000000E+02 0. -1.
</event>
<event>
 5    1  0.1252319E-008  0.3753517E+03  0.7957747E-01  0.3471651E+00
         13   -1    0    0    0    0  0.00000000000E+00  0.00000000000E+00  0.14999999963E+04  0.15000000000E+04  0.10566000000E+00 0.  1.
        994   -1    0    0    0    0 -0.00000000000E+00 -0.00000000000E+00  0.11368683772E-12  0.17120000000E+03  0.17120000000E+03 0.  0.
         13    1    1    2    0    0 -0.15015091778E+02 -0.27724508643E+02  0.73168625580E+02  0.79672832847E+02  0.10566000000E+00 0.  1.
        994    1    1    2    0    0  0.58972414038E+00  0.26171895335E+02  0.88285006343E+01  0.17341481570E+03  0.17120000000E+03 0.  0.
        998    1    1    2    0    0  0.14425367638E+02  0.15526133081E+01  0.14180028701E+04  0.14181123515E+04  0.10000000000E+02 0.  1.
</event>
<event>
 5    1  0.1252319E-008  0.3838528E+03  0.7957747E-01  0.3434552E+00
         13   -1    0    0    0    0  0.00000000000E+00  0.00000000000E+00  0.14999999963E+04  0.15000000000E+04  0.10566000000E+00 0.  1.
        994   -1    0    0    0    0 -0.00000000000E+00 -0.00000000000E+00  0.11368683772E-12  0.17120000000E+03  0.17120000000E+03 0.  0.
         13    1    1    2    0    0  0.60739190585E+01  0.18490683219E+02  0.92266911812E+02  0.94297359655E+02  0.10566000000E+00 0.  1.
        994    1    1    2    0    0 -0.50463059413E+01  0.54762375280E+00  0.22858176792E+01  0.17129048443E+03  0.17120000000E+03 0.  0.
        998    1    1    2    0    0 -0.10276131173E+01 -0.19038306972E+02  0.14054472668E+04  0.14056121559E+04  0.10000000000E+02 0.  1.
</event>
<event>
 5    1  0.1252319E-008  0.3837170E+03  0.7957747E-01  0.3435132E+00
         13   -1    0    0    0    0  0.00000000000E+00  0.00000000000E+00  0.14999999963E+04  0.15000000000E+04  0.10566000000E+00 0. -1.
        994   -1    0    0    0    0 -0.00000000000E+00 -0.00000000000E+00  0.11368683772E-12  0.17120000000E+03  0.17120000000E+03 0.  0.
         13    1    1    2    0    0  0.11651130959E+02  0.18691632412E+00  0.28872377627E+02  0.31135335942E+02  0.10566000000E+00 0. -1.
        994    1    1    2    0    0 -0.11385653461E+02  0.18441611782E+01  0.27078929148E+01  0.17160945988E+03  0.17120000000E+03 0.  0.
        998    1    1    2    0    0 -0.26547749773E+00 -0.20310775023E+01  0.14684197257E+04  0.14684552042E+04  0.10000000000E+02 0. -1.
</event>
<event>
 5    1  0.1252319E-008  0.3835479E+03  0.7957747E-01  0.3435854E+00
         13   -1    0    0    0    0  0.00000000000E+00  0.00000000000E+00  0.14999999963E+04  0.15000000000E+04  0.10566000000E+00 0.  1.
        994   -1    0    0    0    0 -0.00000000000E+00 -0.00000000000E+00  0.11368683772E-12  0.17120000000E+03  0.17120000000E+03 0.  0.
         13    1    1    2    0    0  0.10869423488E+00 -0.16354822063E+02  0.55119671714E+02  0.57495055379E+02  0.10566000000E+00 0.  1.
        994    1    1    2    0    0 -0.37733312990E+00  0.14806849281E+02  0.30780121857E+01  0.17186709785E+03  0.17120000000E+03 0.  0.
        998    1    1    2    0    0  0.26863889502E+00  0.15479727818E+01  0.14418023124E+04  0.14418378468E+04  0.10000000000E+02 0.  0.
</event>
<event>
 5    1  0.1252319E-008  0.3814846E+03  0.7957747E-01  0.3444720E+00
         13   -1    0    0    0    0  0.00000000000E+00  0.00000000000E+00  0.14999999963E+04  0.15000000000E+04  0.10566000000E+00 0.  1.
        994   -1    0    0    0    0 -0.00000000000E+00 -0.00000000000E+00  0.11368683772E-12  0.17120000000E+03  0.17120000000E+03 0.  0.
         13    1    1    2    0    0  0.87586157320E+01  0.96240587804E+01  0.23249921825E+02  0.26644059110E+02  0.10566000000E+00 0.  1.
        994    1    1    2    0    0 -0.12228365938E+02 -0.92375986203E+01  0.41673080730E+01  0.17193508257E+03  0.17120000000E+03 0.  0.
        998    1    1    2    0    0  0.34697502058E+01 -0.38646016011E+00  0.14725827664E+04  0.14726208583E+04  0.10000000000E+02 0.  1.
</event>
<event>
 5    1  0.1252319E-008  0.3825100E+03  0.7957747E-01  0.3440301E+00
         13   -1    0    0    0    0  0.00000000000E+00  0.00000000000E+00  0.14999999963E+04  0.15000000000E+04  0.10566000000E+00 0. -1.
        994   -1    0    0    0    0 -0.00000000000E+00 -0.00000000000E+00  0.11368683772E-12  0.17120000000E+03  0.17120000000E+03 0.  0.
         13    1    1    2    0    0  0.18019877844E+02 -0.54824038979E+02  0.64401323567E+02  0.86475041999E+02  0.10566000000E+00 0. -1.
        994    1    1    2    0    0 -0.74042843365E+02  0.12368046340E+03  0.98291939026E+02  0.24443801864E+03  0.17120000000E+03 0.  0.
        998    1    1    2    0    0  0.56022965521E+02 -0.68856424424E+02  0.13373067337E+04  0.13402869394E+04  0.10000000000E+02 0. -1.
</event>
<event>
 5    1  0.1252319E-008  0.3789491E+03  0.7957747E-01  0.3455747E+00
         13   -1    0    0    0    0  0.00000000000E+00  0.00000000000E+00  0.14999999963E+04  0.15000000000E+04  0.10566000000E+00 0.  1.
        994   -1    0    0    0    0 -0.00000000000E+00 -0.00000000000E+00  0.11368683772E-12  0.17120000000E+03  0.17120000000E+03 0.  0.
         13    1    1    2    0    0  0.45774758440E+01 -0.49485381275E+02  0.20888703402E+03  0.21471739657E+03  0.10566000000E+00 0.  1.
        994    1    1    2    0    0 -0.50661536230E+02  0.60084332444E+02  0.25671985965E+02  0.19011893415E+03  0.17120000000E+03 0.  0.
        998    1    1    2    0    0  0.46084060386E+02 -0.10598951170E+02  0.12654409763E+04  0.12663636693E+04  0.10000000000E+02 0.  1.
</event>
<event>
 5    1  0.1252319E-008  0.3701490E+03  0.7957747E-01  0.3495206E+00
         13   -1    0    0    0    0  0.00000000000E+00  0.00000000000E+00  0.14999999963E+04  0.15000000000E+04  0.10566000000E+00 0.  1.
        994   -1    0    0    0    0 -0.00000000000E+00 -0.00000000000E+00  0.11368683772E-12  0.17120000000E+03  0.17120000000E+03 0.  0.
         13    1    1    2    0    0  0.51448103413E+02 -0.13290029582E+02  0.16215026558E+03  0.17063484997E+03  0.10566000000E+00 0.  1.
        994    1    1    2    0    0 -0.14149259810E+02  0.99091162225E+01  0.10223056474E+02  0.17237268641E+03  0.17120000000E+03 0.  0.
        998    1    1    2    0    0 -0.37298843602E+02  0.33809133593E+01  0.13276266742E+04  0.13281924636E+04  0.10000000000E+02 0.  1.
</event>
<event>
 5    1  0.1252319E-008  0.3807565E+03  0.7957747E-01  0.3447871E+00
         13   -1    0    0    0    0  0.00000000000E+00  0.00000000000E+00  0.14999999963E+04  0.15000000000E+04  0.10566000000E+00 0.  1.
        994   -1    0    0    0    0 -0.00000000000E+00 -0.00000000000E+00  0.11368683772E-12  0.17120000000E+03  0.17120000000E+03 0.  0.
         13    1    1    2    0    0 -0.28967921013E+01 -0.35104101269E+02  0.16342703691E+03  0.16717983397E+03  0.10566000000E+00 0.  1.
        994    1    1    2    0    0 -0.18727418568E+01  0.21439709528E+02  0.52977347621E+01  0.17262871806E+03  0.17120000000E+03 0.  0.
        998    1    1    2    0    0  0.47695339581E+01  0.13664391741E+02  0.13312752246E+04  0.13313914480E+04  0.10000000000E+02 0.  1.
</event>
<event>
 5    1  0.1308570E-008  0.3857688E+03  0.7957747E-01  0.3426418E+00
         13   -1    0    0    0    0  0.00000000000E+00  0.00000000000E+00  0.14999999963E+04  0.15000000000E+04  0.10566000000E+00 0.  1.
        994   -1    0    0    0    0 -0.00000000000E+00 -0.00000000000E+00  0.11368683772E-12  0.17120000000E+03  0.17120000000E+03 0.  0.
         13    1    1    2    0    0  0.77203602500E+01 -0.88551901727E+01  0.55114130185E+02  0.56352434424E+02  0.10566000000E+00 0.  1.
        994    1    1    2    0    0 -0.61510075767E+01  0.72413198512E+01  0.15450998913E+01  0.17147040252E+03  0.17120000000E+03 0.  0.
        998    1    1    2    0    0 -0.15693526732E+01  0.16138703215E+01  0.14433407662E+04  0.14433771631E+04  0.10000000000E+02 0.  0.
</event>
<event>
 5    1  0.1252319E-008  0.3839340E+03  0.7957747E-01  0.3434206E+00
         13   -1    0    0    0    0  0.00000000000E+00  0.00000000000E+00  0.14999999963E+04  0.15000000000E+04  0.10566000000E+00 0. -1.
        994   -1    0    0    0    0 -0.00000000000E+00 -0.00000000000E+00  0.11368683772E-12  0.17120000000E+03  0.17120000000E+03 0.  0.
         13    1    1    2    0    0  0.10337267502E+02 -0.82980340217E+01  0.40131573316E+02  0.42264297094E+02  0.10566000000E+00 0. -1.
        994    1    1    2    0    0 -0.49882304264E+01  0.80202704987E+01  0.24547778300E+01  0.17147790854E+03  0.17120000000E+03 0.  0.
        998    1    1    2    0    0 -0.53490370752E+01  0.27776352294E+00  0.14574136451E+04  0.14574577944E+04  0.10000000000E+02 0. -1.
</event>
<event>
 5    1  0.1252319E-008  0.3828031E+03  0.7957747E-01  0.3439043E+00
         13   -1    0    0    0    0  0.00000000000E+00  0.00000000000E+00  0.14999999963E+04  0.15000000000E+04  0.10566000000E+00 0.  1.
        994   -1    0    0    0    0 -0.00000000000E+00 -0.00000000000E+00  0.11368683772E-12  0.17120000000E+03  0.17120000000E+03 0.  0.
         13    1    1    2    0    0 -0.44164373315E+01  0.96748829344E+01  0.18298010609E+02  0.21164513573E+02  0.10566000000E+00 0.  1.
        994    1    1    2    0    0  0.16918223786E+02 -0.28010180551E+02  0.62796248048E+01  0.17441235678E+03  0.17120000000E+03 0.  0.
        998    1    1    2    0    0 -0.12501786455E+02  0.18335297616E+02  0.14754223609E+04  0.14756231296E+04  0.10000000000E+02 0.  1.
</event>
<event>
 5    1  0.1252319E-008  0.3828230E+03  0.7957747E-01  0.3438958E+00
         13   -1    0    0    0    0  0.00000000000E+00  0.00000000000E+00  0.14999999963E+04  0.15000000000E+04  0.10566000000E+00 0. -1.
        994   -1    0    0    0    0 -0.00000000000E+00 -0.00000000000E+00  0.11368683772E-12  0.17120000000E+03  0.17120000000E+03 0.  0.
         13    1    1    2    0    0  0.97002959990E+01  0.85182192382E+01  0.29428945094E+02  0.32136113250E+02  0.10566000000E+00 0. -1.
        994    1    1    2    0    0 -0.44376818552E+01 -0.13024533783E+02  0.33421786779E+01  0.17178457922E+03  0.17120000000E+03 0.  0.
        998    1    1    2    0    0 -0.52626141438E+01  0.45063145446E+01  0.14672288725E+04  0.14672793075E+04  0.10000000000E+02 0. -1.
</event>
<event>
 5    1  0.1252319E-008  0.3745815E+03  0.7957747E-01  0.3475096E+00
         13   -1    0    0    0    0  0.00000000000E+00  0.00000000000E+00  0.14999999963E+04  0.15000000000E+04  0.10566000000E+00 0.  1.
        994   -1    0    0    0    0 -0.00000000000E+00 -0.00000000000E+00  0.11368683772E-12  0.17120000000E+03  0.17120000000E+03 0.  0.
         13    1    1    2    0    0  0.82923323499E+02  0.44028541677E+02  0.54045577706E+03  0.54855013279E+03  0.10566000000E+00 0.  1.
        994    1    1    2    0    0 -0.69304081015E+02 -0.19118963599E+02  0.24696561454E+02  0.18731777962E+03  0.17120000000E+03 0.  0.
        998    1    1    2    0    0 -0.13619242485E+02 -0.24909578078E+02  0.93484765777E+03  0.93533208759E+03  0.10000000000E+02 0.  1.
</event>
<event>
 5    1  0.1252319E-008  0.3857501E+03  0.7957747E-01  0.3426497E+00
         13   -1    0    0    0    0  0.00000000000E+00  0.00000000000E+00  0.14999999963E+04  0.15000000000E+04  0.10566000000E+00 0.  1.
        994   -1    0    0    0    0 -0.00000000000E+00 -0.00000000000E+00  0.11368683772E-12  0.17120000000E+03  0.17120000000E+03 0.  0.
         13    1    1    2    0    0  0.18856443236E+01 -0.12307449738E+02  0.71795690516E+02  0.72867422860E+02  0.10566000000E+00 0.  1.
        994    1    1    2    0    0  0.10480920588E+02 -0.87955793812E+01  0.18725875793E+01  0.17175610178E+03  0.17120000000E+03 0.  0.
        998    1    1    2    0    0 -0.12366564912E+02  0.21103029119E+02  0.14263317182E+04  0.14265764754E+04  0.10000000000E+02 0.  1.
</event>
<event>
 5    1  0.1252319E-008  0.3783782E+03  0.7957747E-01  0.3458251E+00
         13   -1    0    0    0    0  0.00000000000E+00  0.00000000000E+00  0.14999999963E+04  0.15000000000E+04  0.10566000000E+00 0.  1.
        994   -1    0    0    0    0 -0.00000000000E+00 -0.00000000000E+00  0.11368683772E-12  0.17120000000E+03  0.17120000000E+03 0.  0.
         13    1    1    2    0    0  0.53391277307E+02 -0.48294028362E+02  0.15195919261E+03  0.16815037630E+03  0.10566000000E+00 0.  1.
        994    1    1    2    0    0 -0.65813711121E+02  0.22203811324E+02  0.33029464049E+02  0.18768281569E+03  0.17120000000E+03 0.  0.
        998    1    1    2    0    0  0.12422433813E+02  0.26090217038E+02  0.13150113396E+04  0.13153668080E+04  0.10000000000E+02 0.  1.
</event>
<event>
 5    1  0.1252319E-008  0.3765865E+03  0.7957747E-01  0.3466158E+00
         13   -1    0    0    0    0  0.00000000000E+00  0.00000000000E+00  0.14999999963E+04  0.15000000000E+04  0.10566000000E+00 0.  1.
        994   -1    0    0    0    0 -0.00000000000E+00 -0.00000000000E+00  0.11368683772E-12  0.17120000000E+03  0.17120000000E+03 0.  0.
         13    1    1    2    0    0  0.16478761961E+03 -0.62872953976E+02  0.85503806820E+03  0.87303956219E+03  0.10566000000E+00 0.  1.
        994    1    1    2    0    0 -0.17050708369E+03  0.61614654093E+02  0.12657153132E+03  0.27964052591E+03  0.17120000000E+03 0.  0.
        998    1    1    2    0    0  0.57194640851E+01  0.12582998832E+01  0.51839039676E+03  0.51851991190E+03  0.10000000000E+02 0.  0.
</event>
<event>
 5    1  0.1252319E-008  0.3807513E+03  0.7957747E-01  0.3447894E+00
         13   -1    0    0    0    0  0.00000000000E+00  0.00000000000E+00  0.14999999963E+04  0.15000000000E+04  0.10566000000E+00 0.  1.
        994   -1    0    0    0    0 -0.00000000000E+00 -0.00000000000E+00  0.11368683772E-12  0.17120000000E+03  0.17120000000E+03 0.  0.
         13    1    1    2    0    0 -0.26382851720E+02 -0.11273153811E+02  0.11429337790E+03  0.11783940876E+03  0.10566000000E+00 0.  1.
        994    1    1    2    0    0  0.86396171853E+01  0.41417443944E+00  0.40039130315E+01  0.17146511553E+03  0.17120000000E+03 0.  0.
        998    1    1    2    0    0  0.17743234535E+02  0.10858979371E+02  0.13817027054E+04  0.13818954757E+04  0.10000000000E+02 0.  1.
</event>
<event>
 5    1  0.1252319E-008  0.4269637E+03  0.7957747E-01  0.3269119E+00
         13   -1    0    0    0    0  0.00000000000E+00  0.00000000000E+00  0.14999999963E+04  0.15000000000E+04  0.10566000000E+00 0.  1.
        994   -1    0    0    0    0 -0.00000000000E+00 -0.00000000000E+00  0.11368683772E-12  0.17120000000E+03  0.17120000000E+03 0.  0.
         13    1    1    2    0    0 -0.35783397721E+02 -0.62812301287E+02  0.40813097181E+02  0.83015401046E+02  0.10566000000E+00 0.  1.
        994    1    1    2    0    0  0.25957299324E+02  0.78638253769E+02  0.75943172244E+02  0.20477930011E+03  0.17120000000E+03 0.  0.
        998    1    1    2    0    0  0.98260983973E+01 -0.15825952482E+02  0.13832437269E+04  0.13834052988E+04  0.10000000000E+02 0.  1.
</event>
<event>
 5    1  0.1252319E-008  0.3790791E+03  0.7957747E-01  0.3455178E+00
         13   -1    0    0    0    0  0.00000000000E+00  0.00000000000E+00  0.14999999963E+04  0.15000000000E+04  0.10566000000E+00 0. -1.
        994   -1    0    0    0    0 -0.00000000000E+00 -0.00000000000E+00  0.11368683772E-12  0.17120000000E+03  0.17120000000E+03 0.  0.
         13    1    1    2    0    0 -0.41763698800E+01  0.25170103403E+02  0.62330373087E+02  0.67350298766E+02  0.10566000000E+00 0. -1.
        994    1    1    2    0    0  0.25192751504E+02 -0.38766443482E+02  0.11799698755E+02  0.17772502570E+03  0.17120000000E+03 0.  0.
        998    1    1    2    0    0 -0.21016381624E+02  0.13596340079E+02  0.14258699244E+04  0.14261246755E+04  0.10000000000E+02 0. -1.
</event>
<event>
 5    1  0.1252319E-008  0.3857498E+03  0.7957747E-01  0.3426498E+00
         13   -1    0    0    0    0  0.00000000000E+00  0.00000000000E+00  0.14999999963E+04  0.15000000000E+04  0.10566000000E+00 0.  1.
        994   -1    0    0    0    0 -0.00000000000E+00 -0.00000000000E+00  0.11368683772E-12  0.17120000000E+03  0.17120000000E+03 0.  0.
         13    1    1    2    0    0  0.13642914550E+02 -0.60900360455E+00  0.78164801955E+02  0.79348896852E+02  0.10566000000E+00 0.  1.
        994    1    1    2    0    0 -0.38509140431E+01 -0.94939425943E+01  0.16027530954E+01  0.17151377001E+03  0.17120000000E+03 0.  0.
        998    1    1    2    0    0 -0.97920005065E+01  0.10102946199E+02  0.14202324412E+04  0.14203373331E+04  0.10000000000E+02 0.  1.
</event>
<event>
 5    1  0.1252319E-008  0.3841291E+03  0.7957747E-01  0.3433374E+00
         13   -1    0    0    0    0  0.00000000000E+00  0.00000000000E+00  0.14999999963E+04  0.15000000000E+04  0.10566000000E+00 0. -1.
        994   -1    0    0    0    0 -0.00000000000E+00 -0.00000000000E+00  0.11368683772E-12  0.17120000000E+03  0.17120000000E+03 0.  0.
         13    1    1    2    0    0 -0.14904153829E+02  0.36699788573E+01  0.60263902702E+02  0.62188034855E+02  0.10566000000E+00 0. -1.
        994    1    1    2    0    0  0.36944469754E+00  0.52568840872E+01  0.21547372666E+01  0.17129464152E+03  0.17120000000E+03 0.  0.
        998    1    1    2    0    0  0.14534709131E+02 -0.89268629445E+01  0.14375813563E+04  0.14377173236E+04  0.10000000000E+02 0. -1.
</event>
<event>
 5    1  0.1252319E-008  0.3750412E+03  0.7957747E-01  0.3473038E+00
         13   -1    0    0    0    0  0.00000000000E+00  0.00000000000E+00  0.14999999963E+04  0.15000000000E+04  0.10566000000E+00 0.  1.
        994   -1    0    0    0    0 -0.00000000000E+00 -0.00000000000E+00  0.11368683772E-12  0.17120000000E+03  0.17120000000E+03 0.  0.
         13    1    1    2    0    0 -0.56011869765E+01 -0.26150705409E+02  0.53437803785E+02  0.59756528734E+02  0.10566000000E+00 0.  1.
        994    1    1    2    0    0 -0.98742901180E+00  0.42650127164E+01  0.67227023589E+01  0.17138786444E+03  0.17120000000E+03 0.  0.
        998    1    1    2    0    0  0.65886159883E+01  0.21885692693E+02  0.14398394901E+04  0.14400556068E+04  0.10000000000E+02 0.  1.
</event>
<event>
 5    1  0.1252319E-008  0.3709005E+03  0.7957747E-01  0.3491763E+00
         13   -1    0    0    0    0  0.00000000000E+00  0.00000000000E+00  0.14999999963E+04  0.15000000000E+04  0.10566000000E+00 0. -1.
        994   -1    0    0    0    0 -0.00000000000E+00 -0.00000000000E+00  0.11368683772E-12  0.17120000000E+03  0.17120000000E+03 0.  0.
         13    1    1    2    0    0  0.32622539814E+02 -0.91774463895E+02  0.33628159366E+03  0.35010299017E+03  0.10566000000E+00 0. -1.
        994    1    1    2    0    0 -0.41551396608E+02  0.11650339913E+03  0.63540095171E+02  0.22055916273E+03  0.17120000000E+03 0.  0.
        998    1    1    2    0    0  0.89288567940E+01 -0.24728935239E+02  0.11001783074E+04  0.11005378471E+04  0.10000000000E+02 0. -1.
</event>
<event>
 5    1  0.1252319E-008  0.3806036E+03  0.7957747E-01  0.3448535E+00
         13   -1    0    0    0    0  0.00000000000E+00  0.00000000000E+00  0.14999999963E+04  0.15000000000E+04  0.10566000000E+00 0. -1.
        994   -1    0    0    0    0 -0.00000000000E+00 -0.00000000000E+00  0.11368683772E-12  0.17120000000E+03  0.17120000000E+03 0.  0.
         13    1    1    2    0    0 -0.37559168461E+02  0.19413495433E+02  0.25295235167E+03  0.25646145582E+03  0.10566000000E+00 0. -1.
        994    1    1    2    0    0  0.13281348183E+02 -0.60190945905E+01  0.45384629516E+01  0.17187978751E+03  0.17120000000E+03 0.  0.
        998    1    1    2    0    0  0.24277820278E+02 -0.13394400843E+02  0.12425091817E+04  0.12428587567E+04  0.10000000000E+02 0. -1.
</event>
<event>
 5    1  0.1252319E-008  0.3718541E+03  0.7957747E-01  0.3487413E+00
         13   -1    0    0    0    0  0.00000000000E+00  0.00000000000E+00  0.14999999963E+04  0.15000000000E+04  0.10566000000E+00 0.  1.
        994   -1    0    0    0    0 -0.00000000000E+00 -0.00000000000E+00  0.11368683772E-12  0.17120000000E+03  0.17120000000E+03 0.  0.
         13    1    1    2    0    0 -0.62296207945E+02  0.26528690819E+02  0.27087794821E+03  0.27921221848E+03  0.10566000000E+00 0.  1.
        994    1    1    2    0    0  0.38742640708E+02 -0.12363443343E+02  0.14006671622E+02  0.17652046281E+03  0.17120000000E+03 0.  0.
        998    1    1    2    0    0  0.23553567237E+02 -0.14165247476E+02  0.12151153764E+04  0.12154673187E+04  0.10000000000E+02 0.  1.
</event>
<event>
 5    1  0.1252319E-008  0.3709394E+03  0.7957747E-01  0.3491585E+00
         13   -1    0    0    0    0  0.00000000000E+00  0.00000000000E+00  0.14999999963E+04  0.15000000000E+04  0.10566000000E+00 0.  1.
        994   -1    0    0    0    0 -0.00000000000E+00 -0.00000000000E+00  0.11368683772E-12  0.17120000000E+03  0.17120000000E+03 0.  0.
         13    1    1    2    0    0 -0.42626311326E+02 -0.11394430294E+03  0.45564035160E+03  0.47160200143E+03  0.10566000000E+00 0.  1.
        994    1    1    2    0    0  0.56461912840E+02  0.13280974647E+03  0.84380909238E+02  0.23928216441E+03  0.17120000000E+03 0.  0.
        998    1    1    2    0    0 -0.13835601514E+02 -0.18865443536E+02  0.95997873545E+03  0.96031583416E+03  0.10000000000E+02 0.  1.
</event>
<event>
 5    1  0.1252319E-008  0.3841685E+03  0.7957747E-01  0.3433206E+00
         13   -1    0    0    0    0  0.00000000000E+00  0.00000000000E+00  0.14999999963E+04  0.15000000000E+04  0.10566000000E+00 0.  1.
        994   -1    0    0    0    0 -0.00000000000E+00 -0.00000000000E+00  0.11368683772E-12  0.17120000000E+03  0.17120000000E+03 0.  0.
         13    1    1    2    0    0  0.15895075962E+02  0.33014005977E+01  0.60725140371E+02  0.62857827857E+02  0.10566000000E+00 0.  1.
        994    1    1    2    0    0 -0.18908294374E+02 -0.10135163586E+02  0.35626500840E+01  0.17257571559E+03  0.17120000000E+03 0.  0.
        998    1    1    2    0    0  0.30132184117E+01  0.68337629887E+01  0.14357122058E+04  0.14357664565E+04  0.10000000000E+02 0.  1.
</event>
<event>
 5    1  0.1252319E-008  0.3820874E+03  0.7957747E-01  0.3442120E+00
         13   -1    0    0    0    0  0.00000000000E+00  0.00000000000E+00  0.14999999963E+04  0.15000000000E+04  0.10566000000E+00 0.  1.
        994   -1    0    0    0    0 -0.00000000000E+00 -0.00000000000E+00  0.11368683772E-12  0.17120000000E+03  0.17120000000E+03 0.  0.
         13    1    1    2    0    0  0.15266979327E+02  0.33608830640E+02  0.19888947849E+03  0.20228610919E+03  0.10566000000E+00 0.  1.
        994    1    1    2    0    0 -0.12595710698E+02 -0.31153332195E+02  0.68410961066E+01  0.17460075209E+03  0.17120000000E+03 0.  0.
        998    1    1    2    0    0 -0.26712686293E+01 -0.24554984455E+01  0.12942694217E+04  0.12943131387E+04  0.10000000000E+02 0.  1.
</event>
<event>
 5    1  0.1252319E-008  0.3837968E+03  0.7957747E-01  0.3434791E+00
         13   -1    0    0    0    0  0.00000000000E+00  0.00000000000E+00  0.14999999963E+04  0.15000000000E+04  0.10566000000E+00 0.  1.
        994   -1    0    0    0    0 -0.00000000000E+00 -0.00000000000E+00  0.11368683772E-12  0.17120000000E+03  0.17120000000E+03 0.  0.
         13    1    1    2    0    0 -0.35147631533E+00  0.17801126328E+02  0.72522876558E+02  0.74676518548E+02  0.10566000000E+00 0.  1.
        994    1    1    2    0    0  0.18910383667E+01 -0.68806512505E+01  0.23968065823E+01  0.17136541095E+03  0.17120000000E+03 0.  0.
        998    1    1    2    0    0 -0.15395620514E+01 -0.10920475078E+02  0.14250803131E+04  0.14251580705E+04  0.10000000000E+02 0.  1.
</event>
<event>
 5    1  0.1252319E-008  0.3762170E+03  0.7957747E-01  0.3467798E+00
         13   -1    0    0    0    0  0.00000000000E+00  0.00000000000E+00  0.14999999963E+04  0.15000000000E+04  0.10566000000E+00 0. -1.
        994   -1    0    0    0    0 -0.00000000000E+00 -0.00000000000E+00  0.11368683772E-12  0.17120000000E+03  0.17120000000E+03 0.  0.
         13    1    1    2    0    0  0.29363579366E+02  0.83996852726E+01  0.86355251610E+02  0.91597025883E+02  0.10566000000E+00 0. -1.
        994    1    1    2    0    0  0.19563223407E+02 -0.12371377639E+02  0.78709694619E+01  0.17293687535E+03  0.17120000000E+03 0.  0.
        998    1    1    2    0    0 -0.48926802772E+02  0.39716923661E+01  0.14057737752E+04  0.14066660988E+04  0.10000000000E+02 0. -1.
</event>
<event>
 5    1  0.1252319E-008  0.3791936E+03  0.7957747E-01  0.3454677E+00
         13   -1    0    0    0    0  0.00000000000E+00  0.00000000000E+00  0.14999999963E+04  0.15000000000E+04  0.10566000000E+00 0.  1.
        994   -1    0    0    0    0 -0.00000000000E+00 -0.00000000000E+00  0.11368683772E-12  0.17120000000E+03  0.17120000000E+03 0.  0.
         13    1    1    2    0    0  0.19308543971E+02  0.12979237778E+01  0.38805321936E+02  0.43363217720E+02  0.10566000000E+00 0.  1.
        994    1    1    2    0    0 -0.18389997660E+02  0.40877905551E+01  0.57312225844E+01  0.17232872354E+03  0.17120000000E+03 0.  0.
        998    1    1    2    0    0 -0.91854631120E+00 -0.53857143329E+01  0.14554634518E+04  0.14555080587E+04  0.10000000000E+02 0.  1.
</event>
<event>
 5    1  0.1252319E-008  0.3829720E+03  0.7957747E-01  0.3438319E+00
         13   -1    0    0    0    0  0.00000000000E+00  0.00000000000E+00  0.14999999963E+04  0.15000000000E+04  0.10566000000E+00 0. -1.
        994   -1    0    0    0    0 -0.00000000000E+00 -0.00000000000E+00  0.11368683772E-12  0.17120000000E+03  0.17120000000E+03 0.  0.
         13    1    1    2    0    0 -0.24571129581E+02 -0.17222792278E+02  0.15441628259E+03  0.15730468676E+03  0.10566000000E+00 0. -1.
        994    1    1    2    0    0  0.29751279068E+02  0.10033850163E+02  0.59106822164E+01  0.17415565716E+03  0.17120000000E+03 0.  0.
        998    1    1    2    0    0 -0.51801494872E+01  0.71889421144E+01  0.13396730315E+04  0.13397396561E+04  0.10000000000E+02 0. -1.
</event>
<event>
 5    1  0.1252319E-008  0.3824723E+03  0.7957747E-01  0.3440464E+00
         13   -1    0    0    0    0  0.00000000000E+00  0.00000000000E+00  0.14999999963E+04  0.15000000000E+04  0.10566000000E+00 0.  1.
        994   -1    0    0    0    0 -0.00000000000E+00 -0.00000000000E+00  0.11368683772E-12  0.17120000000E+03  0.17120000000E+03 0.  0.
         13    1    1    2    0    0 -0.94807336183E+01  0.10588854239E+02  0.33834609399E+02  0.36698775201E+02  0.10566000000E+00 0.  1.
        994    1    1    2    0    0  0.34157001289E+01 -0.10994568256E+02  0.33299562393E+01  0.17161898539E+03  0.17120000000E+03 0.  0.
        998    1    1    2    0    0  0.60650334894E+01  0.40571401726E+00  0.14628354306E+04  0.14628822394E+04  0.10000000000E+02 0.  1.
</event>
<event>
 5    1  0.1252319E-008  0.3803189E+03  0.7957747E-01  0.3449771E+00
         13   -1    0    0    0    0  0.00000000000E+00  0.00000000000E+00  0.14999999963E+04  0.15000000000E+04  0.10566000000E+00 0.  1.
        994   -1    0    0    0    0 -0.00000000000E+00 -0.00000000000E+00  0.11368683772E-12  0.17120000000E+03  0.17120000000E+03 0.  0.
         13    1    1    2    0    0 -0.66995517926E+01 -0.76343807558E+01  0.11211030139E+02  0.15128321935E+02  0.10566000000E+00 0.  1.
        994    1    1    2    0    0  0.44649691969E+01  0.75764345744E+01  0.42305675822E+01  0.17147791698E+03  0.17120000000E+03 0.  0.
        998    1    1    2    0    0  0.22345825957E+01  0.57946181364E-01  0.14845583986E+04  0.14845937611E+04  0.10000000000E+02 0.  1.
</event>
<event>
 5    1  0.1252319E-008  0.3818443E+03  0.7957747E-01  0.3443167E+00
         13   -1    0    0    0    0  0.00000000000E+00  0.00000000000E+00  0.14999999963E+04  0.15000000000E+04  0.10566000000E+00 0.  1.
        994   -1    0    0    0    0 -0.00000000000E+00 -0.00000000000E+00  0.11368683772E-12  0.17120000000E+03  0.17120000000E+03 0.  0.
         13    1    1    2    0    0 -0.73302757664E+00  0.11101194704E+02  0.18196537655E+02  0.21328361399E+02  0.10566000000E+00 0.  1.
        994    1    1    2    0    0 -0.44925815237E+01 -0.46065128926E+01  0.33426216208E+01  0.17135348368E+03  0.17120000000E+03 0.  0.
        998    1    1    2    0    0  0.52256091003E+01 -0.64946818115E+01  0.14784608370E+04  0.14785181549E+04  0.10000000000E+02 0.  1.
</event>
<event>
 5    1  0.1252319E-008  0.3800939E+03  0.7957747E-01  0.3450750E+00
         13   -1    0    0    0    0  0.00000000000E+00  0.00000000000E+00  0.14999999963E+04  0.15000000000E+04  0.10566000000E+00 0.  1.
        994   -1    0    0    0    0 -0.00000000000E+00 -0.00000000000E+00  0.11368683772E-12  0.17120000000E+03  0.17120000000E+03 0.  0.
         13    1    1    2    0    0 -0.11761737639E+02  0.20210143944E+01  0.15923464530E+02  0.19899519043E+02  0.10566000000E+00 0.  1.
        994    1    1    2    0    0  0.34157399173E+01  0.46396054190E+01  0.41966744951E+01  0.17134831570E+03  0.17120000000E+03 0.  0.
        998    1    1    2    0    0  0.83459977213E+01 -0.66606198134E+01  0.14798798573E+04  0.14799521653E+04  0.10000000000E+02 0.  1.
</event>
<event>
 5    1  0.1252319E-008  0.2854279E+03  0.7957747E-01  0.4005876E+00
         13   -1    0    0    0    0  0.00000000000E+00  0.00000000000E+00  0.14999999963E+04  0.15000000000E+04  0.10566000000E+00 0.  1.
        994   -1    0    0    0    0 -0.00000000000E+00 -0.00000000000E+00  0.11368683772E-12  0.17120000000E+03  0.17120000000E+03 0.  0.
         13    1    1    2    0    0 -0.38052522220E+02 -0.16859232044E+03  0.54220539790E+03  0.56908529206E+03  0.10566000000E+00 0.  1.
        994    1    1    2    0    0  0.40027681307E+02  0.17726189374E+03  0.14401516461E+03  0.28822526239E+03  0.17120000000E+03 0.  0.
        998    1    1    2    0    0 -0.19751590870E+01 -0.86695733041E+01  0.81377943377E+03  0.81388944555E+03  0.10000000000E+02 0.  1.
</event>
<event>
 5    1  0.1252319E-008  0.3820573E+03  0.7957747E-01  0.3442249E+00
         13   -1    0    0    0    0  0.00000000000E+00  0.00000000000E+00  0.14999999963E+04  0.15000000000E+04  0.10566000000E+00 0.  1.
        994   -1    0    0    0    0 -0.00000000000E+00 -0.00000000000E+00  0.11368683772E-12  0.17120000000E+03  0.17120000000E+03 0.  0.
         13    1    1    2    0    0  0.29372867085E+02 -0.39493450777E+01  0.13993497333E+03  0.14303905261E+03  0.10566000000E+00 0.  1.
        994    1    1    2    0    0 -0.19257900240E+02 -0.39592032459E+01  0.43827009716E+01  0.17238094465E+03  0.17120000000E+03 0.  0.
        998    1    1    2    0    0 -0.10114966846E+02  0.79085483236E+01  0.13556823220E+04  0.13557800027E+04  0.10000000000E+02 0.  1.
</event>
<event>
 5    1  0.1252319E-008  0.3804845E+03  0.7957747E-01  0.3449052E+00
         13   -1    0    0    0    0  0.00000000000E+00  0.00000000000E+00  0.14999999963E+04  0.15000000000E+04  0.10566000000E+00 0. -1.
        994   -1    0    0    0    0 -0.00000000000E+00 -0.00000000000E+00  0.11368683772E-12  0.17120000000E+03  0.17120000000E+03 0.  0.
         13    1    1    2    0    0 -0.84020734774E+01  0.11038831875E+02  0.22579064775E+02  0.26500490147E+02  0.10566000000E+00 0. -1.
        994    1    1    2    0    0  0.15463847338E+02 -0.11590184288E+02  0.51362330646E+01  0.17236381243E+03  0.17120000000E+03 0.  0.
        998    1    1    2    0    0 -0.70617738608E+01  0.55135241286E+00  0.14722846984E+04  0.14723356974E+04  0.10000000000E+02 0. -1.
</event>
<event>
 5    1  0.1252319E-008  0.3759873E+03  0.7957747E-01  0.3468819E+00
         13   -1    0    0    0    0  0.00000000000E+00  0.00000000000E+00  0.14999999963E+04  0.15000000000E+04  0.10566000000E+00 0.  1.
        994   -1    0    0    0    0 -0.00000000000E+00 -0.00000000000E+00  0.11368683772E-12  0.17120000000E+03  0.17120000000E+03 0.  0.
         13    1    1    2    0    0 -0.15641240746E+02 -0.32186344494E+02  0.95851094626E+02  0.10231350199E+03  0.10566000000E+00 0.  1.
        994    1    1    2    0    0  0.19579696367E+02  0.29890507154E+02  0.10510525361E+02  0.17520478895E+03  0.17120000000E+03 0.  0.
        998    1    1    2    0    0 -0.39384556215E+01  0.22958373404E+01  0.13936383763E+04  0.13936817091E+04  0.10000000000E+02 0.  1.
</event>
<event>
 5    1  0.1252319E-008  0.3756818E+03  0.7957747E-01  0.3470179E+00
         13   -1    0    0    0    0  0.00000000000E+00  0.00000000000E+00  0.14999999963E+04  0.15000000000E+04  0.10566000000E+00 0. -1.
        994   -1    0    0    0    0 -0.00000000000E+00 -0.00000000000E+00  0.11368683772E-12  0.17120000000E+03  0.17120000000E+03 0.  0.
         13    1    1    2    0    0  0.14979790836E+03  0.10343628525E+03  0.90663862918E+03  0.92473352569E+03  0.10566000000E+00 0. -1.
        994    1    1    2    0    0 -0.15669656148E+03 -0.89157305948E+02  0.12599440340E+03  0.27872363960E+03  0.17120000000E+03 0.  0.
        998    1    1    2    0    0  0.68986531120E+01 -0.14278979301E+02  0.46736696370E+03  0.46774283471E+03  0.10000000000E+02 0.  1.
</event>
<event>
 5    1  0.1252319E-008  0.3853593E+03  0.7957747E-01  0.3428150E+00
         13   -1    0    0    0    0  0.00000000000E+00  0.00000000000E+00  0.14999999963E+04  0.15000000000E+04  0.10566000000E+00 0.  1.
        994   -1    0    0    0    0 -0.00000000000E+00 -0.00000000000E+00  0.11368683772E-12  0.17120000000E+03  0.17120000000E+03 0.  0.
         13    1    1    2    0    0  0.12079706910E+02  0.30642372687E+01  0.53725569706E+02  0.55152124830E+02  0.10566000000E+00 0.  1.
        994    1    1    2    0    0 -0.79853522588E+01 -0.14587175517E+01  0.16683146238E+01  0.17140045794E+03  0.17120000000E+03 0.  0.
        998    1    1    2    0    0 -0.40943546515E+01 -0.16055197170E+01  0.14446061119E+04  0.14446474172E+04  0.10000000000E+02 0.  1.
</event>
<event>
 5    1  0.1252319E-008  0.4133837E+03  0.7957747E-01  0.3317547E+00
         13   -1    0    0    0    0  0.00000000000E+00  0.00000000000E+00  0.14999999963E+04  0.15000000000E+04  0.10566000000E+00 0. -1.
        994   -1    0    0    0    0 -0.00000000000E+00 -0.00000000000E+00  0.11368683772E-12  0.17120000000E+03  0.17120000000E+03 0.  0.
         13    1    1    2    0    0 -0.47110494133E+02 -0.11547295245E+03  0.15109266514E+03  0.19591428235E+03  0.10566000000E+00 0. -1.
        994    1    1    2    0    0  0.79752676701E+02  0.14881185713E+03  0.16778716434E+03  0.29320203066E+03  0.17120000000E+03 0.  0.
        998    1    1    2    0    0 -0.32642182568E+02 -0.33338904683E+02  0.11811201668E+04  0.11820836870E+04  0.10000000000E+02 0. -1.
</event>
<event>
 5    1  0.1252319E-008  0.3744104E+03  0.7957747E-01  0.3475864E+00
         13   -1    0    0    0    0  0.00000000000E+00  0.00000000000E+00  0.14999999963E+04  0.15000000000E+04  0.10566000000E+00 0. -1.
        994   -1    0    0    0    0 -0.00000000000E+00 -0.00000000000E+00  0.11368683772E-12  0.17120000000E+03  0.17120000000E+03 0.  0.
         13    1    1    2    0    0  0.25582645689E+02  0.25990849706E+02  0.48590971935E+02  0.60754339322E+02  0.10566000000E+00 0. -1.
        994    1    1    2    0    0 -0.59351425538E+01  0.12342263334E+02  0.13956407765E+02  0.17231302533E+03  0.17120000000E+03 0.  0.
        998    1    1    2    0    0 -0.19647503136E+02 -0.38333113040E+02  0.14374526166E+04  0.14381326353E+04  0.10000000000E+02 0. -1.
</event>
<event>
 5    1  0.1252319E-008  0.3781065E+03  0.7957747E-01  0.3459445E+00
         13   -1    0    0    0    0  0.00000000000E+00  0.00000000000E+00  0.14999999963E+04  0.15000000000E+04  0.10566000000E+00 0.  1.
        994   -1    0    0    0    0 -0.00000000000E+00 -0.00000000000E+00  0.11368683772E-12  0.17120000000E+03  0.17120000000E+03 0.  0.
         13    1    1    2    0    0  0.31577268933E+02 -0.54937709672E+01  0.93910566002E+02  0.99229587340E+02  0.10566000000E+00 0.  1.
        994    1    1    2    0    0 -0.28753299542E+02  0.17932496217E+02  0.89646564400E+01  0.17475162866E+03  0.17120000000E+03 0.  0.
        998    1    1    2    0    0 -0.28239693911E+01 -0.12438725249E+02  0.13971247738E+04  0.13972187840E+04  0.10000000000E+02 0.  1.
</event>
<event>
 5    1  0.1252319E-008  0.3780555E+03  0.7957747E-01  0.3459669E+00
         13   -1    0    0    0    0  0.00000000000E+00  0.00000000000E+00  0.14999999963E+04  0.15000000000E+04  0.10566000000E+00 0.  1.
        994   -1    0    0    0    0 -0.00000000000E+00 -0.00000000000E+00  0.11368683772E-12  0.17120000000E+03  0.17120000000E+03 0.  0.
         13    1    1    2    0    0 -0.91614434693E+02  0.42219513554E+02  0.60334864192E+03  0.61172321097E+03  0.10566000000E+00 0.  1.
        994    1    1    2    0    0  0.86232804355E+02 -0.47838387581E+02  0.38567660934E+02  0.20129955873E+03  0.17120000000E+03 0.  0.
        998    1    1    2    0    0  0.53816303383E+01  0.56188740277E+01  0.85808369343E+03  0.85817723031E+03  0.10000000000E+02 0.  0.
</event>
<event>
 5    1  0.1252319E-008  0.3857692E+03  0.7957747E-01  0.3426416E+00
         13   -1    0    0    0    0  0.00000000000E+00  0.00000000000E+00  0.14999999963E+04  0.15000000000E+04  0.10566000000E+00 0. -1.
        994   -1    0    0    0    0 -0.00000000000E+00 -0.00000000000E+00  0.11368683772E-12  0.17120000000E+03  0.17120000000E+03 0.  0.
         13    1    1    2    0    0  0.12470710047E+02 -0.90208690974E+01  0.89542208588E+02  0.90855450972E+02  0.10566000000E+00 0. -1.
        994    1    1    2    0    0 -0.13656255003E+02  0.11512362235E+02  0.22959788918E+01  0.17214453028E+03  0.17120000000E+03 0.  0.
        998    1    1    2    0    0  0.11855449566E+01 -0.24914931379E+01  0.14081618088E+04  0.14082000188E+04  0.10000000000E+02 0. -1.
</event>
<event>
 5    1  0.1252319E-008  0.3687425E+03  0.7957747E-01  0.3501690E+00
         13   -1    0    0    0    0  0.00000000000E+00  0.00000000000E+00  0.14999999963E+04  0.15000000000E+04  0.10566000000E+00 0. -1.
        994   -1    0    0    0    0 -0.00000000000E+00 -0.00000000000E+00  0.11368683772E-12  0.17120000000E+03  0.17120000000E+03 0.  0.
         13    1    1    2    0    0  0.10057901554E+02  0.14034743876E+02  0.99693438509E+01  0.19938264724E+02  0.10566000000E+00 0. -1.
        994    1    1    2    0    0 -0.85712313877E+01 -0.79399633102E+01  0.10750675567E+02  0.17193465634E+03  0.17120000000E+03 0.  0.
        998    1    1    2    0    0 -0.14866701665E+01 -0.60947805661E+01  0.14792799769E+04  0.14793270789E+04  0.10000000000E+02 0. -1.
</event>
<event>
 5    1  0.1252319E-008  0.3846945E+03  0.7957747E-01  0.3430969E+00
         13   -1    0    0    0    0  0.00000000000E+00  0.00000000000E+00  0.14999999963E+04  0.15000000000E+04  0.10566000000E+00 0. -1.
        994   -1    0    0    0    0 -0.00000000000E+00 -0.00000000000E+00  0.11368683772E-12  0.17120000000E+03  0.17120000000E+03 0.  0.
         13    1    1    2    0    0 -0.15090181880E+02  0.40997167766E+01  0.63419600704E+02  0.65319049169E+02  0.10566000000E+00 0. -1.
        994    1    1    2    0    0  0.21413850914E+02 -0.97114769369E+01  0.36039894214E+01  0.17284471220E+03  0.17120000000E+03 0.  0.
        998    1    1    2    0    0 -0.63236690340E+01  0.56117601603E+01  0.14329764062E+04  0.14330362386E+04  0.10000000000E+02 0. -1.
</event>
<event>
 5    1  0.1252319E-008  0.3820386E+03  0.7957747E-01  0.3442330E+00
         13   -1    0    0    0    0  0.00000000000E+00  0.00000000000E+00  0.14999999963E+04  0.15000000000E+04  0.10566000000E+00 0.  1.
        994   -1    0    0    0    0 -0.00000000000E+00 -0.00000000000E+00  0.11368683772E-12  0.17120000000E+03  0.17120000000E+03 0.  0.
         13    1    1    2    0    0 -0.11318787636E+02  0.28660707950E+02  0.16032806827E+03  0.16326252410E+03  0.10566000000E+00 0.  1.
        994    1    1    2    0    0  0.25207192766E+01 -0.10749058400E+02  0.35124712981E+01  0.17159158994E+03  0.17120000000E+03 0.  0.
        998    1    1    2    0    0  0.87980683595E+01 -0.17911649550E+02  0.13361594567E+04  0.13363458860E+04  0.10000000000E+02 0.  1.
</event>
<event>
 5    1  0.1252319E-008  0.3904148E+03  0.7957747E-01  0.3407027E+00
         13   -1    0    0    0    0  0.00000000000E+00  0.00000000000E+00  0.14999999963E+04  0.15000000000E+04  0.10566000000E+00 0. -1.
        994   -1    0    0    0    0 -0.00000000000E+00 -0.00000000000E+00  0.11368683772E-12  0.17120000000E+03  0.17120000000E+03 0.  0.
         13    1    1    2    0    0 -0.83494087507E+00  0.36573833216E+02  0.20710326229E+02  0.42038924569E+02  0.10566000000E+00 0. -1.
        994    1    1    2    0    0  0.11673054078E+02 -0.39771812944E+02  0.28671502209E+02  0.17846442877E+03  0.17120000000E+03 0.  0.
        998    1    1    2    0    0 -0.10838113203E+02  0.31979797276E+01  0.14506181678E+04  0.14506966467E+04  0.10000000000E+02 0. -1.
</event>
<event>
 5    1  0.1252319E-008  0.3826024E+03  0.7957747E-01  0.3439905E+00
         13   -1    0    0    0    0  0.00000000000E+00  0.00000000000E+00  0.14999999963E+04  0.15000000000E+04  0.10566000000E+00 0.  1.
        994   -1    0    0    0    0 -0.00000000000E+00 -0.00000000000E+00  0.11368683772E-12  0.17120000000E+03  0.17120000000E+03 0.  0.
         13    1    1    2    0    0 -0.18096490832E+02 -0.11875384841E+02  0.80048205942E+02  0.82923061835E+02  0.10566000000E+00 0.  1.
        994    1    1    2    0    0  0.23721481341E+02 -0.26133692241E+01  0.47151884351E+01  0.17291966741E+03  0.17120000000E+03 0.  0.
        998    1    1    2    0    0 -0.56249905095E+01  0.14488754065E+02  0.14152366019E+04  0.14153572708E+04  0.10000000000E+02 0.  1.
</event>
<event>
 5    1  0.1252319E-008  0.3836638E+03  0.7957747E-01  0.3435359E+00
         13   -1    0    0    0    0  0.00000000000E+00  0.00000000000E+00  0.14999999963E+04  0.15000000000E+04  0.10566000000E+00 0.  1.
        994   -1    0    0    0    0 -0.00000000000E+00 -0.00000000000E+00  0.11368683772E-12  0.17120000000E+03  0.17120000000E+03 0.  0.
         13    1    1    2    0    0 -0.12295066423E+00  0.22040193621E+02  0.10331929937E+03  0.10564409135E+03  0.10566000000E+00 0.  1.
        994    1    1    2    0    0  0.36632190655E+01 -0.16488651673E+02  0.32378972413E+01  0.17206167146E+03  0.17120000000E+03 0.  0.
        998    1    1    2    0    0 -0.35402684012E+01 -0.55515419477E+01  0.13934427997E+04  0.13934942372E+04  0.10000000000E+02 0.  1.
</event>
<event>
 5    1  0.1252319E-008  0.3853549E+03  0.7957747E-01  0.3428169E+00
         13   -1    0    0    0    0  0.00000000000E+00  0.00000000000E+00  0.14999999963E+04  0.15000000000E+04  0.10566000000E+00 0.  1.
        994   -1    0    0    0    0 -0.00000000000E+00 -0.00000000000E+00  0.11368683772E-12  0.17120000000E+03  0.17120000000E+03 0.  0.
         13    1    1    2    0    0  0.97813047183E+01 -0.21495767223E+01  0.32506910305E+02  0.34014775961E+02  0.10566000000E+00 0.  1.
        994    1    1    2    0    0 -0.17416302910E+02  0.94332136513E+01  0.27438097557E+01  0.17236380600E+03  0.17120000000E+03 0.  0.
        998    1    1    2    0    0  0.76349981914E+01 -0.72836369290E+01  0.14647492762E+04  0.14648214180E+04  0.10000000000E+02 0.  1.
</event>
<event>
 5    1  0.1252319E-008  0.3785914E+03  0.7957747E-01  0.3457315E+00
         13   -1    0    0    0    0  0.00000000000E+00  0.00000000000E+00  0.14999999963E+04  0.15000000000E+04  0.10566000000E+00 0. -1.
        994   -1    0    0    0    0 -0.00000000000E+00 -0.00000000000E+00  0.11368683772E-12  0.17120000000E+03  0.17120000000E+03 0.  0.
         13    1    1    2    0    0 -0.18890956618E+02 -0.15779670366E+02  0.68288903078E+02  0.72589611422E+02  0.10566000000E+00 0. -1.
        994    1    1    2    0    0  0.26604527292E+02 -0.50406661844E+02  0.15835155435E+02  0.18113206392E+03  0.17120000000E+03 0.  0.
        998    1    1    2    0    0 -0.77135706733E+01  0.66186332210E+02  0.14158759378E+04  0.14174783247E+04  0.10000000000E+02 0. -1.
</event>
<event>
 5    1  0.1252319E-008  0.3827726E+03  0.7957747E-01  0.3439174E+00
         13   -1    0    0    0    0  0.00000000000E+00  0.00000000000E+00  0.14999999963E+04  0.15000000000E+04  0.10566000000E+00 0. -1.
        994   -1    0    0    0    0 -0.00000000000E+00 -0.00000000000E+00  0.11368683772E-12  0.17120000000E+03  0.17120000000E+03 0.  0.
         13    1    1    2    0    0  0.12379896993E+02  0.17585891708E+02  0.87177583831E+02  0.89791245249E+02  0.10566000000E+00 0. -1.
        994    1    1    2    0    0  0.47352601501E+01 -0.11131235446E+02  0.32249247455E+01  0.17165712112E+03  0.17120000000E+03 0.  0.
        998    1    1    2    0    0 -0.17115157143E+02 -0.64546562621E+01  0.14095974877E+04  0.14097516336E+04  0.10000000000E+02 0. -1.
</event>
<event>
 5    1  0.1252319E-008  0.3821986E+03  0.7957747E-01  0.3441641E+00
         13   -1    0    0    0    0  0.00000000000E+00  0.00000000000E+00  0.14999999963E+04  0.15000000000E+04  0.10566000000E+00 0. -1.
        994   -1    0    0    0    0 -0.00000000000E+00 -0.00000000000E+00  0.11368683772E-12  0.17120000000E+03  0.17120000000E+03 0.  0.
         13    1    1    2    0    0  0.24594286952E+02 -0.64723457821E+01  0.10613475666E+03  0.10913921360E+03  0.10566000000E+00 0. -1.
        994    1    1    2    0    0 -0.13088450623E+02  0.99073675070E+01  0.39221915249E+01  0.17202990164E+03  0.17120000000E+03 0.  0.
        998    1    1    2    0    0 -0.11505836330E+02 -0.34350217249E+01  0.13899430481E+04  0.13900308848E+04  0.10000000000E+02 0. -1.
</event>
<event>
 5    1  0.1252319E-008  0.3717185E+03  0.7957747E-01  0.3488030E+00
         13   -1    0    0    0    0  0.00000000000E+00  0.00000000000E+00  0.14999999963E+04  0.15000000000E+04  0.10566000000E+00 0. -1.
        994   -1    0    0    0    0 -0.00000000000E+00 -0.00000000000E+00  0.11368683772E-12  0.17120000000E+03  0.17120000000E+03 0.  0.
         13    1    1    2    0    0  0.34425721939E+02 -0.47708233682E+02  0.21045570121E+03  0.21852418454E+03  0.10566000000E+00 0. -1.
        994    1    1    2    0    0 -0.37807958376E+02  0.89050319109E+01  0.13577350744E+02  0.17607534116E+03  0.17120000000E+03 0.  0.
        998    1    1    2    0    0  0.33822364375E+01  0.38803201771E+02  0.12759669443E+04  0.12766004743E+04  0.10000000000E+02 0. -1.
</event>
<event>
 5    1  0.1252319E-008  0.3847829E+03  0.7957747E-01  0.3430593E+00
         13   -1    0    0    0    0  0.00000000000E+00  0.00000000000E+00  0.14999999963E+04  0.15000000000E+04  0.10566000000E+00 0.  1.
        994   -1    0    0    0    0 -0.00000000000E+00 -0.00000000000E+00  0.11368683772E-12  0.17120000000E+03  0.17120000000E+03 0.  0.
         13    1    1    2    0    0 -0.11763202740E+01  0.16963058670E+02  0.98075280057E+02  0.99538438863E+02  0.10566000000E+00 0.  1.
        994    1    1    2    0    0  0.63135278032E+01  0.10664232376E+02  0.22435608358E+01  0.17166263440E+03  0.17120000000E+03 0.  0.
        998    1    1    2    0    0 -0.51372075292E+01 -0.27627291046E+02  0.13996811554E+04  0.13999989267E+04  0.10000000000E+02 0.  1.
</event>
<event>
 5    1  0.1252319E-008  0.3776632E+03  0.7957747E-01  0.3461397E+00
         13   -1    0    0    0    0  0.00000000000E+00  0.00000000000E+00  0.14999999963E+04  0.15000000000E+04  0.10566000000E+00 0.  1.
        994   -1    0    0    0    0 -0.00000000000E+00 -0.00000000000E+00  0.11368683772E-12  0.17120000000E+03  0.17120000000E+03 0.  0.
         13    1    1    2    0    0 -0.13463948390E+03  0.90780406982E+01  0.60430468167E+03  0.61918846961E+03  0.10566000000E+00 0.  1.
        994    1    1    2    0    0  0.17032998406E+03  0.12154359541E+02  0.11084584301E+03  0.26600051285E+03  0.17120000000E+03 0.  0.
        998    1    1    2    0    0 -0.35690500157E+02 -0.21232400239E+02  0.78484947160E+03  0.78601101754E+03  0.10000000000E+02 0.  1.
</event>
<event>
 5    1  0.1252319E-008  0.3756824E+03  0.7957747E-01  0.3470176E+00
         13   -1    0    0    0    0  0.00000000000E+00  0.00000000000E+00  0.14999999963E+04  0.15000000000E+04  0.10566000000E+00 0. -1.
        994   -1    0    0    0    0 -0.00000000000E+00 -0.00000000000E+00  0.11368683772E-12  0.17120000000E+03  0.17120000000E+03 0.  0.
         13    1    1    2    0    0  0.13658641825E+02 -0.35514329853E+02  0.10728748588E+03  0.11383515236E+03  0.10566000000E+00 0. -1.
        994    1    1    2    0    0 -0.17195586733E+02  0.28840561944E+02  0.10161921452E+02  0.17475746297E+03  0.17120000000E+03 0.  0.
        998    1    1    2    0    0  0.35369449074E+01  0.66737679089E+01  0.13825505889E+04  0.13826073847E+04  0.10000000000E+02 0. -1.
</event>
<event>
 5    1  0.1252319E-008  0.3741534E+03  0.7957747E-01  0.3477018E+00
         13   -1    0    0    0    0  0.00000000000E+00  0.00000000000E+00  0.14999999963E+04  0.15000000000E+04  0.10566000000E+00 0. -1.
        994   -1    0    0    0    0 -0.00000000000E+00 -0.00000000000E+00  0.11368683772E-12  0.17120000000E+03  0.17120000000E+03 0.  0.
         13    1    1    2    0    0  0.12064832932E+02  0.10348072849E+02  0.14477747282E+02  0.21500212458E+02  0.10566000000E+00 0. -1.
        994    1    1    2    0    0 -0.13942077761E+02 -0.83758359575E+01  0.80164099786E+01  0.17215759928E+03  0.17120000000E+03 0.  0.
        998    1    1    2    0    0  0.18772448289E+01 -0.19722368914E+01  0.14775058390E+04  0.14775421883E+04  0.10000000000E+02 0. -1.
</event>
<event>
 5    1  0.1252319E-008  0.3815465E+03  0.7957747E-01  0.3444452E+00
         13   -1    0    0    0    0  0.00000000000E+00  0.00000000000E+00  0.14999999963E+04  0.15000000000E+04  0.10566000000E+00 0. -1.
        994   -1    0    0    0    0 -0.00000000000E+00 -0.00000000000E+00  0.11368683772E-12  0.17120000000E+03  0.17120000000E+03 0.  0.
         13    1    1    2    0    0  0.17124619226E+02 -0.18218776445E+02  0.95085867555E+02  0.98318410135E+02  0.10566000000E+00 0. -1.
        994    1    1    2    0    0 -0.99890387330E+01  0.38000869410E+01  0.37344873371E+01  0.17157391396E+03  0.17120000000E+03 0.  0.
        998    1    1    2    0    0 -0.71355804934E+01  0.14418689504E+02  0.14011796414E+04  0.14013076759E+04  0.10000000000E+02 0. -1.
</event>
<event>
 5    1  0.1252319E-008  0.3734125E+03  0.7957747E-01  0.3480353E+00
         13   -1    0    0    0    0  0.00000000000E+00  0.00000000000E+00  0.14999999963E+04  0.15000000000E+04  0.10566000000E+00 0.  1.
        994   -1    0    0    0    0 -0.00000000000E+00 -0.00000000000E+00  0.11368683772E-12  0.17120000000E+03  0.17120000000E+03 0.  0.
         13    1    1    2    0    0 -0.66374082305E+01 -0.92704750859E+01 -0.85606756284E+00  0.11434199231E+02  0.10566000000E+00 0.  1.
        994    1    1    2    0    0  0.64125445198E+01  0.88991715431E+01  0.13180563491E+02  0.17205662799E+03  0.17120000000E+03 0.  0.
        998    1    1    2    0    0  0.22486371066E+00  0.37130354282E+00  0.14876755004E+04  0.14877091728E+04  0.10000000000E+02 0.  1.
</event>
<event>
 5    1  0.1252319E-008  0.3858811E+03  0.7957747E-01  0.3425944E+00
         13   -1    0    0    0    0  0.00000000000E+00  0.00000000000E+00  0.14999999963E+04  0.15000000000E+04  0.10566000000E+00 0.  1.
        994   -1    0    0    0    0 -0.00000000000E+00 -0.00000000000E+00  0.11368683772E-12  0.17120000000E+03  0.17120000000E+03 0.  0.
         13    1    1    2    0    0  0.78593555708E+01  0.72154187772E+01  0.45466287639E+02  0.46701458369E+02  0.10566000000E+00 0.  1.
        994    1    1    2    0    0 -0.21475171922E+02 -0.14365728535E+01  0.27139290935E+01  0.17256897798E+03  0.17120000000E+03 0.  0.
        998    1    1    2    0    0  0.13615816352E+02 -0.57788459238E+01  0.14518197795E+04  0.14519295636E+04  0.10000000000E+02 0.  1.
</event>
<event>
 5    1  0.1252319E-008  0.3822830E+03  0.7957747E-01  0.3441278E+00
         13   -1    0    0    0    0  0.00000000000E+00  0.00000000000E+00  0.14999999963E+04  0.15000000000E+04  0.10566000000E+00 0.  1.
        994   -1    0    0    0    0 -0.00000000000E+00 -0.00000000000E+00  0.11368683772E-12  0.17120000000E+03  0.17120000000E+03 0.  0.
         13    1    1    2    0    0  0.16791898650E+02  0.24063524882E+01  0.46953443242E+02  0.49923895971E+02  0.10566000000E+00 0.  1.
        994    1    1    2    0    0 -0.12234958711E+02 -0.24925968077E+01  0.35025709196E+01  0.17169046350E+03  0.17120000000E+03 0.  0.
        998    1    1    2    0    0 -0.45569399386E+01  0.86244319539E-01  0.14495439821E+04  0.14495856405E+04  0.10000000000E+02 0.  1.
</event>
<event>
 5    1  0.1252319E-008  0.3774239E+03  0.7957747E-01  0.3462452E+00
         13   -1    0    0    0    0  0.00000000000E+00  0.00000000000E+00  0.14999999963E+04  0.15000000000E+04  0.10566000000E+00 0. -1.
        994   -1    0    0    0    0 -0.00000000000E+00 -0.00000000000E+00  0.11368683772E-12  0.17120000000E+03  0.17120000000E+03 0.  0.
         13    1    1    2    0    0  0.37725446870E+02  0.57709207230E+01  0.12533327881E+03  0.13101509382E+03  0.10566000000E+00 0. -1.
        994    1    1    2    0    0 -0.32239064704E+02 -0.70908613578E+01  0.91218542577E+01  0.17459176909E+03  0.17120000000E+03 0.  0.
        998    1    1    2    0    0 -0.54863821654E+01  0.13199406348E+01  0.13655448632E+04  0.13655931371E+04  0.10000000000E+02 0. -1.
</event>
<event>
 5    1  0.1252319E-008  0.3820599E+03  0.7957747E-01  0.3442238E+00
         13   -1    0    0    0    0  0.00000000000E+00  0.00000000000E+00  0.14999999963E+04  0.15000000000E+04  0.10566000000E+00 0. -1.
        994   -1    0    0    0    0 -0.00000000000E+00 -0.00000000000E+00  0.11368683772E-12  0.17120000000E+03  0.17120000000E+03 0.  0.
         13    1    1    2    0    0  0.15790484999E+02  0.15245908004E+02  0.80958774258E+02  0.83881532060E+02  0.10566000000E+00 0. -1.
        994    1    1    2    0    0  0.28196663831E+01 -0.85239128508E+01  0.33646152819E+01  0.17146827183E+03  0.17120000000E+03 0.  0.
        998    1    1    2    0    0 -0.18610151382E+02 -0.67219951530E+01  0.14156766067E+04  0.14158501961E+04  0.10000000000E+02 0. -1.
</event>
<event>
 5    1  0.1252319E-008  0.3848457E+03  0.7957747E-01  0.3430327E+00
         13   -1    0    0    0    0  0.00000000000E+00  0.00000000000E+00  0.14999999963E+04  0.15000000000E+04  0.10566000000E+00 0. -1.
        994   -1    0    0    0    0 -0.00000000000E+00 -0.00000000000E+00  0.11368683772E-12  0.17120000000E+03  0.17120000000E+03 0.  0.
         13    1    1    2    0    0  0.99241690438E+01  0.13321116552E+01  0.29676325664E+02  0.31320266947E+02  0.10566000000E+00 0. -1.
        994    1    1    2    0    0 -0.12940616623E+01 -0.57711050554E+01  0.18218716365E+01  0.17131181940E+03  0.17120000000E+03 0.  0.
        998    1    1    2    0    0 -0.86301073815E+01  0.44389934002E+01  0.14685017990E+04  0.14685679137E+04  0.10000000000E+02 0. -1.
</event>
<event>
 5    1  0.1252319E-008  0.3841376E+03  0.7957747E-01  0.3433338E+00
         13   -1    0    0    0    0  0.00000000000E+00  0.00000000000E+00  0.14999999963E+04  0.15000000000E+04  0.10566000000E+00 0. -1.
        994   -1    0    0    0    0 -0.00000000000E+00 -0.00000000000E+00  0.11368683772E-12  0.17120000000E+03  0.17120000000E+03 0.  0.
         13    1    1    2    0    0 -0.88410173579E+01 -0.76608512449E+01  0.31885620926E+02  0.33964042980E+02  0.10566000000E+00 0. -1.
        994    1    1    2    0    0  0.10266860813E+02  0.98343898512E+01  0.27257677455E+01  0.17181092359E+03  0.17120000000E+03 0.  0.
        998    1    1    2    0    0 -0.14258434548E+01 -0.21735386063E+01  0.14653886076E+04  0.14654250334E+04  0.10000000000E+02 0. -1.
</event>
<event>
 5    1  0.1252319E-008  0.3802158E+03  0.7957747E-01  0.3450220E+00
         13   -1    0    0    0    0  0.00000000000E+00  0.00000000000E+00  0.14999999963E+04  0.15000000000E+04  0.10566000000E+00 0. -1.
        994   -1    0    0    0    0 -0.00000000000E+00 -0.00000000000E+00  0.11368683772E-12  0.17120000000E+03  0.17120000000E+03 0.  0.
         13    1    1    2    0    0 -0.60506390039E+01 -0.26533058131E+02  0.95751592554E+02  0.99543920190E+02  0.10566000000E+00 0. -1.
        994    1    1    2    0    0  0.94064554610E+01  0.40348474362E+01  0.43743013903E+01  0.17156146394E+03  0.17120000000E+03 0.  0.
        998    1    1    2    0    0 -0.33558164571E+01  0.22498210695E+02  0.13998741023E+04  0.14000946159E+04  0.10000000000E+02 0. -1.
</event>
<event>
 5    1  0.1252319E-008  0.3791836E+03  0.7957747E-01  0.3454721E+00
         13   -1    0    0    0    0  0.00000000000E+00  0.00000000000E+00  0.14999999963E+04  0.15000000000E+04  0.10566000000E+00 0. -1.
        994   -1    0    0    0    0 -0.00000000000E+00 -0.00000000000E+00  0.11368683772E-12  0.17120000000E+03  0.17120000000E+03 0.  0.
         13    1    1    2    0    0  0.37905818878E+01 -0.15606051903E+02  0.26594659694E+02  0.31067739784E+02  0.10566000000E+00 0. -1.
        994    1    1    2    0    0  0.16008930787E+01  0.10655312230E+02  0.49350800851E+01  0.17160971287E+03  0.17120000000E+03 0.  0.
        998    1    1    2    0    0 -0.53914749665E+01  0.49507396728E+01  0.14684702565E+04  0.14685225473E+04  0.10000000000E+02 0. -1.
</event>
<event>
 5    1  0.1252319E-008  0.3835255E+03  0.7957747E-01  0.3435950E+00
         13   -1    0    0    0    0  0.00000000000E+00  0.00000000000E+00  0.14999999963E+04  0.15000000000E+04  0.10566000000E+00 0.  1.
        994   -1    0    0    0    0 -0.00000000000E+00 -0.00000000000E+00  0.11368683772E-12  0.17120000000E+03  0.17120000000E+03 0.  0.
         13    1    1    2    0    0  0.17670612137E+02 -0.39578275159E+01  0.63222797959E+02  0.65765099238E+02  0.10566000000E+00 0.  1.
        994    1    1    2    0    0 -0.25601466285E+02  0.13205766567E+02  0.51109158656E+01  0.17368186091E+03  0.17120000000E+03 0.  0.
        998    1    1    2    0    0  0.79308541480E+01 -0.92479390510E+01  0.14316662825E+04  0.14317530399E+04  0.10000000000E+02 0.  1.
</event>
<event>
 5    1  0.1252319E-008  0.3861158E+03  0.7957747E-01  0.3424954E+00
         13   -1    0    0    0    0  0.00000000000E+00  0.00000000000E+00  0.14999999963E+04  0.15000000000E+04  0.10566000000E+00 0.  1.
        994   -1    0    0    0    0 -0.00000000000E+00 -0.00000000000E+00  0.11368683772E-12  0.17120000000E+03  0.17120000000E+03 0.  0.
         13    1    1    2    0    0  0.19569456712E+01  0.11595026063E+02  0.65998059305E+02  0.67037521298E+02  0.10566000000E+00 0.  1.
        994    1    1    2    0    0  0.13608583053E+02 -0.87587027485E+01  0.19358839648E+01  0.17197411449E+03  0.17120000000E+03 0.  0.
        998    1    1    2    0    0 -0.15565528724E+02 -0.28363233144E+01  0.14320660530E+04  0.14321883642E+04  0.10000000000E+02 0.  1.
</event>
<event>
 5    1  0.1252319E-008  0.3760060E+03  0.7957747E-01  0.3468736E+00
         13   -1    0    0    0    0  0.00000000000E+00  0.00000000000E+00  0.14999999963E+04  0.15000000000E+04  0.10566000000E+00 0. -1.
        994   -1    0    0    0    0 -0.00000000000E+00 -0.00000000000E+00  0.11368683772E-12  0.17120000000E+03  0.17120000000E+03 0.  0.
         13    1    1    2    0    0  0.15884412962E+02 -0.17084455860E+02  0.12986681308E+02  0.26699405660E+02  0.10566000000E+00 0. -1.
        994    1    1    2    0    0 -0.11543736457E+02  0.19522985088E+02  0.15989595477E+02  0.17343446013E+03  0.17120000000E+03 0.  0.
        998    1    1    2    0    0 -0.43406765052E+01 -0.24385292277E+01  0.14710237195E+04  0.14710661342E+04  0.10000000000E+02 0. -1.
</event>
<event>
 5    1  0.1252319E-008  0.3735938E+03  0.7957747E-01  0.3479536E+00
         13   -1    0    0    0    0  0.00000000000E+00  0.00000000000E+00  0.14999999963E+04  0.15000000000E+04  0.10566000000E+00 0. -1.
        994   -1    0    0    0    0 -0.00000000000E+00 -0.00000000000E+00  0.11368683772E-12  0.17120000000E+03  0.17120000000E+03 0.  0.
         13    1    1    2    0    0 -0.14962644216E+02 -0.63577189997E+01  0.15492951727E+02  0.22457605172E+02  0.10566000000E+00 0. -1.
        994    1    1    2    0    0 -0.18694368599E+02  0.70521148789E+01  0.87672502571E+01  0.17258480935E+03  0.17120000000E+03 0.  0.
        998    1    1    2    0    0  0.33657012815E+02 -0.69439587920E+00  0.14757397943E+04  0.14761575855E+04  0.10000000000E+02 0. -1.
</event>
<event>
 5    1  0.1252319E-008  0.3852714E+03  0.7957747E-01  0.3428522E+00
         13   -1    0    0    0    0  0.00000000000E+00  0.00000000000E+00  0.14999999963E+04  0.15000000000E+04  0.10566000000E+00 0.  1.
        994   -1    0    0    0    0 -0.00000000000E+00 -0.00000000000E+00  0.11368683772E-12  0.17120000000E+03  0.17120000000E+03 0.  0.
         13    1    1    2    0    0  0.97168742571E+01  0.10257557698E+02  0.68469785235E+02  0.69912500952E+02  0.10566000000E+00 0.  1.
        994    1    1    2    0    0 -0.31346143566E+01 -0.52608581345E+01  0.16186986619E+01  0.17131714048E+03  0.17120000000E+03 0.  0.
        998    1    1    2    0    0 -0.65822599004E+01 -0.49966995631E+01  0.14299115124E+04  0.14299703586E+04  0.10000000000E+02 0.  1.
</event>
<event>
 5    1  0.1252319E-008  0.3765306E+03  0.7957747E-01  0.3466405E+00
         13   -1    0    0    0    0  0.00000000000E+00  0.00000000000E+00  0.14999999963E+04  0.15000000000E+04  0.10566000000E+00 0. -1.
        994   -1    0    0    0    0 -0.00000000000E+00 -0.00000000000E+00  0.11368683772E-12  0.17120000000E+03  0.17120000000E+03 0.  0.
         13    1    1    2    0    0 -0.32203302739E+02  0.70112520333E+02  0.38317876057E+03  0.39086927729E+03  0.10566000000E+00 0. -1.
        994    1    1    2    0    0  0.31025433030E+02 -0.67715157068E+02  0.24893020354E+02  0.18835345087E+03  0.17120000000E+03 0.  0.
        998    1    1    2    0    0  0.11778697095E+01 -0.23973632644E+01  0.10919282154E+04  0.10919772718E+04  0.10000000000E+02 0.  0.
</event>
<event>
 5    1  0.1252319E-008  0.3768518E+03  0.7957747E-01  0.3464982E+00
         13   -1    0    0    0    0  0.00000000000E+00  0.00000000000E+00  0.14999999963E+04  0.15000000000E+04  0.10566000000E+00 0. -1.
        994   -1    0    0    0    0 -0.00000000000E+00 -0.00000000000E+00  0.11368683772E-12  0.17120000000E+03  0.17120000000E+03 0.  0.
         13    1    1    2    0    0  0.43706252744E+02  0.47037727240E+02  0.37080029671E+03  0.37631855590E+03  0.10566000000E+00 0. -1.
        994    1    1    2    0    0 -0.23531285239E+02 -0.22786285968E+02  0.93638804902E+01  0.17455674857E+03  0.17120000000E+03 0.  0.
        998    1    1    2    0    0 -0.20174967505E+02 -0.24251441272E+02  0.11198358191E+04  0.11203246955E+04  0.10000000000E+02 0. -1.
</event>
<event>
 5    1  0.1252319E-008  0.3851671E+03  0.7957747E-01  0.3428964E+00
         13   -1    0    0    0    0  0.00000000000E+00  0.00000000000E+00  0.14999999963E+04  0.15000000000E+04  0.10566000000E+00 0.  1.
        994   -1    0    0    0    0 -0.00000000000E+00 -0.00000000000E+00  0.11368683772E-12  0.17120000000E+03  0.17120000000E+03 0.  0.
         13    1    1    2    0    0  0.19086079246E+02 -0.41431863335E+01  0.11369179107E+03  0.11535717981E+03  0.10566000000E+00 0.  1.
        994    1    1    2    0    0 -0.20614601019E+02  0.90509415787E+01  0.32150471983E+01  0.17270396014E+03  0.17120000000E+03 0.  0.
        998    1    1    2    0    0  0.15285217730E+01 -0.49077552452E+01  0.13830931580E+04  0.13831388601E+04  0.10000000000E+02 0.  1.
</event>
<event>
 5    1  0.1252319E-008  0.3800118E+03  0.7957747E-01  0.3451107E+00
         13   -1    0    0    0    0  0.00000000000E+00  0.00000000000E+00  0.14999999963E+04  0.15000000000E+04  0.10566000000E+00 0.  1.
        994   -1    0    0    0    0 -0.00000000000E+00 -0.00000000000E+00  0.11368683772E-12  0.17120000000E+03  0.17120000000E+03 0.  0.
         13    1    1    2    0    0 -0.50016070651E+02  0.17089904669E+02  0.30877903858E+03  0.31327013582E+03  0.10566000000E+00 0.  1.
        994    1    1    2    0    0  0.35193228035E+02 -0.19068038090E+02  0.95015016740E+01  0.17607348440E+03  0.17120000000E+03 0.  0.
        998    1    1    2    0    0  0.14822842616E+02  0.19781334211E+01  0.11817194560E+04  0.11818563798E+04  0.10000000000E+02 0.  1.
</event>
<event>
 5    1  0.1252319E-008  0.3750370E+03  0.7957747E-01  0.3473057E+00
         13   -1    0    0    0    0  0.00000000000E+00  0.00000000000E+00  0.14999999963E+04  0.15000000000E+04  0.10566000000E+00 0. -1.
        994   -1    0    0    0    0 -0.00000000000E+00 -0.00000000000E+00  0.11368683772E-12  0.17120000000E+03  0.17120000000E+03 0.  0.
         13    1    1    2    0    0  0.64909937473E+01 -0.38866642694E+02  0.12284615983E+03  0.12901139121E+03  0.10566000000E+00 0. -1.
        994    1    1    2    0    0  0.25704315571E+02  0.13197921847E+02  0.95025546754E+01  0.17388109594E+03  0.17120000000E+03 0.  0.
        998    1    1    2    0    0 -0.32195309319E+02  0.25668720846E+02  0.13676512818E+04  0.13683075128E+04  0.10000000000E+02 0. -1.
</event>
<event>
 5    1  0.1252319E-008  0.3837369E+03  0.7957747E-01  0.3435047E+00
         13   -1    0    0    0    0  0.00000000000E+00  0.00000000000E+00  0.14999999963E+04  0.15000000000E+04  0.10566000000E+00 0.  1.
        994   -1    0    0    0    0 -0.00000000000E+00 -0.00000000000E+00  0.11368683772E-12  0.17120000000E+03  0.17120000000E+03 0.  0.
         13    1    1    2    0    0  0.78960726074E+01  0.14140423593E+02  0.54796288584E+02  0.57139688034E+02  0.10566000000E+00 0.  1.
        994    1    1    2    0    0 -0.10180118475E+02 -0.17646244371E+02  0.36302106430E+01  0.17244605876E+03  0.17120000000E+03 0.  0.
        998    1    1    2    0    0  0.22840458673E+01  0.35058207783E+01  0.14415734971E+04  0.14416142532E+04  0.10000000000E+02 0.  1.
</event>
<event>
 5    1  0.1252319E-008  0.3856344E+03  0.7957747E-01  0.3426986E+00
         13   -1    0    0    0    0  0.00000000000E+00  0.00000000000E+00  0.14999999963E+04  0.15000000000E+04  0.10566000000E+00 0.  1.
        994   -1    0    0    0    0 -0.00000000000E+00 -0.00000000000E+00  0.11368683772E-12  0.17120000000E+03  0.17120000000E+03 0.  0.
         13    1    1    2    0    0 -0.68592951886E+01  0.89444243969E+01  0.48002900453E+02  0.49308642998E+02  0.10566000000E+00 0.  1.
        994    1    1    2    0    0  0.76823610820E+01 -0.61680291908E+01  0.16341342214E+01  0.17149103082E+03  0.17120000000E+03 0.  0.
        998    1    1    2    0    0 -0.82306589345E+00 -0.27763952060E+01  0.14503629616E+04  0.14504003262E+04  0.10000000000E+02 0.  1.
</event>
<event>
 5    1  0.1252319E-008  0.3853511E+03  0.7957747E-01  0.3428184E+00
         13   -1    0    0    0    0  0.00000000000E+00  0.00000000000E+00  0.14999999963E+04  0.15000000000E+04  0.10566000000E+00 0. -1.
        994   -1    0    0    0    0 -0.00000000000E+00 -0.00000000000E+00  0.11368683772E-12  0.17120000000E+03  0.17120000000E+03 0.  0.
         13    1    1    2    0    0  0.11384701025E+02 -0.20074803615E+01  0.44656288709E+02  0.46128480141E+02  0.10566000000E+00 0. -1.
        994    1    1    2    0    0 -0.12140064169E+02  0.66306643433E+01  0.20847249068E+01  0.17177058231E+03  0.17120000000E+03 0.  0.
        998    1    1    2    0    0  0.75536314427E+00 -0.46231839818E+01  0.14532589827E+04  0.14533009376E+04  0.10000000000E+02 0. -1.
</event>
<event>
 5    1  0.1252319E-008  0.3836862E+03  0.7957747E-01  0.3435263E+00
         13   -1    0    0    0    0  0.00000000000E+00  0.00000000000E+00  0.14999999963E+04  0.15000000000E+04  0.10566000000E+00 0. -1.
        994   -1    0    0    0    0 -0.00000000000E+00 -0.00000000000E+00  0.11368683772E-12  0.17120000000E+03  0.17120000000E+03 0.  0.
         13    1    1    2    0    0 -0.85895167781E+01 -0.12614840391E+02  0.48522101710E+02  0.50865700771E+02  0.10566000000E+00 0. -1.
        994    1    1    2    0    0  0.82574520044E+01  0.16445631384E+02  0.34030445145E+01  0.17221981598E+03  0.17120000000E+03 0.  0.
        998    1    1    2    0    0  0.33206477375E+00 -0.38307909927E+01  0.14480748501E+04  0.14481144832E+04  0.10000000000E+02 0. -1.
</event>
<event>
 5    1  0.1252319E-008  0.3823333E+03  0.7957747E-01  0.3441061E+00
         13   -1    0    0    0    0  0.00000000000E+00  0.00000000000E+00  0.14999999963E+04  0.15000000000E+04  0.10566000000E+00 0.  1.
        994   -1    0    0    0    0 -0.00000000000E+00 -0.00000000000E+00  0.11368683772E-12  0.17120000000E+03  0.17120000000E+03 0.  0.
         13    1    1    2    0    0 -0.10126108568E+02  0.20461495958E+02  0.82810067214E+02  0.85899530194E+02  0.10566000000E+00 0.  1.
        994    1    1    2    0    0  0.11961206372E+02 -0.20503943790E+02  0.48314169753E+01  0.17290536359E+03  0.17120000000E+03 0.  0.
        998    1    1    2    0    0 -0.18350978039E+01  0.42447832605E-01  0.14123585121E+04  0.14123951062E+04  0.10000000000E+02 0.  1.
</event>
<event>
 5    1  0.1252319E-008  0.3822320E+03  0.7957747E-01  0.3441497E+00
         13   -1    0    0    0    0  0.00000000000E+00  0.00000000000E+00  0.14999999963E+04  0.15000000000E+04  0.10566000000E+00 0.  1.
        994   -1    0    0    0    0 -0.00000000000E+00 -0.00000000000E+00  0.11368683772E-12  0.17120000000E+03  0.17120000000E+03 0.  0.
         13    1    1    2    0    0 -0.84411014891E+01  0.12968966196E+02  0.41522385503E+02  0.44312142133E+02  0.10566000000E+00 0.  1.
        994    1    1    2    0    0 -0.15654109537E+02 -0.15639402570E+01  0.38323896241E+01  0.17196402026E+03  0.17120000000E+03 0.  0.
        998    1    1    2    0    0  0.24095211026E+02 -0.11405025939E+02  0.14546452212E+04  0.14549238376E+04  0.10000000000E+02 0.  1.
</event>
<event>
 5    1  0.1252319E-008  0.3818706E+03  0.7957747E-01  0.3443054E+00
         13   -1    0    0    0    0  0.00000000000E+00  0.00000000000E+00  0.14999999963E+04  0.15000000000E+04  0.10566000000E+00 0.  1.
        994   -1    0    0    0    0 -0.00000000000E+00 -0.00000000000E+00  0.11368683772E-12  0.17120000000E+03  0.17120000000E+03 0.  0.
         13    1    1    2    0    0  0.19430144077E+02  0.11566007533E+02  0.87783811831E+02  0.90649389478E+02  0.10566000000E+00 0.  1.
        994    1    1    2    0    0  0.39261623328E+01  0.30612142445E+01  0.32742141364E+01  0.17130366681E+03  0.17120000000E+03 0.  0.
        998    1    1    2    0    0 -0.23356306409E+02 -0.14627221777E+02  0.14089419703E+04  0.14092469437E+04  0.10000000000E+02 0.  1.
</event>
<event>
 5    1  0.1252319E-008  0.3765992E+03  0.7957747E-01  0.3466101E+00
         13   -1    0    0    0    0  0.00000000000E+00  0.00000000000E+00  0.14999999963E+04  0.15000000000E+04  0.10566000000E+00 0.  1.
        994   -1    0    0    0    0 -0.00000000000E+00 -0.00000000000E+00  0.11368683772E-12  0.17120000000E+03  0.17120000000E+03 0.  0.
         13    1    1    2    0    0  0.19325637411E+02  0.54010737131E+02  0.24713567458E+03  0.25370591795E+03  0.10566000000E+00 0.  1.
        994    1    1    2    0    0 -0.15344864123E+02 -0.47676324981E+02  0.14388405498E+02  0.17895519839E+03  0.17120000000E+03 0.  0.
        998    1    1    2    0    0 -0.39807732881E+01 -0.63344121504E+01  0.12384759162E+04  0.12385388837E+04  0.10000000000E+02 0.  0.
</event>
<event>
 5    1  0.1252319E-008  0.3855879E+03  0.7957747E-01  0.3427183E+00
         13   -1    0    0    0    0  0.00000000000E+00  0.00000000000E+00  0.14999999963E+04  0.15000000000E+04  0.10566000000E+00 0.  1.
        994   -1    0    0    0    0 -0.00000000000E+00 -0.00000000000E+00  0.11368683772E-12  0.17120000000E+03  0.17120000000E+03 0.  0.
         13    1    1    2    0    0  0.10150514364E+02 -0.35319840305E+01  0.44019261204E+02  0.45312408610E+02  0.10566000000E+00 0.  1.
        994    1    1    2    0    0 -0.40565254035E+00  0.13360317884E+02  0.19251910429E+01  0.17173179382E+03  0.17120000000E+03 0.  0.
        998    1    1    2    0    0 -0.97448618238E+01 -0.98283338538E+01  0.14540555440E+04  0.14541557976E+04  0.10000000000E+02 0.  1.
</event>
<event>
 5    1  0.1252319E-008  0.3832370E+03  0.7957747E-01  0.3437184E+00
         13   -1    0    0    0    0  0.00000000000E+00  0.00000000000E+00  0.14999999963E+04  0.15000000000E+04  0.10566000000E+00 0.  1.
        994   -1    0    0    0    0 -0.00000000000E+00 -0.00000000000E+00  0.11368683772E-12  0.17120000000E+03  0.17120000000E+03 0.  0.
         13    1    1    2    0    0 -0.31107715315E+02  0.15702913320E+02  0.19532462964E+03  0.19840865290E+03  0.10566000000E+00 0.  1.
        994    1    1    2    0    0  0.38378436987E+02 -0.22282076922E+02  0.90493109743E+01  0.17708959712E+03  0.17120000000E+03 0.  0.
        998    1    1    2    0    0 -0.72707216727E+01  0.65791636017E+01  0.12956260557E+04  0.12957017500E+04  0.10000000000E+02 0.  1.
</event>
<event>
 5    1  0.1252319E-008  0.3751007E+03  0.7957747E-01  0.3472773E+00
         13   -1    0    0    0    0  0.00000000000E+00  0.00000000000E+00  0.14999999963E+04  0.15000000000E+04  0.10566000000E+00 0. -1.
        994   -1    0    0    0    0 -0.00000000000E+00 -0.00000000000E+00  0.11368683772E-12  0.17120000000E+03  0.17120000000E+03 0.  0.
         13    1    1    2    0    0 -0.12647891547E+02  0.36787641664E+02  0.10503264856E+03  0.11200521492E+03  0.10566000000E+00 0. -1.
        994    1    1    2    0    0  0.12199410459E+02 -0.36217125446E+02  0.11606071176E+02  0.17579717483E+03  0.17120000000E+03 0.  0.
        998    1    1    2    0    0  0.44848108796E+00 -0.57051621744E+00  0.13833612765E+04  0.13833976103E+04  0.10000000000E+02 0. -1.
</event>
<event>
 5    1  0.1290448E-008  0.3863742E+03  0.7957747E-01  0.3423865E+00
         13   -1    0    0    0    0  0.00000000000E+00  0.00000000000E+00  0.14999999963E+04  0.15000000000E+04  0.10566000000E+00 0.  1.
        994   -1    0    0    0    0 -0.00000000000E+00 -0.00000000000E+00  0.11368683772E-12  0.17120000000E+03  0.17120000000E+03 0.  0.
         13    1    1    2    0    0  0.82462050756E+01 -0.64569340450E+01  0.57251459809E+02  0.58201655558E+02  0.10566000000E+00 0.  1.
        994    1    1    2    0    0 -0.77970398152E+01  0.73401809834E+01  0.13249166685E+01  0.17153969655E+03  0.17120000000E+03 0.  0.
        998    1    1    2    0    0 -0.44916526034E+00 -0.88324693837E+00  0.14414236198E+04  0.14414586479E+04  0.10000000000E+02 0.  1.
</event>
<event>
 5    1  0.1252319E-008  0.3763618E+03  0.7957747E-01  0.3467155E+00
         13   -1    0    0    0    0  0.00000000000E+00  0.00000000000E+00  0.14999999963E+04  0.15000000000E+04  0.10566000000E+00 0.  1.
        994   -1    0    0    0    0 -0.00000000000E+00 -0.00000000000E+00  0.11368683772E-12  0.17120000000E+03  0.17120000000E+03 0.  0.
         13    1    1    2    0    0  0.28097795786E+02  0.14421504225E+02  0.92481171235E+02  0.97725350391E+02  0.10566000000E+00 0.  1.
        994    1    1    2    0    0  0.15952703299E+02 -0.80071444385E+01  0.70598646071E+01  0.17227270472E+03  0.17120000000E+03 0.  0.
        998    1    1    2    0    0 -0.44050499085E+02 -0.64143597866E+01  0.14004589604E+04  0.14012019449E+04  0.10000000000E+02 0.  1.
</event>
<event>
 5    1  0.1252319E-008  0.3732759E+03  0.7957747E-01  0.3480970E+00
         13   -1    0    0    0    0  0.00000000000E+00  0.00000000000E+00  0.14999999963E+04  0.15000000000E+04  0.10566000000E+00 0. -1.
        994   -1    0    0    0    0 -0.00000000000E+00 -0.00000000000E+00  0.11368683772E-12  0.17120000000E+03  0.17120000000E+03 0.  0.
         13    1    1    2    0    0 -0.71626227801E+02  0.11374723862E+03  0.64410137124E+03  0.65797822031E+03  0.10566000000E+00 0. -1.
        994    1    1    2    0    0  0.85259126958E+02 -0.56346047955E+02  0.50600271817E+02  0.20570324100E+03  0.17120000000E+03 0.  0.
        998    1    1    2    0    0 -0.13632899157E+02 -0.57401190667E+02  0.80529835322E+03  0.80751853869E+03  0.10000000000E+02 0. -1.
</event>
<event>
 5    1  0.1252319E-008  0.3817147E+03  0.7957747E-01  0.3443726E+00
         13   -1    0    0    0    0  0.00000000000E+00  0.00000000000E+00  0.14999999963E+04  0.15000000000E+04  0.10566000000E+00 0.  1.
        994   -1    0    0    0    0 -0.00000000000E+00 -0.00000000000E+00  0.11368683772E-12  0.17120000000E+03  0.17120000000E+03 0.  0.
         13    1    1    2    0    0  0.37870261990E+01 -0.91660308349E+02  0.34289910432E+03  0.35495881536E+03  0.10566000000E+00 0.  1.
        994    1    1    2    0    0  0.47540668561E+02 -0.34928588389E+01  0.25604741740E+02  0.17954764835E+03  0.17120000000E+03 0.  0.
        998    1    1    2    0    0 -0.51327694760E+02  0.95153167188E+02  0.11314961502E+04  0.11366935363E+04  0.10000000000E+02 0.  1.
</event>
<event>
 5    1  0.1252319E-008  0.3758679E+03  0.7957747E-01  0.3469350E+00
         13   -1    0    0    0    0  0.00000000000E+00  0.00000000000E+00  0.14999999963E+04  0.15000000000E+04  0.10566000000E+00 0. -1.
        994   -1    0    0    0    0 -0.00000000000E+00 -0.00000000000E+00  0.11368683772E-12  0.17120000000E+03  0.17120000000E+03 0.  0.
         13    1    1    2    0    0  0.29864068209E+01 -0.18466645958E+02  0.25813499947E+02  0.31879202973E+02  0.10566000000E+00 0. -1.
        994    1    1    2    0    0 -0.10485054423E+02  0.60730607779E+01  0.67314771608E+01  0.17176021431E+03  0.17120000000E+03 0.  0.
        998    1    1    2    0    0  0.74986476017E+01  0.12393585180E+02  0.14674550192E+04  0.14675605827E+04  0.10000000000E+02 0. -1.
</event>
<event>
 5    1  0.1252319E-008  0.3839316E+03  0.7957747E-01  0.3434216E+00
         13   -1    0    0    0    0  0.00000000000E+00  0.00000000000E+00  0.14999999963E+04  0.15000000000E+04  0.10566000000E+00 0.  1.
        994   -1    0    0    0    0 -0.00000000000E+00 -0.00000000000E+00  0.11368683772E-12  0.17120000000E+03  0.17120000000E+03 0.  0.
         13    1    1    2    0    0  0.77118936564E+01  0.90808281824E+01  0.31304916074E+02  0.33495427728E+02  0.10566000000E+00 0.  1.
        994    1    1    2    0    0 -0.85649474238E+01 -0.13046431049E+02  0.29656947328E+01  0.17193546182E+03  0.17120000000E+03 0.  0.
        998    1    1    2    0    0  0.85305376734E+00  0.39656028671E+01  0.14657293855E+04  0.14657691104E+04  0.10000000000E+02 0.  1.
</event>
<event>
 5    1  0.1252319E-008  0.3689179E+03  0.7957747E-01  0.3500879E+00
         13   -1    0    0    0    0  0.00000000000E+00  0.00000000000E+00  0.14999999963E+04  0.15000000000E+04  0.10566000000E+00 0. -1.
        994   -1    0    0    0    0 -0.00000000000E+00 -0.00000000000E+00  0.11368683772E-12  0.17120000000E+03  0.17120000000E+03 0.  0.
         13    1    1    2    0    0  0.25754273908E+02  0.11038253258E+02  0.35115284031E+02  0.44924603461E+02  0.10566000000E+00 0. -1.
        994    1    1    2    0    0 -0.30092318211E+02 -0.21105311819E+01  0.13000530616E+02  0.17432284920E+03  0.17120000000E+03 0.  0.
        998    1    1    2    0    0  0.43380443032E+01 -0.89277220756E+01  0.14518841816E+04  0.14519525473E+04  0.10000000000E+02 0. -1.
</event>
<event>
 5    1  0.1252319E-008  0.3854125E+03  0.7957747E-01  0.3427925E+00
         13   -1    0    0    0    0  0.00000000000E+00  0.00000000000E+00  0.14999999963E+04  0.15000000000E+04  0.10566000000E+00 0.  1.
        994   -1    0    0    0    0 -0.00000000000E+00 -0.00000000000E+00  0.11368683772E-12  0.17120000000E+03  0.17120000000E+03 0.  0.
         13    1    1    2    0    0 -0.11252236674E+02 -0.66196054058E+01  0.61231352999E+02  0.62607681318E+02  0.10566000000E+00 0.  1.
        994    1    1    2    0    0  0.86992984817E+01 -0.35284842082E+01  0.17149820950E+01  0.17146576672E+03  0.17120000000E+03 0.  0.
        998    1    1    2    0    0  0.25529381927E+01  0.10148089614E+02  0.14370536612E+04  0.14371265520E+04  0.10000000000E+02 0.  1.
</event>
<event>
 5    1  0.1252319E-008  0.3849747E+03  0.7957747E-01  0.3429780E+00
         13   -1    0    0    0    0  0.00000000000E+00  0.00000000000E+00  0.14999999963E+04  0.15000000000E+04  0.10566000000E+00 0.  1.
        994   -1    0    0    0    0 -0.00000000000E+00 -0.00000000000E+00  0.11368683772E-12  0.17120000000E+03  0.17120000000E+03 0.  0.
         13    1    1    2    0    0 -0.19924408586E+02 -0.58726166648E+01  0.11245796526E+03  0.11436028506E+03  0.10566000000E+00 0.  1.
        994    1    1    2    0    0  0.46032955014E+02 -0.30830731598E+02  0.11804231219E+02  0.18032844155E+03  0.17120000000E+03 0.  0.
        998    1    1    2    0    0 -0.26108546428E+02  0.36703348263E+02  0.13757377998E+04  0.13765112734E+04  0.10000000000E+02 0.  1.
</event>
<event>
 5    1  0.1252319E-008  0.3862157E+03  0.7957747E-01  0.3424532E+00
         13   -1    0    0    0    0  0.00000000000E+00  0.00000000000E+00  0.14999999963E+04  0.15000000000E+04  0.10566000000E+00 0. -1.
        994   -1    0    0    0    0 -0.00000000000E+00 -0.00000000000E+00  0.11368683772E-12  0.17120000000E+03  0.17120000000E+03 0.  0.
         13    1    1    2    0    0 -0.88501537027E+01 -0.69138009288E+01  0.67682662770E+02  0.68608161814E+02  0.10566000000E+00 0. -1.
        994    1    1    2    0    0  0.38649969984E+01 -0.88547116022E+01  0.13335793755E+01  0.17147758615E+03  0.17120000000E+03 0.  0.
        998    1    1    2    0    0  0.49851567042E+01  0.15768512531E+02  0.14309837541E+04  0.14311142520E+04  0.10000000000E+02 0. -1.
</event>
<event>
 5    1  0.1252319E-008  0.3737022E+03  0.7957747E-01  0.3479047E+00
         13   -1    0    0    0    0  0.00000000000E+00  0.00000000000E+00  0.14999999963E+04  0.15000000000E+04  0.10566000000E+00 0. -1.
        994   -1    0    0    0    0 -0.00000000000E+00 -0.00000000000E+00  0.11368683772E-12  0.17120000000E+03  0.17120000000E+03 0.  0.
         13    1    1    2    0    0  0.24872638724E+00  0.18510659120E+02  0.19800058698E+02  0.27106454109E+02  0.10566000000E+00 0. -1.
        994    1    1    2    0    0  0.13894024565E+01 -0.20937461800E+02  0.88514082476E+01  0.17270812133E+03  0.17120000000E+03 0.  0.
        998    1    1    2    0    0 -0.16381288437E+01  0.24268026804E+01  0.14713485293E+04  0.14713854246E+04  0.10000000000E+02 0. -1.
</event>
<event>
 5    1  0.1252319E-008  0.3849562E+03  0.7957747E-01  0.3429858E+00
         13   -1    0    0    0    0  0.00000000000E+00  0.00000000000E+00  0.14999999963E+04  0.15000000000E+04  0.10566000000E+00 0.  1.
        994   -1    0    0    0    0 -0.00000000000E+00 -0.00000000000E+00  0.11368683772E-12  0.17120000000E+03  0.17120000000E+03 0.  0.
         13    1    1    2    0    0  0.10979429337E+02  0.67579604151E+01  0.49261345405E+02  0.50920616775E+02  0.10566000000E+00 0.  1.
        994    1    1    2    0    0 -0.67115517446E+01 -0.12434205326E+02  0.23088251502E+01  0.17179762822E+03  0.17120000000E+03 0.  0.
        998    1    1    2    0    0 -0.42678775920E+01  0.56762449105E+01  0.14484298257E+04  0.14484817550E+04  0.10000000000E+02 0.  1.
</event>
<event>
 5    1  0.1252319E-008  0.3714678E+03  0.7957747E-01  0.3489172E+00
         13   -1    0    0    0    0  0.00000000000E+00  0.00000000000E+00  0.14999999963E+04  0.15000000000E+04  0.10566000000E+00 0.  1.
        994   -1    0    0    0    0 -0.00000000000E+00 -0.00000000000E+00  0.11368683772E-12  0.17120000000E+03  0.17120000000E+03 0.  0.
         13    1    1    2    0    0  0.28935492720E+02 -0.48352921162E+02  0.15669103002E+03  0.16651533796E+03  0.10566000000E+00 0.  1.
        994    1    1    2    0    0 -0.45443402600E+02  0.51374725243E+02  0.24866435430E+02  0.18609740687E+03  0.17120000000E+03 0.  0.
        998    1    1    2    0    0  0.16507909880E+02 -0.30218040810E+01  0.13184425308E+04  0.13185872552E+04  0.10000000000E+02 0.  1.
</event>
<event>
 5    1  0.1252319E-008  0.3825997E+03  0.7957747E-01  0.3439916E+00
         13   -1    0    0    0    0  0.00000000000E+00  0.00000000000E+00  0.14999999963E+04  0.15000000000E+04  0.10566000000E+00 0.  1.
        994   -1    0    0    0    0 -0.00000000000E+00 -0.00000000000E+00  0.11368683772E-12  0.17120000000E+03  0.17120000000E+03 0.  0.
         13    1    1    2    0    0  0.17817160847E+02 -0.15367860311E+02  0.98450391421E+02  0.10122308574E+03  0.10566000000E+00 0.  1.
        994    1    1    2    0    0 -0.14440017811E+02  0.20931079466E+01  0.35325129831E+01  0.17185695756E+03  0.17120000000E+03 0.  0.
        998    1    1    2    0    0 -0.33771430360E+01  0.13274752364E+02  0.13980170919E+04  0.13981199567E+04  0.10000000000E+02 0.  1.
</event>
<event>
 5    1  0.1252319E-008  0.3701951E+03  0.7957747E-01  0.3494995E+00
         13   -1    0    0    0    0  0.00000000000E+00  0.00000000000E+00  0.14999999963E+04  0.15000000000E+04  0.10566000000E+00 0. -1.
        994   -1    0    0    0    0 -0.00000000000E+00 -0.00000000000E+00  0.11368683772E-12  0.17120000000E+03  0.17120000000E+03 0.  0.
         13    1    1    2    0    0  0.90976535883E+02 -0.34542384883E+02  0.29975602626E+03  0.31515645777E+03  0.10566000000E+00 0. -1.
        994    1    1    2    0    0 -0.10638492017E+03  0.43676902412E+02  0.58859167158E+02  0.21447439148E+03  0.17120000000E+03 0.  0.
        998    1    1    2    0    0  0.15408384289E+02 -0.91345175291E+01  0.11413848029E+04  0.11415691507E+04  0.10000000000E+02 0. -1.
</event>
<event>
 5    1  0.1252319E-008  0.3842455E+03  0.7957747E-01  0.3432878E+00
         13   -1    0    0    0    0  0.00000000000E+00  0.00000000000E+00  0.14999999963E+04  0.15000000000E+04  0.10566000000E+00 0. -1.
        994   -1    0    0    0    0 -0.00000000000E+00 -0.00000000000E+00  0.11368683772E-12  0.17120000000E+03  0.17120000000E+03 0.  0.
         13    1    1    2    0    0 -0.12109061431E+01  0.12465555604E+02  0.37773648353E+02  0.39795929995E+02  0.10566000000E+00 0. -1.
        994    1    1    2    0    0 -0.56212255239E+00 -0.13840474901E+02  0.26379824754E+01  0.17177972429E+03  0.17120000000E+03 0.  0.
        998    1    1    2    0    0  0.17730286955E+01  0.13749192974E+01  0.14595883654E+04  0.14596243457E+04  0.10000000000E+02 0. -1.
</event>
<event>
 5    1  0.1252319E-008  0.3756553E+03  0.7957747E-01  0.3470297E+00
         13   -1    0    0    0    0  0.00000000000E+00  0.00000000000E+00  0.14999999963E+04  0.15000000000E+04  0.10566000000E+00 0.  1.
        994   -1    0    0    0    0 -0.00000000000E+00 -0.00000000000E+00  0.11368683772E-12  0.17120000000E+03  0.17120000000E+03 0.  0.
         13    1    1    2    0    0 -0.37140848046E+02 -0.12714968794E+02  0.12337101265E+03  0.12946633134E+03  0.10566000000E+00 0.  1.
        994    1    1    2    0    0  0.11954238462E+02  0.16411769388E+02  0.77420620810E+01  0.17257354814E+03  0.17120000000E+03 0.  0.
        998    1    1    2    0    0  0.25186609584E+02 -0.36968005938E+01  0.13688869215E+04  0.13691601205E+04  0.10000000000E+02 0.  1.
</event>
<event>
 5    1  0.1252319E-008  0.3766321E+03  0.7957747E-01  0.3465956E+00
         13   -1    0    0    0    0  0.00000000000E+00  0.00000000000E+00  0.14999999963E+04  0.15000000000E+04  0.10566000000E+00 0. -1.
        994   -1    0    0    0    0 -0.00000000000E+00 -0.00000000000E+00  0.11368683772E-12  0.17120000000E+03  0.17120000000E+03 0.  0.
         13    1    1    2    0    0 -0.14525219275E+02  0.47821543373E+02  0.74053270933E+02  0.89340808735E+02  0.10566000000E+00 0. -1.
        994    1    1    2    0    0  0.13170029858E+02 -0.62844884306E+02  0.29398284736E+02  0.18519348886E+03  0.17120000000E+03 0.  0.
        998    1    1    2    0    0  0.13551894169E+01  0.15023340933E+02  0.13965484406E+04  0.13966657024E+04  0.10000000000E+02 0. -1.
</event>
<event>
 5    1  0.1252319E-008  0.3812389E+03  0.7957747E-01  0.3445782E+00
         13   -1    0    0    0    0  0.00000000000E+00  0.00000000000E+00  0.14999999963E+04  0.15000000000E+04  0.10566000000E+00 0.  1.
        994   -1    0    0    0    0 -0.00000000000E+00 -0.00000000000E+00  0.11368683772E-12  0.17120000000E+03  0.17120000000E+03 0.  0.
         13    1    1    2    0    0  0.37304906340E+02  0.31385848630E+01  0.18642334697E+03  0.19014516089E+03  0.10566000000E+00 0.  1.
        994    1    1    2    0    0 -0.32389876046E+02  0.18593069834E+02  0.81667129370E+01  0.17541648017E+03  0.17120000000E+03 0.  0.
        998    1    1    2    0    0 -0.49150302941E+01 -0.21731654697E+02  0.13054099364E+04  0.13056383589E+04  0.10000000000E+02 0.  1.
</event>
<event>
 5    1  0.1252319E-008  0.3884130E+03  0.7957747E-01  0.3415325E+00
         13   -1    0    0    0    0  0.00000000000E+00  0.00000000000E+00  0.14999999963E+04  0.15000000000E+04  0.10566000000E+00 0. -1.
        994   -1    0    0    0    0 -0.00000000000E+00 -0.00000000000E+00  0.11368683772E-12  0.17120000000E+03  0.17120000000E+03 0.  0.
         13    1    1    2    0    0 -0.54151732465E+02 -0.14291504429E+03  0.42548514445E+03  0.45210036422E+03  0.10566000000E+00 0. -1.
        994    1    1    2    0    0  0.23815458130E+02  0.13355493364E+03  0.93638671549E+02  0.23765886719E+03  0.17120000000E+03 0.  0.
        998    1    1    2    0    0  0.30336274335E+02  0.93601106565E+01  0.98087618028E+03  0.98144076859E+03  0.10000000000E+02 0. -1.
</event>
<event>
 5    1  0.1252319E-008  0.3685423E+03  0.7957747E-01  0.3502617E+00
         13   -1    0    0    0    0  0.00000000000E+00  0.00000000000E+00  0.14999999963E+04  0.15000000000E+04  0.10566000000E+00 0. -1.
        994   -1    0    0    0    0 -0.00000000000E+00 -0.00000000000E+00  0.11368683772E-12  0.17120000000E+03  0.17120000000E+03 0.  0.
         13    1    1    2    0    0 -0.18382068161E+02 -0.63004603085E+02  0.17832040749E+03  0.19001489239E+03  0.10566000000E+00 0. -1.
        994    1    1    2    0    0  0.25568613809E+02  0.67785149485E+02  0.28655428603E+02  0.18809347169E+03  0.17120000000E+03 0.  0.
        998    1    1    2    0    0 -0.71865456476E+01 -0.47805463997E+01  0.12930241602E+04  0.12930916359E+04  0.10000000000E+02 0. -1.
</event>
<event>
 5    1  0.1252319E-008  0.3859405E+03  0.7957747E-01  0.3425693E+00
         13   -1    0    0    0    0  0.00000000000E+00  0.00000000000E+00  0.14999999963E+04  0.15000000000E+04  0.10566000000E+00 0. -1.
        994   -1    0    0    0    0 -0.00000000000E+00 -0.00000000000E+00  0.11368683772E-12  0.17120000000E+03  0.17120000000E+03 0.  0.
         13    1    1    2    0    0 -0.29843200224E+02  0.81366775434E+01  0.16602888357E+02  0.35106825360E+02  0.10566000000E+00 0. -1.
        994    1    1    2    0    0  0.19062831447E+02  0.87118595250E+01  0.21258253643E+02  0.17378331734E+03  0.17120000000E+03 0.  0.
        998    1    1    2    0    0  0.10780368777E+02 -0.16848537068E+02  0.14621388543E+04  0.14623098573E+04  0.10000000000E+02 0. -1.
</event>
<event>
 5    1  0.1252319E-008  0.3792189E+03  0.7957747E-01  0.3454567E+00
         13   -1    0    0    0    0  0.00000000000E+00  0.00000000000E+00  0.14999999963E+04  0.15000000000E+04  0.10566000000E+00 0.  1.
        994   -1    0    0    0    0 -0.00000000000E+00 -0.00000000000E+00  0.11368683772E-12  0.17120000000E+03  0.17120000000E+03 0.  0.
         13    1    1    2    0    0 -0.13155609465E+02 -0.11320468393E+02  0.22828482157E+01  0.17505588395E+02  0.10566000000E+00 0.  1.
        994    1    1    2    0    0  0.12048224645E+02  0.10516440488E+02  0.16823523715E+02  0.17276639195E+03  0.17120000000E+03 0.  0.
        998    1    1    2    0    0  0.11073848209E+01  0.80402790482E+00  0.14808936243E+04  0.14809280197E+04  0.10000000000E+02 0.  1.
</event>
<event>
 5    1  0.1252319E-008  0.3793028E+03  0.7957747E-01  0.3454200E+00
         13   -1    0    0    0    0  0.00000000000E+00  0.00000000000E+00  0.14999999963E+04  0.15000000000E+04  0.10566000000E+00 0. -1.
        994   -1    0    0    0    0 -0.00000000000E+00 -0.00000000000E+00  0.11368683772E-12  0.17120000000E+03  0.17120000000E+03 0.  0.
         13    1    1    2    0    0 -0.11250283569E+02  0.35675600242E+02  0.16633229539E+03  0.17048683523E+03  0.10566000000E+00 0. -1.
        994    1    1    2    0    0  0.60158974035E+01 -0.91229262727E+01  0.48857085380E+01  0.17161797386E+03  0.17120000000E+03 0.  0.
        998    1    1    2    0    0  0.52343861655E+01 -0.26552673969E+02  0.13287819924E+04  0.13290951909E+04  0.10000000000E+02 0. -1.
</event>
<event>
 5    1  0.1252319E-008  0.3780526E+03  0.7957747E-01  0.3459682E+00
         13   -1    0    0    0    0  0.00000000000E+00  0.00000000000E+00  0.14999999963E+04  0.15000000000E+04  0.10566000000E+00 0. -1.
        994   -1    0    0    0    0 -0.00000000000E+00 -0.00000000000E+00  0.11368683772E-12  0.17120000000E+03  0.17120000000E+03 0.  0.
         13    1    1    2    0    0 -0.46279036928E+02 -0.32020967767E+02  0.24444630345E+03  0.25084078231E+03  0.10566000000E+00 0. -1.
        994    1    1    2    0    0  0.56743004793E+02  0.30216169207E+02  0.19152908678E+02  0.18387239974E+03  0.17120000000E+03 0.  0.
        998    1    1    2    0    0 -0.10463967864E+02  0.18047985600E+01  0.12364007841E+04  0.12364868179E+04  0.10000000000E+02 0. -1.
</event>
<event>
 5    1  0.1252319E-008  0.3714412E+03  0.7957747E-01  0.3489294E+00
         13   -1    0    0    0    0  0.00000000000E+00  0.00000000000E+00  0.14999999963E+04  0.15000000000E+04  0.10566000000E+00 0.  1.
        994   -1    0    0    0    0 -0.00000000000E+00 -0.00000000000E+00  0.11368683772E-12  0.17120000000E+03  0.17120000000E+03 0.  0.
         13    1    1    2    0    0 -0.64720879440E+02 -0.42494971448E+02  0.38953259376E+03  0.39715270061E+03  0.10566000000E+00 0.  1.
        994    1    1    2    0    0  0.24371751246E+02  0.19403983682E+02  0.11864055134E+02  0.17441528788E+03  0.17120000000E+03 0.  0.
        998    1    1    2    0    0  0.40349128194E+02  0.23090987766E+02  0.10986033474E+04  0.10996320115E+04  0.10000000000E+02 0.  1.
</event>
<event>
 5    1  0.1252319E-008  0.3849571E+03  0.7957747E-01  0.3429854E+00
         13   -1    0    0    0    0  0.00000000000E+00  0.00000000000E+00  0.14999999963E+04  0.15000000000E+04  0.10566000000E+00 0.  1.
        994   -1    0    0    0    0 -0.00000000000E+00 -0.00000000000E+00  0.11368683772E-12  0.17120000000E+03  0.17120000000E+03 0.  0.
         13    1    1    2    0    0  0.88372414924E+01 -0.18989321234E+02  0.12391752289E+03  0.12567519565E+03  0.10566000000E+00 0.  1.
        994    1    1    2    0    0 -0.12656567754E+02  0.17453681306E+02  0.31817860159E+01  0.17258152700E+03  0.17120000000E+03 0.  0.
        998    1    1    2    0    0  0.38193262619E+01  0.15356399274E+01  0.13729006874E+04  0.13729432774E+04  0.10000000000E+02 0.  1.
</event>
<event>
 5    1  0.1252319E-008  0.3854417E+03  0.7957747E-01  0.3427801E+00
         13   -1    0    0    0    0  0.00000000000E+00  0.00000000000E+00  0.14999999963E+04  0.15000000000E+04  0.10566000000E+00 0. -1.
        994   -1    0    0    0    0 -0.00000000000E+00 -0.00000000000E+00  0.11368683772E-12  0.17120000000E+03  0.17120000000E+03 0.  0.
         13    1    1    2    0    0  0.11286240716E+01 -0.10919916903E+02  0.41662047034E+02  0.43084286052E+02  0.10566000000E+00 0. -1.
        994    1    1    2    0    0 -0.10349602682E+02  0.11517450376E+02  0.21987762664E+01  0.17191288653E+03  0.17120000000E+03 0.  0.
        998    1    1    2    0    0  0.92209786103E+01 -0.59753347294E+00  0.14561391730E+04  0.14562028274E+04  0.10000000000E+02 0. -1.
</event>
<event>
 5    1  0.1252319E-008  0.3768687E+03  0.7957747E-01  0.3464907E+00
         13   -1    0    0    0    0  0.00000000000E+00  0.00000000000E+00  0.14999999963E+04  0.15000000000E+04  0.10566000000E+00 0.  1.
        994   -1    0    0    0    0 -0.00000000000E+00 -0.00000000000E+00  0.11368683772E-12  0.17120000000E+03  0.17120000000E+03 0.  0.
         13    1    1    2    0    0 -0.34930718218E+02  0.25389379875E+02  0.14758887277E+03  0.15377666343E+03  0.10566000000E+00 0.  1.
        994    1    1    2    0    0  0.35622535106E+02 -0.21662616477E+02  0.11616435767E+02  0.17658600041E+03  0.17120000000E+03 0.  0.
        998    1    1    2    0    0 -0.69181688758E+00 -0.37267633976E+01  0.13407946877E+04  0.13408373362E+04  0.10000000000E+02 0.  0.
</event>
<event>
 5    1  0.1252319E-008  0.3754544E+03  0.7957747E-01  0.3471193E+00
         13   -1    0    0    0    0  0.00000000000E+00  0.00000000000E+00  0.14999999963E+04  0.15000000000E+04  0.10566000000E+00 0.  1.
        994   -1    0    0    0    0 -0.00000000000E+00 -0.00000000000E+00  0.11368683772E-12  0.17120000000E+03  0.17120000000E+03 0.  0.
         13    1    1    2    0    0 -0.15298484717E+03  0.42838697251E+02  0.80047500200E+03  0.81608808191E+03  0.10566000000E+00 0.  1.
        994    1    1    2    0    0  0.15349350293E+03 -0.42080782914E+02  0.97937795473E+02  0.25344091918E+03  0.17120000000E+03 0.  0.
        998    1    1    2    0    0 -0.50865576321E+00 -0.75791433696E+00  0.60158719880E+03  0.60167099891E+03  0.10000000000E+02 0.  0.
</event>
<event>
 5    1  0.1252319E-008  0.3796820E+03  0.7957747E-01  0.3452544E+00
         13   -1    0    0    0    0  0.00000000000E+00  0.00000000000E+00  0.14999999963E+04  0.15000000000E+04  0.10566000000E+00 0. -1.
        994   -1    0    0    0    0 -0.00000000000E+00 -0.00000000000E+00  0.11368683772E-12  0.17120000000E+03  0.17120000000E+03 0.  0.
         13    1    1    2    0    0 -0.47791613977E+01 -0.35120072907E+02  0.13702395009E+03  0.14153386155E+03  0.10566000000E+00 0. -1.
        994    1    1    2    0    0  0.12214167676E+02  0.29036230467E+02  0.76215288530E+01  0.17424068490E+03  0.17120000000E+03 0.  0.
        998    1    1    2    0    0 -0.74350062783E+01  0.60838424398E+01  0.13553545173E+04  0.13554254535E+04  0.10000000000E+02 0. -1.
</event>
<event>
 5    1  0.1252319E-008  0.3819448E+03  0.7957747E-01  0.3442734E+00
         13   -1    0    0    0    0  0.00000000000E+00  0.00000000000E+00  0.14999999963E+04  0.15000000000E+04  0.10566000000E+00 0.  1.
        994   -1    0    0    0    0 -0.00000000000E+00 -0.00000000000E+00  0.11368683772E-12  0.17120000000E+03  0.17120000000E+03 0.  0.
         13    1    1    2    0    0 -0.28433403969E+02  0.14426941484E+02  0.18187321783E+03  0.18464688903E+03  0.10566000000E+00 0.  1.
        994    1    1    2    0    0  0.49889957000E+01  0.30876080219E+01  0.32690018000E+01  0.17133169518E+03  0.17120000000E+03 0.  0.
        998    1    1    2    0    0  0.23444408269E+02 -0.17514549506E+02  0.13148577766E+04  0.13152214158E+04  0.10000000000E+02 0.  1.
</event>
<event>
 5    1  0.1252319E-008  0.3832221E+03  0.7957747E-01  0.3437248E+00
         13   -1    0    0    0    0  0.00000000000E+00  0.00000000000E+00  0.14999999963E+04  0.15000000000E+04  0.10566000000E+00 0. -1.
        994   -1    0    0    0    0 -0.00000000000E+00 -0.00000000000E+00  0.11368683772E-12  0.17120000000E+03  0.17120000000E+03 0.  0.
         13    1    1    2    0    0  0.50315012593E+01  0.19110970529E+02  0.74743422759E+02  0.77311937042E+02  0.10566000000E+00 0. -1.
        994    1    1    2    0    0 -0.64554271939E+01 -0.16761089536E+02  0.35832390111E+01  0.17217690398E+03  0.17120000000E+03 0.  0.
        998    1    1    2    0    0  0.14239259346E+01 -0.23498809931E+01  0.14216733345E+04  0.14217111590E+04  0.10000000000E+02 0.  0.
</event>
<event>
 5    1  0.1252319E-008  0.3987360E+03  0.7957747E-01  0.3373426E+00
         13   -1    0    0    0    0  0.00000000000E+00  0.00000000000E+00  0.14999999963E+04  0.15000000000E+04  0.10566000000E+00 0. -1.
        994   -1    0    0    0    0 -0.00000000000E+00 -0.00000000000E+00  0.11368683772E-12  0.17120000000E+03  0.17120000000E+03 0.  0.
         13    1    1    2    0    0 -0.14922307906E+03 -0.20541153015E+02  0.50070475178E+03  0.52287161513E+03  0.10566000000E+00 0. -1.
        994    1    1    2    0    0  0.63962266127E+02 -0.14013651355E+02  0.43921873561E+02  0.18848375232E+03  0.17120000000E+03 0.  0.
        998    1    1    2    0    0  0.85260812937E+02  0.34554804370E+02  0.95537337094E+03  0.95984463254E+03  0.10000000000E+02 0. -1.
</event>
<event>
 5    1  0.1252319E-008  0.3828355E+03  0.7957747E-01  0.3438904E+00
         13   -1    0    0    0    0  0.00000000000E+00  0.00000000000E+00  0.14999999963E+04  0.15000000000E+04  0.10566000000E+00 0. -1.
        994   -1    0    0    0    0 -0.00000000000E+00 -0.00000000000E+00  0.11368683772E-12  0.17120000000E+03  0.17120000000E+03 0.  0.
         13    1    1    2    0    0  0.25744937016E+02 -0.21059553304E+02  0.24235305371E+02  0.41154194899E+02  0.10566000000E+00 0. -1.
        994    1    1    2    0    0 -0.25506748189E+01  0.21544541596E+02  0.19618782461E+02  0.17368076992E+03  0.17120000000E+03 0.  0.
        998    1    1    2    0    0 -0.23194262197E+02 -0.48498829188E+00  0.14561459084E+04  0.14563650352E+04  0.10000000000E+02 0. -1.
</event>
<event>
 5    1  0.1252319E-008  0.3828352E+03  0.7957747E-01  0.3438905E+00
         13   -1    0    0    0    0  0.00000000000E+00  0.00000000000E+00  0.14999999963E+04  0.15000000000E+04  0.10566000000E+00 0.  1.
        994   -1    0    0    0    0 -0.00000000000E+00 -0.00000000000E+00  0.11368683772E-12  0.17120000000E+03  0.17120000000E+03 0.  0.
         13    1    1    2    0    0 -0.99849161786E+01  0.21594194827E+01  0.17969810680E+02  0.20670919271E+02  0.10566000000E+00 0.  1.
        994    1    1    2    0    0  0.13031993185E+02  0.36462384564E+01  0.33154577054E+01  0.17176600409E+03  0.17120000000E+03 0.  0.
        998    1    1    2    0    0 -0.30470770068E+01 -0.58056579391E+01  0.14787147279E+04  0.14787630766E+04  0.10000000000E+02 0.  1.
</event>
<event>
 5    1  0.1252319E-008  0.3746668E+03  0.7957747E-01  0.3474714E+00
         13   -1    0    0    0    0  0.00000000000E+00  0.00000000000E+00  0.14999999963E+04  0.15000000000E+04  0.10566000000E+00 0.  1.
        994   -1    0    0    0    0 -0.00000000000E+00 -0.00000000000E+00  0.11368683772E-12  0.17120000000E+03  0.17120000000E+03 0.  0.
         13    1    1    2    0    0  0.11049437859E+02 -0.82956783325E+01  0.74811459955E+00  0.13837600785E+02  0.10566000000E+00 0.  1.
        994    1    1    2    0    0 -0.17628909614E+02  0.23301545749E+02  0.16468257942E+02  0.17445453278E+03  0.17120000000E+03 0.  0.
        998    1    1    2    0    0  0.65794717550E+01 -0.15005867416E+02  0.14827836237E+04  0.14829078664E+04  0.10000000000E+02 0.  1.
</event>
<event>
 5    1  0.1252319E-008  0.3861603E+03  0.7957747E-01  0.3424766E+00
         13   -1    0    0    0    0  0.00000000000E+00  0.00000000000E+00  0.14999999963E+04  0.15000000000E+04  0.10566000000E+00 0.  1.
        994   -1    0    0    0    0 -0.00000000000E+00 -0.00000000000E+00  0.11368683772E-12  0.17120000000E+03  0.17120000000E+03 0.  0.
         13    1    1    2    0    0  0.56934816660E+00 -0.12880399140E+02  0.77402871687E+02  0.78469386061E+02  0.10566000000E+00 0.  1.
        994    1    1    2    0    0  0.52165305877E+01  0.12501593989E+02  0.16566105338E+01  0.17174308255E+03  0.17120000000E+03 0.  0.
        998    1    1    2    0    0 -0.57858787543E+01  0.37880515026E+00  0.14209405141E+04  0.14209875314E+04  0.10000000000E+02 0.  1.
</event>
<event>
 5    1  0.1252319E-008  0.3828077E+03  0.7957747E-01  0.3439023E+00
         13   -1    0    0    0    0  0.00000000000E+00  0.00000000000E+00  0.14999999963E+04  0.15000000000E+04  0.10566000000E+00 0.  1.
        994   -1    0    0    0    0 -0.00000000000E+00 -0.00000000000E+00  0.11368683772E-12  0.17120000000E+03  0.17120000000E+03 0.  0.
         13    1    1    2    0    0  0.15782442407E+02  0.17342589344E+02  0.97730659792E+02  0.10050444727E+03  0.10566000000E+00 0.  1.
        994    1    1    2    0    0 -0.14051462259E+02 -0.12336312888E+02  0.38813874825E+01  0.17226181636E+03  0.17120000000E+03 0.  0.
        998    1    1    2    0    0 -0.17309801475E+01 -0.50062764563E+01  0.13983879490E+04  0.13984337364E+04  0.10000000000E+02 0.  1.
</event>
<event>
 5    1  0.1252319E-008  0.3737465E+03  0.7957747E-01  0.3478848E+00
         13   -1    0    0    0    0  0.00000000000E+00  0.00000000000E+00  0.14999999963E+04  0.15000000000E+04  0.10566000000E+00 0.  1.
        994   -1    0    0    0    0 -0.00000000000E+00 -0.00000000000E+00  0.11368683772E-12  0.17120000000E+03  0.17120000000E+03 0.  0.
         13    1    1    2    0    0  0.37257123715E+02 -0.72030722683E+02  0.45953320055E+03  0.46663400203E+03  0.10566000000E+00 0.  1.
        994    1    1    2    0    0  0.66319757804E+01 -0.25300478748E+02  0.15360831150E+02  0.17386630629E+03  0.17120000000E+03 0.  0.
        998    1    1    2    0    0 -0.43889099496E+02  0.97331201431E+02  0.10251059646E+04  0.10306996917E+04  0.10000000000E+02 0.  1.
</event>
<event>
 5    1  0.1252319E-008  0.3804939E+03  0.7957747E-01  0.3449011E+00
         13   -1    0    0    0    0  0.00000000000E+00  0.00000000000E+00  0.14999999963E+04  0.15000000000E+04  0.10566000000E+00 0.  1.
        994   -1    0    0    0    0 -0.00000000000E+00 -0.00000000000E+00  0.11368683772E-12  0.17120000000E+03  0.17120000000E+03 0.  0.
         13    1    1    2    0    0 -0.50738073168E+02  0.53980391619E+02  0.43684272399E+03  0.44307991539E+03  0.10566000000E+00 0.  1.
        994    1    1    2    0    0  0.65524676663E+02 -0.55228742760E+02  0.28795460006E+02  0.19360350151E+03  0.17120000000E+03 0.  0.
        998    1    1    2    0    0 -0.14786603495E+02  0.12483511404E+01  0.10343618123E+04  0.10345165831E+04  0.10000000000E+02 0.  1.
</event>
<event>
 5    1  0.1252319E-008  0.2497643E+03  0.7957747E-01  0.4336063E+00
         13   -1    0    0    0    0  0.00000000000E+00  0.00000000000E+00  0.14999999963E+04  0.15000000000E+04  0.10566000000E+00 0. -1.
        994   -1    0    0    0    0 -0.00000000000E+00 -0.00000000000E+00  0.11368683772E-12  0.17120000000E+03  0.17120000000E+03 0.  0.
         13    1    1    2    0    0  0.14779411518E+03  0.97851570330E+02  0.25594716180E+03  0.31133099925E+03  0.10566000000E+00 0. -1.
        994    1    1    2    0    0 -0.16632403234E+03 -0.66378382868E+02  0.20901752938E+03  0.32414123624E+03  0.17120000000E+03 0.  0.
        998    1    1    2    0    0  0.18529917155E+02 -0.31473187462E+02  0.10350353051E+04  0.10357277645E+04  0.10000000000E+02 0. -1.
</event>
<event>
 5    1  0.1252319E-008  0.3745469E+03  0.7957747E-01  0.3475252E+00
         13   -1    0    0    0    0  0.00000000000E+00  0.00000000000E+00  0.14999999963E+04  0.15000000000E+04  0.10566000000E+00 0.  1.
        994   -1    0    0    0    0 -0.00000000000E+00 -0.00000000000E+00  0.11368683772E-12  0.17120000000E+03  0.17120000000E+03 0.  0.
         13    1    1    2    0    0 -0.25719121075E+02  0.22761186684E+02  0.93803197977E+02  0.99892922286E+02  0.10566000000E+00 0.  1.
        994    1    1    2    0    0 -0.57673046747E+01  0.72842965328E+01  0.72055101849E+01  0.17160326965E+03  0.17120000000E+03 0.  0.
        998    1    1    2    0    0  0.31486425750E+02 -0.30045483216E+02  0.13989912881E+04  0.13997038081E+04  0.10000000000E+02 0.  1.
</event>
<event>
 5    1  0.1252319E-008  0.3843095E+03  0.7957747E-01  0.3432606E+00
         13   -1    0    0    0    0  0.00000000000E+00  0.00000000000E+00  0.14999999963E+04  0.15000000000E+04  0.10566000000E+00 0. -1.
        994   -1    0    0    0    0 -0.00000000000E+00 -0.00000000000E+00  0.11368683772E-12  0.17120000000E+03  0.17120000000E+03 0.  0.
         13    1    1    2    0    0  0.18121198032E+02 -0.12558928601E+01  0.82419491839E+02  0.84397505200E+02  0.10566000000E+00 0. -1.
        994    1    1    2    0    0 -0.13459070777E+02 -0.17124545444E+01  0.25802940437E+01  0.17175615565E+03  0.17120000000E+03 0.  0.
        998    1    1    2    0    0 -0.46621272548E+01  0.29683474045E+01  0.14150002104E+04  0.14150463391E+04  0.10000000000E+02 0. -1.
</event>
<event>
 5    1  0.1252319E-008  0.3729997E+03  0.7957747E-01  0.3482218E+00
         13   -1    0    0    0    0  0.00000000000E+00  0.00000000000E+00  0.14999999963E+04  0.15000000000E+04  0.10566000000E+00 0.  1.
        994   -1    0    0    0    0 -0.00000000000E+00 -0.00000000000E+00  0.11368683772E-12  0.17120000000E+03  0.17120000000E+03 0.  0.
         13    1    1    2    0    0 -0.36076147880E+02 -0.20967566867E+02  0.10354244706E+03  0.11163412029E+03  0.10566000000E+00 0.  1.
        994    1    1    2    0    0  0.33099468420E+02  0.24681417887E+02  0.13566221162E+02  0.17663020567E+03  0.17120000000E+03 0.  0.
        998    1    1    2    0    0  0.29766794598E+01 -0.37138510193E+01  0.13828913281E+04  0.13829356740E+04  0.10000000000E+02 0.  1.
</event>
<event>
 5    1  0.1252319E-008  0.3749341E+03  0.7957747E-01  0.3473517E+00
         13   -1    0    0    0    0  0.00000000000E+00  0.00000000000E+00  0.14999999963E+04  0.15000000000E+04  0.10566000000E+00 0. -1.
        994   -1    0    0    0    0 -0.00000000000E+00 -0.00000000000E+00  0.11368683772E-12  0.17120000000E+03  0.17120000000E+03 0.  0.
         13    1    1    2    0    0 -0.10807859945E+02  0.24189275974E+02  0.49577986125E+02  0.56213154875E+02  0.10566000000E+00 0. -1.
        994    1    1    2    0    0  0.21389310619E+02 -0.10181952578E+02  0.86228528580E+01  0.17304614517E+03  0.17120000000E+03 0.  0.
        998    1    1    2    0    0 -0.10581450673E+02 -0.14007323395E+02  0.14417991573E+04  0.14419407000E+04  0.10000000000E+02 0. -1.
</event>
<event>
 5    1  0.1252319E-008  0.3829591E+03  0.7957747E-01  0.3438374E+00
         13   -1    0    0    0    0  0.00000000000E+00  0.00000000000E+00  0.14999999963E+04  0.15000000000E+04  0.10566000000E+00 0.  1.
        994   -1    0    0    0    0 -0.00000000000E+00 -0.00000000000E+00  0.11368683772E-12  0.17120000000E+03  0.17120000000E+03 0.  0.
         13    1    1    2    0    0  0.30802936218E+01  0.13950420405E+02  0.37665048325E+02  0.40283612892E+02  0.10566000000E+00 0.  1.
        994    1    1    2    0    0  0.15614031156E+01 -0.10471179139E+02  0.30179342641E+01  0.17155358201E+03  0.17120000000E+03 0.  0.
        998    1    1    2    0    0 -0.46416967374E+01 -0.34792412664E+01  0.14593170137E+04  0.14593628051E+04  0.10000000000E+02 0.  1.
</event>
<event>
 5    1  0.1252319E-008  0.3845818E+03  0.7957747E-01  0.3431448E+00
         13   -1    0    0    0    0  0.00000000000E+00  0.00000000000E+00  0.14999999963E+04  0.15000000000E+04  0.10566000000E+00 0. -1.
        994   -1    0    0    0    0 -0.00000000000E+00 -0.00000000000E+00  0.11368683772E-12  0.17120000000E+03  0.17120000000E+03 0.  0.
         13    1    1    2    0    0  0.15146075982E+02 -0.35993348738E+00  0.59963406889E+02  0.61847833426E+02  0.10566000000E+00 0. -1.
        994    1    1    2    0    0 -0.16399376084E+02  0.49843084391E+01  0.28059473782E+01  0.17207875002E+03  0.17120000000E+03 0.  0.
        998    1    1    2    0    0  0.12533001017E+01 -0.46243749517E+01  0.14372306420E+04  0.14372734166E+04  0.10000000000E+02 0. -1.
</event>
<event>
 5    1  0.1252319E-008  0.3707062E+03  0.7957747E-01  0.3492651E+00
         13   -1    0    0    0    0  0.00000000000E+00  0.00000000000E+00  0.14999999963E+04  0.15000000000E+04  0.10566000000E+00 0. -1.
        994   -1    0    0    0    0 -0.00000000000E+00 -0.00000000000E+00  0.11368683772E-12  0.17120000000E+03  0.17120000000E+03 0.  0.
         13    1    1    2    0    0  0.59338546583E+02 -0.43299526283E+01  0.19986074501E+03  0.20852851163E+03  0.10566000000E+00 0. -1.
        994    1    1    2    0    0 -0.32131294188E+02 -0.91438353360E+01  0.12759591204E+02  0.17489504555E+03  0.17120000000E+03 0.  0.
        998    1    1    2    0    0 -0.27207252394E+02  0.13473787964E+02  0.12873796601E+04  0.12877764428E+04  0.10000000000E+02 0. -1.
</event>
<event>
 5    1  0.1252319E-008  0.3816790E+03  0.7957747E-01  0.3443880E+00
         13   -1    0    0    0    0  0.00000000000E+00  0.00000000000E+00  0.14999999963E+04  0.15000000000E+04  0.10566000000E+00 0. -1.
        994   -1    0    0    0    0 -0.00000000000E+00 -0.00000000000E+00  0.11368683772E-12  0.17120000000E+03  0.17120000000E+03 0.  0.
         13    1    1    2    0    0 -0.14539733874E+02  0.17022440214E+02  0.62824500038E+02  0.66694049967E+02  0.10566000000E+00 0. -1.
        994    1    1    2    0    0  0.21838001496E+02 -0.52526814696E+02  0.14121520623E+02  0.18095530364E+03  0.17120000000E+03 0.  0.
        998    1    1    2    0    0 -0.72982676216E+01  0.35504374483E+02  0.14230539756E+04  0.14235506464E+04  0.10000000000E+02 0. -1.
</event>
<event>
 5    1  0.1252319E-008  0.3822038E+03  0.7957747E-01  0.3441618E+00
         13   -1    0    0    0    0  0.00000000000E+00  0.00000000000E+00  0.14999999963E+04  0.15000000000E+04  0.10566000000E+00 0.  1.
        994   -1    0    0    0    0 -0.00000000000E+00 -0.00000000000E+00  0.11368683772E-12  0.17120000000E+03  0.17120000000E+03 0.  0.
         13    1    1    2    0    0 -0.21787680740E+02 -0.99790329372E+01  0.84611528229E+02  0.87939786238E+02  0.10566000000E+00 0.  1.
        994    1    1    2    0    0  0.21166085275E+02  0.37866491660E+02  0.92955533105E+01  0.17685508663E+03  0.17120000000E+03 0.  0.
        998    1    1    2    0    0  0.62159546432E+00 -0.27887458722E+02  0.14060929147E+04  0.14064051271E+04  0.10000000000E+02 0.  1.
</event>
<event>
 5    1  0.1252319E-008  0.3856633E+03  0.7957747E-01  0.3426864E+00
         13   -1    0    0    0    0  0.00000000000E+00  0.00000000000E+00  0.14999999963E+04  0.15000000000E+04  0.10566000000E+00 0. -1.
        994   -1    0    0    0    0 -0.00000000000E+00 -0.00000000000E+00  0.11368683772E-12  0.17120000000E+03  0.17120000000E+03 0.  0.
         13    1    1    2    0    0  0.11400419443E+01  0.17185648004E+02  0.10298366323E+03  0.10441404239E+03  0.10566000000E+00 0. -1.
        994    1    1    2    0    0 -0.17489824006E+00 -0.23390785635E+02  0.30987976963E+01  0.17281840755E+03  0.17120000000E+03 0.  0.
        998    1    1    2    0    0 -0.96514370420E+00  0.62051376312E+01  0.13939175354E+04  0.13939675501E+04  0.10000000000E+02 0. -1.
</event>
<event>
 5    1  0.1252319E-008  0.3687853E+03  0.7957747E-01  0.3501492E+00
         13   -1    0    0    0    0  0.00000000000E+00  0.00000000000E+00  0.14999999963E+04  0.15000000000E+04  0.10566000000E+00 0.  1.
        994   -1    0    0    0    0 -0.00000000000E+00 -0.00000000000E+00  0.11368683772E-12  0.17120000000E+03  0.17120000000E+03 0.  0.
         13    1    1    2    0    0 -0.32401884015E+02  0.76588444673E+02  0.35841257883E+03  0.36793377090E+03  0.10566000000E+00 0.  1.
        994    1    1    2    0    0  0.51780555684E+02 -0.26826196812E+02  0.21808479993E+02  0.18217003206E+03  0.17120000000E+03 0.  0.
        998    1    1    2    0    0 -0.19378671669E+02 -0.49762247862E+02  0.11197789375E+04  0.11210961970E+04  0.10000000000E+02 0.  1.
</event>
<event>
 5    1  0.1252319E-008  0.3708025E+03  0.7957747E-01  0.3492211E+00
         13   -1    0    0    0    0  0.00000000000E+00  0.00000000000E+00  0.14999999963E+04  0.15000000000E+04  0.10566000000E+00 0.  1.
        994   -1    0    0    0    0 -0.00000000000E+00 -0.00000000000E+00  0.11368683772E-12  0.17120000000E+03  0.17120000000E+03 0.  0.
         13    1    1    2    0    0 -0.19655172238E+02  0.40227931627E+02  0.10700335687E+03  0.11599285247E+03  0.10566000000E+00 0.  1.
        994    1    1    2    0    0  0.86591224022E+01 -0.34905029026E+02  0.13322917658E+02  0.17544310071E+03  0.17120000000E+03 0.  0.
        998    1    1    2    0    0  0.10996049836E+02 -0.53229026004E+01  0.13796737218E+04  0.13797640468E+04  0.10000000000E+02 0.  1.
</event>
<event>
 5    1  0.1252319E-008  0.3797951E+03  0.7957747E-01  0.3452051E+00
         13   -1    0    0    0    0  0.00000000000E+00  0.00000000000E+00  0.14999999963E+04  0.15000000000E+04  0.10566000000E+00 0.  1.
        994   -1    0    0    0    0 -0.00000000000E+00 -0.00000000000E+00  0.11368683772E-12  0.17120000000E+03  0.17120000000E+03 0.  0.
         13    1    1    2    0    0 -0.42743433364E+02 -0.20556894883E+02  0.21510842354E+03  0.22027535510E+03  0.10566000000E+00 0.  1.
        994    1    1    2    0    0  0.74824050894E+02 -0.20020388886E+02  0.24574340031E+02  0.18950670899E+03  0.17120000000E+03 0.  0.
        998    1    1    2    0    0 -0.32080617530E+02  0.40577283769E+02  0.12603172327E+04  0.12614179359E+04  0.10000000000E+02 0.  1.
</event>
<event>
 5    1  0.1252319E-008  0.3739844E+03  0.7957747E-01  0.3477777E+00
         13   -1    0    0    0    0  0.00000000000E+00  0.00000000000E+00  0.14999999963E+04  0.15000000000E+04  0.10566000000E+00 0. -1.
        994   -1    0    0    0    0 -0.00000000000E+00 -0.00000000000E+00  0.11368683772E-12  0.17120000000E+03  0.17120000000E+03 0.  0.
         13    1    1    2    0    0 -0.22509615610E+01 -0.50114176869E+02  0.18356590909E+03  0.19029700916E+03  0.10566000000E+00 0. -1.
        994    1    1    2    0    0 -0.15863658040E+02  0.19024788048E+02  0.92968951184E+01  0.17323241748E+03  0.17120000000E+03 0.  0.
        998    1    1    2    0    0  0.18114619601E+02  0.31089388821E+02  0.13071371921E+04  0.13076705734E+04  0.10000000000E+02 0. -1.
</event>
<event>
 5    1  0.2054693E-008  0.3860127E+03  0.7957747E-01  0.3425388E+00
         13   -1    0    0    0    0  0.00000000000E+00  0.00000000000E+00  0.14999999963E+04  0.15000000000E+04  0.10566000000E+00 0.  1.
        994   -1    0    0    0    0 -0.00000000000E+00 -0.00000000000E+00  0.11368683772E-12  0.17120000000E+03  0.17120000000E+03 0.  0.
         13    1    1    2    0    0  0.63500708151E+01  0.88143535312E+01  0.52581213470E+02  0.53691818758E+02  0.10566000000E+00 0.  1.
        994    1    1    2    0    0 -0.23218520046E+01 -0.85507689541E+01  0.13855422869E+01  0.17143472919E+03  0.17120000000E+03 0.  0.
        998    1    1    2    0    0 -0.40282188105E+01 -0.26358457719E+00  0.14460332405E+04  0.14460734520E+04  0.10000000000E+02 0.  1.
</event>
<event>
 5    1  0.1252319E-008  0.3723859E+03  0.7957747E-01  0.3484997E+00
         13   -1    0    0    0    0  0.00000000000E+00  0.00000000000E+00  0.14999999963E+04  0.15000000000E+04  0.10566000000E+00 0. -1.
        994   -1    0    0    0    0 -0.00000000000E+00 -0.00000000000E+00  0.11368683772E-12  0.17120000000E+03  0.17120000000E+03 0.  0.
         13    1    1    2    0    0  0.10983948291E+03  0.72413888623E+02  0.64585591896E+03  0.65911938410E+03  0.10566000000E+00 0. -1.
        994    1    1    2    0    0 -0.68740423118E+02 -0.53764029764E+02  0.39564281430E+02  0.19619018587E+03  0.17120000000E+03 0.  0.
        998    1    1    2    0    0 -0.41099059789E+02 -0.18649858859E+02  0.81457979589E+03  0.81589043003E+03  0.10000000000E+02 0. -1.
</event>
<event>
 5    1  0.1252319E-008  0.3765190E+03  0.7957747E-01  0.3466457E+00
         13   -1    0    0    0    0  0.00000000000E+00  0.00000000000E+00  0.14999999963E+04  0.15000000000E+04  0.10566000000E+00 0. -1.
        994   -1    0    0    0    0 -0.00000000000E+00 -0.00000000000E+00  0.11368683772E-12  0.17120000000E+03  0.17120000000E+03 0.  0.
         13    1    1    2    0    0 -0.24067903994E+02  0.14115068033E+02  0.67356843550E+02  0.72907164842E+02  0.10566000000E+00 0. -1.
        994    1    1    2    0    0  0.17598828187E+01 -0.29769546051E+01  0.59411847328E+01  0.17133796171E+03  0.17120000000E+03 0.  0.
        998    1    1    2    0    0  0.22308021175E+02 -0.11138113428E+02  0.14267019680E+04  0.14269548735E+04  0.10000000000E+02 0. -1.
</event>
<event>
 5    1  0.1252319E-008  0.3724700E+03  0.7957747E-01  0.3484616E+00
         13   -1    0    0    0    0  0.00000000000E+00  0.00000000000E+00  0.14999999963E+04  0.15000000000E+04  0.10566000000E+00 0.  1.
        994   -1    0    0    0    0 -0.00000000000E+00 -0.00000000000E+00  0.11368683772E-12  0.17120000000E+03  0.17120000000E+03 0.  0.
         13    1    1    2    0    0  0.33272396606E+02 -0.31619783033E+02  0.12606668946E+03  0.13416290251E+03  0.10566000000E+00 0.  1.
        994    1    1    2    0    0  0.52196360768E+01  0.55178710565E+02  0.18590185121E+02  0.18090596918E+03  0.17120000000E+03 0.  0.
        998    1    1    2    0    0 -0.38492032683E+02 -0.23558927533E+02  0.13553431217E+04  0.13561311283E+04  0.10000000000E+02 0.  1.
</event>
<event>
 5    1  0.1252319E-008  0.3796009E+03  0.7957747E-01  0.3452898E+00
         13   -1    0    0    0    0  0.00000000000E+00  0.00000000000E+00  0.14999999963E+04  0.15000000000E+04  0.10566000000E+00 0. -1.
        994   -1    0    0    0    0 -0.00000000000E+00 -0.00000000000E+00  0.11368683772E-12  0.17120000000E+03  0.17120000000E+03 0.  0.
         13    1    1    2    0    0  0.46498426090E+02 -0.21456133910E+02  0.76904919282E+02  0.92395059852E+02  0.10566000000E+00 0. -1.
        994    1    1    2    0    0 -0.22506631356E+02  0.22665223065E+02  0.19808505130E+02  0.17527714531E+03  0.17120000000E+03 0.  0.
        998    1    1    2    0    0 -0.23991794734E+02 -0.12090891552E+01  0.14032865719E+04  0.14035277948E+04  0.10000000000E+02 0. -1.
</event>
<event>
 5    1  0.1252319E-008  0.3791961E+03  0.7957747E-01  0.3454666E+00
         13   -1    0    0    0    0  0.00000000000E+00  0.00000000000E+00  0.14999999963E+04  0.15000000000E+04  0.10566000000E+00 0.  1.
        994   -1    0    0    0    0 -0.00000000000E+00 -0.00000000000E+00  0.11368683772E-12  0.17120000000E+03  0.17120000000E+03 0.  0.
         13    1    1    2    0    0  0.24128151349E+02  0.13899004569E+02  0.81338046330E+02  0.85972315080E+02  0.10566000000E+00 0.  1.
        994    1    1    2    0    0 -0.27515556484E+02 -0.24861850585E+00  0.70815472859E+01  0.17354179892E+03  0.17120000000E+03 0.  0.
        998    1    1    2    0    0  0.33874051356E+01 -0.13650386063E+02  0.14115804027E+04  0.14116858860E+04  0.10000000000E+02 0.  1.
</event>
<event>
 5    1  0.1252319E-008  0.3780781E+03  0.7957747E-01  0.3459570E+00
         13   -1    0    0    0    0  0.00000000000E+00  0.00000000000E+00  0.14999999963E+04  0.15000000000E+04  0.10566000000E+00 0. -1.
        994   -1    0    0    0    0 -0.00000000000E+00 -0.00000000000E+00  0.11368683772E-12  0.17120000000E+03  0.17120000000E+03 0.  0.
         13    1    1    2    0    0  0.66547797353E+01  0.33617307815E+02  0.10849437578E+03  0.11377807442E+03  0.10566000000E+00 0. -1.
        994    1    1    2    0    0 -0.15384828128E+02 -0.26972535987E+02  0.83571921789E+01  0.17419383828E+03  0.17120000000E+03 0.  0.
        998    1    1    2    0    0  0.87300483925E+01 -0.66447718273E+01  0.13831484283E+04  0.13832280873E+04  0.10000000000E+02 0. -1.
</event>
<event>
 5    1  0.1252319E-008  0.3861618E+03  0.7957747E-01  0.3424760E+00
         13   -1    0    0    0    0  0.00000000000E+00  0.00000000000E+00  0.14999999963E+04  0.15000000000E+04  0.10566000000E+00 0. -1.
        994   -1    0    0    0    0 -0.00000000000E+00 -0.00000000000E+00  0.11368683772E-12  0.17120000000E+03  0.17120000000E+03 0.  0.
         13    1    1    2    0    0 -0.10677599780E+02  0.60845843637E+01  0.69916780741E+02  0.70988736410E+02  0.10566000000E+00 0. -1.
        994    1    1    2    0    0  0.94959248111E+01 -0.94436204847E+01  0.16422624477E+01  0.17173086962E+03  0.17120000000E+03 0.  0.
        998    1    1    2    0    0  0.11816749686E+01  0.33590361210E+01  0.14284409531E+04  0.14284803940E+04  0.10000000000E+02 0.  0.
</event>
<event>
 5    1  0.1252319E-008  0.3735976E+03  0.7957747E-01  0.3479519E+00
         13   -1    0    0    0    0  0.00000000000E+00  0.00000000000E+00  0.14999999963E+04  0.15000000000E+04  0.10566000000E+00 0. -1.
        994   -1    0    0    0    0 -0.00000000000E+00 -0.00000000000E+00  0.11368683772E-12  0.17120000000E+03  0.17120000000E+03 0.  0.
         13    1    1    2    0    0  0.27599468719E+02 -0.78612026562E+01  0.51689028112E+02  0.59121028171E+02  0.10566000000E+00 0. -1.
        994    1    1    2    0    0 -0.25457528933E+02  0.40103917177E+01  0.96723557389E+01  0.17339885665E+03  0.17120000000E+03 0.  0.
        998    1    1    2    0    0 -0.21419397860E+01  0.38508109385E+01  0.14386386124E+04  0.14386801152E+04  0.10000000000E+02 0. -1.
</event>
<event>
 5    1  0.1252319E-008  0.3813235E+03  0.7957747E-01  0.3445416E+00
         13   -1    0    0    0    0  0.00000000000E+00  0.00000000000E+00  0.14999999963E+04  0.15000000000E+04  0.10566000000E+00 0. -1.
        994   -1    0    0    0    0 -0.00000000000E+00 -0.00000000000E+00  0.11368683772E-12  0.17120000000E+03  0.17120000000E+03 0.  0.
         13    1    1    2    0    0  0.40261746158E+02  0.34050698893E+01  0.23099868084E+03  0.23450587289E+03  0.10566000000E+00 0. -1.
        994    1    1    2    0    0 -0.26343021924E+02  0.12054402106E+02  0.62649179134E+01  0.17374680604E+03  0.17120000000E+03 0.  0.
        998    1    1    2    0    0 -0.13918724234E+02 -0.15459471996E+02  0.12627363975E+04  0.12629473211E+04  0.10000000000E+02 0. -1.
</event>
<event>
 5    1  0.1252319E-008  0.3736502E+03  0.7957747E-01  0.3479281E+00
         13   -1    0    0    0    0  0.00000000000E+00  0.00000000000E+00  0.14999999963E+04  0.15000000000E+04  0.10566000000E+00 0. -1.
        994   -1    0    0    0    0 -0.00000000000E+00 -0.00000000000E+00  0.11368683772E-12  0.17120000000E+03  0.17120000000E+03 0.  0.
         13    1    1    2    0    0  0.35281974484E+01 -0.13893665655E+02  0.10488947233E+02  0.17762637774E+02  0.10566000000E+00 0. -1.
        994    1    1    2    0    0 -0.62386637144E+00  0.16741865745E+02  0.83325112008E+01  0.17221948212E+03  0.17120000000E+03 0.  0.
        998    1    1    2    0    0 -0.29043310769E+01 -0.28482000900E+01  0.14811785378E+04  0.14812178801E+04  0.10000000000E+02 0. -1.
</event>
<event>
 5    1  0.1252319E-008  0.4173617E+03  0.7957747E-01  0.3303040E+00
         13   -1    0    0    0    0  0.00000000000E+00  0.00000000000E+00  0.14999999963E+04  0.15000000000E+04  0.10566000000E+00 0.  1.
        994   -1    0    0    0    0 -0.00000000000E+00 -0.00000000000E+00  0.11368683772E-12  0.17120000000E+03  0.17120000000E+03 0.  0.
         13    1    1    2    0    0  0.64331029300E+02  0.89684038851E+02  0.20640708317E+03  0.23406324637E+03  0.10566000000E+00 0.  1.
        994    1    1    2    0    0  0.54919440011E+02 -0.14015050087E+02  0.52263870922E+02  0.18775920410E+03  0.17120000000E+03 0.  0.
        998    1    1    2    0    0 -0.11925046931E+03 -0.75668988764E+02  0.12413290422E+04  0.12493775495E+04  0.10000000000E+02 0.  1.
</event>
<event>
 5    1  0.1252319E-008  0.3788262E+03  0.7957747E-01  0.3456286E+00
         13   -1    0    0    0    0  0.00000000000E+00  0.00000000000E+00  0.14999999963E+04  0.15000000000E+04  0.10566000000E+00 0.  1.
        994   -1    0    0    0    0 -0.00000000000E+00 -0.00000000000E+00  0.11368683772E-12  0.17120000000E+03  0.17120000000E+03 0.  0.
         13    1    1    2    0    0  0.33694388979E+02  0.81488957218E+01  0.11474400634E+03  0.11986623588E+03  0.10566000000E+00 0.  1.
        994    1    1    2    0    0 -0.41086703469E+02  0.68624569892E+01  0.10572248792E+02  0.17651182103E+03  0.17120000000E+03 0.  0.
        998    1    1    2    0    0  0.73923144894E+01 -0.15011352711E+02  0.13746837412E+04  0.13748219431E+04  0.10000000000E+02 0.  1.
</event>
<event>
 5    1  0.1252319E-008  0.3798365E+03  0.7957747E-01  0.3451871E+00
         13   -1    0    0    0    0  0.00000000000E+00  0.00000000000E+00  0.14999999963E+04  0.15000000000E+04  0.10566000000E+00 0.  1.
        994   -1    0    0    0    0 -0.00000000000E+00 -0.00000000000E+00  0.11368683772E-12  0.17120000000E+03  0.17120000000E+03 0.  0.
         13    1    1    2    0    0 -0.89391072349E+01  0.46902408121E+01  0.10237755022E+02  0.14378066246E+02  0.10566000000E+00 0.  1.
        994    1    1    2    0    0  0.39897702010E+01 -0.63651122431E+01  0.44044890845E+01  0.17142133019E+03  0.17120000000E+03 0.  0.
        998    1    1    2    0    0  0.49493370339E+01  0.16748714310E+01  0.14853577522E+04  0.14854006036E+04  0.10000000000E+02 0.  1.
</event>
<event>
 5    1  0.1252319E-008  0.3779618E+03  0.7957747E-01  0.3460082E+00
         13   -1    0    0    0    0  0.00000000000E+00  0.00000000000E+00  0.14999999963E+04  0.15000000000E+04  0.10566000000E+00 0. -1.
        994   -1    0    0    0    0 -0.00000000000E+00 -0.00000000000E+00  0.11368683772E-12  0.17120000000E+03  0.17120000000E+03 0.  0.
         13    1    1    2    0    0 -0.10466920637E+02  0.33906809638E+02  0.14161973424E+03  0.14599790566E+03  0.10566000000E+00 0. -1.
        994    1    1    2    0    0  0.77690895102E+01  0.10499218815E+02  0.57399306313E+01  0.17179341999E+03  0.17120000000E+03 0.  0.
        998    1    1    2    0    0  0.26978311265E+01 -0.44406028453E+02  0.13526403314E+04  0.13534086743E+04  0.10000000000E+02 0. -1.
</event>
<event>
 5    1  0.1252319E-008  0.3832403E+03  0.7957747E-01  0.3437170E+00
         13   -1    0    0    0    0  0.00000000000E+00  0.00000000000E+00  0.14999999963E+04  0.15000000000E+04  0.10566000000E+00 0. -1.
        994   -1    0    0    0    0 -0.00000000000E+00 -0.00000000000E+00  0.11368683772E-12  0.17120000000E+03  0.17120000000E+03 0.  0.
         13    1    1    2    0    0  0.51893448719E+01 -0.12672925520E+02  0.36204167883E+02  0.38707690161E+02  0.10566000000E+00 0. -1.
        994    1    1    2    0    0 -0.55850878116E+01  0.10903657649E+02  0.30029046467E+01  0.17166403348E+03  0.17120000000E+03 0.  0.
        998    1    1    2    0    0  0.39574293963E+00  0.17692678717E+01  0.14607929237E+04  0.14608282764E+04  0.10000000000E+02 0. -1.
</event>
<event>
 5    1  0.1252319E-008  0.3858625E+03  0.7957747E-01  0.3426023E+00
         13   -1    0    0    0    0  0.00000000000E+00  0.00000000000E+00  0.14999999963E+04  0.15000000000E+04  0.10566000000E+00 0. -1.
        994   -1    0    0    0    0 -0.00000000000E+00 -0.00000000000E+00  0.11368683772E-12  0.17120000000E+03  0.17120000000E+03 0.  0.
         13    1    1    2    0    0  0.80020008565E+01 -0.69070424053E+01  0.44494760643E+02  0.45733293575E+02  0.10566000000E+00 0. -1.
        994    1    1    2    0    0 -0.34212721072E+01  0.20539918462E+02  0.26257968772E+01  0.17248167486E+03  0.17120000000E+03 0.  0.
        998    1    1    2    0    0 -0.45807287493E+01 -0.13632876056E+02  0.14528794388E+04  0.14529850316E+04  0.10000000000E+02 0. -1.
</event>
<event>
 5    1  0.1252319E-008  0.3838760E+03  0.7957747E-01  0.3434453E+00
         13   -1    0    0    0    0  0.00000000000E+00  0.00000000000E+00  0.14999999963E+04  0.15000000000E+04  0.10566000000E+00 0. -1.
        994   -1    0    0    0    0 -0.00000000000E+00 -0.00000000000E+00  0.11368683772E-12  0.17120000000E+03  0.17120000000E+03 0.  0.
         13    1    1    2    0    0 -0.94954434471E+01  0.32531232717E+01  0.22147515786E+02  0.24316041553E+02  0.10566000000E+00 0. -1.
        994    1    1    2    0    0  0.79714219507E+01 -0.45685218900E+01  0.24679077585E+01  0.17146412315E+03  0.17120000000E+03 0.  0.
        998    1    1    2    0    0  0.15240214964E+01  0.13153986183E+01  0.14753845727E+04  0.14754198353E+04  0.10000000000E+02 0. -1.
</event>
<event>
 5    1  0.1252319E-008  0.3797377E+03  0.7957747E-01  0.3452301E+00
         13   -1    0    0    0    0  0.00000000000E+00  0.00000000000E+00  0.14999999963E+04  0.15000000000E+04  0.10566000000E+00 0. -1.
        994   -1    0    0    0    0 -0.00000000000E+00 -0.00000000000E+00  0.11368683772E-12  0.17120000000E+03  0.17120000000E+03 0.  0.
         13    1    1    2    0    0 -0.24603036429E+02 -0.33246149855E+02  0.17002145633E+03  0.17497977786E+03  0.10566000000E+00 0. -1.
        994    1    1    2    0    0 -0.10374561452E+02  0.71538034474E+02  0.21951580615E+02  0.18712731974E+03  0.17120000000E+03 0.  0.
        998    1    1    2    0    0  0.34977597881E+02 -0.38291884619E+02  0.13080269593E+04  0.13090929024E+04  0.10000000000E+02 0. -1.
</event>
<event>
 5    1  0.1252319E-008  0.3853221E+03  0.7957747E-01  0.3428307E+00
         13   -1    0    0    0    0  0.00000000000E+00  0.00000000000E+00  0.14999999963E+04  0.15000000000E+04  0.10566000000E+00 0.  1.
        994   -1    0    0    0    0 -0.00000000000E+00 -0.00000000000E+00  0.11368683772E-12  0.17120000000E+03  0.17120000000E+03 0.  0.
         13    1    1    2    0    0 -0.82420115697E+01 -0.86178155535E+01  0.47205873248E+02  0.48688839920E+02  0.10566000000E+00 0.  1.
        994    1    1    2    0    0  0.10897042325E+02  0.70478704176E+01  0.20238036157E+01  0.17170309779E+03  0.17120000000E+03 0.  0.
        998    1    1    2    0    0 -0.26550307553E+01  0.15699451359E+01  0.14507703194E+04  0.14508080623E+04  0.10000000000E+02 0.  1.
</event>
<event>
 5    1  0.1252319E-008  0.3823592E+03  0.7957747E-01  0.3440950E+00
         13   -1    0    0    0    0  0.00000000000E+00  0.00000000000E+00  0.14999999963E+04  0.15000000000E+04  0.10566000000E+00 0. -1.
        994   -1    0    0    0    0 -0.00000000000E+00 -0.00000000000E+00  0.11368683772E-12  0.17120000000E+03  0.17120000000E+03 0.  0.
         13    1    1    2    0    0  0.24038932431E+02  0.11623810898E+02  0.13288347605E+03  0.13553970866E+03  0.10566000000E+00 0. -1.
        994    1    1    2    0    0 -0.72880867188E+01  0.10708135893E+02  0.35036683283E+01  0.17172505954E+03  0.17120000000E+03 0.  0.
        998    1    1    2    0    0 -0.16750845712E+02 -0.22331946790E+02  0.13636128519E+04  0.13639352318E+04  0.10000000000E+02 0. -1.
</event>
<event>
 5    1  0.1252319E-008  0.3685103E+03  0.7957747E-01  0.3502766E+00
         13   -1    0    0    0    0  0.00000000000E+00  0.00000000000E+00  0.14999999963E+04  0.15000000000E+04  0.10566000000E+00 0. -1.
        994   -1    0    0    0    0 -0.00000000000E+00 -0.00000000000E+00  0.11368683772E-12  0.17120000000E+03  0.17120000000E+03 0.  0.
         13    1    1    2    0    0  0.19922593642E+01 -0.99414315135E+01  0.23750285624E+00  0.10142422272E+02  0.10566000000E+00 0. -1.
        994    1    1    2    0    0 -0.38290403551E+01  0.16414516655E+02  0.11141874473E+02  0.17238816454E+03  0.17120000000E+03 0.  0.
        998    1    1    2    0    0  0.18367809910E+01 -0.64730851419E+01  0.14886206189E+04  0.14886694132E+04  0.10000000000E+02 0. -1.
</event>
<event>
 5    1  0.1252319E-008  0.3749293E+03  0.7957747E-01  0.3473539E+00
         13   -1    0    0    0    0  0.00000000000E+00  0.00000000000E+00  0.14999999963E+04  0.15000000000E+04  0.10566000000E+00 0.  1.
        994   -1    0    0    0    0 -0.00000000000E+00 -0.00000000000E+00  0.11368683772E-12  0.17120000000E+03  0.17120000000E+03 0.  0.
         13    1    1    2    0    0 -0.25259876348E+02  0.44833217092E+01  0.48212627129E+02  0.54613460844E+02  0.10566000000E+00 0.  1.
        994    1    1    2    0    0  0.57734405808E+01  0.68793245254E+01  0.69893327352E+01  0.17157782052E+03  0.17120000000E+03 0.  0.
        998    1    1    2    0    0  0.19486435767E+02 -0.11362646235E+02  0.14447980364E+04  0.14450087186E+04  0.10000000000E+02 0.  1.
</event>
<event>
 5    1  0.1252319E-008  0.3830238E+03  0.7957747E-01  0.3438097E+00
         13   -1    0    0    0    0  0.00000000000E+00  0.00000000000E+00  0.14999999963E+04  0.15000000000E+04  0.10566000000E+00 0.  1.
        994   -1    0    0    0    0 -0.00000000000E+00 -0.00000000000E+00  0.11368683772E-12  0.17120000000E+03  0.17120000000E+03 0.  0.
         13    1    1    2    0    0 -0.98910150176E+01 -0.57164466878E+01  0.23749270476E+02  0.26354296671E+02  0.10566000000E+00 0.  1.
        994    1    1    2    0    0  0.71486042295E+01  0.10505867110E+02  0.31491358677E+01  0.17169983356E+03  0.17120000000E+03 0.  0.
        998    1    1    2    0    0  0.27424107882E+01 -0.47894204217E+01  0.14731015899E+04  0.14731458698E+04  0.10000000000E+02 0.  1.
</event>
<event>
 5    1  0.1252319E-008  0.3791757E+03  0.7957747E-01  0.3454756E+00
         13   -1    0    0    0    0  0.00000000000E+00  0.00000000000E+00  0.14999999963E+04  0.15000000000E+04  0.10566000000E+00 0. -1.
        994   -1    0    0    0    0 -0.00000000000E+00 -0.00000000000E+00  0.11368683772E-12  0.17120000000E+03  0.17120000000E+03 0.  0.
         13    1    1    2    0    0  0.20109086474E+02  0.77250254723E+01  0.45490344993E+02  0.50333229868E+02  0.10566000000E+00 0. -1.
        994    1    1    2    0    0 -0.27105510915E+02 -0.32533335837E+02  0.10584062327E+02  0.17667650958E+03  0.17120000000E+03 0.  0.
        998    1    1    2    0    0  0.69964244411E+01  0.24808310364E+02  0.14439255890E+04  0.14441902606E+04  0.10000000000E+02 0. -1.
</event>
<event>
 5    1  0.1252319E-008  0.3740661E+03  0.7957747E-01  0.3477410E+00
         13   -1    0    0    0    0  0.00000000000E+00  0.00000000000E+00  0.14999999963E+04  0.15000000000E+04  0.10566000000E+00 0.  1.
        994   -1    0    0    0    0 -0.00000000000E+00 -0.00000000000E+00  0.11368683772E-12  0.17120000000E+03  0.17120000000E+03 0.  0.
         13    1    1    2    0    0 -0.46575339137E+02 -0.20573127164E+02  0.17537706688E+03  0.18261884495E+03  0.10566000000E+00 0.  1.
        994    1    1    2    0    0  0.33835569972E+02  0.59624798341E+01  0.11194763074E+02  0.17497188255E+03  0.17120000000E+03 0.  0.
        998    1    1    2    0    0  0.12739769165E+02  0.14610647329E+02  0.13134281663E+04  0.13136092725E+04  0.10000000000E+02 0.  1.
</event>
<event>
 5    1  0.1252319E-008  0.3697925E+03  0.7957747E-01  0.3496845E+00
         13   -1    0    0    0    0  0.00000000000E+00  0.00000000000E+00  0.14999999963E+04  0.15000000000E+04  0.10566000000E+00 0.  1.
        994   -1    0    0    0    0 -0.00000000000E+00 -0.00000000000E+00  0.11368683772E-12  0.17120000000E+03  0.17120000000E+03 0.  0.
         13    1    1    2    0    0 -0.65085954270E+02 -0.13354251334E+02  0.19401624976E+03  0.20507762873E+03  0.10566000000E+00 0.  1.
        994    1    1    2    0    0  0.74952800318E+02  0.67794667014E+01  0.29239102633E+02  0.18928351372E+03  0.17120000000E+03 0.  0.
        998    1    1    2    0    0 -0.98668460483E+01  0.65747846324E+01  0.12767446439E+04  0.12768388575E+04  0.10000000000E+02 0.  1.
</event>
<event>
 5    1  0.1252319E-008  0.3719338E+03  0.7957747E-01  0.3487051E+00
         13   -1    0    0    0    0  0.00000000000E+00  0.00000000000E+00  0.14999999963E+04  0.15000000000E+04  0.10566000000E+00 0.  1.
        994   -1    0    0    0    0 -0.00000000000E+00 -0.00000000000E+00  0.11368683772E-12  0.17120000000E+03  0.17120000000E+03 0.  0.
         13    1    1    2    0    0  0.43244353672E+01 -0.30178157376E+02  0.57520577726E+02  0.65100306834E+02  0.10566000000E+00 0.  1.
        994    1    1    2    0    0 -0.99493591829E+02 -0.21251973636E+02  0.44697984331E+02  0.20410284418E+03  0.17120000000E+03 0.  0.
        998    1    1    2    0    0  0.95169156462E+02  0.51430131012E+02  0.13977814342E+04  0.14019968490E+04  0.10000000000E+02 0.  1.
</event>
<event>
 5    1  0.1252319E-008  0.3697188E+03  0.7957747E-01  0.3497184E+00
         13   -1    0    0    0    0  0.00000000000E+00  0.00000000000E+00  0.14999999963E+04  0.15000000000E+04  0.10566000000E+00 0.  1.
        994   -1    0    0    0    0 -0.00000000000E+00 -0.00000000000E+00  0.11368683772E-12  0.17120000000E+03  0.17120000000E+03 0.  0.
         13    1    1    2    0    0 -0.62219896233E+02  0.61541658849E+02  0.28344760002E+03  0.29665003688E+03  0.10566000000E+00 0.  1.
        994    1    1    2    0    0  0.57436533342E+02 -0.66494850621E+02  0.38264130272E+02  0.19619914421E+03  0.17120000000E+03 0.  0.
        998    1    1    2    0    0  0.47833628911E+01  0.49531917719E+01  0.11782882660E+04  0.11783508189E+04  0.10000000000E+02 0.  1.
</event>
<event>
 5    1  0.1252319E-008  0.3850956E+03  0.7957747E-01  0.3429267E+00
         13   -1    0    0    0    0  0.00000000000E+00  0.00000000000E+00  0.14999999963E+04  0.15000000000E+04  0.10566000000E+00 0.  1.
        994   -1    0    0    0    0 -0.00000000000E+00 -0.00000000000E+00  0.11368683772E-12  0.17120000000E+03  0.17120000000E+03 0.  0.
         13    1    1    2    0    0  0.13993620956E+02  0.11463828306E+02  0.10176917908E+03  0.10336448985E+03  0.10566000000E+00 0.  1.
        994    1    1    2    0    0 -0.75216771125E+01 -0.12429443553E+02  0.22768735884E+01  0.17183041304E+03  0.17120000000E+03 0.  0.
        998    1    1    2    0    0 -0.64719438432E+01  0.96561524689E+00  0.13959539436E+04  0.13960050971E+04  0.10000000000E+02 0.  1.
</event>
<event>
 5    1  0.1252319E-008  0.3837774E+03  0.7957747E-01  0.3434874E+00
         13   -1    0    0    0    0  0.00000000000E+00  0.00000000000E+00  0.14999999963E+04  0.15000000000E+04  0.10566000000E+00 0.  1.
        994   -1    0    0    0    0 -0.00000000000E+00 -0.00000000000E+00  0.11368683772E-12  0.17120000000E+03  0.17120000000E+03 0.  0.
         13    1    1    2    0    0 -0.18683043540E+02  0.15692588496E+02  0.14475188634E+03  0.14679384596E+03  0.10566000000E+00 0.  1.
        994    1    1    2    0    0 -0.35060558485E+01 -0.11019146674E+02  0.26799883956E+01  0.17161100302E+03  0.17120000000E+03 0.  0.
        998    1    1    2    0    0  0.22189099388E+02 -0.46734418219E+01  0.13525681215E+04  0.13527951510E+04  0.10000000000E+02 0.  1.
</event>
<event>
 5    1  0.1252319E-008  0.3826366E+03  0.7957747E-01  0.3439758E+00
         13   -1    0    0    0    0  0.00000000000E+00  0.00000000000E+00  0.14999999963E+04  0.15000000000E+04  0.10566000000E+00 0.  1.
        994   -1    0    0    0    0 -0.00000000000E+00 -0.00000000000E+00  0.11368683772E-12  0.17120000000E+03  0.17120000000E+03 0.  0.
         13    1    1    2    0    0  0.13846609258E+02  0.69506667598E+01  0.42633882366E+02  0.45361872161E+02  0.10566000000E+00 0.  1.
        994    1    1    2    0    0 -0.70645719548E+01  0.15132300295E+01  0.29811137795E+01  0.17137830983E+03  0.17120000000E+03 0.  0.
        998    1    1    2    0    0 -0.67820373036E+01 -0.84638967893E+01  0.14543850001E+04  0.14544598180E+04  0.10000000000E+02 0.  1.
</event>
<event>
 5    1  0.1252319E-008  0.3769585E+03  0.7957747E-01  0.3464510E+00
         13   -1    0    0    0    0  0.00000000000E+00  0.00000000000E+00  0.14999999963E+04  0.15000000000E+04  0.10566000000E+00 0. -1.
        994   -1    0    0    0    0 -0.00000000000E+00 -0.00000000000E+00  0.11368683772E-12  0.17120000000E+03  0.17120000000E+03 0.  0.
         13    1    1    2    0    0 -0.10054864464E+02 -0.50460774725E+02  0.23088655804E+03  0.23655021441E+03  0.10566000000E+00 0. -1.
        994    1    1    2    0    0  0.23961032000E+02  0.26045476768E+02  0.99176198899E+01  0.17510081981E+03  0.17120000000E+03 0.  0.
        998    1    1    2    0    0 -0.13906167536E+02  0.24415297957E+02  0.12591958183E+04  0.12595489658E+04  0.10000000000E+02 0. -1.
</event>
<event>
 5    1  0.1252319E-008  0.3829454E+03  0.7957747E-01  0.3438433E+00
         13   -1    0    0    0    0  0.00000000000E+00  0.00000000000E+00  0.14999999963E+04  0.15000000000E+04  0.10566000000E+00 0. -1.
        994   -1    0    0    0    0 -0.00000000000E+00 -0.00000000000E+00  0.11368683772E-12  0.17120000000E+03  0.17120000000E+03 0.  0.
         13    1    1    2    0    0 -0.11739287479E+02 -0.10523842255E+02  0.45761597976E+02  0.48401416711E+02  0.10566000000E+00 0. -1.
        994    1    1    2    0    0  0.12375844431E+02  0.38040605897E+01  0.32088381719E+01  0.17171886630E+03  0.17120000000E+03 0.  0.
        998    1    1    2    0    0 -0.63655695131E+00  0.67197816651E+01  0.14510295601E+04  0.14510797170E+04  0.10000000000E+02 0. -1.
</event>
<event>
 5    1  0.1252319E-008  0.3742103E+03  0.7957747E-01  0.3476762E+00
         13   -1    0    0    0    0  0.00000000000E+00  0.00000000000E+00  0.14999999963E+04  0.15000000000E+04  0.10566000000E+00 0.  1.
        994   -1    0    0    0    0 -0.00000000000E+00 -0.00000000000E+00  0.11368683772E-12  0.17120000000E+03  0.17120000000E+03 0.  0.
         13    1    1    2    0    0 -0.21118478876E+02  0.15871983818E+02  0.44679777542E+02  0.51905719392E+02  0.10566000000E+00 0.  1.
        994    1    1    2    0    0  0.21340817447E+02 -0.22586823404E+02  0.10382900649E+02  0.17430674028E+03  0.17120000000E+03 0.  0.
        998    1    1    2    0    0 -0.22233857121E+00  0.67148395860E+01  0.14449373181E+04  0.14449875403E+04  0.10000000000E+02 0.  1.
</event>
<event>
 5    1  0.1252319E-008  0.3769304E+03  0.7957747E-01  0.3464634E+00
         13   -1    0    0    0    0  0.00000000000E+00  0.00000000000E+00  0.14999999963E+04  0.15000000000E+04  0.10566000000E+00 0. -1.
        994   -1    0    0    0    0 -0.00000000000E+00 -0.00000000000E+00  0.11368683772E-12  0.17120000000E+03  0.17120000000E+03 0.  0.
         13    1    1    2    0    0 -0.13706114690E+02  0.31589379961E+00  0.13907884794E+02  0.19529408395E+02  0.10566000000E+00 0. -1.
        994    1    1    2    0    0  0.13119855773E+02  0.15666682826E+01  0.62805736955E+01  0.17182395255E+03  0.17120000000E+03 0.  0.
        998    1    1    2    0    0  0.58625891682E+00 -0.18825620822E+01  0.14798115378E+04  0.14798466391E+04  0.10000000000E+02 0. -1.
</event>
<event>
 5    1  0.1252319E-008  0.3792323E+03  0.7957747E-01  0.3454508E+00
         13   -1    0    0    0    0  0.00000000000E+00  0.00000000000E+00  0.14999999963E+04  0.15000000000E+04  0.10566000000E+00 0.  1.
        994   -1    0    0    0    0 -0.00000000000E+00 -0.00000000000E+00  0.11368683772E-12  0.17120000000E+03  0.17120000000E+03 0.  0.
         13    1    1    2    0    0 -0.10686347997E+02 -0.48211914313E+01  0.13179729399E+02  0.17639681159E+02  0.10566000000E+00 0.  1.
        994    1    1    2    0    0  0.90914185682E+01  0.38194712517E+01  0.48471406444E+01  0.17155225742E+03  0.17120000000E+03 0.  0.
        998    1    1    2    0    0  0.15949294291E+01  0.10017201796E+01  0.14819731262E+04  0.14820080614E+04  0.10000000000E+02 0.  1.
</event>
<event>
 5    1  0.1252319E-008  0.3729037E+03  0.7957747E-01  0.3482652E+00
         13   -1    0    0    0    0  0.00000000000E+00  0.00000000000E+00  0.14999999963E+04  0.15000000000E+04  0.10566000000E+00 0. -1.
        994   -1    0    0    0    0 -0.00000000000E+00 -0.00000000000E+00  0.11368683772E-12  0.17120000000E+03  0.17120000000E+03 0.  0.
         13    1    1    2    0    0 -0.20350334231E+02 -0.65603618268E+01  0.12758916400E+02  0.24899308471E+02  0.10566000000E+00 0. -1.
        994    1    1    2    0    0  0.18744489619E+02  0.74623396638E+01  0.13921384918E+02  0.17294590878E+03  0.17120000000E+03 0.  0.
        998    1    1    2    0    0  0.16058446123E+01 -0.90197783706E+00  0.14733196950E+04  0.14733547828E+04  0.10000000000E+02 0. -1.
</event>
<event>
 5    1  0.1252319E-008  0.3766012E+03  0.7957747E-01  0.3466092E+00
         13   -1    0    0    0    0  0.00000000000E+00  0.00000000000E+00  0.14999999963E+04  0.15000000000E+04  0.10566000000E+00 0.  1.
        994   -1    0    0    0    0 -0.00000000000E+00 -0.00000000000E+00  0.11368683772E-12  0.17120000000E+03  0.17120000000E+03 0.  0.
         13    1    1    2    0    0 -0.10828924430E+02 -0.79429924789E+01  0.12531285776E+02  0.18368479008E+02  0.10566000000E+00 0.  1.
        994    1    1    2    0    0  0.13459595448E+02  0.13361982871E+02  0.70758250846E+01  0.17239260598E+03  0.17120000000E+03 0.  0.
        998    1    1    2    0    0 -0.26306710180E+01 -0.54189903920E+01  0.14803928854E+04  0.14804389150E+04  0.10000000000E+02 0.  1.
</event>
<event>
 5    1  0.1252319E-008  0.3850807E+03  0.7957747E-01  0.3429330E+00
         13   -1    0    0    0    0  0.00000000000E+00  0.00000000000E+00  0.14999999963E+04  0.15000000000E+04  0.10566000000E+00 0. -1.
        994   -1    0    0    0    0 -0.00000000000E+00 -0.00000000000E+00  0.11368683772E-12  0.17120000000E+03  0.17120000000E+03 0.  0.
         13    1    1    2    0    0 -0.10479557782E+02 -0.16553276292E+02  0.11253137147E+03  0.11422413412E+03  0.10566000000E+00 0. -1.
        994    1    1    2    0    0  0.86858758268E+01  0.19213482300E+02  0.30532128587E+01  0.17252062036E+03  0.17120000000E+03 0.  0.
        998    1    1    2    0    0  0.17936819550E+01 -0.26602060075E+01  0.13844154119E+04  0.13844552455E+04  0.10000000000E+02 0. -1.
</event>
<event>
 5    1  0.1327967E-008  0.3853267E+03  0.7957747E-01  0.3428288E+00
         13   -1    0    0    0    0  0.00000000000E+00  0.00000000000E+00  0.14999999963E+04  0.15000000000E+04  0.10566000000E+00 0.  1.
        994   -1    0    0    0    0 -0.00000000000E+00 -0.00000000000E+00  0.11368683772E-12  0.17120000000E+03  0.17120000000E+03 0.  0.
         13    1    1    2    0    0 -0.91062600041E+01 -0.52552063510E+01  0.37480755915E+02  0.38927617356E+02  0.10566000000E+00 0.  1.
        994    1    1    2    0    0  0.80689456004E+01  0.20214010971E+01  0.16953826167E+01  0.17141035053E+03  0.17120000000E+03 0.  0.
        998    1    1    2    0    0  0.10373144038E+01  0.32338052538E+01  0.14608238577E+04  0.14608620321E+04  0.10000000000E+02 0.  1.
</event>
<event>
 5    1  0.1252319E-008  0.3814885E+03  0.7957747E-01  0.3444703E+00
         13   -1    0    0    0    0  0.00000000000E+00  0.00000000000E+00  0.14999999963E+04  0.15000000000E+04  0.10566000000E+00 0. -1.
        994   -1    0    0    0    0 -0.00000000000E+00 -0.00000000000E+00  0.11368683772E-12  0.17120000000E+03  0.17120000000E+03 0.  0.
         13    1    1    2    0    0 -0.28937608538E+02 -0.56221343641E+01  0.11674756667E+03  0.12041178958E+03  0.10566000000E+00 0. -1.
        994    1    1    2    0    0  0.30779248122E+02  0.10224266132E+02  0.68907205793E+01  0.17438124831E+03  0.17120000000E+03 0.  0.
        998    1    1    2    0    0 -0.18416395835E+01 -0.46021317676E+01  0.13763617090E+04  0.13764069621E+04  0.10000000000E+02 0. -1.
</event>
<event>
 5    1  0.1252319E-008  0.3753945E+03  0.7957747E-01  0.3471461E+00
         13   -1    0    0    0    0  0.00000000000E+00  0.00000000000E+00  0.14999999963E+04  0.15000000000E+04  0.10566000000E+00 0. -1.
        994   -1    0    0    0    0 -0.00000000000E+00 -0.00000000000E+00  0.11368683772E-12  0.17120000000E+03  0.17120000000E+03 0.  0.
         13    1    1    2    0    0 -0.29525605461E+02  0.11729032036E+02  0.79580129996E+02  0.85687454301E+02  0.10566000000E+00 0. -1.
        994    1    1    2    0    0  0.88707272777E+01  0.46865889177E+01  0.68180703309E+01  0.17162919332E+03  0.17120000000E+03 0.  0.
        998    1    1    2    0    0  0.20654878184E+02 -0.16415620954E+02  0.14136017960E+04  0.14138833524E+04  0.10000000000E+02 0. -1.
</event>
<event>
 5    1  0.1252319E-008  0.3822813E+03  0.7957747E-01  0.3441285E+00
         13   -1    0    0    0    0  0.00000000000E+00  0.00000000000E+00  0.14999999963E+04  0.15000000000E+04  0.10566000000E+00 0. -1.
        994   -1    0    0    0    0 -0.00000000000E+00 -0.00000000000E+00  0.11368683772E-12  0.17120000000E+03  0.17120000000E+03 0.  0.
         13    1    1    2    0    0 -0.11634947087E+02  0.47442073743E+01  0.24760545274E+02  0.27766441321E+02  0.10566000000E+00 0. -1.
        994    1    1    2    0    0  0.14777029296E+02 -0.51688063735E+01  0.37995433468E+01  0.17195625515E+03  0.17120000000E+03 0.  0.
        998    1    1    2    0    0 -0.31420822093E+01  0.42459899920E+00  0.14714399077E+04  0.14714773035E+04  0.10000000000E+02 0. -1.
</event>
<event>
 5    1  0.1252319E-008  0.3837004E+03  0.7957747E-01  0.3435203E+00
         13   -1    0    0    0    0  0.00000000000E+00  0.00000000000E+00  0.14999999963E+04  0.15000000000E+04  0.10566000000E+00 0. -1.
        994   -1    0    0    0    0 -0.00000000000E+00 -0.00000000000E+00  0.11368683772E-12  0.17120000000E+03  0.17120000000E+03 0.  0.
         13    1    1    2    0    0  0.55933891248E+01  0.10576120144E+02  0.30447868926E+02  0.32714281367E+02  0.10566000000E+00 0. -1.
        994    1    1    2    0    0 -0.39639700546E+00 -0.12001577710E+02  0.27530895040E+01  0.17164269428E+03  0.17120000000E+03 0.  0.
        998    1    1    2    0    0 -0.51969921193E+01  0.14254575656E+01  0.14667990378E+04  0.14668430244E+04  0.10000000000E+02 0. -1.
</event>
<event>
 5    1  0.1252319E-008  0.3757290E+03  0.7957747E-01  0.3469969E+00
         13   -1    0    0    0    0  0.00000000000E+00  0.00000000000E+00  0.14999999963E+04  0.15000000000E+04  0.10566000000E+00 0.  1.
        994   -1    0    0    0    0 -0.00000000000E+00 -0.00000000000E+00  0.11368683772E-12  0.17120000000E+03  0.17120000000E+03 0.  0.
         13    1    1    2    0    0 -0.38337124979E+02  0.10669355889E+02  0.13592749416E+03  0.14163285331E+03  0.10566000000E+00 0.  1.
        994    1    1    2    0    0  0.46219136516E+01 -0.81649828461E+00  0.63795673670E+01  0.17138310195E+03  0.17120000000E+03 0.  0.
        998    1    1    2    0    0  0.33715211327E+02 -0.98528576047E+01  0.13576929348E+04  0.13581840447E+04  0.10000000000E+02 0.  1.
</event>
<event>
 5    1  0.1252319E-008  0.3753918E+03  0.7957747E-01  0.3471473E+00
         13   -1    0    0    0    0  0.00000000000E+00  0.00000000000E+00  0.14999999963E+04  0.15000000000E+04  0.10566000000E+00 0. -1.
        994   -1    0    0    0    0 -0.00000000000E+00 -0.00000000000E+00  0.11368683772E-12  0.17120000000E+03  0.17120000000E+03 0.  0.
         13    1    1    2    0    0 -0.24993410670E+01 -0.37947148212E+02  0.10315590685E+03  0.10994264435E+03  0.10566000000E+00 0. -1.
        994    1    1    2    0    0  0.33469802029E+01  0.36501490886E+02  0.11052316174E+02  0.17542848915E+03  0.17120000000E+03 0.  0.
        998    1    1    2    0    0 -0.84763913589E+00  0.14456573263E+01  0.13857917733E+04  0.13858288665E+04  0.10000000000E+02 0. -1.
</event>
<event>
 5    1  0.1252319E-008  0.3696692E+03  0.7957747E-01  0.3497413E+00
         13   -1    0    0    0    0  0.00000000000E+00  0.00000000000E+00  0.14999999963E+04  0.15000000000E+04  0.10566000000E+00 0.  1.
        994   -1    0    0    0    0 -0.00000000000E+00 -0.00000000000E+00  0.11368683772E-12  0.17120000000E+03  0.17120000000E+03 0.  0.
         13    1    1    2    0    0 -0.11251433602E+02  0.20744526654E+02  0.20963254881E+02  0.31565794199E+02  0.10566000000E+00 0.  1.
        994    1    1    2    0    0 -0.33360875908E+02 -0.42751965190E+02  0.21104214092E+02  0.18081898800E+03  0.17120000000E+03 0.  0.
        998    1    1    2    0    0  0.44612309510E+02  0.22007438537E+02  0.14579325273E+04  0.14588152178E+04  0.10000000000E+02 0.  1.
</event>
<event>
 5    1  0.1252319E-008  0.3852578E+03  0.7957747E-01  0.3428580E+00
         13   -1    0    0    0    0  0.00000000000E+00  0.00000000000E+00  0.14999999963E+04  0.15000000000E+04  0.10566000000E+00 0.  1.
        994   -1    0    0    0    0 -0.00000000000E+00 -0.00000000000E+00  0.11368683772E-12  0.17120000000E+03  0.17120000000E+03 0.  0.
         13    1    1    2    0    0  0.15352462318E+02 -0.73503347190E+01  0.90903386777E+02  0.92483308825E+02  0.10566000000E+00 0.  1.
        994    1    1    2    0    0 -0.14154912953E+02  0.14547030735E+02  0.28570781768E+01  0.17242267995E+03  0.17120000000E+03 0.  0.
        998    1    1    2    0    0 -0.11975493658E+01 -0.71966960163E+01  0.14062395313E+04  0.14062940112E+04  0.10000000000E+02 0.  1.
</event>
<event>
 5    1  0.1252319E-008  0.3715184E+03  0.7957747E-01  0.3488942E+00
         13   -1    0    0    0    0  0.00000000000E+00  0.00000000000E+00  0.14999999963E+04  0.15000000000E+04  0.10566000000E+00 0.  1.
        994   -1    0    0    0    0 -0.00000000000E+00 -0.00000000000E+00  0.11368683772E-12  0.17120000000E+03  0.17120000000E+03 0.  0.
         13    1    1    2    0    0  0.10633690118E+03  0.47195660527E+02  0.48370219881E+03  0.49749652785E+03  0.10566000000E+00 0.  1.
        994    1    1    2    0    0 -0.11362529016E+03 -0.49253559887E+02  0.63231306972E+02  0.22055443298E+03  0.17120000000E+03 0.  0.
        998    1    1    2    0    0  0.72883889741E+01  0.20578993605E+01  0.95306649049E+03  0.95314903917E+03  0.10000000000E+02 0.  1.
</event>
<event>
 5    1  0.1252319E-008  0.3795504E+03  0.7957747E-01  0.3453119E+00
         13   -1    0    0    0    0  0.00000000000E+00  0.00000000000E+00  0.14999999963E+04  0.15000000000E+04  0.10566000000E+00 0.  1.
        994   -1    0    0    0    0 -0.00000000000E+00 -0.00000000000E+00  0.11368683772E-12  0.17120000000E+03  0.17120000000E+03 0.  0.
         13    1    1    2    0    0 -0.13831529081E+02 -0.89696651796E+01  0.28627718035E+02  0.33035185697E+02  0.10566000000E+00 0.  1.
        994    1    1    2    0    0  0.22427783642E+02  0.27373479576E+01  0.60712534747E+01  0.17279119964E+03  0.17120000000E+03 0.  0.
        998    1    1    2    0    0 -0.85962545610E+01  0.62323172220E+01  0.14653010248E+04  0.14653736147E+04  0.10000000000E+02 0.  1.
</event>
<event>
 5    1  0.1252319E-008  0.3853513E+03  0.7957747E-01  0.3428184E+00
         13   -1    0    0    0    0  0.00000000000E+00  0.00000000000E+00  0.14999999963E+04  0.15000000000E+04  0.10566000000E+00 0. -1.
        994   -1    0    0    0    0 -0.00000000000E+00 -0.00000000000E+00  0.11368683772E-12  0.17120000000E+03  0.17120000000E+03 0.  0.
         13    1    1    2    0    0 -0.11577398242E+02 -0.62936935526E+01  0.59399496971E+02  0.60843718928E+02  0.10566000000E+00 0. -1.
        994    1    1    2    0    0  0.84651461779E+01  0.51728163474E+01  0.17791914906E+01  0.17149642052E+03  0.17120000000E+03 0.  0.
        998    1    1    2    0    0  0.31122520642E+01  0.11208772052E+01  0.14388213078E+04  0.14388598606E+04  0.10000000000E+02 0. -1.
</event>
<event>
 5    1  0.1252319E-008  0.3830623E+03  0.7957747E-01  0.3437932E+00
         13   -1    0    0    0    0  0.00000000000E+00  0.00000000000E+00  0.14999999963E+04  0.15000000000E+04  0.10566000000E+00 0.  1.
        994   -1    0    0    0    0 -0.00000000000E+00 -0.00000000000E+00  0.11368683772E-12  0.17120000000E+03  0.17120000000E+03 0.  0.
         13    1    1    2    0    0 -0.33506735521E+02  0.33137999670E+01  0.19424405785E+03  0.19714068015E+03  0.10566000000E+00 0.  1.
        994    1    1    2    0    0  0.32547285246E+02 -0.16779133578E+01  0.61182807083E+01  0.17438180676E+03  0.17120000000E+03 0.  0.
        998    1    1    2    0    0  0.95945027545E+00 -0.16358866092E+01  0.12996376577E+04  0.12996775131E+04  0.10000000000E+02 0.  1.
</event>
<event>
 5    1  0.1252319E-008  0.3836225E+03  0.7957747E-01  0.3435536E+00
         13   -1    0    0    0    0  0.00000000000E+00  0.00000000000E+00  0.14999999963E+04  0.15000000000E+04  0.10566000000E+00 0. -1.
        994   -1    0    0    0    0 -0.00000000000E+00 -0.00000000000E+00  0.11368683772E-12  0.17120000000E+03  0.17120000000E+03 0.  0.
         13    1    1    2    0    0 -0.29798711421E+02 -0.36427000695E+01  0.17339595909E+03  0.17597557290E+03  0.10566000000E+00 0. -1.
        994    1    1    2    0    0  0.30438825666E+02  0.32385904997E+01  0.54170831424E+01  0.17399941197E+03  0.17120000000E+03 0.  0.
        998    1    1    2    0    0 -0.64011424420E+00  0.40410956986E+00  0.13211869540E+04  0.13212250151E+04  0.10000000000E+02 0.  0.
</event>
<event>
 5    1  0.1252319E-008  0.3722269E+03  0.7957747E-01  0.3485719E+00
         13   -1    0    0    0    0  0.00000000000E+00  0.00000000000E+00  0.14999999963E+04  0.15000000000E+04  0.10566000000E+00 0.  1.
        994   -1    0    0    0    0 -0.00000000000E+00 -0.00000000000E+00  0.11368683772E-12  0.17120000000E+03  0.17120000000E+03 0.  0.
         13    1    1    2    0    0 -0.78737124774E+02  0.84973848384E+02  0.54352947128E+03  0.55573769625E+03  0.10566000000E+00 0.  1.
        994    1    1    2    0    0  0.65682113412E+02 -0.89333531745E+02  0.51552935853E+02  0.21038480247E+03  0.17120000000E+03 0.  0.
        998    1    1    2    0    0  0.13055011362E+02  0.43596833612E+01  0.90491758915E+03  0.90507750127E+03  0.10000000000E+02 0.  1.
</event>
<event>
 5    1  0.1252319E-008  0.3834014E+03  0.7957747E-01  0.3436481E+00
         13   -1    0    0    0    0  0.00000000000E+00  0.00000000000E+00  0.14999999963E+04  0.15000000000E+04  0.10566000000E+00 0. -1.
        994   -1    0    0    0    0 -0.00000000000E+00 -0.00000000000E+00  0.11368683772E-12  0.17120000000E+03  0.17120000000E+03 0.  0.
         13    1    1    2    0    0  0.17956068967E+02 -0.20050405253E+01  0.67329127046E+02  0.69711283973E+02  0.10566000000E+00 0. -1.
        994    1    1    2    0    0 -0.85261131179E+01  0.12910284629E+02  0.32176141608E+01  0.17192778453E+03  0.17120000000E+03 0.  0.
        998    1    1    2    0    0 -0.94299558486E+01 -0.10905244104E+02  0.14294532551E+04  0.14295609315E+04  0.10000000000E+02 0. -1.
</event>
<event>
 5    1  0.1252319E-008  0.3833400E+03  0.7957747E-01  0.3436743E+00
         13   -1    0    0    0    0  0.00000000000E+00  0.00000000000E+00  0.14999999963E+04  0.15000000000E+04  0.10566000000E+00 0. -1.
        994   -1    0    0    0    0 -0.00000000000E+00 -0.00000000000E+00  0.11368683772E-12  0.17120000000E+03  0.17120000000E+03 0.  0.
         13    1    1    2    0    0 -0.58642290188E+01  0.26332292793E+02  0.14941653961E+03  0.15183244811E+03  0.10566000000E+00 0. -1.
        994    1    1    2    0    0  0.33195534481E+01 -0.14147558471E+02  0.31551079672E+01  0.17184460292E+03  0.17120000000E+03 0.  0.
        998    1    1    2    0    0  0.25446755708E+01 -0.12184734322E+02  0.13474283487E+04  0.13475229490E+04  0.10000000000E+02 0. -1.
</event>
<event>
 5    1  0.1252319E-008  0.3772637E+03  0.7957747E-01  0.3463160E+00
         13   -1    0    0    0    0  0.00000000000E+00  0.00000000000E+00  0.14999999963E+04  0.15000000000E+04  0.10566000000E+00 0.  1.
        994   -1    0    0    0    0 -0.00000000000E+00 -0.00000000000E+00  0.11368683772E-12  0.17120000000E+03  0.17120000000E+03 0.  0.
         13    1    1    2    0    0  0.17039245171E+02 -0.23041025095E+02  0.75198937513E+02  0.80474319385E+02  0.10566000000E+00 0.  1.
        994    1    1    2    0    0 -0.11051350817E+02  0.22351331518E+01  0.59498043873E+01  0.17167401768E+03  0.17120000000E+03 0.  0.
        998    1    1    2    0    0 -0.59878943541E+01  0.20805891943E+02  0.14188512544E+04  0.14190516629E+04  0.10000000000E+02 0.  1.
</event>
<event>
 5    1  0.1252319E-008  0.3763338E+03  0.7957747E-01  0.3467279E+00
         13   -1    0    0    0    0  0.00000000000E+00  0.00000000000E+00  0.14999999963E+04  0.15000000000E+04  0.10566000000E+00 0. -1.
        994   -1    0    0    0    0 -0.00000000000E+00 -0.00000000000E+00  0.11368683772E-12  0.17120000000E+03  0.17120000000E+03 0.  0.
         13    1    1    2    0    0  0.43878940773E+02  0.70488647927E+02  0.42969588408E+03  0.43764434749E+03  0.10566000000E+00 0. -1.
        994    1    1    2    0    0 -0.25654309585E+02 -0.76340421511E+02  0.28269372859E+02  0.19129715366E+03  0.17120000000E+03 0.  0.
        998    1    1    2    0    0 -0.18224631188E+02  0.58517735839E+01  0.10420347393E+04  0.10422584988E+04  0.10000000000E+02 0. -1.
</event>
<event>
 5    1  0.1252319E-008  0.3841046E+03  0.7957747E-01  0.3433479E+00
         13   -1    0    0    0    0  0.00000000000E+00  0.00000000000E+00  0.14999999963E+04  0.15000000000E+04  0.10566000000E+00 0. -1.
        994   -1    0    0    0    0 -0.00000000000E+00 -0.00000000000E+00  0.11368683772E-12  0.17120000000E+03  0.17120000000E+03 0.  0.
         13    1    1    2    0    0  0.86572844969E+01 -0.20308463888E+02  0.12911823924E+03  0.13099203468E+03  0.10566000000E+00 0. -1.
        994    1    1    2    0    0  0.78972735726E+01  0.52590052976E+01  0.23723176892E+01  0.17147912980E+03  0.17120000000E+03 0.  0.
        998    1    1    2    0    0 -0.16554558069E+02  0.15049458591E+02  0.13685094393E+04  0.13687288355E+04  0.10000000000E+02 0. -1.
</event>
<event>
 5    1  0.1252319E-008  0.3807290E+03  0.7957747E-01  0.3447990E+00
         13   -1    0    0    0    0  0.00000000000E+00  0.00000000000E+00  0.14999999963E+04  0.15000000000E+04  0.10566000000E+00 0. -1.
        994   -1    0    0    0    0 -0.00000000000E+00 -0.00000000000E+00  0.11368683772E-12  0.17120000000E+03  0.17120000000E+03 0.  0.
         13    1    1    2    0    0  0.24418730776E+02  0.57882698198E+01  0.79222404933E+02  0.83102220714E+02  0.10566000000E+00 0. -1.
        994    1    1    2    0    0 -0.22737169753E+02 -0.67151974001E+01  0.56422925873E+01  0.17292584604E+03  0.17120000000E+03 0.  0.
        998    1    1    2    0    0 -0.16815610231E+01  0.92692758024E+00  0.14151352988E+04  0.14151719332E+04  0.10000000000E+02 0. -1.
</event>
<event>
 5    1  0.1252319E-008  0.4005765E+03  0.7957747E-01  0.3366182E+00
         13   -1    0    0    0    0  0.00000000000E+00  0.00000000000E+00  0.14999999963E+04  0.15000000000E+04  0.10566000000E+00 0.  1.
        994   -1    0    0    0    0 -0.00000000000E+00 -0.00000000000E+00  0.11368683772E-12  0.17120000000E+03  0.17120000000E+03 0.  0.
         13    1    1    2    0    0  0.76834122723E+02 -0.67892751679E+02  0.18855041680E+03  0.21462567178E+03  0.10566000000E+00 0.  1.
        994    1    1    2    0    0 -0.45329605894E+02  0.30752526196E+02  0.39991643585E+02  0.18414467843E+03  0.17120000000E+03 0.  0.
        998    1    1    2    0    0 -0.31504516829E+02  0.37140225483E+02  0.12714579359E+04  0.12724296498E+04  0.10000000000E+02 0.  1.
</event>
<event>
 5    1  0.1252319E-008  0.3780185E+03  0.7957747E-01  0.3459832E+00
         13   -1    0    0    0    0  0.00000000000E+00  0.00000000000E+00  0.14999999963E+04  0.15000000000E+04  0.10566000000E+00 0.  1.
        994   -1    0    0    0    0 -0.00000000000E+00 -0.00000000000E+00  0.11368683772E-12  0.17120000000E+03  0.17120000000E+03 0.  0.
         13    1    1    2    0    0  0.30994961469E+02  0.92733595344E+02  0.42050184117E+03  0.43171983616E+03  0.10566000000E+00 0.  1.
        994    1    1    2    0    0 -0.35164786099E+02 -0.13636643665E+03  0.75068780519E+02  0.23404514316E+03  0.17120000000E+03 0.  0.
        998    1    1    2    0    0  0.41698246299E+01  0.43632841309E+02  0.10044293746E+04  0.10054350207E+04  0.10000000000E+02 0.  1.
</event>
<event>
 5    1  0.1252319E-008  0.3829737E+03  0.7957747E-01  0.3438312E+00
         13   -1    0    0    0    0  0.00000000000E+00  0.00000000000E+00  0.14999999963E+04  0.15000000000E+04  0.10566000000E+00 0. -1.
        994   -1    0    0    0    0 -0.00000000000E+00 -0.00000000000E+00  0.11368683772E-12  0.17120000000E+03  0.17120000000E+03 0.  0.
         13    1    1    2    0    0 -0.27288732234E+01 -0.11672679302E+03  0.48710700537E+03  0.50090501775E+03  0.10566000000E+00 0. -1.
        994    1    1    2    0    0 -0.42825314994E+01  0.32606574885E+02  0.21942567957E+02  0.17570556363E+03  0.17120000000E+03 0.  0.
        998    1    1    2    0    0  0.70114047228E+01  0.84120218132E+02  0.99095042295E+03  0.99458941862E+03  0.10000000000E+02 0. -1.
</event>
<event>
 5    1  0.1252319E-008  0.3777763E+03  0.7957747E-01  0.3460898E+00
         13   -1    0    0    0    0  0.00000000000E+00  0.00000000000E+00  0.14999999963E+04  0.15000000000E+04  0.10566000000E+00 0.  1.
        994   -1    0    0    0    0 -0.00000000000E+00 -0.00000000000E+00  0.11368683772E-12  0.17120000000E+03  0.17120000000E+03 0.  0.
         13    1    1    2    0    0 -0.54616472452E+01  0.27681990073E+02  0.84803098088E+02  0.89373926703E+02  0.10566000000E+00 0.  1.
        994    1    1    2    0    0 -0.17087143235E+02  0.11198238520E+02  0.66667145531E+01  0.17254349044E+03  0.17120000000E+03 0.  0.
        998    1    1    2    0    0  0.22548790480E+02 -0.38880228593E+02  0.14085301836E+04  0.14092825829E+04  0.10000000000E+02 0.  1.
</event>
<event>
 5    1  0.1252319E-008  0.3691416E+03  0.7957747E-01  0.3499845E+00
         13   -1    0    0    0    0  0.00000000000E+00  0.00000000000E+00  0.14999999963E+04  0.15000000000E+04  0.10566000000E+00 0. -1.
        994   -1    0    0    0    0 -0.00000000000E+00 -0.00000000000E+00  0.11368683772E-12  0.17120000000E+03  0.17120000000E+03 0.  0.
         13    1    1    2    0    0  0.64381073728E+01 -0.11184497897E+02  0.41283808172E+01  0.13549793797E+02  0.10566000000E+00 0. -1.
        994    1    1    2    0    0 -0.19397740471E+02 -0.30635745494E+01  0.11057019430E+02  0.17267702656E+03  0.17120000000E+03 0.  0.
        998    1    1    2    0    0  0.12959633098E+02  0.14248072446E+02  0.14848145960E+04  0.14849731796E+04  0.10000000000E+02 0. -1.
</event>
<event>
 5    1  0.1252319E-008  0.3744261E+03  0.7957747E-01  0.3475794E+00
         13   -1    0    0    0    0  0.00000000000E+00  0.00000000000E+00  0.14999999963E+04  0.15000000000E+04  0.10566000000E+00 0. -1.
        994   -1    0    0    0    0 -0.00000000000E+00 -0.00000000000E+00  0.11368683772E-12  0.17120000000E+03  0.17120000000E+03 0.  0.
         13    1    1    2    0    0  0.12488590946E+02  0.93168945298E+02  0.45709788636E+03  0.46666358991E+03  0.10566000000E+00 0. -1.
        994    1    1    2    0    0 -0.72352360483E+01 -0.88594814980E+02  0.34380210650E+02  0.19594088079E+03  0.17120000000E+03 0.  0.
        998    1    1    2    0    0 -0.52533548982E+01 -0.45741303181E+01  0.10085218993E+04  0.10085955293E+04  0.10000000000E+02 0.  0.
</event>
<event>
 5    1  0.1252319E-008  0.3710464E+03  0.7957747E-01  0.3491096E+00
         13   -1    0    0    0    0  0.00000000000E+00  0.00000000000E+00  0.14999999963E+04  0.15000000000E+04  0.10566000000E+00 0.  1.
        994   -1    0    0    0    0 -0.00000000000E+00 -0.00000000000E+00  0.11368683772E-12  0.17120000000E+03  0.17120000000E+03 0.  0.
         13    1    1    2    0    0 -0.35573704368E+01  0.22580473294E+02  0.17774437678E+02  0.28956423423E+02  0.10566000000E+00 0.  1.
        994    1    1    2    0    0  0.91951041632E+01 -0.16697817826E+02  0.12769194737E+02  0.17273059774E+03  0.17120000000E+03 0.  0.
        998    1    1    2    0    0 -0.56377337264E+01 -0.58826554688E+01  0.14694563639E+04  0.14695129788E+04  0.10000000000E+02 0.  1.
</event>
<event>
 5    1  0.1252319E-008  0.3726260E+03  0.7957747E-01  0.3483909E+00
         13   -1    0    0    0    0  0.00000000000E+00  0.00000000000E+00  0.14999999963E+04  0.15000000000E+04  0.10566000000E+00 0. -1.
        994   -1    0    0    0    0 -0.00000000000E+00 -0.00000000000E+00  0.11368683772E-12  0.17120000000E+03  0.17120000000E+03 0.  0.
         13    1    1    2    0    0 -0.12379344581E+02  0.20226687744E+02  0.33030237173E+02  0.40661711733E+02  0.10566000000E+00 0. -1.
        994    1    1    2    0    0  0.11835665699E+02 -0.26130569126E+01  0.84064772818E+01  0.17183428037E+03  0.17120000000E+03 0.  0.
        998    1    1    2    0    0  0.54367888137E+00 -0.17613630831E+02  0.14585632818E+04  0.14587040079E+04  0.10000000000E+02 0. -1.
</event>
<event>
 5    1  0.1252319E-008  0.3750082E+03  0.7957747E-01  0.3473186E+00
         13   -1    0    0    0    0  0.00000000000E+00  0.00000000000E+00  0.14999999963E+04  0.15000000000E+04  0.10566000000E+00 0.  1.
        994   -1    0    0    0    0 -0.00000000000E+00 -0.00000000000E+00  0.11368683772E-12  0.17120000000E+03  0.17120000000E+03 0.  0.
         13    1    1    2    0    0  0.17472964236E+02 -0.33780334561E+02  0.11118370255E+03  0.11750847782E+03  0.10566000000E+00 0.  1.
        994    1    1    2    0    0 -0.15315597592E+01  0.13208616121E+02  0.72757565467E+01  0.17186968857E+03  0.17120000000E+03 0.  0.
        998    1    1    2    0    0 -0.15941404477E+02  0.20571718440E+02  0.13815405372E+04  0.13818218336E+04  0.10000000000E+02 0.  1.
</event>
<event>
 5    1  0.1252319E-008  0.3808713E+03  0.7957747E-01  0.3447373E+00
         13   -1    0    0    0    0  0.00000000000E+00  0.00000000000E+00  0.14999999963E+04  0.15000000000E+04  0.10566000000E+00 0.  1.
        994   -1    0    0    0    0 -0.00000000000E+00 -0.00000000000E+00  0.11368683772E-12  0.17120000000E+03  0.17120000000E+03 0.  0.
         13    1    1    2    0    0  0.49671280401E+01 -0.25174579329E+02  0.12119975232E+02  0.28378456071E+02  0.10566000000E+00 0.  1.
        994    1    1    2    0    0 -0.19593492502E+02  0.25260320930E+02  0.20530592435E+02  0.17536514473E+03  0.17120000000E+03 0.  0.
        998    1    1    2    0    0  0.14626364462E+02 -0.85741600965E-01  0.14673494286E+04  0.14674563992E+04  0.10000000000E+02 0.  1.
</event>
<event>
 5    1  0.1252319E-008  0.3741413E+03  0.7957747E-01  0.3477072E+00
         13   -1    0    0    0    0  0.00000000000E+00  0.00000000000E+00  0.14999999963E+04  0.15000000000E+04  0.10566000000E+00 0. -1.
        994   -1    0    0    0    0 -0.00000000000E+00 -0.00000000000E+00  0.11368683772E-12  0.17120000000E+03  0.17120000000E+03 0.  0.
         13    1    1    2    0    0  0.23916278379E+02 -0.17385378697E+02  0.26958303546E+02  0.40012511269E+02  0.10566000000E+00 0. -1.
        994    1    1    2    0    0 -0.29722394092E+02  0.19454627327E+02  0.17635354730E+02  0.17573374454E+03  0.17120000000E+03 0.  0.
        998    1    1    2    0    0  0.58061157133E+01 -0.20692486302E+01  0.14554063380E+04  0.14554537442E+04  0.10000000000E+02 0. -1.
</event>
<event>
 5    1  0.1252319E-008  0.3812999E+03  0.7957747E-01  0.3445518E+00
         13   -1    0    0    0    0  0.00000000000E+00  0.00000000000E+00  0.14999999963E+04  0.15000000000E+04  0.10566000000E+00 0.  1.
        994   -1    0    0    0    0 -0.00000000000E+00 -0.00000000000E+00  0.11368683772E-12  0.17120000000E+03  0.17120000000E+03 0.  0.
         13    1    1    2    0    0 -0.14957248422E+03  0.15016698843E+03  0.90678546780E+03  0.93122604572E+03  0.10566000000E+00 0.  1.
        994    1    1    2    0    0  0.17069943134E+03 -0.16192226694E+03  0.21732724456E+03  0.36317721242E+03  0.17120000000E+03 0.  0.
        998    1    1    2    0    0 -0.21126947116E+02  0.11755278507E+02  0.37588728392E+03  0.37679674186E+03  0.10000000000E+02 0.  1.
</event>
<event>
 5    1  0.1252319E-008  0.3790925E+03  0.7957747E-01  0.3455119E+00
         13   -1    0    0    0    0  0.00000000000E+00  0.00000000000E+00  0.14999999963E+04  0.15000000000E+04  0.10566000000E+00 0. -1.
        994   -1    0    0    0    0 -0.00000000000E+00 -0.00000000000E+00  0.11368683772E-12  0.17120000000E+03  0.17120000000E+03 0.  0.
         13    1    1    2    0    0  0.32887903222E+01 -0.14897727989E+02  0.23287127795E+02  0.27839898096E+02  0.10566000000E+00 0. -1.
        994    1    1    2    0    0  0.31603668725E+00  0.13383104917E+02  0.51930306736E+01  0.17180109122E+03  0.17120000000E+03 0.  0.
        998    1    1    2    0    0 -0.36048270095E+01  0.15146230714E+01  0.14715198378E+04  0.14715590107E+04  0.10000000000E+02 0. -1.
</event>
<event>
 5    1  0.1690426E-008  0.3851714E+03  0.7957747E-01  0.3428946E+00
         13   -1    0    0    0    0  0.00000000000E+00  0.00000000000E+00  0.14999999963E+04  0.15000000000E+04  0.10566000000E+00 0. -1.
        994   -1    0    0    0    0 -0.00000000000E+00 -0.00000000000E+00  0.11368683772E-12  0.17120000000E+03  0.17120000000E+03 0.  0.
         13    1    1    2    0    0 -0.22596501945E-01  0.10670024903E+02  0.36376587449E+02  0.37909328938E+02  0.10566000000E+00 0. -1.
        994    1    1    2    0    0  0.19946272985E+01 -0.93461900386E+01  0.18453281234E+01  0.17147645623E+03  0.17120000000E+03 0.  0.
        998    1    1    2    0    0 -0.19720307965E+01 -0.13238348644E+01  0.14617780807E+04  0.14618142148E+04  0.10000000000E+02 0. -1.
</event>
<event>
 5    1  0.1252319E-008  0.3897264E+03  0.7957747E-01  0.3409871E+00
         13   -1    0    0    0    0  0.00000000000E+00  0.00000000000E+00  0.14999999963E+04  0.15000000000E+04  0.10566000000E+00 0. -1.
        994   -1    0    0    0    0 -0.00000000000E+00 -0.00000000000E+00  0.11368683772E-12  0.17120000000E+03  0.17120000000E+03 0.  0.
         13    1    1    2    0    0 -0.44716504727E+02  0.43687853443E+02  0.71481757658E+02  0.94962346092E+02  0.10566000000E+00 0. -1.
        994    1    1    2    0    0  0.69471693679E+02 -0.63238925555E+02  0.55768006688E+02  0.20308862228E+03  0.17120000000E+03 0.  0.
        998    1    1    2    0    0 -0.24755188952E+02  0.19551072112E+02  0.13727502319E+04  0.13731490316E+04  0.10000000000E+02 0. -1.
</event>
<event>
 5    1  0.1252319E-008  0.3821171E+03  0.7957747E-01  0.3441992E+00
         13   -1    0    0    0    0  0.00000000000E+00  0.00000000000E+00  0.14999999963E+04  0.15000000000E+04  0.10566000000E+00 0.  1.
        994   -1    0    0    0    0 -0.00000000000E+00 -0.00000000000E+00  0.11368683772E-12  0.17120000000E+03  0.17120000000E+03 0.  0.
         13    1    1    2    0    0 -0.16334446401E+02 -0.93349196549E+01  0.55835242262E+02  0.58919778569E+02  0.10566000000E+00 0.  1.
        994    1    1    2    0    0  0.13264648491E+02  0.81174457464E+01  0.38714914051E+01  0.17194845818E+03  0.17120000000E+03 0.  0.
        998    1    1    2    0    0  0.30697979097E+01  0.12174739085E+01  0.14402932626E+04  0.14403317632E+04  0.10000000000E+02 0.  1.
</event>
<event>
 5    1  0.1252319E-008  0.3850539E+03  0.7957747E-01  0.3429444E+00
         13   -1    0    0    0    0  0.00000000000E+00  0.00000000000E+00  0.14999999963E+04  0.15000000000E+04  0.10566000000E+00 0. -1.
        994   -1    0    0    0    0 -0.00000000000E+00 -0.00000000000E+00  0.11368683772E-12  0.17120000000E+03  0.17120000000E+03 0.  0.
         13    1    1    2    0    0  0.73602886289E+02 -0.36089315308E+02  0.15935563978E+03  0.17920394706E+03  0.10566000000E+00 0. -1.
        994    1    1    2    0    0 -0.66751267367E+02  0.22791345102E+02  0.37740753770E+02  0.18896820262E+03  0.17120000000E+03 0.  0.
        998    1    1    2    0    0 -0.68516189222E+01  0.13297970206E+02  0.13029036027E+04  0.13030278503E+04  0.10000000000E+02 0. -1.
</event>
<event>
 5    1  0.1252319E-008  0.3744743E+03  0.7957747E-01  0.3475577E+00
         13   -1    0    0    0    0  0.00000000000E+00  0.00000000000E+00  0.14999999963E+04  0.15000000000E+04  0.10566000000E+00 0.  1.
        994   -1    0    0    0    0 -0.00000000000E+00 -0.00000000000E+00  0.11368683772E-12  0.17120000000E+03  0.17120000000E+03 0.  0.
         13    1    1    2    0    0  0.14519996836E+01  0.14222398001E+03  0.71804995641E+03  0.73200103816E+03  0.10566000000E+00 0.  1.
        994    1    1    2    0    0 -0.39011349578E+01 -0.14042487591E+03  0.77434428377E+02  0.23460582969E+03  0.17120000000E+03 0.  0.
        998    1    1    2    0    0  0.24491352743E+01 -0.17991040996E+01  0.70451561149E+03  0.70459313215E+03  0.10000000000E+02 0.  0.
</event>
<event>
 5    1  0.1252319E-008  0.3814637E+03  0.7957747E-01  0.3444810E+00
         13   -1    0    0    0    0  0.00000000000E+00  0.00000000000E+00  0.14999999963E+04  0.15000000000E+04  0.10566000000E+00 0.  1.
        994   -1    0    0    0    0 -0.00000000000E+00 -0.00000000000E+00  0.11368683772E-12  0.17120000000E+03  0.17120000000E+03 0.  0.
         13    1    1    2    0    0 -0.24100979541E+02 -0.44330908717E-01  0.94625189106E+02  0.97646283889E+02  0.10566000000E+00 0.  1.
        994    1    1    2    0    0 -0.55817614383E+01  0.12263588358E+02  0.40003432480E+01  0.17177600067E+03  0.17120000000E+03 0.  0.
        998    1    1    2    0    0  0.29682740979E+02 -0.12219257449E+02  0.14013744639E+04  0.14017777154E+04  0.10000000000E+02 0.  1.
</event>
<event>
 5    1  0.1252319E-008  0.3798403E+03  0.7957747E-01  0.3451854E+00
         13   -1    0    0    0    0  0.00000000000E+00  0.00000000000E+00  0.14999999963E+04  0.15000000000E+04  0.10566000000E+00 0.  1.
        994   -1    0    0    0    0 -0.00000000000E+00 -0.00000000000E+00  0.11368683772E-12  0.17120000000E+03  0.17120000000E+03 0.  0.
         13    1    1    2    0    0  0.21040631122E+01 -0.21963154477E+02  0.54868236452E+02  0.59138327432E+02  0.10566000000E+00 0.  1.
        994    1    1    2    0    0 -0.62222666968E+00  0.20508660412E+02  0.56231348666E+01  0.17251681647E+03  0.17120000000E+03 0.  0.
        998    1    1    2    0    0 -0.14818364426E+01  0.14544940648E+01  0.14395086250E+04  0.14395448561E+04  0.10000000000E+02 0.  1.
</event>
<event>
 5    1  0.1252319E-008  0.3773614E+03  0.7957747E-01  0.3462729E+00
         13   -1    0    0    0    0  0.00000000000E+00  0.00000000000E+00  0.14999999963E+04  0.15000000000E+04  0.10566000000E+00 0. -1.
        994   -1    0    0    0    0 -0.00000000000E+00 -0.00000000000E+00  0.11368683772E-12  0.17120000000E+03  0.17120000000E+03 0.  0.
         13    1    1    2    0    0  0.65450472901E+01 -0.48230924043E+02  0.28448029467E+03  0.28861411764E+03  0.10566000000E+00 0. -1.
        994    1    1    2    0    0 -0.18507217665E+01 -0.59590313840E+01  0.56023817669E+01  0.17140525636E+03  0.17120000000E+03 0.  0.
        998    1    1    2    0    0 -0.46943255236E+01  0.54189955427E+02  0.12099173198E+04  0.12111806260E+04  0.10000000000E+02 0. -1.
</event>
<event>
 5    1  0.1252319E-008  0.2564597E+03  0.7957747E-01  0.4266047E+00
         13   -1    0    0    0    0  0.00000000000E+00  0.00000000000E+00  0.14999999963E+04  0.15000000000E+04  0.10566000000E+00 0.  1.
        994   -1    0    0    0    0 -0.00000000000E+00 -0.00000000000E+00  0.11368683772E-12  0.17120000000E+03  0.17120000000E+03 0.  0.
         13    1    1    2    0    0 -0.67346905794E+01 -0.19632577337E+03  0.35510625003E+03  0.40581969558E+03  0.10566000000E+00 0.  1.
        994    1    1    2    0    0 -0.10587116402E+03  0.14895077662E+03  0.22280837739E+03  0.33518360679E+03  0.17120000000E+03 0.  0.
        998    1    1    2    0    0  0.11260585460E+03  0.47374996751E+02  0.92208536886E+03  0.93019669763E+03  0.10000000000E+02 0.  1.
</event>
<event>
 5    1  0.1252319E-008  0.3702497E+03  0.7957747E-01  0.3494744E+00
         13   -1    0    0    0    0  0.00000000000E+00  0.00000000000E+00  0.14999999963E+04  0.15000000000E+04  0.10566000000E+00 0. -1.
        994   -1    0    0    0    0 -0.00000000000E+00 -0.00000000000E+00  0.11368683772E-12  0.17120000000E+03  0.17120000000E+03 0.  0.
         13    1    1    2    0    0 -0.45478289397E+02 -0.45709308210E+01  0.10546681506E+03  0.11494532813E+03  0.10566000000E+00 0. -1.
        994    1    1    2    0    0  0.41229332952E+02  0.92198660931E+01  0.15330027113E+02  0.17700088575E+03  0.17120000000E+03 0.  0.
        998    1    1    2    0    0  0.42489564451E+01 -0.46489352721E+01  0.13792031541E+04  0.13792537861E+04  0.10000000000E+02 0. -1.
</event>
<event>
 5    1  0.1252319E-008  0.3859591E+03  0.7957747E-01  0.3425615E+00
         13   -1    0    0    0    0  0.00000000000E+00  0.00000000000E+00  0.14999999963E+04  0.15000000000E+04  0.10566000000E+00 0.  1.
        994   -1    0    0    0    0 -0.00000000000E+00 -0.00000000000E+00  0.11368683772E-12  0.17120000000E+03  0.17120000000E+03 0.  0.
         13    1    1    2    0    0  0.11272945872E+02 -0.84648128751E+01  0.81807807096E+02  0.83013618350E+02  0.10566000000E+00 0.  1.
        994    1    1    2    0    0 -0.21953778834E+02 -0.10159426913E+01  0.27397886970E+01  0.17262661147E+03  0.17120000000E+03 0.  0.
        998    1    1    2    0    0  0.10680832962E+02  0.94807555664E+01  0.14154524005E+04  0.14155597702E+04  0.10000000000E+02 0.  1.
</event>
<event>
 5    1  0.1252319E-008  0.3785206E+03  0.7957747E-01  0.3457626E+00
         13   -1    0    0    0    0  0.00000000000E+00  0.00000000000E+00  0.14999999963E+04  0.15000000000E+04  0.10566000000E+00 0. -1.
        994   -1    0    0    0    0 -0.00000000000E+00 -0.00000000000E+00  0.11368683772E-12  0.17120000000E+03  0.17120000000E+03 0.  0.
         13    1    1    2    0    0 -0.77450058748E+00  0.21486229055E+02  0.45436443235E+02  0.50266683081E+02  0.10566000000E+00 0. -1.
        994    1    1    2    0    0  0.14953512474E+02 -0.13779736990E+02  0.62721077895E+01  0.17251744266E+03  0.17120000000E+03 0.  0.
        998    1    1    2    0    0 -0.14179011887E+02 -0.77064920655E+01  0.14482914453E+04  0.14484158743E+04  0.10000000000E+02 0. -1.
</event>
<event>
 5    1  0.1252319E-008  0.3851079E+03  0.7957747E-01  0.3429215E+00
         13   -1    0    0    0    0  0.00000000000E+00  0.00000000000E+00  0.14999999963E+04  0.15000000000E+04  0.10566000000E+00 0. -1.
        994   -1    0    0    0    0 -0.00000000000E+00 -0.00000000000E+00  0.11368683772E-12  0.17120000000E+03  0.17120000000E+03 0.  0.
         13    1    1    2    0    0 -0.17365758681E+02  0.48248674782E+01  0.95472641865E+02  0.97159072811E+02  0.10566000000E+00 0. -1.
        994    1    1    2    0    0  0.23240595137E+02  0.24920821055E+01  0.33747238700E+01  0.17282119227E+03  0.17120000000E+03 0.  0.
        998    1    1    2    0    0 -0.58748364556E+01 -0.73169495837E+01  0.14011526305E+04  0.14012197349E+04  0.10000000000E+02 0. -1.
</event>
<event>
 5    1  0.1252319E-008  0.3840667E+03  0.7957747E-01  0.3433640E+00
         13   -1    0    0    0    0  0.00000000000E+00  0.00000000000E+00  0.14999999963E+04  0.15000000000E+04  0.10566000000E+00 0. -1.
        994   -1    0    0    0    0 -0.00000000000E+00 -0.00000000000E+00  0.11368683772E-12  0.17120000000E+03  0.17120000000E+03 0.  0.
         13    1    1    2    0    0 -0.13629982634E+02  0.15535003419E+02  0.98825718952E+02  0.10096359071E+03  0.10566000000E+00 0. -1.
        994    1    1    2    0    0  0.13610245207E+02 -0.10630371171E+02  0.30786056801E+01  0.17209637236E+03  0.17120000000E+03 0.  0.
        998    1    1    2    0    0  0.19737426210E-01 -0.49046322484E+01  0.13980956716E+04  0.13981400369E+04  0.10000000000E+02 0. -1.
</event>
<event>
 5    1  0.1252319E-008  0.3853881E+03  0.7957747E-01  0.3428028E+00
         13   -1    0    0    0    0  0.00000000000E+00  0.00000000000E+00  0.14999999963E+04  0.15000000000E+04  0.10566000000E+00 0. -1.
        994   -1    0    0    0    0 -0.00000000000E+00 -0.00000000000E+00  0.11368683772E-12  0.17120000000E+03  0.17120000000E+03 0.  0.
         13    1    1    2    0    0 -0.12335741456E+02  0.76705936699E+01  0.71841330786E+02  0.73295269272E+02  0.10566000000E+00 0. -1.
        994    1    1    2    0    0  0.13134887115E+02 -0.37957073714E+01  0.20518192513E+01  0.17175733643E+03  0.17120000000E+03 0.  0.
        998    1    1    2    0    0 -0.79914565876E+00 -0.38748862985E+01  0.14261068462E+04  0.14261473943E+04  0.10000000000E+02 0. -1.
</event>
<event>
 5    1  0.1252319E-008  0.3843962E+03  0.7957747E-01  0.3432237E+00
         13   -1    0    0    0    0  0.00000000000E+00  0.00000000000E+00  0.14999999963E+04  0.15000000000E+04  0.10566000000E+00 0. -1.
        994   -1    0    0    0    0 -0.00000000000E+00 -0.00000000000E+00  0.11368683772E-12  0.17120000000E+03  0.17120000000E+03 0.  0.
         13    1    1    2    0    0  0.99938080916E+01 -0.73496552322E+01  0.38962876868E+02  0.40890225850E+02  0.10566000000E+00 0. -1.
        994    1    1    2    0    0 -0.78788342421E+01  0.82815416868E+01  0.23608708606E+01  0.17159741744E+03  0.17120000000E+03 0.  0.
        998    1    1    2    0    0 -0.21149738495E+01 -0.93188645454E+00  0.14586762485E+04  0.14587123567E+04  0.10000000000E+02 0. -1.
</event>
<event>
 5    1  0.1252319E-008  0.3858970E+03  0.7957747E-01  0.3425877E+00
         13   -1    0    0    0    0  0.00000000000E+00  0.00000000000E+00  0.14999999963E+04  0.15000000000E+04  0.10566000000E+00 0.  1.
        994   -1    0    0    0    0 -0.00000000000E+00 -0.00000000000E+00  0.11368683772E-12  0.17120000000E+03  0.17120000000E+03 0.  0.
         13    1    1    2    0    0 -0.84934644324E+01 -0.85099039698E+01  0.63478617342E+02  0.64607301657E+02  0.10566000000E+00 0.  1.
        994    1    1    2    0    0  0.83416889349E+01 -0.26798294451E+01  0.14372280903E+01  0.17143007579E+03  0.17120000000E+03 0.  0.
        998    1    1    2    0    0  0.15177549753E+00  0.11189733415E+02  0.14350841508E+04  0.14351626226E+04  0.10000000000E+02 0.  1.
</event>
<event>
 5    1  0.1252319E-008  0.3861541E+03  0.7957747E-01  0.3424792E+00
         13   -1    0    0    0    0  0.00000000000E+00  0.00000000000E+00  0.14999999963E+04  0.15000000000E+04  0.10566000000E+00 0. -1.
        994   -1    0    0    0    0 -0.00000000000E+00 -0.00000000000E+00  0.11368683772E-12  0.17120000000E+03  0.17120000000E+03 0.  0.
         13    1    1    2    0    0 -0.30490188991E+02 -0.46830673116E+02  0.74812216582E+02  0.93379025928E+02  0.10566000000E+00 0. -1.
        994    1    1    2    0    0 -0.16508781341E+02  0.42247687904E+02  0.27416352799E+02  0.17921635917E+03  0.17120000000E+03 0.  0.
        998    1    1    2    0    0  0.46998970332E+02  0.45829852121E+01  0.13977714269E+04  0.13986046149E+04  0.10000000000E+02 0. -1.
</event>
<event>
 5    1  0.1252319E-008  0.3722195E+03  0.7957747E-01  0.3485752E+00
         13   -1    0    0    0    0  0.00000000000E+00  0.00000000000E+00  0.14999999963E+04  0.15000000000E+04  0.10566000000E+00 0. -1.
        994   -1    0    0    0    0 -0.00000000000E+00 -0.00000000000E+00  0.11368683772E-12  0.17120000000E+03  0.17120000000E+03 0.  0.
         13    1    1    2    0    0  0.18022488416E+02  0.21514141888E+02  0.52909334892E+02  0.59892213790E+02  0.10566000000E+00 0. -1.
        994    1    1    2    0    0  0.25985766722E+02  0.20544540774E+02  0.11888263511E+02  0.17478017347E+03  0.17120000000E+03 0.  0.
        998    1    1    2    0    0 -0.44008255138E+02 -0.42058682662E+02  0.14352023979E+04  0.14365276127E+04  0.10000000000E+02 0. -1.
</event>
<event>
 5    1  0.1252319E-008  0.3733240E+03  0.7957747E-01  0.3480753E+00
         13   -1    0    0    0    0  0.00000000000E+00  0.00000000000E+00  0.14999999963E+04  0.15000000000E+04  0.10566000000E+00 0.  1.
        994   -1    0    0    0    0 -0.00000000000E+00 -0.00000000000E+00  0.11368683772E-12  0.17120000000E+03  0.17120000000E+03 0.  0.
         13    1    1    2    0    0  0.67410175623E+02 -0.50145672317E+02  0.43102381240E+03  0.43913580843E+03  0.10566000000E+00 0.  1.
        994    1    1    2    0    0 -0.83194649705E+01  0.10365512952E+03  0.45462162896E+02  0.20540167387E+03  0.17120000000E+03 0.  0.
        998    1    1    2    0    0 -0.59090710653E+02 -0.53509457202E+02  0.10235140210E+04  0.10266625177E+04  0.10000000000E+02 0.  1.
</event>
<event>
 5    1  0.1252319E-008  0.3844200E+03  0.7957747E-01  0.3432136E+00
         13   -1    0    0    0    0  0.00000000000E+00  0.00000000000E+00  0.14999999963E+04  0.15000000000E+04  0.10566000000E+00 0. -1.
        994   -1    0    0    0    0 -0.00000000000E+00 -0.00000000000E+00  0.11368683772E-12  0.17120000000E+03  0.17120000000E+03 0.  0.
         13    1    1    2    0    0 -0.21525739060E+02  0.21123103774E+01  0.12611968586E+03  0.12796095351E+03  0.10566000000E+00 0. -1.
        994    1    1    2    0    0  0.89660200521E+01 -0.13812899201E+01  0.21895756051E+01  0.17145416798E+03  0.17120000000E+03 0.  0.
        998    1    1    2    0    0  0.12559719008E+02 -0.73102045732E+00  0.13716907348E+04  0.13717848785E+04  0.10000000000E+02 0. -1.
</event>
<event>
 5    1  0.1252319E-008  0.3733756E+03  0.7957747E-01  0.3480520E+00
         13   -1    0    0    0    0  0.00000000000E+00  0.00000000000E+00  0.14999999963E+04  0.15000000000E+04  0.10566000000E+00 0. -1.
        994   -1    0    0    0    0 -0.00000000000E+00 -0.00000000000E+00  0.11368683772E-12  0.17120000000E+03  0.17120000000E+03 0.  0.
         13    1    1    2    0    0  0.69189279031E+02 -0.14118886772E+02  0.41790664618E+03  0.42383071548E+03  0.10566000000E+00 0. -1.
        994    1    1    2    0    0 -0.13214990052E+02  0.90754812084E+01  0.83941555604E+01  0.17215371669E+03  0.17120000000E+03 0.  0.
        998    1    1    2    0    0 -0.55974288979E+02  0.50434055638E+01  0.10736991945E+04  0.10752155678E+04  0.10000000000E+02 0. -1.
</event>
<event>
 5    1  0.1252319E-008  0.3823615E+03  0.7957747E-01  0.3440940E+00
         13   -1    0    0    0    0  0.00000000000E+00  0.00000000000E+00  0.14999999963E+04  0.15000000000E+04  0.10566000000E+00 0. -1.
        994   -1    0    0    0    0 -0.00000000000E+00 -0.00000000000E+00  0.11368683772E-12  0.17120000000E+03  0.17120000000E+03 0.  0.
         13    1    1    2    0    0 -0.16303390027E+02  0.52582241952E+01  0.47721049040E+02  0.50702654108E+02  0.10566000000E+00 0. -1.
        994    1    1    2    0    0  0.16589398563E+02 -0.32259894169E+01  0.38937702272E+01  0.17207619417E+03  0.17120000000E+03 0.  0.
        998    1    1    2    0    0 -0.28600853638E+00 -0.20322347783E+01  0.14483851770E+04  0.14484211517E+04  0.10000000000E+02 0. -1.
</event>
<event>
 5    1  0.1252319E-008  0.3813694E+03  0.7957747E-01  0.3445217E+00
         13   -1    0    0    0    0  0.00000000000E+00  0.00000000000E+00  0.14999999963E+04  0.15000000000E+04  0.10566000000E+00 0. -1.
        994   -1    0    0    0    0 -0.00000000000E+00 -0.00000000000E+00  0.11368683772E-12  0.17120000000E+03  0.17120000000E+03 0.  0.
         13    1    1    2    0    0 -0.11417718476E-01  0.22049385774E+02  0.67220883271E+02  0.70744850379E+02  0.10566000000E+00 0. -1.
        994    1    1    2    0    0 -0.14593639538E+01 -0.21003526570E+02  0.49200369901E+01  0.17255991607E+03  0.17120000000E+03 0.  0.
        998    1    1    2    0    0  0.14707816723E+01 -0.10458592044E+01  0.14278590760E+04  0.14278952335E+04  0.10000000000E+02 0. -1.
</event>
<event>
 5    1  0.1284256E-008  0.3862095E+03  0.7957747E-01  0.3424559E+00
         13   -1    0    0    0    0  0.00000000000E+00  0.00000000000E+00  0.14999999963E+04  0.15000000000E+04  0.10566000000E+00 0. -1.
        994   -1    0    0    0    0 -0.00000000000E+00 -0.00000000000E+00  0.11368683772E-12  0.17120000000E+03  0.17120000000E+03 0.  0.
         13    1    1    2    0    0  0.74874069501E+01 -0.70720012454E+01  0.53253005945E+02  0.54239914000E+02  0.10566000000E+00 0. -1.
        994    1    1    2    0    0 -0.52079317662E+00  0.57486479957E+01  0.11399564842E+01  0.17130107320E+03  0.17120000000E+03 0.  0.
        998    1    1    2    0    0 -0.69666137735E+01  0.13233532497E+01  0.14456070338E+04  0.14456590128E+04  0.10000000000E+02 0. -1.
</event>
<event>
 5    1  0.1252319E-008  0.3822629E+03  0.7957747E-01  0.3441364E+00
         13   -1    0    0    0    0  0.00000000000E+00  0.00000000000E+00  0.14999999963E+04  0.15000000000E+04  0.10566000000E+00 0.  1.
        994   -1    0    0    0    0 -0.00000000000E+00 -0.00000000000E+00  0.11368683772E-12  0.17120000000E+03  0.17120000000E+03 0.  0.
         13    1    1    2    0    0  0.80798230280E+02  0.15251352409E+02  0.42284093027E+03  0.43076144354E+03  0.10566000000E+00 0.  1.
        994    1    1    2    0    0  0.67135939077E+02 -0.10267580820E+02  0.34630279776E+02  0.18740692039E+03  0.17120000000E+03 0.  0.
        998    1    1    2    0    0 -0.14793416936E+03 -0.49837715890E+01  0.10425287862E+04  0.10530316361E+04  0.10000000000E+02 0.  1.
</event>
<event>
 5    1  0.1252319E-008  0.3840311E+03  0.7957747E-01  0.3433792E+00
         13   -1    0    0    0    0  0.00000000000E+00  0.00000000000E+00  0.14999999963E+04  0.15000000000E+04  0.10566000000E+00 0. -1.
        994   -1    0    0    0    0 -0.00000000000E+00 -0.00000000000E+00  0.11368683772E-12  0.17120000000E+03  0.17120000000E+03 0.  0.
         13    1    1    2    0    0 -0.46225407261E+01  0.16740333524E+02  0.70460001201E+02  0.72568792070E+02  0.10566000000E+00 0. -1.
        994    1    1    2    0    0  0.12955383395E+02 -0.95304092468E+01  0.29657682301E+01  0.17197937795E+03  0.17120000000E+03 0.  0.
        998    1    1    2    0    0 -0.83328426693E+01 -0.72099242770E+01  0.14265742268E+04  0.14266518300E+04  0.10000000000E+02 0. -1.
</event>
<event>
 5    1  0.1252319E-008  0.3822769E+03  0.7957747E-01  0.3441304E+00
         13   -1    0    0    0    0  0.00000000000E+00  0.00000000000E+00  0.14999999963E+04  0.15000000000E+04  0.10566000000E+00 0.  1.
        994   -1    0    0    0    0 -0.00000000000E+00 -0.00000000000E+00  0.11368683772E-12  0.17120000000E+03  0.17120000000E+03 0.  0.
         13    1    1    2    0    0 -0.15335433966E+02 -0.89281521088E+01  0.52833358229E+02  0.55733852736E+02  0.10566000000E+00 0.  1.
        994    1    1    2    0    0  0.63742602409E+01  0.23720816585E+01  0.31416486215E+01  0.17136384660E+03  0.17120000000E+03 0.  0.
        998    1    1    2    0    0  0.89611737252E+01  0.65560704503E+01  0.14440249894E+04  0.14441023007E+04  0.10000000000E+02 0.  1.
</event>
<event>
 5    1  0.1252319E-008  0.3745949E+03  0.7957747E-01  0.3475036E+00
         13   -1    0    0    0    0  0.00000000000E+00  0.00000000000E+00  0.14999999963E+04  0.15000000000E+04  0.10566000000E+00 0. -1.
        994   -1    0    0    0    0 -0.00000000000E+00 -0.00000000000E+00  0.11368683772E-12  0.17120000000E+03  0.17120000000E+03 0.  0.
         13    1    1    2    0    0 -0.18340865018E+02 -0.58563648283E+02  0.11908170999E+03  0.13396474554E+03  0.10566000000E+00 0. -1.
        994    1    1    2    0    0  0.31398917468E+02  0.69806073229E+02  0.34511462946E+02  0.19068104508E+03  0.17120000000E+03 0.  0.
        998    1    1    2    0    0 -0.13058052450E+02 -0.11242424945E+02  0.13464068233E+04  0.13465542094E+04  0.10000000000E+02 0. -1.
</event>
<event>
 5    1  0.1252319E-008  0.3835431E+03  0.7957747E-01  0.3435875E+00
         13   -1    0    0    0    0  0.00000000000E+00  0.00000000000E+00  0.14999999963E+04  0.15000000000E+04  0.10566000000E+00 0.  1.
        994   -1    0    0    0    0 -0.00000000000E+00 -0.00000000000E+00  0.11368683772E-12  0.17120000000E+03  0.17120000000E+03 0.  0.
         13    1    1    2    0    0 -0.28806615246E+02  0.13205975378E+02  0.17847903816E+03  0.18127050806E+03  0.10566000000E+00 0.  1.
        994    1    1    2    0    0  0.36272411685E+02 -0.13844594765E+02  0.73519010747E+01  0.17570102761E+03  0.17120000000E+03 0.  0.
        998    1    1    2    0    0 -0.74657964387E+01  0.63861938686E+00  0.13141690570E+04  0.13142284643E+04  0.10000000000E+02 0.  1.
</event>
<event>
 5    1  0.1252319E-008  0.3808455E+03  0.7957747E-01  0.3447485E+00
         13   -1    0    0    0    0  0.00000000000E+00  0.00000000000E+00  0.14999999963E+04  0.15000000000E+04  0.10566000000E+00 0.  1.
        994   -1    0    0    0    0 -0.00000000000E+00 -0.00000000000E+00  0.11368683772E-12  0.17120000000E+03  0.17120000000E+03 0.  0.
         13    1    1    2    0    0 -0.22787367473E+02 -0.53220235665E+01  0.69194654359E+02  0.73044502922E+02  0.10566000000E+00 0.  1.
        994    1    1    2    0    0  0.25140814180E+02  0.37383110811E+01  0.58635543836E+01  0.17317579732E+03  0.17120000000E+03 0.  0.
        998    1    1    2    0    0 -0.23534467066E+01  0.15837124853E+01  0.14249417875E+04  0.14249796998E+04  0.10000000000E+02 0.  1.
</event>
<event>
 5    1  0.1252319E-008  0.3800246E+03  0.7957747E-01  0.3451051E+00
         13   -1    0    0    0    0  0.00000000000E+00  0.00000000000E+00  0.14999999963E+04  0.15000000000E+04  0.10566000000E+00 0. -1.
        994   -1    0    0    0    0 -0.00000000000E+00 -0.00000000000E+00  0.11368683772E-12  0.17120000000E+03  0.17120000000E+03 0.  0.
         13    1    1    2    0    0  0.22744311341E+03  0.67317205686E+02  0.70613237105E+03  0.74490597570E+03  0.10566000000E+00 0. -1.
        994    1    1    2    0    0 -0.28139317266E+03 -0.74993077040E+02  0.37881178943E+03  0.50755678603E+03  0.17120000000E+03 0.  0.
        998    1    1    2    0    0  0.53950059258E+02  0.76758713537E+01  0.41505583579E+03  0.41873723828E+03  0.10000000000E+02 0.  1.
</event>
<event>
 5    1  0.1252319E-008  0.3766994E+03  0.7957747E-01  0.3465657E+00
         13   -1    0    0    0    0  0.00000000000E+00  0.00000000000E+00  0.14999999963E+04  0.15000000000E+04  0.10566000000E+00 0. -1.
        994   -1    0    0    0    0 -0.00000000000E+00 -0.00000000000E+00  0.11368683772E-12  0.17120000000E+03  0.17120000000E+03 0.  0.
         13    1    1    2    0    0 -0.10461612517E+02  0.19137277269E+02  0.37274445026E+02  0.43186527225E+02  0.10566000000E+00 0. -1.
        994    1    1    2    0    0  0.10340624553E+02 -0.24573747936E+02  0.82147389114E+01  0.17345812042E+03  0.17120000000E+03 0.  0.
        998    1    1    2    0    0  0.12098796326E+00  0.54364706677E+01  0.14545108123E+04  0.14545553524E+04  0.10000000000E+02 0. -1.
</event>
<event>
 5    1  0.1252319E-008  0.2851653E+03  0.7957747E-01  0.4007969E+00
         13   -1    0    0    0    0  0.00000000000E+00  0.00000000000E+00  0.14999999963E+04  0.15000000000E+04  0.10566000000E+00 0. -1.
        994   -1    0    0    0    0 -0.00000000000E+00 -0.00000000000E+00  0.11368683772E-12  0.17120000000E+03  0.17120000000E+03 0.  0.
         13    1    1    2    0    0 -0.97224725053E+02 -0.13363600498E+03  0.60611692632E+03  0.62824276241E+03  0.10566000000E+00 0. -1.
        994    1    1    2    0    0  0.73075268596E+02  0.11131373363E+03  0.84377846618E+02  0.23272258845E+03  0.17120000000E+03 0.  0.
        998    1    1    2    0    0  0.24149456458E+02  0.22322271341E+02  0.80950522334E+03  0.81023464914E+03  0.10000000000E+02 0. -1.
</event>
<event>
 5    1  0.1252319E-008  0.3848675E+03  0.7957747E-01  0.3430234E+00
         13   -1    0    0    0    0  0.00000000000E+00  0.00000000000E+00  0.14999999963E+04  0.15000000000E+04  0.10566000000E+00 0. -1.
        994   -1    0    0    0    0 -0.00000000000E+00 -0.00000000000E+00  0.11368683772E-12  0.17120000000E+03  0.17120000000E+03 0.  0.
         13    1    1    2    0    0 -0.17580808325E+02 -0.63347831964E+01  0.10559602228E+03  0.10723686579E+03  0.10566000000E+00 0. -1.
        994    1    1    2    0    0  0.93378064550E+01 -0.29935070899E+00  0.19831474997E+01  0.17146619817E+03  0.17120000000E+03 0.  0.
        998    1    1    2    0    0  0.82430018695E+01  0.66341339054E+01  0.13924208265E+04  0.13924969360E+04  0.10000000000E+02 0. -1.
</event>
<event>
 5    1  0.1252319E-008  0.3788286E+03  0.7957747E-01  0.3456275E+00
         13   -1    0    0    0    0  0.00000000000E+00  0.00000000000E+00  0.14999999963E+04  0.15000000000E+04  0.10566000000E+00 0. -1.
        994   -1    0    0    0    0 -0.00000000000E+00 -0.00000000000E+00  0.11368683772E-12  0.17120000000E+03  0.17120000000E+03 0.  0.
         13    1    1    2    0    0 -0.13903043459E+03  0.50090491341E+01  0.40694922814E+03  0.43007236340E+03  0.10566000000E+00 0. -1.
        994    1    1    2    0    0  0.14439192093E+03 -0.25144637782E+02  0.97908318709E+02  0.24571682586E+03  0.17120000000E+03 0.  0.
        998    1    1    2    0    0 -0.53614863389E+01  0.20135588647E+02  0.99514244943E+03  0.99541081073E+03  0.10000000000E+02 0. -1.
</event>
<event>
 5    1  0.1252319E-008  0.3796745E+03  0.7957747E-01  0.3452577E+00
         13   -1    0    0    0    0  0.00000000000E+00  0.00000000000E+00  0.14999999963E+04  0.15000000000E+04  0.10566000000E+00 0. -1.
        994   -1    0    0    0    0 -0.00000000000E+00 -0.00000000000E+00  0.11368683772E-12  0.17120000000E+03  0.17120000000E+03 0.  0.
         13    1    1    2    0    0 -0.17559263564E+02  0.23594344238E+02  0.94931789501E+02  0.99383482727E+02  0.10566000000E+00 0. -1.
        994    1    1    2    0    0  0.29626095876E+02 -0.11578015796E+02  0.76908128010E+01  0.17429958293E+03  0.17120000000E+03 0.  0.
        998    1    1    2    0    0 -0.12066832312E+02 -0.12016328441E+02  0.13973773940E+04  0.13975169343E+04  0.10000000000E+02 0. -1.
</event>
<event>
 5    1  0.1252319E-008  0.3697082E+03  0.7957747E-01  0.3497233E+00
         13   -1    0    0    0    0  0.00000000000E+00  0.00000000000E+00  0.14999999963E+04  0.15000000000E+04  0.10566000000E+00 0. -1.
        994   -1    0    0    0    0 -0.00000000000E+00 -0.00000000000E+00  0.11368683772E-12  0.17120000000E+03  0.17120000000E+03 0.  0.
         13    1    1    2    0    0 -0.11085387035E+02 -0.51989889132E+02  0.13711693180E+03  0.14706086674E+03  0.10566000000E+00 0. -1.
        994    1    1    2    0    0 -0.17210443726E+02  0.53216761762E+02  0.20328024623E+02  0.18124814948E+03  0.17120000000E+03 0.  0.
        998    1    1    2    0    0  0.28295830761E+02 -0.12268726297E+01  0.13425550399E+04  0.13428909838E+04  0.10000000000E+02 0. -1.
</event>
<event>
 5    1  0.1252319E-008  0.3854369E+03  0.7957747E-01  0.3427821E+00
         13   -1    0    0    0    0  0.00000000000E+00  0.00000000000E+00  0.14999999963E+04  0.15000000000E+04  0.10566000000E+00 0. -1.
        994   -1    0    0    0    0 -0.00000000000E+00 -0.00000000000E+00  0.11368683772E-12  0.17120000000E+03  0.17120000000E+03 0.  0.
         13    1    1    2    0    0 -0.12033138962E+02  0.43213700183E+01  0.56575128880E+02  0.58001957242E+02  0.10566000000E+00 0. -1.
        994    1    1    2    0    0  0.13840668638E+02  0.96615423090E+00  0.20458084744E+01  0.17177346388E+03  0.17120000000E+03 0.  0.
        998    1    1    2    0    0 -0.18075296759E+01 -0.52875242492E+01  0.14413790589E+04  0.14414245789E+04  0.10000000000E+02 0. -1.
</event>
<event>
 5    1  0.1252319E-008  0.3747722E+03  0.7957747E-01  0.3474242E+00
         13   -1    0    0    0    0  0.00000000000E+00  0.00000000000E+00  0.14999999963E+04  0.15000000000E+04  0.10566000000E+00 0. -1.
        994   -1    0    0    0    0 -0.00000000000E+00 -0.00000000000E+00  0.11368683772E-12  0.17120000000E+03  0.17120000000E+03 0.  0.
         13    1    1    2    0    0 -0.35544247397E+02  0.12118271046E+03  0.50496381913E+03  0.52051619824E+03  0.10566000000E+00 0. -1.
        994    1    1    2    0    0  0.58749217736E+02 -0.15080085990E+03  0.10187019832E+03  0.25666972404E+03  0.17120000000E+03 0.  0.
        998    1    1    2    0    0 -0.23204970339E+02  0.29618149450E+02  0.89316597883E+03  0.89401407772E+03  0.10000000000E+02 0. -1.
</event>
<event>
 5    1  0.1252319E-008  0.3695817E+03  0.7957747E-01  0.3497816E+00
         13   -1    0    0    0    0  0.00000000000E+00  0.00000000000E+00  0.14999999963E+04  0.15000000000E+04  0.10566000000E+00 0. -1.
        994   -1    0    0    0    0 -0.00000000000E+00 -0.00000000000E+00  0.11368683772E-12  0.17120000000E+03  0.17120000000E+03 0.  0.
         13    1    1    2    0    0 -0.18758946481E+02 -0.10900547314E+02  0.19873601299E+02  0.29422630703E+02  0.10566000000E+00 0. -1.
        994    1    1    2    0    0  0.38441272381E+02  0.63033199452E+00  0.14623473533E+02  0.17607218610E+03  0.17120000000E+03 0.  0.
        998    1    1    2    0    0 -0.19682325900E+02  0.10270215319E+02  0.14655029214E+04  0.14657051832E+04  0.10000000000E+02 0. -1.
</event>
<event>
 5    1  0.1252319E-008  0.3836740E+03  0.7957747E-01  0.3435316E+00
         13   -1    0    0    0    0  0.00000000000E+00  0.00000000000E+00  0.14999999963E+04  0.15000000000E+04  0.10566000000E+00 0. -1.
        994   -1    0    0    0    0 -0.00000000000E+00 -0.00000000000E+00  0.11368683772E-12  0.17120000000E+03  0.17120000000E+03 0.  0.
         13    1    1    2    0    0  0.49922623864E+01  0.91574406952E+01  0.22816756619E+02  0.25087784885E+02  0.10566000000E+00 0. -1.
        994    1    1    2    0    0 -0.66059789431E+01 -0.72308073658E+01  0.26068084223E+01  0.17149973464E+03  0.17120000000E+03 0.  0.
        998    1    1    2    0    0  0.16137165567E+01 -0.19266333294E+01  0.14745764312E+04  0.14746124805E+04  0.10000000000E+02 0. -1.
</event>
<event>
 5    1  0.1252319E-008  0.3714872E+03  0.7957747E-01  0.3489084E+00
         13   -1    0    0    0    0  0.00000000000E+00  0.00000000000E+00  0.14999999963E+04  0.15000000000E+04  0.10566000000E+00 0. -1.
        994   -1    0    0    0    0 -0.00000000000E+00 -0.00000000000E+00  0.11368683772E-12  0.17120000000E+03  0.17120000000E+03 0.  0.
         13    1    1    2    0    0 -0.80792599602E+02  0.95035638555E+01  0.21937070678E+03  0.23396854497E+03  0.10566000000E+00 0. -1.
        994    1    1    2    0    0  0.98409305209E+02  0.12015177648E+02  0.47119590304E+02  0.20336777433E+03  0.17120000000E+03 0.  0.
        998    1    1    2    0    0 -0.17616705607E+02 -0.21518741504E+02  0.12335096992E+04  0.12338636807E+04  0.10000000000E+02 0. -1.
</event>
<event>
 5    1  0.1252319E-008  0.3823261E+03  0.7957747E-01  0.3441092E+00
         13   -1    0    0    0    0  0.00000000000E+00  0.00000000000E+00  0.14999999963E+04  0.15000000000E+04  0.10566000000E+00 0.  1.
        994   -1    0    0    0    0 -0.00000000000E+00 -0.00000000000E+00  0.11368683772E-12  0.17120000000E+03  0.17120000000E+03 0.  0.
         13    1    1    2    0    0 -0.51172769492E+01 -0.31961222022E+02  0.21941876377E+02  0.39104518146E+02  0.10566000000E+00 0.  1.
        994    1    1    2    0    0 -0.31425977012E+00  0.36748948212E+02  0.22562727685E+02  0.17654772905E+03  0.17120000000E+03 0.  0.
        998    1    1    2    0    0  0.54315367193E+01 -0.47877261897E+01  0.14554953922E+04  0.14555477528E+04  0.10000000000E+02 0.  1.
</event>
<event>
 5    1  0.1252319E-008  0.3819521E+03  0.7957747E-01  0.3442702E+00
         13   -1    0    0    0    0  0.00000000000E+00  0.00000000000E+00  0.14999999963E+04  0.15000000000E+04  0.10566000000E+00 0. -1.
        994   -1    0    0    0    0 -0.00000000000E+00 -0.00000000000E+00  0.11368683772E-12  0.17120000000E+03  0.17120000000E+03 0.  0.
         13    1    1    2    0    0 -0.18173345100E+02  0.10674484086E+02  0.88341745461E+02  0.90821199275E+02  0.10566000000E+00 0. -1.
        994    1    1    2    0    0 -0.13738223387E+02  0.33174096905E+02  0.74450666997E+01  0.17508320452E+03  0.17120000000E+03 0.  0.
        998    1    1    2    0    0  0.31911568487E+02 -0.43848580992E+02  0.14042131841E+04  0.14052955962E+04  0.10000000000E+02 0. -1.
</event>
<event>
 5    1  0.1252319E-008  0.3840372E+03  0.7957747E-01  0.3433766E+00
         13   -1    0    0    0    0  0.00000000000E+00  0.00000000000E+00  0.14999999963E+04  0.15000000000E+04  0.10566000000E+00 0. -1.
        994   -1    0    0    0    0 -0.00000000000E+00 -0.00000000000E+00  0.11368683772E-12  0.17120000000E+03  0.17120000000E+03 0.  0.
         13    1    1    2    0    0 -0.81604786596E+01  0.11386394374E+02  0.45356762566E+02  0.47470943358E+02  0.10566000000E+00 0. -1.
        994    1    1    2    0    0  0.67884893446E+01 -0.10597912739E+02  0.26316361978E+01  0.17168216230E+03  0.17120000000E+03 0.  0.
        998    1    1    2    0    0  0.13719893150E+01 -0.78848163501E+00  0.14520115975E+04  0.14520468943E+04  0.10000000000E+02 0. -1.
</event>
<event>
 5    1  0.1252319E-008  0.3832422E+03  0.7957747E-01  0.3437162E+00
         13   -1    0    0    0    0  0.00000000000E+00  0.00000000000E+00  0.14999999963E+04  0.15000000000E+04  0.10566000000E+00 0. -1.
        994   -1    0    0    0    0 -0.00000000000E+00 -0.00000000000E+00  0.11368683772E-12  0.17120000000E+03  0.17120000000E+03 0.  0.
         13    1    1    2    0    0 -0.16797837893E+02  0.11123201916E+02  0.87595311800E+02  0.89882383102E+02  0.10566000000E+00 0. -1.
        994    1    1    2    0    0 -0.12322106137E+02 -0.16900749540E+02  0.39536375807E+01  0.17251823348E+03  0.17120000000E+03 0.  0.
        998    1    1    2    0    0  0.29119944030E+02  0.57775476243E+01  0.14084510469E+04  0.14087993834E+04  0.10000000000E+02 0. -1.
</event>
<event>
 5    1  0.1252319E-008  0.3835444E+03  0.7957747E-01  0.3435869E+00
         13   -1    0    0    0    0  0.00000000000E+00  0.00000000000E+00  0.14999999963E+04  0.15000000000E+04  0.10566000000E+00 0. -1.
        994   -1    0    0    0    0 -0.00000000000E+00 -0.00000000000E+00  0.11368683772E-12  0.17120000000E+03  0.17120000000E+03 0.  0.
         13    1    1    2    0    0  0.14017230603E+01 -0.15284142290E+02  0.46904106126E+02  0.49351556902E+02  0.10566000000E+00 0. -1.
        994    1    1    2    0    0 -0.14463256300E+02  0.20358244998E+02  0.44179268424E+01  0.17306820043E+03  0.17120000000E+03 0.  0.
        998    1    1    2    0    0  0.13061533240E+02 -0.50741027083E+01  0.14486779633E+04  0.14487802427E+04  0.10000000000E+02 0. -1.
</event>
<event>
 5    1  0.1252319E-008  0.3828938E+03  0.7957747E-01  0.3438654E+00
         13   -1    0    0    0    0  0.00000000000E+00  0.00000000000E+00  0.14999999963E+04  0.15000000000E+04  0.10566000000E+00 0. -1.
        994   -1    0    0    0    0 -0.00000000000E+00 -0.00000000000E+00  0.11368683772E-12  0.17120000000E+03  0.17120000000E+03 0.  0.
         13    1    1    2    0    0  0.34037925861E+01  0.16167894095E+02  0.50656710584E+02  0.53283206498E+02  0.10566000000E+00 0. -1.
        994    1    1    2    0    0 -0.55003324161E+01 -0.75646762365E+01  0.29691677708E+01  0.17148100169E+03  0.17120000000E+03 0.  0.
        998    1    1    2    0    0  0.20965398299E+01 -0.86032178586E+01  0.14463741179E+04  0.14464357918E+04  0.10000000000E+02 0. -1.
</event>
<event>
 5    1  0.1252319E-008  0.3796090E+03  0.7957747E-01  0.3452863E+00
         13   -1    0    0    0    0  0.00000000000E+00  0.00000000000E+00  0.14999999963E+04  0.15000000000E+04  0.10566000000E+00 0. -1.
        994   -1    0    0    0    0 -0.00000000000E+00 -0.00000000000E+00  0.11368683772E-12  0.17120000000E+03  0.17120000000E+03 0.  0.
         13    1    1    2    0    0  0.39343069341E+02  0.13339519266E+02  0.17900238220E+03  0.18375985382E+03  0.10566000000E+00 0. -1.
        994    1    1    2    0    0 -0.35039183642E+02 -0.18132673749E+02  0.95583984429E+01  0.17594698414E+03  0.17120000000E+03 0.  0.
        998    1    1    2    0    0 -0.43038856989E+01  0.47931544828E+01  0.13114392156E+04  0.13114931620E+04  0.10000000000E+02 0. -1.
</event>
<event>
 5    1  0.1252319E-008  0.3718478E+03  0.7957747E-01  0.3487442E+00
         13   -1    0    0    0    0  0.00000000000E+00  0.00000000000E+00  0.14999999963E+04  0.15000000000E+04  0.10566000000E+00 0.  1.
        994   -1    0    0    0    0 -0.00000000000E+00 -0.00000000000E+00  0.11368683772E-12  0.17120000000E+03  0.17120000000E+03 0.  0.
         13    1    1    2    0    0  0.11356856472E+02  0.68944584795E+01  0.67786306871E+01  0.14915520262E+02  0.10566000000E+00 0.  1.
        994    1    1    2    0    0 -0.12210580173E+02 -0.61747605299E+01  0.89499670412E+01  0.17197897501E+03  0.17120000000E+03 0.  0.
        998    1    1    2    0    0  0.85372370133E+00 -0.71969794959E+00  0.14842713986E+04  0.14843055047E+04  0.10000000000E+02 0.  1.
</event>
<event>
 5    1  0.1252319E-008  0.3832673E+03  0.7957747E-01  0.3437054E+00
         13   -1    0    0    0    0  0.00000000000E+00  0.00000000000E+00  0.14999999963E+04  0.15000000000E+04  0.10566000000E+00 0.  1.
        994   -1    0    0    0    0 -0.00000000000E+00 -0.00000000000E+00  0.11368683772E-12  0.17120000000E+03  0.17120000000E+03 0.  0.
         13    1    1    2    0    0 -0.12863912978E+02 -0.39873329032E+01  0.34379136508E+02  0.36923099434E+02  0.10566000000E+00 0.  1.
        994    1    1    2    0    0  0.17480045640E+02  0.46373097072E+01  0.35752491279E+01  0.17218966009E+03  0.17120000000E+03 0.  0.
        998    1    1    2    0    0 -0.46161326621E+01 -0.64997680400E+00  0.14620456106E+04  0.14620872405E+04  0.10000000000E+02 0.  1.
</event>
<event>
 5    1  0.1252319E-008  0.3836944E+03  0.7957747E-01  0.3435229E+00
         13   -1    0    0    0    0  0.00000000000E+00  0.00000000000E+00  0.14999999963E+04  0.15000000000E+04  0.10566000000E+00 0.  1.
        994   -1    0    0    0    0 -0.00000000000E+00 -0.00000000000E+00  0.11368683772E-12  0.17120000000E+03  0.17120000000E+03 0.  0.
         13    1    1    2    0    0 -0.94010065853E+01  0.86993414003E+01  0.36264137520E+02  0.38459801087E+02  0.10566000000E+00 0.  1.
        994    1    1    2    0    0 -0.97926272967E+01 -0.14381252417E+02  0.32801508028E+01  0.17211308887E+03  0.17120000000E+03 0.  0.
        998    1    1    2    0    0  0.19193633882E+02  0.56819110165E+01  0.14604557080E+04  0.14606271100E+04  0.10000000000E+02 0.  1.
</event>
<event>
 5    1  0.1252319E-008  0.3848721E+03  0.7957747E-01  0.3430215E+00
         13   -1    0    0    0    0  0.00000000000E+00  0.00000000000E+00  0.14999999963E+04  0.15000000000E+04  0.10566000000E+00 0. -1.
        994   -1    0    0    0    0 -0.00000000000E+00 -0.00000000000E+00  0.11368683772E-12  0.17120000000E+03  0.17120000000E+03 0.  0.
         13    1    1    2    0    0 -0.10077648926E+02  0.43809678328E+00  0.29613068132E+02  0.31284115856E+02  0.10566000000E+00 0. -1.
        994    1    1    2    0    0  0.81384856010E+01  0.36817383098E+01  0.19561871484E+01  0.17144403405E+03  0.17120000000E+03 0.  0.
        998    1    1    2    0    0  0.19391633247E+01 -0.41198350931E+01  0.14684307410E+04  0.14684718501E+04  0.10000000000E+02 0. -1.
</event>
<event>
 5    1  0.1252319E-008  0.3813883E+03  0.7957747E-01  0.3445136E+00
         13   -1    0    0    0    0  0.00000000000E+00  0.00000000000E+00  0.14999999963E+04  0.15000000000E+04  0.10566000000E+00 0. -1.
        994   -1    0    0    0    0 -0.00000000000E+00 -0.00000000000E+00  0.11368683772E-12  0.17120000000E+03  0.17120000000E+03 0.  0.
         13    1    1    2    0    0 -0.21188021933E+02  0.24643165340E+01  0.68188734270E+02  0.71447321676E+02  0.10566000000E+00 0. -1.
        994    1    1    2    0    0  0.67090315552E+00 -0.30103104227E+02  0.64568566078E+01  0.17394763003E+03  0.17120000000E+03 0.  0.
        998    1    1    2    0    0  0.20517118777E+02  0.27638787693E+02  0.14253544054E+04  0.14258050483E+04  0.10000000000E+02 0. -1.
</event>
<event>
 5    1  0.1252319E-008  0.3787226E+03  0.7957747E-01  0.3456739E+00
         13   -1    0    0    0    0  0.00000000000E+00  0.00000000000E+00  0.14999999963E+04  0.15000000000E+04  0.10566000000E+00 0. -1.
        994   -1    0    0    0    0 -0.00000000000E+00 -0.00000000000E+00  0.11368683772E-12  0.17120000000E+03  0.17120000000E+03 0.  0.
         13    1    1    2    0    0  0.41689149238E+02  0.76515652353E+01  0.20271930952E+03  0.20710302081E+03  0.10566000000E+00 0. -1.
        994    1    1    2    0    0 -0.12036264606E+02 -0.39640020542E+01  0.53186366330E+01  0.17175072889E+03  0.17120000000E+03 0.  0.
        998    1    1    2    0    0 -0.29652884633E+02 -0.36875631811E+01  0.12919620501E+04  0.12923462503E+04  0.10000000000E+02 0. -1.
</event>
<event>
 5    1  0.1252319E-008  0.3771959E+03  0.7957747E-01  0.3463460E+00
         13   -1    0    0    0    0  0.00000000000E+00  0.00000000000E+00  0.14999999963E+04  0.15000000000E+04  0.10566000000E+00 0. -1.
        994   -1    0    0    0    0 -0.00000000000E+00 -0.00000000000E+00  0.11368683772E-12  0.17120000000E+03  0.17120000000E+03 0.  0.
         13    1    1    2    0    0 -0.19326048161E+02 -0.33690109608E+02  0.13371715548E+03  0.13924370168E+03  0.10566000000E+00 0. -1.
        994    1    1    2    0    0  0.10034656032E+02  0.21067224271E+02  0.73948893327E+01  0.17294116528E+03  0.17120000000E+03 0.  0.
        998    1    1    2    0    0  0.92913921293E+01  0.12622885337E+02  0.13588879515E+04  0.13590151330E+04  0.10000000000E+02 0. -1.
</event>
<event>
 5    1  0.1252319E-008  0.3800195E+03  0.7957747E-01  0.3451074E+00
         13   -1    0    0    0    0  0.00000000000E+00  0.00000000000E+00  0.14999999963E+04  0.15000000000E+04  0.10566000000E+00 0. -1.
        994   -1    0    0    0    0 -0.00000000000E+00 -0.00000000000E+00  0.11368683772E-12  0.17120000000E+03  0.17120000000E+03 0.  0.
         13    1    1    2    0    0 -0.18091552162E+02 -0.55548999971E+01  0.33926667179E+01  0.19227129923E+02  0.10566000000E+00 0. -1.
        994    1    1    2    0    0  0.29676615800E+02  0.89073404886E+01  0.19824670469E+02  0.17510710950E+03  0.17120000000E+03 0.  0.
        998    1    1    2    0    0 -0.11585063638E+02 -0.33524404915E+01  0.14767826591E+04  0.14768657606E+04  0.10000000000E+02 0. -1.
</event>
<event>
 5    1  0.1252319E-008  0.3749646E+03  0.7957747E-01  0.3473381E+00
         13   -1    0    0    0    0  0.00000000000E+00  0.00000000000E+00  0.14999999963E+04  0.15000000000E+04  0.10566000000E+00 0. -1.
        994   -1    0    0    0    0 -0.00000000000E+00 -0.00000000000E+00  0.11368683772E-12  0.17120000000E+03  0.17120000000E+03 0.  0.
         13    1    1    2    0    0  0.63657936610E+01  0.12868220737E+02  0.12161026762E+02  0.18815317425E+02  0.10566000000E+00 0. -1.
        994    1    1    2    0    0 -0.12666895523E+02 -0.15296929970E+02  0.80390216984E+01  0.17253553889E+03  0.17120000000E+03 0.  0.
        998    1    1    2    0    0  0.63011018623E+01  0.24287092328E+01  0.14797999478E+04  0.14798491437E+04  0.10000000000E+02 0. -1.
</event>
<event>
 5    1  0.1252319E-008  0.3766169E+03  0.7957747E-01  0.3466023E+00
         13   -1    0    0    0    0  0.00000000000E+00  0.00000000000E+00  0.14999999963E+04  0.15000000000E+04  0.10566000000E+00 0. -1.
        994   -1    0    0    0    0 -0.00000000000E+00 -0.00000000000E+00  0.11368683772E-12  0.17120000000E+03  0.17120000000E+03 0.  0.
         13    1    1    2    0    0 -0.59864963882E+02 -0.93653878708E+01  0.33679785116E+03  0.34220509654E+03  0.10566000000E+00 0. -1.
        994    1    1    2    0    0  0.24648799984E+02  0.86460734030E+01  0.81609288514E+01  0.17337346592E+03  0.17120000000E+03 0.  0.
        998    1    1    2    0    0  0.35216163898E+02  0.71931446777E+00  0.11550412163E+04  0.11556214375E+04  0.10000000000E+02 0. -1.
</event>
<event>
 5    1  0.1252319E-008  0.3784609E+03  0.7957747E-01  0.3457887E+00
         13   -1    0    0    0    0  0.00000000000E+00  0.00000000000E+00  0.14999999963E+04  0.15000000000E+04  0.10566000000E+00 0.  1.
        994   -1    0    0    0    0 -0.00000000000E+00 -0.00000000000E+00  0.11368683772E-12  0.17120000000E+03  0.17120000000E+03 0.  0.
         13    1    1    2    0    0 -0.40430887731E+02  0.51064569018E+01  0.15044352580E+03  0.15586532072E+03  0.10566000000E+00 0.  1.
        994    1    1    2    0    0  0.39579887955E+02 -0.28258595221E+02  0.12900351719E+02  0.17844039568E+03  0.17120000000E+03 0.  0.
        998    1    1    2    0    0  0.85099977511E+00  0.23152138320E+02  0.13366561188E+04  0.13368942836E+04  0.10000000000E+02 0.  1.
</event>
<event>
 5    1  0.1252319E-008  0.3850650E+03  0.7957747E-01  0.3429396E+00
         13   -1    0    0    0    0  0.00000000000E+00  0.00000000000E+00  0.14999999963E+04  0.15000000000E+04  0.10566000000E+00 0. -1.
        994   -1    0    0    0    0 -0.00000000000E+00 -0.00000000000E+00  0.11368683772E-12  0.17120000000E+03  0.17120000000E+03 0.  0.
         13    1    1    2    0    0 -0.10957251872E+02 -0.11824015555E+02  0.65005871901E+02  0.66974945003E+02  0.10566000000E+00 0. -1.
        994    1    1    2    0    0  0.40430351486E+02  0.26872656311E+02  0.93854777730E+01  0.17819730686E+03  0.17120000000E+03 0.  0.
        998    1    1    2    0    0 -0.29473099614E+02 -0.15048640756E+02  0.14256086466E+04  0.14260277481E+04  0.10000000000E+02 0. -1.
</event>
<event>
 5    1  0.1252319E-008  0.3832851E+03  0.7957747E-01  0.3436978E+00
         13   -1    0    0    0    0  0.00000000000E+00  0.00000000000E+00  0.14999999963E+04  0.15000000000E+04  0.10566000000E+00 0. -1.
        994   -1    0    0    0    0 -0.00000000000E+00 -0.00000000000E+00  0.11368683772E-12  0.17120000000E+03  0.17120000000E+03 0.  0.
         13    1    1    2    0    0  0.12923049463E+02  0.67160281337E+01 -0.24407546255E+01  0.14767487548E+02  0.10566000000E+00 0. -1.
        994    1    1    2    0    0 -0.10083467959E+02 -0.75662857886E+01  0.18726861046E+02  0.17268196296E+03  0.17120000000E+03 0.  0.
        998    1    1    2    0    0 -0.28395815037E+01  0.85025765489E+00  0.14837138899E+04  0.14837505495E+04  0.10000000000E+02 0. -1.
</event>
<event>
 5    1  0.1252319E-008  0.3788323E+03  0.7957747E-01  0.3456259E+00
         13   -1    0    0    0    0  0.00000000000E+00  0.00000000000E+00  0.14999999963E+04  0.15000000000E+04  0.10566000000E+00 0. -1.
        994   -1    0    0    0    0 -0.00000000000E+00 -0.00000000000E+00  0.11368683772E-12  0.17120000000E+03  0.17120000000E+03 0.  0.
         13    1    1    2    0    0  0.23629652221E+02 -0.58186926587E+02  0.25795334657E+03  0.26548826539E+03  0.10566000000E+00 0. -1.
        994    1    1    2    0    0 -0.20674931001E+02  0.99416367986E+02  0.40143786516E+02  0.20305671767E+03  0.17120000000E+03 0.  0.
        998    1    1    2    0    0 -0.29547212196E+01 -0.41229441399E+02  0.12019028632E+04  0.12026550169E+04  0.10000000000E+02 0. -1.
</event>
<event>
 5    1  0.1252319E-008  0.3831919E+03  0.7957747E-01  0.3437377E+00
         13   -1    0    0    0    0  0.00000000000E+00  0.00000000000E+00  0.14999999963E+04  0.15000000000E+04  0.10566000000E+00 0. -1.
        994   -1    0    0    0    0 -0.00000000000E+00 -0.00000000000E+00  0.11368683772E-12  0.17120000000E+03  0.17120000000E+03 0.  0.
         13    1    1    2    0    0 -0.22381589936E+02  0.19766235140E+02  0.16411004159E+03  0.16680454591E+03  0.10566000000E+00 0. -1.
        994    1    1    2    0    0  0.19623314593E+02 -0.16798067610E+02  0.47409005922E+01  0.17320267229E+03  0.17120000000E+03 0.  0.
        998    1    1    2    0    0  0.27582753429E+01 -0.29681675300E+01  0.13311490541E+04  0.13311927818E+04  0.10000000000E+02 0. -1.
</event>
<event>
 5    1  0.1252319E-008  0.3830941E+03  0.7957747E-01  0.3437796E+00
         13   -1    0    0    0    0  0.00000000000E+00  0.00000000000E+00  0.14999999963E+04  0.15000000000E+04  0.10566000000E+00 0. -1.
        994   -1    0    0    0    0 -0.00000000000E+00 -0.00000000000E+00  0.11368683772E-12  0.17120000000E+03  0.17120000000E+03 0.  0.
         13    1    1    2    0    0  0.46006734265E+01 -0.10646177016E+02  0.25207072614E+02  0.27747341402E+02  0.10566000000E+00 0. -1.
        994    1    1    2    0    0 -0.14677368311E+02  0.19713703512E+01  0.33054203318E+01  0.17187110649E+03  0.17120000000E+03 0.  0.
        998    1    1    2    0    0  0.10076694884E+02  0.86748066646E+01  0.14714875033E+04  0.14715815521E+04  0.10000000000E+02 0. -1.
</event>
<event>
 5    1  0.1252319E-008  0.3754383E+03  0.7957747E-01  0.3471265E+00
         13   -1    0    0    0    0  0.00000000000E+00  0.00000000000E+00  0.14999999963E+04  0.15000000000E+04  0.10566000000E+00 0. -1.
        994   -1    0    0    0    0 -0.00000000000E+00 -0.00000000000E+00  0.11368683772E-12  0.17120000000E+03  0.17120000000E+03 0.  0.
         13    1    1    2    0    0 -0.71110447315E+01  0.10801694048E+02  0.98739712594E+01  0.16271140831E+02  0.10566000000E+00 0. -1.
        994    1    1    2    0    0 -0.44863116263E+01 -0.23396648488E+02  0.83825177081E+01  0.17305269936E+03  0.17120000000E+03 0.  0.
        998    1    1    2    0    0  0.11597356358E+02  0.12594954440E+02  0.14817435073E+04  0.14818761598E+04  0.10000000000E+02 0. -1.
</event>
<event>
 5    1  0.1252319E-008  0.3856413E+03  0.7957747E-01  0.3426957E+00
         13   -1    0    0    0    0  0.00000000000E+00  0.00000000000E+00  0.14999999963E+04  0.15000000000E+04  0.10566000000E+00 0. -1.
        994   -1    0    0    0    0 -0.00000000000E+00 -0.00000000000E+00  0.11368683772E-12  0.17120000000E+03  0.17120000000E+03 0.  0.
         13    1    1    2    0    0 -0.12609807878E+01 -0.13270192382E+02  0.66419210191E+02  0.67743713545E+02  0.10566000000E+00 0. -1.
        994    1    1    2    0    0 -0.16159408446E+01  0.12727365725E+02  0.18524519501E+01  0.17169003664E+03  0.17120000000E+03 0.  0.
        998    1    1    2    0    0  0.28769216324E+01  0.54282665727E+00  0.14317283341E+04  0.14317662498E+04  0.10000000000E+02 0. -1.
</event>
<event>
 5    1  0.1252319E-008  0.3859965E+03  0.7957747E-01  0.3425457E+00
         13   -1    0    0    0    0  0.00000000000E+00  0.00000000000E+00  0.14999999963E+04  0.15000000000E+04  0.10566000000E+00 0.  1.
        994   -1    0    0    0    0 -0.00000000000E+00 -0.00000000000E+00  0.11368683772E-12  0.17120000000E+03  0.17120000000E+03 0.  0.
         13    1    1    2    0    0  0.11710481539E+02 -0.13240253690E+01  0.63019123679E+02  0.64111695769E+02  0.10566000000E+00 0.  1.
        994    1    1    2    0    0 -0.54967653730E+01 -0.12126858987E+01  0.12400816309E+01  0.17129700184E+03  0.17120000000E+03 0.  0.
        998    1    1    2    0    0 -0.62137161660E+01  0.25367112677E+01  0.14357407910E+04  0.14357913024E+04  0.10000000000E+02 0.  1.
</event>
<event>
 5    1  0.1252319E-008  0.3767328E+03  0.7957747E-01  0.3465509E+00
         13   -1    0    0    0    0  0.00000000000E+00  0.00000000000E+00  0.14999999963E+04  0.15000000000E+04  0.10566000000E+00 0. -1.
        994   -1    0    0    0    0 -0.00000000000E+00 -0.00000000000E+00  0.11368683772E-12  0.17120000000E+03  0.17120000000E+03 0.  0.
         13    1    1    2    0    0 -0.42273536682E+02 -0.10795196928E+02  0.57854637301E+02  0.72462117010E+02  0.10566000000E+00 0. -1.
        994    1    1    2    0    0  0.44030439925E+02  0.55583359020E+01  0.21629922031E+02  0.17817650874E+03  0.17120000000E+03 0.  0.
        998    1    1    2    0    0 -0.17569032430E+01  0.52368610258E+01  0.14205154369E+04  0.14205613743E+04  0.10000000000E+02 0. -1.
</event>
<event>
 5    1  0.1252319E-008  0.3837728E+03  0.7957747E-01  0.3434894E+00
         13   -1    0    0    0    0  0.00000000000E+00  0.00000000000E+00  0.14999999963E+04  0.15000000000E+04  0.10566000000E+00 0. -1.
        994   -1    0    0    0    0 -0.00000000000E+00 -0.00000000000E+00  0.11368683772E-12  0.17120000000E+03  0.17120000000E+03 0.  0.
         13    1    1    2    0    0 -0.11709303733E+02 -0.18742279482E+02  0.10240728061E+03  0.10476470360E+03  0.10566000000E+00 0. -1.
        994    1    1    2    0    0  0.66512261832E+01  0.22111940949E+02  0.40030818829E+01  0.17279653181E+03  0.17120000000E+03 0.  0.
        998    1    1    2    0    0  0.50580775495E+01 -0.33696614666E+01  0.13935896338E+04  0.13936387646E+04  0.10000000000E+02 0. -1.
</event>
<event>
 5    1  0.1252319E-008  0.3720738E+03  0.7957747E-01  0.3486414E+00
         13   -1    0    0    0    0  0.00000000000E+00  0.00000000000E+00  0.14999999963E+04  0.15000000000E+04  0.10566000000E+00 0. -1.
        994   -1    0    0    0    0 -0.00000000000E+00 -0.00000000000E+00  0.11368683772E-12  0.17120000000E+03  0.17120000000E+03 0.  0.
         13    1    1    2    0    0 -0.28813919828E+02 -0.47273509601E+02  0.17275467245E+03  0.18140897085E+03  0.10566000000E+00 0. -1.
        994    1    1    2    0    0  0.25196679970E+02  0.38064094042E+02  0.15376952307E+02  0.17784723388E+03  0.17120000000E+03 0.  0.
        998    1    1    2    0    0  0.36172398581E+01  0.92094155596E+01  0.13118683715E+04  0.13119437953E+04  0.10000000000E+02 0. -1.
</event>
<event>
 5    1  0.1252319E-008  0.3789253E+03  0.7957747E-01  0.3455851E+00
         13   -1    0    0    0    0  0.00000000000E+00  0.00000000000E+00  0.14999999963E+04  0.15000000000E+04  0.10566000000E+00 0.  1.
        994   -1    0    0    0    0 -0.00000000000E+00 -0.00000000000E+00  0.11368683772E-12  0.17120000000E+03  0.17120000000E+03 0.  0.
         13    1    1    2    0    0 -0.51929382844E+01  0.25797765157E+02  0.75553121227E+02  0.80004853517E+02  0.10566000000E+00 0.  1.
        994    1    1    2    0    0  0.38380477831E+01 -0.57473083418E+01  0.48368743639E+01  0.17140769387E+03  0.17120000000E+03 0.  0.
        998    1    1    2    0    0  0.13548905013E+01 -0.20050456815E+02  0.14196100007E+04  0.14197874526E+04  0.10000000000E+02 0.  1.
</event>
<event>
 5    1  0.1252319E-008  0.3720687E+03  0.7957747E-01  0.3486437E+00
         13   -1    0    0    0    0  0.00000000000E+00  0.00000000000E+00  0.14999999963E+04  0.15000000000E+04  0.10566000000E+00 0.  1.
        994   -1    0    0    0    0 -0.00000000000E+00 -0.00000000000E+00  0.11368683772E-12  0.17120000000E+03  0.17120000000E+03 0.  0.
         13    1    1    2    0    0 -0.51256758141E+02  0.46395316611E+02  0.21311577052E+03  0.22404937729E+03  0.10566000000E+00 0.  1.
        994    1    1    2    0    0 -0.51962221604E+02 -0.10405717807E+03  0.61332329942E+02  0.21586816226E+03  0.17120000000E+03 0.  0.
        998    1    1    2    0    0  0.10321897975E+03  0.57661861464E+02  0.12255518958E+04  0.12312824604E+04  0.10000000000E+02 0.  1.
</event>
<event>
 5    1  0.1252319E-008  0.3852919E+03  0.7957747E-01  0.3428435E+00
         13   -1    0    0    0    0  0.00000000000E+00  0.00000000000E+00  0.14999999963E+04  0.15000000000E+04  0.10566000000E+00 0. -1.
        994   -1    0    0    0    0 -0.00000000000E+00 -0.00000000000E+00  0.11368683772E-12  0.17120000000E+03  0.17120000000E+03 0.  0.
         13    1    1    2    0    0  0.13474468484E+02  0.73418130223E+01  0.83630385329E+02  0.85026560754E+02  0.10566000000E+00 0. -1.
        994    1    1    2    0    0 -0.60314937459E+01  0.39845640207E+01  0.16569897500E+01  0.17136055930E+03  0.17120000000E+03 0.  0.
        998    1    1    2    0    0 -0.74429747382E+01 -0.11326377043E+02  0.14147126212E+04  0.14148128799E+04  0.10000000000E+02 0. -1.
</event>
<event>
 5    1  0.1252319E-008  0.3732691E+03  0.7957747E-01  0.3481000E+00
         13   -1    0    0    0    0  0.00000000000E+00  0.00000000000E+00  0.14999999963E+04  0.15000000000E+04  0.10566000000E+00 0.  1.
        994   -1    0    0    0    0 -0.00000000000E+00 -0.00000000000E+00  0.11368683772E-12  0.17120000000E+03  0.17120000000E+03 0.  0.
         13    1    1    2    0    0  0.34731098624E+02 -0.42999157393E+02  0.18159787202E+03  0.18982353656E+03  0.10566000000E+00 0.  1.
        994    1    1    2    0    0 -0.29717208466E+02  0.39983561357E+02  0.16103939199E+02  0.17902674246E+03  0.17120000000E+03 0.  0.
        998    1    1    2    0    0 -0.50138901583E+01  0.30155960359E+01  0.13022981851E+04  0.13023497210E+04  0.10000000000E+02 0.  0.
</event>
<event>
 5    1  0.1252319E-008  0.3832909E+03  0.7957747E-01  0.3436953E+00
         13   -1    0    0    0    0  0.00000000000E+00  0.00000000000E+00  0.14999999963E+04  0.15000000000E+04  0.10566000000E+00 0.  1.
        994   -1    0    0    0    0 -0.00000000000E+00 -0.00000000000E+00  0.11368683772E-12  0.17120000000E+03  0.17120000000E+03 0.  0.
         13    1    1    2    0    0  0.74965244009E+02 -0.49875816782E+01  0.43143963753E+03  0.43793245572E+03  0.10566000000E+00 0.  1.
        994    1    1    2    0    0 -0.12312488975E+03 -0.12062031412E+02  0.54858052464E+02  0.21822941369E+03  0.17120000000E+03 0.  0.
        998    1    1    2    0    0  0.48159645741E+02  0.17049613091E+02  0.10137023063E+04  0.10150381306E+04  0.10000000000E+02 0.  1.
</event>
<event>
 5    1  0.1252319E-008  0.3823762E+03  0.7957747E-01  0.3440877E+00
         13   -1    0    0    0    0  0.00000000000E+00  0.00000000000E+00  0.14999999963E+04  0.15000000000E+04  0.10566000000E+00 0.  1.
        994   -1    0    0    0    0 -0.00000000000E+00 -0.00000000000E+00  0.11368683772E-12  0.17120000000E+03  0.17120000000E+03 0.  0.
         13    1    1    2    0    0 -0.16713472306E+02  0.59145185381E+01  0.54098019732E+02  0.56929154122E+02  0.10566000000E+00 0.  1.
        994    1    1    2    0    0  0.21674822761E+01 -0.90158248321E+01  0.32236871933E+01  0.17148123873E+03  0.17120000000E+03 0.  0.
        998    1    1    2    0    0  0.14545990030E+02  0.31013062939E+01  0.14426782894E+04  0.14427896071E+04  0.10000000000E+02 0.  1.
</event>
<event>
 5    1  0.1252319E-008  0.3797513E+03  0.7957747E-01  0.3452242E+00
         13   -1    0    0    0    0  0.00000000000E+00  0.00000000000E+00  0.14999999963E+04  0.15000000000E+04  0.10566000000E+00 0.  1.
        994   -1    0    0    0    0 -0.00000000000E+00 -0.00000000000E+00  0.11368683772E-12  0.17120000000E+03  0.17120000000E+03 0.  0.
         13    1    1    2    0    0  0.53500484320E+01  0.29569184833E+02  0.10533885576E+03  0.10954106721E+03  0.10566000000E+00 0.  1.
        994    1    1    2    0    0 -0.16780474358E+02 -0.14138779853E+02  0.58712827023E+01  0.17270032245E+03  0.17120000000E+03 0.  0.
        998    1    1    2    0    0  0.11430425926E+02 -0.15430404980E+02  0.13887898578E+04  0.13889586103E+04  0.10000000000E+02 0.  1.
</event>
<event>
 5    1  0.1252319E-008  0.3808122E+03  0.7957747E-01  0.3447630E+00
         13   -1    0    0    0    0  0.00000000000E+00  0.00000000000E+00  0.14999999963E+04  0.15000000000E+04  0.10566000000E+00 0. -1.
        994   -1    0    0    0    0 -0.00000000000E+00 -0.00000000000E+00  0.11368683772E-12  0.17120000000E+03  0.17120000000E+03 0.  0.
         13    1    1    2    0    0 -0.61495658181E+01 -0.14404872580E+02  0.31895641439E+02  0.35533936183E+02  0.10566000000E+00 0. -1.
        994    1    1    2    0    0  0.96513246107E+01  0.32962480568E+01  0.40705816050E+01  0.17155180836E+03  0.17120000000E+03 0.  0.
        998    1    1    2    0    0 -0.35017587926E+01  0.11108624523E+02  0.14640337732E+04  0.14641142555E+04  0.10000000000E+02 0. -1.
</event>
<event>
 5    1  0.1252319E-008  0.3842050E+03  0.7957747E-01  0.3433051E+00
         13   -1    0    0    0    0  0.00000000000E+00  0.00000000000E+00  0.14999999963E+04  0.15000000000E+04  0.10566000000E+00 0.  1.
        994   -1    0    0    0    0 -0.00000000000E+00 -0.00000000000E+00  0.11368683772E-12  0.17120000000E+03  0.17120000000E+03 0.  0.
         13    1    1    2    0    0 -0.89295253906E+00  0.17592935580E+02  0.77769371512E+02  0.79739545120E+02  0.10566000000E+00 0.  1.
        994    1    1    2    0    0  0.36022924134E+01 -0.80817626065E+01  0.22835303052E+01  0.17144371061E+03  0.17120000000E+03 0.  0.
        998    1    1    2    0    0 -0.27093398744E+01 -0.95111729739E+01  0.14199470945E+04  0.14200167443E+04  0.10000000000E+02 0.  1.
</event>
<event>
 5    1  0.1252319E-008  0.3839403E+03  0.7957747E-01  0.3434179E+00
         13   -1    0    0    0    0  0.00000000000E+00  0.00000000000E+00  0.14999999963E+04  0.15000000000E+04  0.10566000000E+00 0. -1.
        994   -1    0    0    0    0 -0.00000000000E+00 -0.00000000000E+00  0.11368683772E-12  0.17120000000E+03  0.17120000000E+03 0.  0.
         13    1    1    2    0    0  0.15835301107E+02 -0.40676550879E+01 -0.11860272196E+01  0.16392693606E+02  0.10566000000E+00 0. -1.
        994    1    1    2    0    0 -0.17145150221E+02 -0.13334256890E+01  0.19596815880E+02  0.17317392816E+03  0.17120000000E+03 0.  0.
        998    1    1    2    0    0  0.13098491138E+01  0.54010807769E+01  0.14815892076E+04  0.14816333782E+04  0.10000000000E+02 0. -1.
</event>
<event>
 5    1  0.1252319E-008  0.3847236E+03  0.7957747E-01  0.3430845E+00
         13   -1    0    0    0    0  0.00000000000E+00  0.00000000000E+00  0.14999999963E+04  0.15000000000E+04  0.10566000000E+00 0. -1.
        994   -1    0    0    0    0 -0.00000000000E+00 -0.00000000000E+00  0.11368683772E-12  0.17120000000E+03  0.17120000000E+03 0.  0.
         13    1    1    2    0    0 -0.67266748476E+01  0.10220606193E+02  0.44082032100E+02  0.45748723081E+02  0.10566000000E+00 0. -1.
        994    1    1    2    0    0 -0.84166716479E+01 -0.48118832331E+01  0.20768761046E+01  0.17148687412E+03  0.17120000000E+03 0.  0.
        998    1    1    2    0    0  0.15143346495E+02 -0.54087229599E+01  0.14538410881E+04  0.14539644028E+04  0.10000000000E+02 0. -1.
</event>
<event>
 5    1  0.1306219E-008  0.3854180E+03  0.7957747E-01  0.3427901E+00
         13   -1    0    0    0    0  0.00000000000E+00  0.00000000000E+00  0.14999999963E+04  0.15000000000E+04  0.10566000000E+00 0. -1.
        994   -1    0    0    0    0 -0.00000000000E+00 -0.00000000000E+00  0.11368683772E-12  0.17120000000E+03  0.17120000000E+03 0.  0.
         13    1    1    2    0    0 -0.27247250970E+01  0.12820564730E+02  0.60824078605E+02  0.62220339994E+02  0.10566000000E+00 0. -1.
        994    1    1    2    0    0 -0.20593784902E+01 -0.88337065097E+01  0.16930108422E+01  0.17144848117E+03  0.17120000000E+03 0.  0.
        998    1    1    2    0    0  0.47841035872E+01 -0.39868582206E+01  0.14374829068E+04  0.14375311788E+04  0.10000000000E+02 0. -1.
</event>
<event>
 5    1  0.1252319E-008  0.3846001E+03  0.7957747E-01  0.3431370E+00
         13   -1    0    0    0    0  0.00000000000E+00  0.00000000000E+00  0.14999999963E+04  0.15000000000E+04  0.10566000000E+00 0. -1.
        994   -1    0    0    0    0 -0.00000000000E+00 -0.00000000000E+00  0.11368683772E-12  0.17120000000E+03  0.17120000000E+03 0.  0.
         13    1    1    2    0    0  0.54298226355E+01  0.17914710114E+02  0.10294406698E+03  0.10463226989E+03  0.10566000000E+00 0. -1.
        994    1    1    2    0    0 -0.98490347867E+01  0.44174504439E+00  0.21489200109E+01  0.17149710342E+03  0.17120000000E+03 0.  0.
        998    1    1    2    0    0  0.44192121512E+01 -0.18356455159E+02  0.13949070093E+04  0.13950706267E+04  0.10000000000E+02 0. -1.
</event>
<event>
 5    1  0.1252319E-008  0.3824419E+03  0.7957747E-01  0.3440594E+00
         13   -1    0    0    0    0  0.00000000000E+00  0.00000000000E+00  0.14999999963E+04  0.15000000000E+04  0.10566000000E+00 0.  1.
        994   -1    0    0    0    0 -0.00000000000E+00 -0.00000000000E+00  0.11368683772E-12  0.17120000000E+03  0.17120000000E+03 0.  0.
         13    1    1    2    0    0  0.21053220094E+02  0.22763227139E+02  0.16178020208E+03  0.16472476297E+03  0.10566000000E+00 0.  1.
        994    1    1    2    0    0 -0.69446644789E+01 -0.21679819436E+02  0.46259855299E+01  0.17276887068E+03  0.17120000000E+03 0.  0.
        998    1    1    2    0    0 -0.14108555615E+02 -0.10834077027E+01  0.13335938087E+04  0.13337063663E+04  0.10000000000E+02 0.  1.
</event>
<event>
 5    1  0.1252319E-008  0.3833445E+03  0.7957747E-01  0.3436724E+00
         13   -1    0    0    0    0  0.00000000000E+00  0.00000000000E+00  0.14999999963E+04  0.15000000000E+04  0.10566000000E+00 0.  1.
        994   -1    0    0    0    0 -0.00000000000E+00 -0.00000000000E+00  0.11368683772E-12  0.17120000000E+03  0.17120000000E+03 0.  0.
         13    1    1    2    0    0  0.13752824900E+02 -0.12332863612E+02  0.64074926853E+02  0.66684684395E+02  0.10566000000E+00 0.  1.
        994    1    1    2    0    0 -0.31928768162E+02  0.35640192928E+01  0.58745005575E+01  0.17428740123E+03  0.17120000000E+03 0.  0.
        998    1    1    2    0    0  0.18175943262E+02  0.87688443194E+01  0.14300505689E+04  0.14302279144E+04  0.10000000000E+02 0.  1.
</event>
<event>
 5    1  0.1252319E-008  0.3798345E+03  0.7957747E-01  0.3451879E+00
         13   -1    0    0    0    0  0.00000000000E+00  0.00000000000E+00  0.14999999963E+04  0.15000000000E+04  0.10566000000E+00 0. -1.
        994   -1    0    0    0    0 -0.00000000000E+00 -0.00000000000E+00  0.11368683772E-12  0.17120000000E+03  0.17120000000E+03 0.  0.
         13    1    1    2    0    0 -0.61379996614E+01  0.10864653212E+02  0.17355018640E+02  0.21375770519E+02  0.10566000000E+00 0. -1.
        994    1    1    2    0    0  0.43600160650E+01  0.10368462045E+02  0.46399806045E+01  0.17163182737E+03  0.17120000000E+03 0.  0.
        998    1    1    2    0    0  0.17779835964E+01 -0.21233115257E+02  0.14780049970E+04  0.14781924021E+04  0.10000000000E+02 0. -1.
</event>
<event>
 5    1  0.1252319E-008  0.3852648E+03  0.7957747E-01  0.3428550E+00
         13   -1    0    0    0    0  0.00000000000E+00  0.00000000000E+00  0.14999999963E+04  0.15000000000E+04  0.10566000000E+00 0.  1.
        994   -1    0    0    0    0 -0.00000000000E+00 -0.00000000000E+00  0.11368683772E-12  0.17120000000E+03  0.17120000000E+03 0.  0.
         13    1    1    2    0    0 -0.16797518465E+02 -0.42389067180E+01  0.92121660748E+02  0.93736527031E+02  0.10566000000E+00 0.  1.
        994    1    1    2    0    0  0.21296857817E+02  0.65887132117E+01  0.31333805703E+01  0.17267375414E+03  0.17120000000E+03 0.  0.
        998    1    1    2    0    0 -0.44993393515E+01 -0.23498064937E+01  0.14047449550E+04  0.14047897188E+04  0.10000000000E+02 0.  1.
</event>
<event>
 5    1  0.1252319E-008  0.3713988E+03  0.7957747E-01  0.3489487E+00
         13   -1    0    0    0    0  0.00000000000E+00  0.00000000000E+00  0.14999999963E+04  0.15000000000E+04  0.10566000000E+00 0.  1.
        994   -1    0    0    0    0 -0.00000000000E+00 -0.00000000000E+00  0.11368683772E-12  0.17120000000E+03  0.17120000000E+03 0.  0.
         13    1    1    2    0    0  0.19332371939E+02  0.21456628597E+02  0.44170137857E+02  0.52774423331E+02  0.10566000000E+00 0.  1.
        994    1    1    2    0    0 -0.18096087708E+02 -0.23712636095E+02  0.11607589583E+02  0.17416639641E+03  0.17120000000E+03 0.  0.
        998    1    1    2    0    0 -0.12362842310E+01  0.22560074983E+01  0.14442222688E+04  0.14442591803E+04  0.10000000000E+02 0.  1.
</event>
<event>
 5    1  0.1252319E-008  0.3860120E+03  0.7957747E-01  0.3425392E+00
         13   -1    0    0    0    0  0.00000000000E+00  0.00000000000E+00  0.14999999963E+04  0.15000000000E+04  0.10566000000E+00 0.  1.
        994   -1    0    0    0    0 -0.00000000000E+00 -0.00000000000E+00  0.11368683772E-12  0.17120000000E+03  0.17120000000E+03 0.  0.
         13    1    1    2    0    0 -0.12173121789E+02 -0.44981809247E+01  0.72189213671E+02  0.73346521801E+02  0.10566000000E+00 0.  1.
        994    1    1    2    0    0  0.11993363578E+02  0.86956599455E+01  0.18482333306E+01  0.17184967628E+03  0.17120000000E+03 0.  0.
        998    1    1    2    0    0  0.17975821118E+00 -0.41974790208E+01  0.14259625493E+04  0.14260038019E+04  0.10000000000E+02 0.  1.
</event>
<event>
 5    1  0.1252319E-008  0.3751840E+03  0.7957747E-01  0.3472400E+00
         13   -1    0    0    0    0  0.00000000000E+00  0.00000000000E+00  0.14999999963E+04  0.15000000000E+04  0.10566000000E+00 0. -1.
        994   -1    0    0    0    0 -0.00000000000E+00 -0.00000000000E+00  0.11368683772E-12  0.17120000000E+03  0.17120000000E+03 0.  0.
         13    1    1    2    0    0 -0.98010238628E+01 -0.10414019896E+02  0.13227461375E+02  0.19480471699E+02  0.10566000000E+00 0. -1.
        994    1    1    2    0    0 -0.12089931717E+02 -0.33173491566E+01  0.71183684487E+01  0.17180594409E+03  0.17120000000E+03 0.  0.
        998    1    1    2    0    0  0.21890955580E+02  0.13731369053E+02  0.14796541665E+04  0.14799135842E+04  0.10000000000E+02 0. -1.
</event>
<event>
 5    1  0.1252319E-008  0.3703109E+03  0.7957747E-01  0.3494463E+00
         13   -1    0    0    0    0  0.00000000000E+00  0.00000000000E+00  0.14999999963E+04  0.15000000000E+04  0.10566000000E+00 0. -1.
        994   -1    0    0    0    0 -0.00000000000E+00 -0.00000000000E+00  0.11368683772E-12  0.17120000000E+03  0.17120000000E+03 0.  0.
         13    1    1    2    0    0 -0.42474873736E+02  0.55795504833E+01  0.10372448697E+03  0.11222311100E+03  0.10566000000E+00 0. -1.
        994    1    1    2    0    0  0.12492725903E+02  0.12130243067E+02  0.10154626111E+02  0.17238261928E+03  0.17120000000E+03 0.  0.
        998    1    1    2    0    0  0.29982147833E+02 -0.17709793550E+02  0.13861208832E+04  0.13865942697E+04  0.10000000000E+02 0. -1.
</event>
<event>
 5    1  0.1252319E-008  0.3801665E+03  0.7957747E-01  0.3450434E+00
         13   -1    0    0    0    0  0.00000000000E+00  0.00000000000E+00  0.14999999963E+04  0.15000000000E+04  0.10566000000E+00 0. -1.
        994   -1    0    0    0    0 -0.00000000000E+00 -0.00000000000E+00  0.11368683772E-12  0.17120000000E+03  0.17120000000E+03 0.  0.
         13    1    1    2    0    0  0.99778541545E+01  0.17851641532E+02  0.54578384336E+02  0.58284216385E+02  0.10566000000E+00 0. -1.
        994    1    1    2    0    0  0.96584930572E+01  0.38939245269E+01  0.44115178901E+01  0.17157316406E+03  0.17120000000E+03 0.  0.
        998    1    1    2    0    0 -0.19636347212E+02 -0.21745566059E+02  0.14410100941E+04  0.14413426196E+04  0.10000000000E+02 0. -1.
</event>
<event>
 5    1  0.1252319E-008  0.3817811E+03  0.7957747E-01  0.3443439E+00
         13   -1    0    0    0    0  0.00000000000E+00  0.00000000000E+00  0.14999999963E+04  0.15000000000E+04  0.10566000000E+00 0. -1.
        994   -1    0    0    0    0 -0.00000000000E+00 -0.00000000000E+00  0.11368683772E-12  0.17120000000E+03  0.17120000000E+03 0.  0.
         13    1    1    2    0    0  0.79924857683E+01 -0.32486663761E+02  0.15779083494E+03  0.16129854899E+03  0.10566000000E+00 0. -1.
        994    1    1    2    0    0 -0.89760846323E+01  0.30319678434E+02  0.65667089584E+01  0.17421944398E+03  0.17120000000E+03 0.  0.
        998    1    1    2    0    0  0.98359886397E+00  0.21669853275E+01  0.13356424524E+04  0.13356820070E+04  0.10000000000E+02 0. -1.
</event>
<event>
 5    1  0.1252319E-008  0.3706084E+03  0.7957747E-01  0.3493099E+00
         13   -1    0    0    0    0  0.00000000000E+00  0.00000000000E+00  0.14999999963E+04  0.15000000000E+04  0.10566000000E+00 0.  1.
        994   -1    0    0    0    0 -0.00000000000E+00 -0.00000000000E+00  0.11368683772E-12  0.17120000000E+03  0.17120000000E+03 0.  0.
         13    1    1    2    0    0 -0.13145931807E+02  0.69884029150E+02  0.28728020081E+03  0.29595019513E+03  0.10566000000E+00 0.  1.
        994    1    1    2    0    0  0.37676102938E+02 -0.31584878340E+02  0.17337979133E+02  0.17896127736E+03  0.17120000000E+03 0.  0.
        998    1    1    2    0    0 -0.24530171132E+02 -0.38299150810E+02  0.11953818163E+04  0.11962885275E+04  0.10000000000E+02 0.  1.
</event>
<event>
 5    1  0.1252319E-008  0.3747494E+03  0.7957747E-01  0.3474344E+00
         13   -1    0    0    0    0  0.00000000000E+00  0.00000000000E+00  0.14999999963E+04  0.15000000000E+04  0.10566000000E+00 0. -1.
        994   -1    0    0    0    0 -0.00000000000E+00 -0.00000000000E+00  0.11368683772E-12  0.17120000000E+03  0.17120000000E+03 0.  0.
         13    1    1    2    0    0 -0.38047987461E+02 -0.18365193744E+02  0.15918901612E+03  0.16469998090E+03  0.10566000000E+00 0. -1.
        994    1    1    2    0    0  0.20818187340E+02 -0.66004480141E+02  0.23282079177E+02  0.18612222740E+03  0.17120000000E+03 0.  0.
        998    1    1    2    0    0  0.17229800122E+02  0.84369673885E+02  0.13175289010E+04  0.13203777917E+04  0.10000000000E+02 0. -1.
</event>
<event>
 5    1  0.2016343E-008  0.3862122E+03  0.7957747E-01  0.3424547E+00
         13   -1    0    0    0    0  0.00000000000E+00  0.00000000000E+00  0.14999999963E+04  0.15000000000E+04  0.10566000000E+00 0. -1.
        994   -1    0    0    0    0 -0.00000000000E+00 -0.00000000000E+00  0.11368683772E-12  0.17120000000E+03  0.17120000000E+03 0.  0.
         13    1    1    2    0    0 -0.62367378972E+01 -0.79966331902E+01  0.51244551681E+02  0.52238475122E+02  0.10566000000E+00 0. -1.
        994    1    1    2    0    0 -0.49347860884E+00  0.72858420202E+01  0.12041852161E+01  0.17135990510E+03  0.17120000000E+03 0.  0.
        998    1    1    2    0    0  0.67302165061E+01  0.71079117001E+00  0.14475512594E+04  0.14476016198E+04  0.10000000000E+02 0. -1.
</event>
<event>
 5    1  0.1252319E-008  0.3995404E+03  0.7957747E-01  0.3370252E+00
         13   -1    0    0    0    0  0.00000000000E+00  0.00000000000E+00  0.14999999963E+04  0.15000000000E+04  0.10566000000E+00 0. -1.
        994   -1    0    0    0    0 -0.00000000000E+00 -0.00000000000E+00  0.11368683772E-12  0.17120000000E+03  0.17120000000E+03 0.  0.
         13    1    1    2    0    0 -0.87362486630E+01 -0.11929689960E+03  0.42043280218E+03  0.43711763246E+03  0.10566000000E+00 0. -1.
        994    1    1    2    0    0 -0.47879191522E+02 -0.10273081243E+02  0.36932075366E+02  0.18185535838E+03  0.17120000000E+03 0.  0.
        998    1    1    2    0    0  0.56615440185E+02  0.12956998084E+03  0.10426351187E+04  0.10522270092E+04  0.10000000000E+02 0. -1.
</event>
<event>
 5    1  0.1555955E-008  0.3859765E+03  0.7957747E-01  0.3425541E+00
         13   -1    0    0    0    0  0.00000000000E+00  0.00000000000E+00  0.14999999963E+04  0.15000000000E+04  0.10566000000E+00 0. -1.
        994   -1    0    0    0    0 -0.00000000000E+00 -0.00000000000E+00  0.11368683772E-12  0.17120000000E+03  0.17120000000E+03 0.  0.
         13    1    1    2    0    0  0.29727244008E+01  0.13106704508E+02  0.74420019570E+02  0.75623893514E+02  0.10566000000E+00 0. -1.
        994    1    1    2    0    0 -0.40622157525E+01 -0.16981185975E+02  0.21461332322E+01  0.17210144730E+03  0.17120000000E+03 0.  0.
        998    1    1    2    0    0  0.10894913517E+01  0.38744814666E+01  0.14234338435E+04  0.14234746592E+04  0.10000000000E+02 0. -1.
</event>
<event>
 5    1  0.1252319E-008  0.3891118E+03  0.7957747E-01  0.3412419E+00
         13   -1    0    0    0    0  0.00000000000E+00  0.00000000000E+00  0.14999999963E+04  0.15000000000E+04  0.10566000000E+00 0. -1.
        994   -1    0    0    0    0 -0.00000000000E+00 -0.00000000000E+00  0.11368683772E-12  0.17120000000E+03  0.17120000000E+03 0.  0.
         13    1    1    2    0    0 -0.57580659758E+02 -0.74432699821E+02  0.29975558514E+03  0.31418017310E+03  0.10566000000E+00 0. -1.
        994    1    1    2    0    0  0.58781089664E+01 -0.33307096702E+02  0.25725720348E+02  0.17639491927E+03  0.17120000000E+03 0.  0.
        998    1    1    2    0    0  0.51702550792E+02  0.10773979652E+03  0.11745186908E+04  0.11806249076E+04  0.10000000000E+02 0. -1.
</event>
<event>
 5    1  0.1252319E-008  0.3765966E+03  0.7957747E-01  0.3466113E+00
         13   -1    0    0    0    0  0.00000000000E+00  0.00000000000E+00  0.14999999963E+04  0.15000000000E+04  0.10566000000E+00 0. -1.
        994   -1    0    0    0    0 -0.00000000000E+00 -0.00000000000E+00  0.11368683772E-12  0.17120000000E+03  0.17120000000E+03 0.  0.
         13    1    1    2    0    0  0.55780422514E+01  0.10123527513E+02  0.88170639660E+01  0.14537955347E+02  0.10566000000E+00 0. -1.
        994    1    1    2    0    0 -0.27871826031E+01 -0.41040929729E+01  0.59443621109E+01  0.17137499061E+03  0.17120000000E+03 0.  0.
        998    1    1    2    0    0 -0.27908596482E+01 -0.60194345397E+01  0.14852385702E+04  0.14852870540E+04  0.10000000000E+02 0. -1.
</event>
<event>
 5    1  0.1252319E-008  0.3767851E+03  0.7957747E-01  0.3465277E+00
         13   -1    0    0    0    0  0.00000000000E+00  0.00000000000E+00  0.14999999963E+04  0.15000000000E+04  0.10566000000E+00 0.  1.
        994   -1    0    0    0    0 -0.00000000000E+00 -0.00000000000E+00  0.11368683772E-12  0.17120000000E+03  0.17120000000E+03 0.  0.
         13    1    1    2    0    0  0.44383396029E+02  0.68093037355E+02  0.19444794165E+03  0.21075236832E+03  0.10566000000E+00 0.  1.
        994    1    1    2    0    0 -0.44245532591E+02 -0.66748209577E+02  0.37913532750E+02  0.19276894615E+03  0.17120000000E+03 0.  0.
        998    1    1    2    0    0 -0.13786343798E+00 -0.13448277777E+01  0.12676385219E+04  0.12676786855E+04  0.10000000000E+02 0.  0.
</event>
<event>
 5    1  0.1252319E-008  0.3692916E+03  0.7957747E-01  0.3499153E+00
         13   -1    0    0    0    0  0.00000000000E+00  0.00000000000E+00  0.14999999963E+04  0.15000000000E+04  0.10566000000E+00 0.  1.
        994   -1    0    0    0    0 -0.00000000000E+00 -0.00000000000E+00  0.11368683772E-12  0.17120000000E+03  0.17120000000E+03 0.  0.
         13    1    1    2    0    0  0.97958071308E+01  0.37891320430E+02  0.73814826651E+02  0.83548487711E+02  0.10566000000E+00 0.  1.
        994    1    1    2    0    0 -0.97852606265E-01 -0.35017547510E+02  0.13902011990E+02  0.17529673170E+03  0.17120000000E+03 0.  0.
        998    1    1    2    0    0 -0.96979545245E+01 -0.28737729198E+01  0.14122831576E+04  0.14123547806E+04  0.10000000000E+02 0.  1.
</event>
<event>
 5    1  0.1252319E-008  0.3801992E+03  0.7957747E-01  0.3450292E+00
         13   -1    0    0    0    0  0.00000000000E+00  0.00000000000E+00  0.14999999963E+04  0.15000000000E+04  0.10566000000E+00 0. -1.
        994   -1    0    0    0    0 -0.00000000000E+00 -0.00000000000E+00  0.11368683772E-12  0.17120000000E+03  0.17120000000E+03 0.  0.
         13    1    1    2    0    0  0.10399595455E+02 -0.27036604255E+02  0.95367031397E+02  0.99669510869E+02  0.10566000000E+00 0. -1.
        994    1    1    2    0    0 -0.98027440142E+00  0.34288973261E+02  0.79736280867E+01  0.17478476298E+03  0.17120000000E+03 0.  0.
        998    1    1    2    0    0 -0.94193210539E+01 -0.72523690060E+01  0.13966593368E+04  0.13967457262E+04  0.10000000000E+02 0. -1.
</event>
<event>
 5    1  0.1252319E-008  0.3846044E+03  0.7957747E-01  0.3431352E+00
         13   -1    0    0    0    0  0.00000000000E+00  0.00000000000E+00  0.14999999963E+04  0.15000000000E+04  0.10566000000E+00 0.  1.
        994   -1    0    0    0    0 -0.00000000000E+00 -0.00000000000E+00  0.11368683772E-12  0.17120000000E+03  0.17120000000E+03 0.  0.
         13    1    1    2    0    0  0.17765770905E+02 -0.44873507777E+01  0.10439550348E+03  0.10599146779E+03  0.10566000000E+00 0.  1.
        994    1    1    2    0    0 -0.49674452971E+00 -0.19470982233E+02  0.30768707334E+01  0.17233186890E+03  0.17120000000E+03 0.  0.
        998    1    1    2    0    0 -0.17269026375E+02  0.23958333011E+02  0.13925276221E+04  0.13928766633E+04  0.10000000000E+02 0.  1.
</event>
<event>
 5    1  0.1252319E-008  0.3782615E+03  0.7957747E-01  0.3458763E+00
         13   -1    0    0    0    0  0.00000000000E+00  0.00000000000E+00  0.14999999963E+04  0.15000000000E+04  0.10566000000E+00 0. -1.
        994   -1    0    0    0    0 -0.00000000000E+00 -0.00000000000E+00  0.11368683772E-12  0.17120000000E+03  0.17120000000E+03 0.  0.
         13    1    1    2    0    0 -0.39327118215E+02 -0.36867871043E+02  0.26857945853E+03  0.27393575680E+03  0.10566000000E+00 0. -1.
        994    1    1    2    0    0  0.42436222139E+02  0.13469007838E+02  0.11707205242E+02  0.17728154381E+03  0.17120000000E+03 0.  0.
        998    1    1    2    0    0 -0.31091039239E+01  0.23398863205E+02  0.12197133325E+04  0.12199826994E+04  0.10000000000E+02 0. -1.
</event>
<event>
 5    1  0.1252319E-008  0.3818329E+03  0.7957747E-01  0.3443216E+00
         13   -1    0    0    0    0  0.00000000000E+00  0.00000000000E+00  0.14999999963E+04  0.15000000000E+04  0.10566000000E+00 0.  1.
        994   -1    0    0    0    0 -0.00000000000E+00 -0.00000000000E+00  0.11368683772E-12  0.17120000000E+03  0.17120000000E+03 0.  0.
         13    1    1    2    0    0  0.71671431958E+01  0.26377585351E+02  0.13819015389E+03  0.14086757877E+03  0.10566000000E+00 0.  1.
        994    1    1    2    0    0  0.22885212513E+02  0.28609530113E+01  0.49802343801E+01  0.17281828821E+03  0.17120000000E+03 0.  0.
        998    1    1    2    0    0 -0.30052355709E+02 -0.29238538362E+02  0.13568296080E+04  0.13575141330E+04  0.10000000000E+02 0.  1.
</event>
<event>
 5    1  0.1252319E-008  0.3811090E+03  0.7957747E-01  0.3446344E+00
         13   -1    0    0    0    0  0.00000000000E+00  0.00000000000E+00  0.14999999963E+04  0.15000000000E+04  0.10566000000E+00 0. -1.
        994   -1    0    0    0    0 -0.00000000000E+00 -0.00000000000E+00  0.11368683772E-12  0.17120000000E+03  0.17120000000E+03 0.  0.
         13    1    1    2    0    0 -0.21857681763E+02  0.62322386625E+01  0.67566193071E+02  0.71286749547E+02  0.10566000000E+00 0. -1.
        994    1    1    2    0    0  0.24607749337E+02 -0.64633233046E+01  0.57334035292E+01  0.17317513618E+03  0.17120000000E+03 0.  0.
        998    1    1    2    0    0 -0.27500675743E+01  0.23108464208E+00  0.14267003997E+04  0.14267381143E+04  0.10000000000E+02 0. -1.
</event>
<event>
 5    1  0.1252319E-008  0.3804545E+03  0.7957747E-01  0.3449182E+00
         13   -1    0    0    0    0  0.00000000000E+00  0.00000000000E+00  0.14999999963E+04  0.15000000000E+04  0.10566000000E+00 0.  1.
        994   -1    0    0    0    0 -0.00000000000E+00 -0.00000000000E+00  0.11368683772E-12  0.17120000000E+03  0.17120000000E+03 0.  0.
         13    1    1    2    0    0  0.16647858079E+02  0.27767817944E+02  0.16111805293E+03  0.16433879954E+03  0.10566000000E+00 0.  1.
        994    1    1    2    0    0  0.10308036368E+02  0.36595694371E+01  0.43033481863E+01  0.17160305029E+03  0.17120000000E+03 0.  0.
        998    1    1    2    0    0 -0.26955894447E+02 -0.31427387381E+02  0.13345785952E+04  0.13352581502E+04  0.10000000000E+02 0.  1.
</event>
<event>
 5    1  0.1252319E-008  0.3844249E+03  0.7957747E-01  0.3432115E+00
         13   -1    0    0    0    0  0.00000000000E+00  0.00000000000E+00  0.14999999963E+04  0.15000000000E+04  0.10566000000E+00 0.  1.
        994   -1    0    0    0    0 -0.00000000000E+00 -0.00000000000E+00  0.11368683772E-12  0.17120000000E+03  0.17120000000E+03 0.  0.
         13    1    1    2    0    0 -0.10698894793E+02 -0.10602426384E+02  0.61728255109E+02  0.63539487233E+02  0.10566000000E+00 0.  1.
        994    1    1    2    0    0 -0.35906711928E+01  0.63848557289E+01  0.20927421638E+01  0.17136942222E+03  0.17120000000E+03 0.  0.
        998    1    1    2    0    0  0.14289565986E+02  0.42175706550E+01  0.14361789990E+04  0.14362910905E+04  0.10000000000E+02 0.  1.
</event>
<event>
 5    1  0.1252319E-008  0.3795237E+03  0.7957747E-01  0.3453235E+00
         13   -1    0    0    0    0  0.00000000000E+00  0.00000000000E+00  0.14999999963E+04  0.15000000000E+04  0.10566000000E+00 0.  1.
        994   -1    0    0    0    0 -0.00000000000E+00 -0.00000000000E+00  0.11368683772E-12  0.17120000000E+03  0.17120000000E+03 0.  0.
         13    1    1    2    0    0 -0.15871172403E+02 -0.38001056019E+01  0.30175118612E+02  0.34305740968E+02  0.10566000000E+00 0.  1.
        994    1    1    2    0    0 -0.38252658668E+01 -0.80944784440E+01  0.46421714587E+01  0.17149677255E+03  0.17120000000E+03 0.  0.
        998    1    1    2    0    0  0.19696438270E+02  0.11894584046E+02  0.14651827062E+04  0.14653974865E+04  0.10000000000E+02 0.  1.
</event>
<event>
 5    1  0.1252319E-008  0.3756689E+03  0.7957747E-01  0.3470236E+00
         13   -1    0    0    0    0  0.00000000000E+00  0.00000000000E+00  0.14999999963E+04  0.15000000000E+04  0.10566000000E+00 0.  1.
        994   -1    0    0    0    0 -0.00000000000E+00 -0.00000000000E+00  0.11368683772E-12  0.17120000000E+03  0.17120000000E+03 0.  0.
         13    1    1    2    0    0  0.43251160288E+02  0.36098390463E+02  0.18665173774E+03  0.19496830262E+03  0.10566000000E+00 0.  1.
        994    1    1    2    0    0 -0.51265053998E+02 -0.67884479584E+02  0.31287664427E+02  0.19371310300E+03  0.17120000000E+03 0.  0.
        998    1    1    2    0    0  0.80138937103E+01  0.31786089121E+02  0.12820605941E+04  0.12825185944E+04  0.10000000000E+02 0.  1.
</event>
<event>
 5    1  0.1252319E-008  0.3788473E+03  0.7957747E-01  0.3456193E+00
         13   -1    0    0    0    0  0.00000000000E+00  0.00000000000E+00  0.14999999963E+04  0.15000000000E+04  0.10566000000E+00 0. -1.
        994   -1    0    0    0    0 -0.00000000000E+00 -0.00000000000E+00  0.11368683772E-12  0.17120000000E+03  0.17120000000E+03 0.  0.
         13    1    1    2    0    0 -0.34073517930E+02  0.25066829561E+02  0.16128963814E+03  0.16674444250E+03  0.10566000000E+00 0. -1.
        994    1    1    2    0    0  0.40829873593E+02 -0.28850108635E+02  0.13149581944E+02  0.17883444537E+03  0.17120000000E+03 0.  0.
        998    1    1    2    0    0 -0.67563556629E+01  0.37832790744E+01  0.13255607762E+04  0.13256211121E+04  0.10000000000E+02 0. -1.
</event>
<event>
 5    1  0.1252319E-008  0.3854915E+03  0.7957747E-01  0.3427591E+00
         13   -1    0    0    0    0  0.00000000000E+00  0.00000000000E+00  0.14999999963E+04  0.15000000000E+04  0.10566000000E+00 0. -1.
        994   -1    0    0    0    0 -0.00000000000E+00 -0.00000000000E+00  0.11368683772E-12  0.17120000000E+03  0.17120000000E+03 0.  0.
         13    1    1    2    0    0  0.23556357493E+01  0.15098158827E+02  0.77908106603E+02  0.79392617152E+02  0.10566000000E+00 0. -1.
        994    1    1    2    0    0 -0.19067970974E+01 -0.21166362013E+02  0.28706941968E+01  0.17253791363E+03  0.17120000000E+03 0.  0.
        998    1    1    2    0    0 -0.44883865183E+00  0.60682031854E+01  0.14192211955E+04  0.14192694692E+04  0.10000000000E+02 0. -1.
</event>
<event>
 5    1  0.1252319E-008  0.3839103E+03  0.7957747E-01  0.3434307E+00
         13   -1    0    0    0    0  0.00000000000E+00  0.00000000000E+00  0.14999999963E+04  0.15000000000E+04  0.10566000000E+00 0. -1.
        994   -1    0    0    0    0 -0.00000000000E+00 -0.00000000000E+00  0.11368683772E-12  0.17120000000E+03  0.17120000000E+03 0.  0.
         13    1    1    2    0    0 -0.13470988373E+02 -0.94701389012E+01  0.62850244622E+02  0.64971651292E+02  0.10566000000E+00 0. -1.
        994    1    1    2    0    0  0.12775292715E+02 -0.38954598500E+01  0.27610800308E+01  0.17174238345E+03  0.17120000000E+03 0.  0.
        998    1    1    2    0    0  0.69569565871E+00  0.13365598751E+02  0.14343886716E+04  0.14344859653E+04  0.10000000000E+02 0. -1.
</event>
<event>
 5    1  0.1252319E-008  0.3837565E+03  0.7957747E-01  0.3434963E+00
         13   -1    0    0    0    0  0.00000000000E+00  0.00000000000E+00  0.14999999963E+04  0.15000000000E+04  0.10566000000E+00 0. -1.
        994   -1    0    0    0    0 -0.00000000000E+00 -0.00000000000E+00  0.11368683772E-12  0.17120000000E+03  0.17120000000E+03 0.  0.
         13    1    1    2    0    0  0.75853094997E+02  0.63992596558E+02  0.31482779284E+03  0.33009891660E+03  0.10566000000E+00 0. -1.
        994    1    1    2    0    0 -0.57193223301E+02  0.25080122098E+02  0.32879757019E+02  0.18517720091E+03  0.17120000000E+03 0.  0.
        998    1    1    2    0    0 -0.18659871696E+02 -0.89072718656E+02  0.11522924464E+04  0.11559238825E+04  0.10000000000E+02 0. -1.
</event>
<event>
 5    1  0.1252319E-008  0.3810900E+03  0.7957747E-01  0.3446426E+00
         13   -1    0    0    0    0  0.00000000000E+00  0.00000000000E+00  0.14999999963E+04  0.15000000000E+04  0.10566000000E+00 0. -1.
        994   -1    0    0    0    0 -0.00000000000E+00 -0.00000000000E+00  0.11368683772E-12  0.17120000000E+03  0.17120000000E+03 0.  0.
         13    1    1    2    0    0 -0.48600080491E+01 -0.13622377730E+02  0.29609976794E+02  0.32953766750E+02  0.10566000000E+00 0. -1.
        994    1    1    2    0    0 -0.43077850629E+02  0.49088082385E+01  0.98708762271E+01  0.17688038843E+03  0.17120000000E+03 0.  0.
        998    1    1    2    0    0  0.47937858678E+02  0.87135694913E+01  0.14605191433E+04  0.14613658448E+04  0.10000000000E+02 0. -1.
</event>
<event>
 5    1  0.1252319E-008  0.3861305E+03  0.7957747E-01  0.3424892E+00
         13   -1    0    0    0    0  0.00000000000E+00  0.00000000000E+00  0.14999999963E+04  0.15000000000E+04  0.10566000000E+00 0.  1.
        994   -1    0    0    0    0 -0.00000000000E+00 -0.00000000000E+00  0.11368683772E-12  0.17120000000E+03  0.17120000000E+03 0.  0.
         13    1    1    2    0    0  0.24853027324E+01 -0.13216999782E+02  0.74395973663E+02  0.75601837771E+02  0.10566000000E+00 0.  1.
        994    1    1    2    0    0 -0.18684237089E+02  0.23595120692E+02  0.40436295199E+01  0.17387242845E+03  0.17120000000E+03 0.  0.
        998    1    1    2    0    0  0.16198934357E+02 -0.10378120909E+02  0.14215603931E+04  0.14217257338E+04  0.10000000000E+02 0.  1.
</event>
<event>
 5    1  0.1252319E-008  0.3842483E+03  0.7957747E-01  0.3432866E+00
         13   -1    0    0    0    0  0.00000000000E+00  0.00000000000E+00  0.14999999963E+04  0.15000000000E+04  0.10566000000E+00 0. -1.
        994   -1    0    0    0    0 -0.00000000000E+00 -0.00000000000E+00  0.11368683772E-12  0.17120000000E+03  0.17120000000E+03 0.  0.
         13    1    1    2    0    0 -0.83230453243E+01 -0.11451218523E+02  0.53769819094E+02  0.55602231058E+02  0.10566000000E+00 0. -1.
        994    1    1    2    0    0 -0.28988631699E+01 -0.48790629127E+01  0.21099914899E+01  0.17130703642E+03  0.17120000000E+03 0.  0.
        998    1    1    2    0    0  0.11221908494E+02  0.16330281436E+02  0.14441201857E+04  0.14442907325E+04  0.10000000000E+02 0. -1.
</event>
<event>
 5    1  0.1252319E-008  0.3793860E+03  0.7957747E-01  0.3453836E+00
         13   -1    0    0    0    0  0.00000000000E+00  0.00000000000E+00  0.14999999963E+04  0.15000000000E+04  0.10566000000E+00 0.  1.
        994   -1    0    0    0    0 -0.00000000000E+00 -0.00000000000E+00  0.11368683772E-12  0.17120000000E+03  0.17120000000E+03 0.  0.
         13    1    1    2    0    0  0.20153648030E+01  0.16421368931E+02  0.30044165986E+02  0.34298485779E+02  0.10566000000E+00 0.  1.
        994    1    1    2    0    0 -0.10178749793E+02  0.16156755791E+01  0.47992664962E+01  0.17157706815E+03  0.17120000000E+03 0.  0.
        998    1    1    2    0    0  0.81633849899E+01 -0.18037044510E+02  0.14651565638E+04  0.14653244461E+04  0.10000000000E+02 0.  1.
</event>
<event>
 5    1  0.1252319E-008  0.3824268E+03  0.7957747E-01  0.3440659E+00
         13   -1    0    0    0    0  0.00000000000E+00  0.00000000000E+00  0.14999999963E+04  0.15000000000E+04  0.10566000000E+00 0. -1.
        994   -1    0    0    0    0 -0.00000000000E+00 -0.00000000000E+00  0.11368683772E-12  0.17120000000E+03  0.17120000000E+03 0.  0.
         13    1    1    2    0    0 -0.11948923735E+02  0.12534358634E+02  0.49856142151E+02  0.52778148878E+02  0.10566000000E+00 0. -1.
        994    1    1    2    0    0  0.25815549325E+02  0.43153106502E+01  0.51882826266E+01  0.17326691193E+03  0.17120000000E+03 0.  0.
        998    1    1    2    0    0 -0.13866625590E+02 -0.16849669284E+02  0.14449555715E+04  0.14451549392E+04  0.10000000000E+02 0. -1.
</event>
<event>
 5    1  0.1252319E-008  0.3772005E+03  0.7957747E-01  0.3463440E+00
         13   -1    0    0    0    0  0.00000000000E+00  0.00000000000E+00  0.14999999963E+04  0.15000000000E+04  0.10566000000E+00 0.  1.
        994   -1    0    0    0    0 -0.00000000000E+00 -0.00000000000E+00  0.11368683772E-12  0.17120000000E+03  0.17120000000E+03 0.  0.
         13    1    1    2    0    0 -0.36545067599E+02  0.12125761050E+01  0.10992214755E+03  0.11584430065E+03  0.10566000000E+00 0.  1.
        994    1    1    2    0    0  0.37729645148E+02 -0.34019963214E+01  0.10410630761E+02  0.17564999554E+03  0.17120000000E+03 0.  0.
        998    1    1    2    0    0 -0.11845775488E+01  0.21894202164E+01  0.13796672180E+04  0.13797057038E+04  0.10000000000E+02 0.  1.
</event>
<event>
 5    1  0.1252319E-008  0.3832486E+03  0.7957747E-01  0.3437134E+00
         13   -1    0    0    0    0  0.00000000000E+00  0.00000000000E+00  0.14999999963E+04  0.15000000000E+04  0.10566000000E+00 0. -1.
        994   -1    0    0    0    0 -0.00000000000E+00 -0.00000000000E+00  0.11368683772E-12  0.17120000000E+03  0.17120000000E+03 0.  0.
         13    1    1    2    0    0 -0.17713888416E+01  0.28128852389E+02  0.13568406686E+03  0.13858047236E+03  0.10566000000E+00 0. -1.
        994    1    1    2    0    0  0.10444140383E+02 -0.37198587901E+02  0.74552640164E+01  0.17566398598E+03  0.17120000000E+03 0.  0.
        998    1    1    2    0    0 -0.86727515413E+01  0.90697355121E+01  0.13568606654E+04  0.13569555417E+04  0.10000000000E+02 0. -1.
</event>
<event>
 5    1  0.1252319E-008  0.3839032E+03  0.7957747E-01  0.3434337E+00
         13   -1    0    0    0    0  0.00000000000E+00  0.00000000000E+00  0.14999999963E+04  0.15000000000E+04  0.10566000000E+00 0. -1.
        994   -1    0    0    0    0 -0.00000000000E+00 -0.00000000000E+00  0.11368683772E-12  0.17120000000E+03  0.17120000000E+03 0.  0.
         13    1    1    2    0    0  0.88741174695E+01 -0.18813525704E+02  0.10706526450E+03  0.10906732204E+03  0.10566000000E+00 0. -1.
        994    1    1    2    0    0  0.45426236892E+02  0.28420728668E+02  0.11710218965E+02  0.17977166085E+03  0.17120000000E+03 0.  0.
        998    1    1    2    0    0 -0.54300354362E+02 -0.96072029636E+01  0.13812245128E+04  0.13823610171E+04  0.10000000000E+02 0. -1.
</event>
<event>
 5    1  0.1252319E-008  0.3844579E+03  0.7957747E-01  0.3431975E+00
         13   -1    0    0    0    0  0.00000000000E+00  0.00000000000E+00  0.14999999963E+04  0.15000000000E+04  0.10566000000E+00 0.  1.
        994   -1    0    0    0    0 -0.00000000000E+00 -0.00000000000E+00  0.11368683772E-12  0.17120000000E+03  0.17120000000E+03 0.  0.
         13    1    1    2    0    0 -0.11322202997E+02 -0.46776103941E+01  0.41554068045E+02  0.43322327440E+02  0.10566000000E+00 0.  1.
        994    1    1    2    0    0 -0.57614417223E+01  0.31627135189E+01  0.20418438202E+01  0.17133827971E+03  0.17120000000E+03 0.  0.
        998    1    1    2    0    0  0.17083644720E+02  0.15148968752E+01  0.14564040844E+04  0.14565393929E+04  0.10000000000E+02 0.  1.
</event>
<event>
 5    1  0.1252319E-008  0.2766901E+03  0.7957747E-01  0.4077902E+00
         13   -1    0    0    0    0  0.00000000000E+00  0.00000000000E+00  0.14999999963E+04  0.15000000000E+04  0.10566000000E+00 0. -1.
        994   -1    0    0    0    0 -0.00000000000E+00 -0.00000000000E+00  0.11368683772E-12  0.17120000000E+03  0.17120000000E+03 0.  0.
         13    1    1    2    0    0  0.20205576190E+03  0.10810037896E+02  0.38652575428E+03  0.43628609618E+03  0.10566000000E+00 0. -1.
        994    1    1    2    0    0 -0.21107323592E+03  0.22423852896E+02  0.24771172444E+03  0.36840911841E+03  0.17120000000E+03 0.  0.
        998    1    1    2    0    0  0.90174740231E+01 -0.33233890792E+02  0.86576251756E+03  0.86650478541E+03  0.10000000000E+02 0. -1.
</event>
<event>
 5    1  0.4390328E-008  0.3865248E+03  0.7957747E-01  0.3423231E+00
         13   -1    0    0    0    0  0.00000000000E+00  0.00000000000E+00  0.14999999963E+04  0.15000000000E+04  0.10566000000E+00 0. -1.
        994   -1    0    0    0    0 -0.00000000000E+00 -0.00000000000E+00  0.11368683772E-12  0.17120000000E+03  0.17120000000E+03 0.  0.
         13    1    1    2    0    0  0.32031635270E+01  0.98384154665E+01  0.60918042714E+02  0.61790563743E+02  0.10566000000E+00 0. -1.
        994    1    1    2    0    0 -0.18298608621E+01 -0.10081708285E+02  0.12186499695E+01  0.17151068288E+03  0.17120000000E+03 0.  0.
        998    1    1    2    0    0 -0.13733026649E+01  0.24329281855E+00  0.14378633036E+04  0.14378987534E+04  0.10000000000E+02 0. -1.
</event>
<event>
 5    1  0.1252319E-008  0.3835779E+03  0.7957747E-01  0.3435726E+00
         13   -1    0    0    0    0  0.00000000000E+00  0.00000000000E+00  0.14999999963E+04  0.15000000000E+04  0.10566000000E+00 0. -1.
        994   -1    0    0    0    0 -0.00000000000E+00 -0.00000000000E+00  0.11368683772E-12  0.17120000000E+03  0.17120000000E+03 0.  0.
         13    1    1    2    0    0 -0.13242679205E+02 -0.88563639653E+00  0.36450159928E+02  0.38791471063E+02  0.10566000000E+00 0. -1.
        994    1    1    2    0    0  0.12665139379E+02 -0.46085664834E+00  0.28686937399E+01  0.17169242135E+03  0.17120000000E+03 0.  0.
        998    1    1    2    0    0  0.57753982641E+00  0.13464930449E+01  0.14606811426E+04  0.14607161076E+04  0.10000000000E+02 0. -1.
</event>
<event>
 5    1  0.1252319E-008  0.3763128E+03  0.7957747E-01  0.3467372E+00
         13   -1    0    0    0    0  0.00000000000E+00  0.00000000000E+00  0.14999999963E+04  0.15000000000E+04  0.10566000000E+00 0. -1.
        994   -1    0    0    0    0 -0.00000000000E+00 -0.00000000000E+00  0.11368683772E-12  0.17120000000E+03  0.17120000000E+03 0.  0.
         13    1    1    2    0    0  0.43592313699E+01  0.13354197997E+02  0.13613334928E+02  0.19561992592E+02  0.10566000000E+00 0. -1.
        994    1    1    2    0    0  0.10773601997E+02 -0.19458430196E+02  0.76820882487E+01  0.17280959315E+03  0.17120000000E+03 0.  0.
        998    1    1    2    0    0 -0.15132833367E+02  0.61042321985E+01  0.14787045731E+04  0.14788284143E+04  0.10000000000E+02 0. -1.
</event>
<event>
 5    1  0.1252319E-008  0.3852377E+03  0.7957747E-01  0.3428665E+00
         13   -1    0    0    0    0  0.00000000000E+00  0.00000000000E+00  0.14999999963E+04  0.15000000000E+04  0.10566000000E+00 0. -1.
        994   -1    0    0    0    0 -0.00000000000E+00 -0.00000000000E+00  0.11368683772E-12  0.17120000000E+03  0.17120000000E+03 0.  0.
         13    1    1    2    0    0 -0.10473181795E+02 -0.99942102114E+01  0.87041291806E+02  0.88237007077E+02  0.10566000000E+00 0. -1.
        994    1    1    2    0    0 -0.45438748950E+02  0.26529400919E+02  0.10663222722E+02  0.17942027014E+03  0.17120000000E+03 0.  0.
        998    1    1    2    0    0  0.55911930745E+02 -0.16535190707E+02  0.14022954818E+04  0.14035427228E+04  0.10000000000E+02 0. -1.
</event>
<event>
 5    1  0.1252319E-008  0.3800061E+03  0.7957747E-01  0.3451132E+00
         13   -1    0    0    0    0  0.00000000000E+00  0.00000000000E+00  0.14999999963E+04  0.15000000000E+04  0.10566000000E+00 0.  1.
        994   -1    0    0    0    0 -0.00000000000E+00 -0.00000000000E+00  0.11368683772E-12  0.17120000000E+03  0.17120000000E+03 0.  0.
         13    1    1    2    0    0 -0.35473215125E+01 -0.10444317396E+02 -0.38667656697E+01  0.11688896294E+02  0.10566000000E+00 0.  1.
        994    1    1    2    0    0 -0.49071836667E+01  0.11747598535E+02  0.16918247813E+02  0.17250435830E+03  0.17120000000E+03 0.  0.
        998    1    1    2    0    0  0.84545051792E+01 -0.13032811389E+01  0.14869485141E+04  0.14870067454E+04  0.10000000000E+02 0.  1.
</event>
<event>
 5    1  0.1252319E-008  0.4105473E+03  0.7957747E-01  0.3328059E+00
         13   -1    0    0    0    0  0.00000000000E+00  0.00000000000E+00  0.14999999963E+04  0.15000000000E+04  0.10566000000E+00 0.  1.
        994   -1    0    0    0    0 -0.00000000000E+00 -0.00000000000E+00  0.11368683772E-12  0.17120000000E+03  0.17120000000E+03 0.  0.
         13    1    1    2    0    0 -0.13462114782E+03  0.12234103231E+02  0.19481308365E+03  0.23711742965E+03  0.10566000000E+00 0.  1.
        994    1    1    2    0    0  0.16248768154E+03  0.87867786285E+02  0.19376525317E+03  0.31776942561E+03  0.17120000000E+03 0.  0.
        998    1    1    2    0    0 -0.27866533718E+02 -0.10010188952E+03  0.11114216595E+04  0.11163131447E+04  0.10000000000E+02 0.  1.
</event>
<event>
 5    1  0.1252319E-008  0.3852061E+03  0.7957747E-01  0.3428798E+00
         13   -1    0    0    0    0  0.00000000000E+00  0.00000000000E+00  0.14999999963E+04  0.15000000000E+04  0.10566000000E+00 0. -1.
        994   -1    0    0    0    0 -0.00000000000E+00 -0.00000000000E+00  0.11368683772E-12  0.17120000000E+03  0.17120000000E+03 0.  0.
         13    1    1    2    0    0 -0.23199428651E+00 -0.16708768981E+02  0.86729418803E+02  0.88324628684E+02  0.10566000000E+00 0. -1.
        994    1    1    2    0    0  0.28418812594E+01  0.18068163954E+02  0.26280327035E+01  0.17219431290E+03  0.17120000000E+03 0.  0.
        998    1    1    2    0    0 -0.26098869728E+01 -0.13593949731E+01  0.14106425448E+04  0.14106810584E+04  0.10000000000E+02 0. -1.
</event>
<event>
 5    1  0.1252319E-008  0.3777591E+03  0.7957747E-01  0.3460974E+00
         13   -1    0    0    0    0  0.00000000000E+00  0.00000000000E+00  0.14999999963E+04  0.15000000000E+04  0.10566000000E+00 0.  1.
        994   -1    0    0    0    0 -0.00000000000E+00 -0.00000000000E+00  0.11368683772E-12  0.17120000000E+03  0.17120000000E+03 0.  0.
         13    1    1    2    0    0 -0.98346625472E+01 -0.13044013906E+02  0.22882994637E+02  0.28116000672E+02  0.10566000000E+00 0.  1.
        994    1    1    2    0    0  0.25718190009E+01  0.17064171623E+02  0.62722470130E+01  0.17218182624E+03  0.17120000000E+03 0.  0.
        998    1    1    2    0    0  0.72628435463E+01 -0.40201577171E+01  0.14708447546E+04  0.14709021731E+04  0.10000000000E+02 0.  1.
</event>
<event>
 5    1  0.1252319E-008  0.3833226E+03  0.7957747E-01  0.3436818E+00
         13   -1    0    0    0    0  0.00000000000E+00  0.00000000000E+00  0.14999999963E+04  0.15000000000E+04  0.10566000000E+00 0.  1.
        994   -1    0    0    0    0 -0.00000000000E+00 -0.00000000000E+00  0.11368683772E-12  0.17120000000E+03  0.17120000000E+03 0.  0.
         13    1    1    2    0    0  0.54560740364E+01 -0.32527043326E+02  0.17816978712E+03  0.18119674804E+03  0.10566000000E+00 0.  1.
        994    1    1    2    0    0 -0.70429566170E+01  0.43680458483E+02  0.89653538236E+01  0.17705197898E+03  0.17120000000E+03 0.  0.
        998    1    1    2    0    0  0.15868825806E+01 -0.11153415157E+02  0.13128648553E+04  0.13129512730E+04  0.10000000000E+02 0.  1.
</event>
<event>
 5    1  0.1252319E-008  0.3818477E+03  0.7957747E-01  0.3443153E+00
         13   -1    0    0    0    0  0.00000000000E+00  0.00000000000E+00  0.14999999963E+04  0.15000000000E+04  0.10566000000E+00 0. -1.
        994   -1    0    0    0    0 -0.00000000000E+00 -0.00000000000E+00  0.11368683772E-12  0.17120000000E+03  0.17120000000E+03 0.  0.
         13    1    1    2    0    0  0.11934536411E+02 -0.15405257399E+02  0.59611685628E+02  0.62716180865E+02  0.10566000000E+00 0. -1.
        994    1    1    2    0    0 -0.64732069535E+01  0.41711565251E+01  0.34004117570E+01  0.17140683696E+03  0.17120000000E+03 0.  0.
        998    1    1    2    0    0 -0.54613294577E+01  0.11234100874E+02  0.14369878989E+04  0.14370769822E+04  0.10000000000E+02 0. -1.
</event>
<event>
 5    1  0.1252319E-008  0.3753142E+03  0.7957747E-01  0.3471819E+00
         13   -1    0    0    0    0  0.00000000000E+00  0.00000000000E+00  0.14999999963E+04  0.15000000000E+04  0.10566000000E+00 0. -1.
        994   -1    0    0    0    0 -0.00000000000E+00 -0.00000000000E+00  0.11368683772E-12  0.17120000000E+03  0.17120000000E+03 0.  0.
         13    1    1    2    0    0  0.34585535090E+02  0.28275878900E+02  0.63716252745E+02  0.77816814333E+02  0.10566000000E+00 0. -1.
        994    1    1    2    0    0 -0.57182070292E+02 -0.86225260439E+01  0.25787664724E+02  0.18253377981E+03  0.17120000000E+03 0.  0.
        998    1    1    2    0    0  0.22596535202E+02 -0.19653352856E+02  0.14104960788E+04  0.14108494059E+04  0.10000000000E+02 0. -1.
</event>
<event>
 5    1  0.1252319E-008  0.3765598E+03  0.7957747E-01  0.3466276E+00
         13   -1    0    0    0    0  0.00000000000E+00  0.00000000000E+00  0.14999999963E+04  0.15000000000E+04  0.10566000000E+00 0. -1.
        994   -1    0    0    0    0 -0.00000000000E+00 -0.00000000000E+00  0.11368683772E-12  0.17120000000E+03  0.17120000000E+03 0.  0.
         13    1    1    2    0    0  0.45703149462E+02  0.32352885056E+00  0.14362445538E+03  0.15072119256E+03  0.10566000000E+00 0. -1.
        994    1    1    2    0    0 -0.65583869955E+02  0.38592649701E+01  0.20616773581E+02  0.18452812598E+03  0.17120000000E+03 0.  0.
        998    1    1    2    0    0  0.19880720492E+02 -0.41827938207E+01  0.13357587673E+04  0.13359506815E+04  0.10000000000E+02 0. -1.
</event>
<event>
 5    1  0.1312086E-008  0.3806174E+03  0.7957747E-01  0.3448475E+00
         13   -1    0    0    0    0  0.00000000000E+00  0.00000000000E+00  0.14999999963E+04  0.15000000000E+04  0.10566000000E+00 0. -1.
        994   -1    0    0    0    0 -0.00000000000E+00 -0.00000000000E+00  0.11368683772E-12  0.17120000000E+03  0.17120000000E+03 0.  0.
         13    1    1    2    0    0  0.10730277668E+02  0.27251235003E+01  0.14275665073E+02  0.18065739238E+02  0.10566000000E+00 0. -1.
        994    1    1    2    0    0 -0.10904334624E+02 -0.35167688754E+01  0.42598738193E+01  0.17163583164E+03  0.17120000000E+03 0.  0.
        998    1    1    2    0    0  0.17405695591E+00  0.79164537504E+00  0.14814644574E+04  0.14814984291E+04  0.10000000000E+02 0. -1.
</event>
<event>
 5    1  0.1252319E-008  0.3790215E+03  0.7957747E-01  0.3455430E+00
         13   -1    0    0    0    0  0.00000000000E+00  0.00000000000E+00  0.14999999963E+04  0.15000000000E+04  0.10566000000E+00 0.  1.
        994   -1    0    0    0    0 -0.00000000000E+00 -0.00000000000E+00  0.11368683772E-12  0.17120000000E+03  0.17120000000E+03 0.  0.
         13    1    1    2    0    0 -0.26945322459E+02 -0.13279277438E+03  0.38579085453E+03  0.40889432123E+03  0.10566000000E+00 0.  1.
        994    1    1    2    0    0  0.29604927954E+02  0.14097155972E+03  0.95099433724E+02  0.24311062236E+03  0.17120000000E+03 0.  0.
        998    1    1    2    0    0 -0.26596054944E+01 -0.81787853399E+01  0.10191097080E+04  0.10191950564E+04  0.10000000000E+02 0.  1.
</event>
<event>
 5    1  0.1252319E-008  0.3846530E+03  0.7957747E-01  0.3431145E+00
         13   -1    0    0    0    0  0.00000000000E+00  0.00000000000E+00  0.14999999963E+04  0.15000000000E+04  0.10566000000E+00 0.  1.
        994   -1    0    0    0    0 -0.00000000000E+00 -0.00000000000E+00  0.11368683772E-12  0.17120000000E+03  0.17120000000E+03 0.  0.
         13    1    1    2    0    0  0.13669941177E+02  0.25911402715E+01  0.57062789947E+02  0.58734610412E+02  0.10566000000E+00 0.  1.
        994    1    1    2    0    0 -0.19582527947E+01  0.19069938603E+02  0.30133829100E+01  0.17229630811E+03  0.17120000000E+03 0.  0.
        998    1    1    2    0    0 -0.11711688383E+02 -0.21661078874E+02  0.14399238234E+04  0.14401690815E+04  0.10000000000E+02 0.  1.
</event>
<event>
 5    1  0.1252319E-008  0.3709178E+03  0.7957747E-01  0.3491684E+00
         13   -1    0    0    0    0  0.00000000000E+00  0.00000000000E+00  0.14999999963E+04  0.15000000000E+04  0.10566000000E+00 0.  1.
        994   -1    0    0    0    0 -0.00000000000E+00 -0.00000000000E+00  0.11368683772E-12  0.17120000000E+03  0.17120000000E+03 0.  0.
         13    1    1    2    0    0  0.13328029981E+02 -0.92569339276E+02  0.32827417610E+03  0.34133658582E+03  0.10566000000E+00 0.  1.
        994    1    1    2    0    0 -0.57422754039E+01  0.11439814917E+03  0.55467786386E+02  0.21332141380E+03  0.17120000000E+03 0.  0.
        998    1    1    2    0    0 -0.75857545772E+01 -0.21828809892E+02  0.11162580338E+04  0.11165420004E+04  0.10000000000E+02 0.  1.
</event>
<event>
 5    1  0.1252319E-008  0.3715379E+03  0.7957747E-01  0.3488853E+00
         13   -1    0    0    0    0  0.00000000000E+00  0.00000000000E+00  0.14999999963E+04  0.15000000000E+04  0.10566000000E+00 0.  1.
        994   -1    0    0    0    0 -0.00000000000E+00 -0.00000000000E+00  0.11368683772E-12  0.17120000000E+03  0.17120000000E+03 0.  0.
         13    1    1    2    0    0 -0.98334937018E+01 -0.29418140998E+01  0.22328435888E+01  0.10504695289E+02  0.10566000000E+00 0.  1.
        994    1    1    2    0    0  0.10766509537E+02  0.46730584269E+01  0.89413693756E+01  0.17183463937E+03  0.17120000000E+03 0.  0.
        998    1    1    2    0    0 -0.93301583520E+00 -0.17312443271E+01  0.14888257833E+04  0.14888606653E+04  0.10000000000E+02 0.  1.
</event>
<event>
 5    1  0.1252319E-008  0.3826609E+03  0.7957747E-01  0.3439654E+00
         13   -1    0    0    0    0  0.00000000000E+00  0.00000000000E+00  0.14999999963E+04  0.15000000000E+04  0.10566000000E+00 0. -1.
        994   -1    0    0    0    0 -0.00000000000E+00 -0.00000000000E+00  0.11368683772E-12  0.17120000000E+03  0.17120000000E+03 0.  0.
         13    1    1    2    0    0 -0.44058673307E+02  0.77638162095E+02  0.17794838494E+03  0.19908412738E+03  0.10566000000E+00 0. -1.
        994    1    1    2    0    0  0.10991316975E+03 -0.60485606034E+02  0.77941089445E+02  0.22610543303E+03  0.17120000000E+03 0.  0.
        998    1    1    2    0    0 -0.65854496446E+02 -0.17152556061E+02  0.12441105219E+04  0.12460104396E+04  0.10000000000E+02 0. -1.
</event>
<event>
 5    1  0.1252319E-008  0.3749892E+03  0.7957747E-01  0.3473271E+00
         13   -1    0    0    0    0  0.00000000000E+00  0.00000000000E+00  0.14999999963E+04  0.15000000000E+04  0.10566000000E+00 0.  1.
        994   -1    0    0    0    0 -0.00000000000E+00 -0.00000000000E+00  0.11368683772E-12  0.17120000000E+03  0.17120000000E+03 0.  0.
         13    1    1    2    0    0 -0.26177401771E+02 -0.10669949048E+02  0.62655303489E+02  0.68737198048E+02  0.10566000000E+00 0.  1.
        994    1    1    2    0    0 -0.65601647653E+01 -0.50435544836E+01  0.69170730686E+01  0.17153938062E+03  0.17120000000E+03 0.  0.
        998    1    1    2    0    0  0.32737566536E+02  0.15713503532E+02  0.14304276197E+04  0.14309234213E+04  0.10000000000E+02 0.  1.
</event>
<event>
 5    1  0.1252319E-008  0.3780225E+03  0.7957747E-01  0.3459814E+00
         13   -1    0    0    0    0  0.00000000000E+00  0.00000000000E+00  0.14999999963E+04  0.15000000000E+04  0.10566000000E+00 0. -1.
        994   -1    0    0    0    0 -0.00000000000E+00 -0.00000000000E+00  0.11368683772E-12  0.17120000000E+03  0.17120000000E+03 0.  0.
         13    1    1    2    0    0 -0.26098264360E+02 -0.71574151651E+02  0.15295610204E+03  0.17087878424E+03  0.10566000000E+00 0. -1.
        994    1    1    2    0    0  0.34218494399E+02  0.90906675413E+02  0.50023624320E+02  0.20309291466E+03  0.17120000000E+03 0.  0.
        998    1    1    2    0    0 -0.81202300391E+01 -0.19332523762E+02  0.12970202699E+04  0.12972283011E+04  0.10000000000E+02 0. -1.
</event>
<event>
 5    1  0.1252319E-008  0.3052865E+03  0.7957747E-01  0.3858986E+00
         13   -1    0    0    0    0  0.00000000000E+00  0.00000000000E+00  0.14999999963E+04  0.15000000000E+04  0.10566000000E+00 0.  1.
        994   -1    0    0    0    0 -0.00000000000E+00 -0.00000000000E+00  0.11368683772E-12  0.17120000000E+03  0.17120000000E+03 0.  0.
         13    1    1    2    0    0  0.17401726057E+03 -0.10106615653E+03  0.63382917356E+03  0.66500812581E+03  0.10566000000E+00 0.  1.
        994    1    1    2    0    0 -0.18225522406E+03  0.10243768501E+03  0.19103271085E+03  0.33092806261E+03  0.17120000000E+03 0.  0.
        998    1    1    2    0    0  0.82379634823E+01 -0.13715284798E+01  0.67513811187E+03  0.67526381159E+03  0.10000000000E+02 0.  0.
</event>
<event>
 5    1  0.1252319E-008  0.3807313E+03  0.7957747E-01  0.3447980E+00
         13   -1    0    0    0    0  0.00000000000E+00  0.00000000000E+00  0.14999999963E+04  0.15000000000E+04  0.10566000000E+00 0. -1.
        994   -1    0    0    0    0 -0.00000000000E+00 -0.00000000000E+00  0.11368683772E-12  0.17120000000E+03  0.17120000000E+03 0.  0.
         13    1    1    2    0    0 -0.13770385618E+02  0.28311907607E+02  0.13593892883E+03  0.13953706019E+03  0.10566000000E+00 0. -1.
        994    1    1    2    0    0  0.10033210684E+02 -0.86087789847E+01  0.43474932394E+01  0.17176471433E+03  0.17120000000E+03 0.  0.
        998    1    1    2    0    0  0.37371749338E+01 -0.19703128623E+02  0.13597135742E+04  0.13598982255E+04  0.10000000000E+02 0. -1.
</event>
<event>
 5    1  0.1252319E-008  0.3749793E+03  0.7957747E-01  0.3473315E+00
         13   -1    0    0    0    0  0.00000000000E+00  0.00000000000E+00  0.14999999963E+04  0.15000000000E+04  0.10566000000E+00 0. -1.
        994   -1    0    0    0    0 -0.00000000000E+00 -0.00000000000E+00  0.11368683772E-12  0.17120000000E+03  0.17120000000E+03 0.  0.
         13    1    1    2    0    0 -0.15676549366E+03  0.15806959486E+02  0.83459979263E+03  0.84934216014E+03  0.10566000000E+00 0. -1.
        994    1    1    2    0    0  0.14949652607E+03 -0.15831926524E+02  0.87867051993E+02  0.24419238324E+03  0.17120000000E+03 0.  0.
        998    1    1    2    0    0  0.72689675858E+01  0.24967037430E-01  0.57753315166E+03  0.57766545663E+03  0.10000000000E+02 0.  1.
</event>
<event>
 5    1  0.1252319E-008  0.3838684E+03  0.7957747E-01  0.3434486E+00
         13   -1    0    0    0    0  0.00000000000E+00  0.00000000000E+00  0.14999999963E+04  0.15000000000E+04  0.10566000000E+00 0. -1.
        994   -1    0    0    0    0 -0.00000000000E+00 -0.00000000000E+00  0.11368683772E-12  0.17120000000E+03  0.17120000000E+03 0.  0.
         13    1    1    2    0    0 -0.65389895696E+01  0.14493552939E+02  0.55803184240E+02  0.58024374161E+02  0.10566000000E+00 0. -1.
        994    1    1    2    0    0  0.11035937436E+02 -0.11611277540E+02  0.30404804076E+01  0.17197470222E+03  0.17120000000E+03 0.  0.
        998    1    1    2    0    0 -0.44969478661E+01 -0.28822754000E+01  0.14411563316E+04  0.14412009236E+04  0.10000000000E+02 0. -1.
</event>
<event>
 5    1  0.1252319E-008  0.3836660E+03  0.7957747E-01  0.3435350E+00
         13   -1    0    0    0    0  0.00000000000E+00  0.00000000000E+00  0.14999999963E+04  0.15000000000E+04  0.10566000000E+00 0. -1.
        994   -1    0    0    0    0 -0.00000000000E+00 -0.00000000000E+00  0.11368683772E-12  0.17120000000E+03  0.17120000000E+03 0.  0.
         13    1    1    2    0    0 -0.29238151647E+01  0.19606679860E+02  0.83590218949E+02  0.85908710025E+02  0.10566000000E+00 0. -1.
        994    1    1    2    0    0 -0.35590859790E+01 -0.16286773269E+02  0.32124158886E+01  0.17203977939E+03  0.17120000000E+03 0.  0.
        998    1    1    2    0    0  0.64829011437E+01 -0.33199065918E+01  0.14131973614E+04  0.14132515106E+04  0.10000000000E+02 0. -1.
</event>
<event>
 5    1  0.1252319E-008  0.3775127E+03  0.7957747E-01  0.3462061E+00
         13   -1    0    0    0    0  0.00000000000E+00  0.00000000000E+00  0.14999999963E+04  0.15000000000E+04  0.10566000000E+00 0. -1.
        994   -1    0    0    0    0 -0.00000000000E+00 -0.00000000000E+00  0.11368683772E-12  0.17120000000E+03  0.17120000000E+03 0.  0.
         13    1    1    2    0    0  0.65657558232E+02 -0.51018219140E+01  0.14642564168E+03  0.16055349029E+03  0.10566000000E+00 0. -1.
        994    1    1    2    0    0 -0.26782310699E+02  0.45727909914E+02  0.25121388887E+02  0.18096645571E+03  0.17120000000E+03 0.  0.
        998    1    1    2    0    0 -0.38875247533E+02 -0.40626088000E+02  0.13284529657E+04  0.13296800540E+04  0.10000000000E+02 0. -1.
</event>
<event>
 5    1  0.1252319E-008  0.3764202E+03  0.7957747E-01  0.3466895E+00
         13   -1    0    0    0    0  0.00000000000E+00  0.00000000000E+00  0.14999999963E+04  0.15000000000E+04  0.10566000000E+00 0. -1.
        994   -1    0    0    0    0 -0.00000000000E+00 -0.00000000000E+00  0.11368683772E-12  0.17120000000E+03  0.17120000000E+03 0.  0.
         13    1    1    2    0    0 -0.20226426806E+02 -0.27218424339E+02  0.96298418619E+02  0.10209479692E+03  0.10566000000E+00 0. -1.
        994    1    1    2    0    0 -0.59460120042E+01  0.25124900449E+02  0.82096544353E+01  0.17333047657E+03  0.17120000000E+03 0.  0.
        998    1    1    2    0    0  0.26172438811E+02  0.20935238894E+01  0.13954919232E+04  0.13957747265E+04  0.10000000000E+02 0. -1.
</event>
<event>
 5    1  0.1252319E-008  0.3820003E+03  0.7957747E-01  0.3442495E+00
         13   -1    0    0    0    0  0.00000000000E+00  0.00000000000E+00  0.14999999963E+04  0.15000000000E+04  0.10566000000E+00 0. -1.
        994   -1    0    0    0    0 -0.00000000000E+00 -0.00000000000E+00  0.11368683772E-12  0.17120000000E+03  0.17120000000E+03 0.  0.
         13    1    1    2    0    0  0.32565278995E+01 -0.11494951142E+02  0.21494500492E+02  0.24591941590E+02  0.10566000000E+00 0. -1.
        994    1    1    2    0    0 -0.17867001856E+01  0.99283684160E+01  0.34648488430E+01  0.17153195030E+03  0.17120000000E+03 0.  0.
        998    1    1    2    0    0 -0.14698277139E+01  0.15665827262E+01  0.14750406469E+04  0.14750761081E+04  0.10000000000E+02 0. -1.
</event>
<event>
 5    1  0.1252319E-008  0.3848112E+03  0.7957747E-01  0.3430473E+00
         13   -1    0    0    0    0  0.00000000000E+00  0.00000000000E+00  0.14999999963E+04  0.15000000000E+04  0.10566000000E+00 0.  1.
        994   -1    0    0    0    0 -0.00000000000E+00 -0.00000000000E+00  0.11368683772E-12  0.17120000000E+03  0.17120000000E+03 0.  0.
         13    1    1    2    0    0 -0.57208507792E+01  0.19051999146E+02  0.11963081219E+03  0.12127344802E+03  0.10566000000E+00 0.  1.
        994    1    1    2    0    0  0.11683542757E+02 -0.45418342406E+01  0.22411282226E+01  0.17167293347E+03  0.17120000000E+03 0.  0.
        998    1    1    2    0    0 -0.59626919778E+01 -0.14510164905E+02  0.13781280559E+04  0.13782536185E+04  0.10000000000E+02 0.  1.
</event>
<event>
 5    1  0.1252319E-008  0.3852759E+03  0.7957747E-01  0.3428503E+00
         13   -1    0    0    0    0  0.00000000000E+00  0.00000000000E+00  0.14999999963E+04  0.15000000000E+04  0.10566000000E+00 0. -1.
        994   -1    0    0    0    0 -0.00000000000E+00 -0.00000000000E+00  0.11368683772E-12  0.17120000000E+03  0.17120000000E+03 0.  0.
         13    1    1    2    0    0  0.73076884842E+01  0.13647942490E+02  0.92336370541E+02  0.93625237698E+02  0.10566000000E+00 0. -1.
        994    1    1    2    0    0  0.25643110508E+01  0.64715831460E+01  0.16524489069E+01  0.17134943148E+03  0.17120000000E+03 0.  0.
        998    1    1    2    0    0 -0.98719995350E+01 -0.20119525636E+02  0.14060111768E+04  0.14062253308E+04  0.10000000000E+02 0. -1.
</event>
<event>
 5    1  0.1252319E-008  0.3859430E+03  0.7957747E-01  0.3425683E+00
         13   -1    0    0    0    0  0.00000000000E+00  0.00000000000E+00  0.14999999963E+04  0.15000000000E+04  0.10566000000E+00 0. -1.
        994   -1    0    0    0    0 -0.00000000000E+00 -0.00000000000E+00  0.11368683772E-12  0.17120000000E+03  0.17120000000E+03 0.  0.
         13    1    1    2    0    0 -0.96646220705E+01 -0.83462709821E+01  0.68776859323E+02  0.69952360228E+02  0.10566000000E+00 0. -1.
        994    1    1    2    0    0  0.15708008115E+02  0.10227190774E+01  0.19755241521E+01  0.17193350508E+03  0.17120000000E+03 0.  0.
        998    1    1    2    0    0 -0.60433860449E+01  0.73235519047E+01  0.14292476128E+04  0.14293141347E+04  0.10000000000E+02 0. -1.
</event>
<event>
 5    1  0.1252319E-008  0.3429805E+03  0.7957747E-01  0.3630097E+00
         13   -1    0    0    0    0  0.00000000000E+00  0.00000000000E+00  0.14999999963E+04  0.15000000000E+04  0.10566000000E+00 0. -1.
        994   -1    0    0    0    0 -0.00000000000E+00 -0.00000000000E+00  0.11368683772E-12  0.17120000000E+03  0.17120000000E+03 0.  0.
         13    1    1    2    0    0 -0.25664993920E+03  0.14367043607E+03  0.63527895704E+03  0.70006410415E+03  0.10566000000E+00 0. -1.
        994    1    1    2    0    0  0.24950180840E+03 -0.14560284511E+03  0.47770700253E+03  0.58392187934E+03  0.17120000000E+03 0.  0.
        998    1    1    2    0    0  0.71481307931E+01  0.19324090474E+01  0.38701403671E+03  0.38721401652E+03  0.10000000000E+02 0.  0.
</event>
<event>
 5    1  0.1252319E-008  0.3809645E+03  0.7957747E-01  0.3446970E+00
         13   -1    0    0    0    0  0.00000000000E+00  0.00000000000E+00  0.14999999963E+04  0.15000000000E+04  0.10566000000E+00 0.  1.
        994   -1    0    0    0    0 -0.00000000000E+00 -0.00000000000E+00  0.11368683772E-12  0.17120000000E+03  0.17120000000E+03 0.  0.
         13    1    1    2    0    0 -0.76665327048E+01 -0.13148211669E+02  0.30872462570E+02  0.34420507012E+02  0.10566000000E+00 0.  1.
        994    1    1    2    0    0 -0.16261330948E+01  0.68487425205E+01  0.38122228193E+01  0.17138705501E+03  0.17120000000E+03 0.  0.
        998    1    1    2    0    0  0.92926657996E+01  0.62994691484E+01  0.14653153109E+04  0.14653924380E+04  0.10000000000E+02 0.  1.
</event>
<event>
 5    1  0.1252319E-008  0.3772237E+03  0.7957747E-01  0.3463337E+00
         13   -1    0    0    0    0  0.00000000000E+00  0.00000000000E+00  0.14999999963E+04  0.15000000000E+04  0.10566000000E+00 0. -1.
        994   -1    0    0    0    0 -0.00000000000E+00 -0.00000000000E+00  0.11368683772E-12  0.17120000000E+03  0.17120000000E+03 0.  0.
         13    1    1    2    0    0 -0.61575101760E+01 -0.36150528512E+02  0.39279725413E+02  0.53737171825E+02  0.10566000000E+00 0. -1.
        994    1    1    2    0    0  0.71153996067E+01  0.29402273264E+02  0.18100000226E+02  0.17479179784E+03  0.17120000000E+03 0.  0.
        998    1    1    2    0    0 -0.95788943078E+00  0.67482552479E+01  0.14426202706E+04  0.14426710303E+04  0.10000000000E+02 0. -1.
</event>
<event>
 5    1  0.1252319E-008  0.3855061E+03  0.7957747E-01  0.3427529E+00
         13   -1    0    0    0    0  0.00000000000E+00  0.00000000000E+00  0.14999999963E+04  0.15000000000E+04  0.10566000000E+00 0.  1.
        994   -1    0    0    0    0 -0.00000000000E+00 -0.00000000000E+00  0.11368683772E-12  0.17120000000E+03  0.17120000000E+03 0.  0.
         13    1    1    2    0    0 -0.12741199032E+02  0.10935875119E+02  0.10100324873E+03  0.10238944738E+03  0.10566000000E+00 0.  1.
        994    1    1    2    0    0  0.94862808909E+01 -0.84711434729E+01  0.19103275221E+01  0.17168237868E+03  0.17120000000E+03 0.  0.
        998    1    1    2    0    0  0.32549181408E+01 -0.24647316465E+01  0.13970864200E+04  0.13971281739E+04  0.10000000000E+02 0.  1.
</event>
<event>
 5    1  0.1252319E-008  0.3744062E+03  0.7957747E-01  0.3475883E+00
         13   -1    0    0    0    0  0.00000000000E+00  0.00000000000E+00  0.14999999963E+04  0.15000000000E+04  0.10566000000E+00 0.  1.
        994   -1    0    0    0    0 -0.00000000000E+00 -0.00000000000E+00  0.11368683772E-12  0.17120000000E+03  0.17120000000E+03 0.  0.
         13    1    1    2    0    0  0.30180979562E+01 -0.63404448723E+02  0.14844556134E+03  0.16144760413E+03  0.10566000000E+00 0.  1.
        994    1    1    2    0    0  0.12673653793E+02  0.38322787039E+02  0.19095456334E+02  0.17692748221E+03  0.17120000000E+03 0.  0.
        998    1    1    2    0    0 -0.15691751749E+02  0.25081661684E+02  0.13324589786E+04  0.13328249137E+04  0.10000000000E+02 0.  1.
</event>
<event>
 5    1  0.1252319E-008  0.3797536E+03  0.7957747E-01  0.3452232E+00
         13   -1    0    0    0    0  0.00000000000E+00  0.00000000000E+00  0.14999999963E+04  0.15000000000E+04  0.10566000000E+00 0. -1.
        994   -1    0    0    0    0 -0.00000000000E+00 -0.00000000000E+00  0.11368683772E-12  0.17120000000E+03  0.17120000000E+03 0.  0.
         13    1    1    2    0    0 -0.40523838463E+02  0.99818640833E+02  0.38403893247E+03  0.39886320382E+03  0.10566000000E+00 0. -1.
        994    1    1    2    0    0  0.18628748527E+02 -0.46830772633E+02  0.25445584002E+02  0.18026943524E+03  0.17120000000E+03 0.  0.
        998    1    1    2    0    0  0.21895089936E+02 -0.52987868200E+02  0.10905154798E+04  0.10920673609E+04  0.10000000000E+02 0. -1.
</event>
<event>
 5    1  0.1252319E-008  0.2859556E+03  0.7957747E-01  0.4001682E+00
         13   -1    0    0    0    0  0.00000000000E+00  0.00000000000E+00  0.14999999963E+04  0.15000000000E+04  0.10566000000E+00 0. -1.
        994   -1    0    0    0    0 -0.00000000000E+00 -0.00000000000E+00  0.11368683772E-12  0.17120000000E+03  0.17120000000E+03 0.  0.
         13    1    1    2    0    0  0.84550093862E+02 -0.97024400958E+02  0.68416655159E+03  0.69616545033E+03  0.10566000000E+00 0. -1.
        994    1    1    2    0    0 -0.78946833225E+01  0.89252443324E+02  0.42551842166E+02  0.19785960663E+03  0.17120000000E+03 0.  0.
        998    1    1    2    0    0 -0.76655410539E+02  0.77719576339E+01  0.77328160252E+03  0.77717494304E+03  0.10000000000E+02 0.  1.
</event>
<event>
 5    1  0.1252319E-008  0.3782706E+03  0.7957747E-01  0.3458723E+00
         13   -1    0    0    0    0  0.00000000000E+00  0.00000000000E+00  0.14999999963E+04  0.15000000000E+04  0.10566000000E+00 0.  1.
        994   -1    0    0    0    0 -0.00000000000E+00 -0.00000000000E+00  0.11368683772E-12  0.17120000000E+03  0.17120000000E+03 0.  0.
         13    1    1    2    0    0  0.41297468407E+02 -0.66722948523E+01  0.19303248979E+03  0.19751342661E+03  0.10566000000E+00 0.  1.
        994    1    1    2    0    0 -0.57401227220E+01  0.16947422105E+02  0.60858444033E+01  0.17224006975E+03  0.17120000000E+03 0.  0.
        998    1    1    2    0    0 -0.35557345685E+02 -0.10275127253E+02  0.13008816621E+04  0.13014465036E+04  0.10000000000E+02 0.  1.
</event>
<event>
 5    1  0.1252319E-008  0.3764833E+03  0.7957747E-01  0.3466615E+00
         13   -1    0    0    0    0  0.00000000000E+00  0.00000000000E+00  0.14999999963E+04  0.15000000000E+04  0.10566000000E+00 0. -1.
        994   -1    0    0    0    0 -0.00000000000E+00 -0.00000000000E+00  0.11368683772E-12  0.17120000000E+03  0.17120000000E+03 0.  0.
         13    1    1    2    0    0  0.58347675532E+02  0.41891330892E+02  0.17046089743E+03  0.18497638650E+03  0.10566000000E+00 0. -1.
        994    1    1    2    0    0 -0.63467511759E+02  0.17438911776E+01  0.28974452565E+02  0.18487867672E+03  0.17120000000E+03 0.  0.
        998    1    1    2    0    0  0.51198362270E+01 -0.43635222069E+02  0.13005646463E+04  0.13013449368E+04  0.10000000000E+02 0. -1.
</event>
<event>
 5    1  0.1252319E-008  0.3444206E+03  0.7957747E-01  0.3622396E+00
         13   -1    0    0    0    0  0.00000000000E+00  0.00000000000E+00  0.14999999963E+04  0.15000000000E+04  0.10566000000E+00 0.  1.
        994   -1    0    0    0    0 -0.00000000000E+00 -0.00000000000E+00  0.11368683772E-12  0.17120000000E+03  0.17120000000E+03 0.  0.
         13    1    1    2    0    0  0.16097754977E+03 -0.89931727870E+02  0.10660844621E+04  0.10819138499E+04  0.10566000000E+00 0.  1.
        994    1    1    2    0    0 -0.11049440793E+03  0.10435567094E+03  0.97794715636E+02  0.24894249667E+03  0.17120000000E+03 0.  0.
        998    1    1    2    0    0 -0.50483141839E+02 -0.14423943068E+02  0.33612081854E+03  0.34034365339E+03  0.10000000000E+02 0.  1.
</event>
<event>
 5    1  0.1252319E-008  0.3695029E+03  0.7957747E-01  0.3498179E+00
         13   -1    0    0    0    0  0.00000000000E+00  0.00000000000E+00  0.14999999963E+04  0.15000000000E+04  0.10566000000E+00 0.  1.
        994   -1    0    0    0    0 -0.00000000000E+00 -0.00000000000E+00  0.11368683772E-12  0.17120000000E+03  0.17120000000E+03 0.  0.
         13    1    1    2    0    0  0.83154571316E+01 -0.60438500546E+02  0.15800050052E+03  0.16936979809E+03  0.10566000000E+00 0.  1.
        994    1    1    2    0    0 -0.16289663536E+02  0.77958848157E+02  0.31831554293E+02  0.19148269633E+03  0.17120000000E+03 0.  0.
        998    1    1    2    0    0  0.79742064047E+01 -0.17520347611E+02  0.13101679415E+04  0.13103475056E+04  0.10000000000E+02 0.  1.
</event>
<event>
 5    1  0.1252319E-008  0.3794148E+03  0.7957747E-01  0.3453711E+00
         13   -1    0    0    0    0  0.00000000000E+00  0.00000000000E+00  0.14999999963E+04  0.15000000000E+04  0.10566000000E+00 0.  1.
        994   -1    0    0    0    0 -0.00000000000E+00 -0.00000000000E+00  0.11368683772E-12  0.17120000000E+03  0.17120000000E+03 0.  0.
         13    1    1    2    0    0 -0.17719756263E+02  0.25051746654E+02  0.10255917195E+03  0.10705127130E+03  0.10566000000E+00 0.  1.
        994    1    1    2    0    0  0.21589479391E+02 -0.12764145681E+02  0.65385637383E+01  0.17315086442E+03  0.17120000000E+03 0.  0.
        998    1    1    2    0    0 -0.38697231278E+01 -0.12287600973E+02  0.13909022606E+04  0.13909978643E+04  0.10000000000E+02 0.  1.
</event>
<event>
 5    1  0.1252319E-008  0.4033651E+03  0.7957747E-01  0.3355332E+00
         13   -1    0    0    0    0  0.00000000000E+00  0.00000000000E+00  0.14999999963E+04  0.15000000000E+04  0.10566000000E+00 0.  1.
        994   -1    0    0    0    0 -0.00000000000E+00 -0.00000000000E+00  0.11368683772E-12  0.17120000000E+03  0.17120000000E+03 0.  0.
         13    1    1    2    0    0 -0.23428827504E+02  0.37105899357E+02  0.17113669193E+02  0.47102511213E+02  0.10566000000E+00 0.  1.
        994    1    1    2    0    0  0.78116382173E+02 -0.59165421980E+02  0.69051709615E+02  0.20899831321E+03  0.17120000000E+03 0.  0.
        998    1    1    2    0    0 -0.54687554669E+02  0.22059522623E+02  0.14138346175E+04  0.14150991756E+04  0.10000000000E+02 0.  1.
</event>
<event>
 5    1  0.1252319E-008  0.3724252E+03  0.7957747E-01  0.3484819E+00
         13   -1    0    0    0    0  0.00000000000E+00  0.00000000000E+00  0.14999999963E+04  0.15000000000E+04  0.10566000000E+00 0. -1.
        994   -1    0    0    0    0 -0.00000000000E+00 -0.00000000000E+00  0.11368683772E-12  0.17120000000E+03  0.17120000000E+03 0.  0.
         13    1    1    2    0    0  0.14337335190E+03  0.18306035700E+03  0.88791702094E+03  0.91785819143E+03  0.10566000000E+00 0. -1.
        994    1    1    2    0    0 -0.14100809768E+03 -0.18525612101E+03  0.22534209247E+03  0.36645820037E+03  0.17120000000E+03 0.  0.
        998    1    1    2    0    0 -0.23652542147E+01  0.21957640120E+01  0.38674088287E+03  0.38688360819E+03  0.10000000000E+02 0.  0.
</event>
<event>
 5    1  0.1252319E-008  0.3847081E+03  0.7957747E-01  0.3430911E+00
         13   -1    0    0    0    0  0.00000000000E+00  0.00000000000E+00  0.14999999963E+04  0.15000000000E+04  0.10566000000E+00 0.  1.
        994   -1    0    0    0    0 -0.00000000000E+00 -0.00000000000E+00  0.11368683772E-12  0.17120000000E+03  0.17120000000E+03 0.  0.
         13    1    1    2    0    0  0.19921312155E+02  0.29992072698E+01  0.10652843358E+03  0.10841666037E+03  0.10566000000E+00 0.  1.
        994    1    1    2    0    0 -0.22134030723E+02  0.96850383523E+00  0.33925627208E+01  0.17266094752E+03  0.17120000000E+03 0.  0.
        998    1    1    2    0    0  0.22127185685E+01 -0.39677111050E+01  0.13900790000E+04  0.13901223921E+04  0.10000000000E+02 0.  1.
</event>
<event>
 5    1  0.1252319E-008  0.3891311E+03  0.7957747E-01  0.3412338E+00
         13   -1    0    0    0    0  0.00000000000E+00  0.00000000000E+00  0.14999999963E+04  0.15000000000E+04  0.10566000000E+00 0.  1.
        994   -1    0    0    0    0 -0.00000000000E+00 -0.00000000000E+00  0.11368683772E-12  0.17120000000E+03  0.17120000000E+03 0.  0.
         13    1    1    2    0    0  0.34640155059E+02 -0.13147360757E+03  0.31748618150E+03  0.34537332908E+03  0.10566000000E+00 0.  1.
        994    1    1    2    0    0 -0.19716969945E+02  0.13845336182E+03  0.99125918590E+02  0.24226737304E+03  0.17120000000E+03 0.  0.
        998    1    1    2    0    0 -0.14923185113E+02 -0.69797542538E+01  0.10833878962E+04  0.10835592979E+04  0.10000000000E+02 0.  1.
</event>
<event>
 5    1  0.1252319E-008  0.3826172E+03  0.7957747E-01  0.3439841E+00
         13   -1    0    0    0    0  0.00000000000E+00  0.00000000000E+00  0.14999999963E+04  0.15000000000E+04  0.10566000000E+00 0. -1.
        994   -1    0    0    0    0 -0.00000000000E+00 -0.00000000000E+00  0.11368683772E-12  0.17120000000E+03  0.17120000000E+03 0.  0.
         13    1    1    2    0    0 -0.22156114397E+02 -0.18513659730E+02  0.13958067606E+03  0.14253569832E+03  0.10566000000E+00 0. -1.
        994    1    1    2    0    0  0.14195076166E+02  0.21361226621E+02  0.50009898009E+01  0.17318271302E+03  0.17120000000E+03 0.  0.
        998    1    1    2    0    0  0.79610382309E+01 -0.28475668916E+01  0.13554183304E+04  0.13554815887E+04  0.10000000000E+02 0. -1.
</event>
<event>
 5    1  0.1252319E-008  0.3850177E+03  0.7957747E-01  0.3429597E+00
         13   -1    0    0    0    0  0.00000000000E+00  0.00000000000E+00  0.14999999963E+04  0.15000000000E+04  0.10566000000E+00 0.  1.
        994   -1    0    0    0    0 -0.00000000000E+00 -0.00000000000E+00  0.11368683772E-12  0.17120000000E+03  0.17120000000E+03 0.  0.
         13    1    1    2    0    0 -0.98742628514E+01 -0.12309537108E+02  0.73105785728E+02  0.74789657317E+02  0.10566000000E+00 0.  1.
        994    1    1    2    0    0  0.98378484703E+01  0.14924184856E+02  0.26727563697E+01  0.17215138159E+03  0.17120000000E+03 0.  0.
        998    1    1    2    0    0  0.36414381116E-01 -0.26146477488E+01  0.14242214542E+04  0.14242589611E+04  0.10000000000E+02 0.  1.
</event>
<event>
 5    1  0.1252319E-008  0.3784893E+03  0.7957747E-01  0.3457763E+00
         13   -1    0    0    0    0  0.00000000000E+00  0.00000000000E+00  0.14999999963E+04  0.15000000000E+04  0.10566000000E+00 0.  1.
        994   -1    0    0    0    0 -0.00000000000E+00 -0.00000000000E+00  0.11368683772E-12  0.17120000000E+03  0.17120000000E+03 0.  0.
         13    1    1    2    0    0  0.10360056209E+02  0.70155471460E+01  0.13951709248E+02  0.18740598213E+02  0.10566000000E+00 0.  1.
        994    1    1    2    0    0 -0.78699137468E+01  0.16060182336E+01  0.51144458788E+01  0.17146460974E+03  0.17120000000E+03 0.  0.
        998    1    1    2    0    0 -0.24901424617E+01 -0.86215653797E+01  0.14809338412E+04  0.14809947920E+04  0.10000000000E+02 0.  1.
</event>
<event>
 5    1  0.1252319E-008  0.3731378E+03  0.7957747E-01  0.3481593E+00
         13   -1    0    0    0    0  0.00000000000E+00  0.00000000000E+00  0.14999999963E+04  0.15000000000E+04  0.10566000000E+00 0. -1.
        994   -1    0    0    0    0 -0.00000000000E+00 -0.00000000000E+00  0.11368683772E-12  0.17120000000E+03  0.17120000000E+03 0.  0.
         13    1    1    2    0    0 -0.27066246116E+02 -0.11108079355E+03  0.55642092777E+03  0.56804558303E+03  0.10566000000E+00 0. -1.
        994    1    1    2    0    0  0.19822653502E+02  0.10680579380E+03  0.49147305654E+02  0.20862721019E+03  0.17120000000E+03 0.  0.
        998    1    1    2    0    0  0.72435926131E+01  0.42749997562E+01  0.89443176285E+03  0.89452720677E+03  0.10000000000E+02 0. -1.
</event>
<event>
 5    1  0.1252319E-008  0.3856244E+03  0.7957747E-01  0.3427028E+00
         13   -1    0    0    0    0  0.00000000000E+00  0.00000000000E+00  0.14999999963E+04  0.15000000000E+04  0.10566000000E+00 0.  1.
        994   -1    0    0    0    0 -0.00000000000E+00 -0.00000000000E+00  0.11368683772E-12  0.17120000000E+03  0.17120000000E+03 0.  0.
         13    1    1    2    0    0  0.10538159545E+02  0.15824596187E+01  0.44313328594E+02  0.45576740122E+02  0.10566000000E+00 0.  1.
        994    1    1    2    0    0 -0.38139403650E+01  0.53598166361E+01  0.14624848036E+01  0.17133257903E+03  0.17120000000E+03 0.  0.
        998    1    1    2    0    0 -0.67242191801E+01 -0.69422762547E+01  0.14542241829E+04  0.14542906808E+04  0.10000000000E+02 0.  1.
</event>
<event>
 5    1  0.1252319E-008  0.3829345E+03  0.7957747E-01  0.3438480E+00
         13   -1    0    0    0    0  0.00000000000E+00  0.00000000000E+00  0.14999999963E+04  0.15000000000E+04  0.10566000000E+00 0.  1.
        994   -1    0    0    0    0 -0.00000000000E+00 -0.00000000000E+00  0.11368683772E-12  0.17120000000E+03  0.17120000000E+03 0.  0.
         13    1    1    2    0    0 -0.14598734251E+02  0.67146447625E+01  0.46537489582E+02  0.49233714025E+02  0.10566000000E+00 0.  1.
        994    1    1    2    0    0  0.14249506307E+02 -0.84926062345E+01  0.35706779896E+01  0.17203884018E+03  0.17120000000E+03 0.  0.
        998    1    1    2    0    0  0.34922794452E+00  0.17779614720E+01  0.14498918287E+04  0.14499274458E+04  0.10000000000E+02 0.  1.
</event>
<event>
 5    1  0.1252319E-008  0.3838884E+03  0.7957747E-01  0.3434400E+00
         13   -1    0    0    0    0  0.00000000000E+00  0.00000000000E+00  0.14999999963E+04  0.15000000000E+04  0.10566000000E+00 0. -1.
        994   -1    0    0    0    0 -0.00000000000E+00 -0.00000000000E+00  0.11368683772E-12  0.17120000000E+03  0.17120000000E+03 0.  0.
         13    1    1    2    0    0 -0.35497353532E+01  0.16596870748E+02  0.70007213016E+02  0.72035253716E+02  0.10566000000E+00 0. -1.
        994    1    1    2    0    0 -0.15630608591E+02 -0.31660183105E+01  0.30229506158E+01  0.17196778136E+03  0.17120000000E+03 0.  0.
        998    1    1    2    0    0  0.19180343944E+02 -0.13430852437E+02  0.14269698326E+04  0.14271969649E+04  0.10000000000E+02 0. -1.
</event>
<event>
 5    1  0.1252319E-008  0.3857042E+03  0.7957747E-01  0.3426691E+00
         13   -1    0    0    0    0  0.00000000000E+00  0.00000000000E+00  0.14999999963E+04  0.15000000000E+04  0.10566000000E+00 0. -1.
        994   -1    0    0    0    0 -0.00000000000E+00 -0.00000000000E+00  0.11368683772E-12  0.17120000000E+03  0.17120000000E+03 0.  0.
         13    1    1    2    0    0  0.10203727837E+02 -0.39247019161E+01  0.49034575123E+02  0.50238631236E+02  0.10566000000E+00 0. -1.
        994    1    1    2    0    0 -0.23841182473E+01 -0.47613099234E+01  0.13739573036E+01  0.17128830039E+03  0.17120000000E+03 0.  0.
        998    1    1    2    0    0 -0.78196095896E+01  0.86860118395E+01  0.14495914639E+04  0.14496730684E+04  0.10000000000E+02 0. -1.
</event>
<event>
 5    1  0.1252319E-008  0.3837139E+03  0.7957747E-01  0.3435145E+00
         13   -1    0    0    0    0  0.00000000000E+00  0.00000000000E+00  0.14999999963E+04  0.15000000000E+04  0.10566000000E+00 0. -1.
        994   -1    0    0    0    0 -0.00000000000E+00 -0.00000000000E+00  0.11368683772E-12  0.17120000000E+03  0.17120000000E+03 0.  0.
         13    1    1    2    0    0  0.49767351476E+01 -0.10653254833E+02  0.29317758021E+02  0.31588001372E+02  0.10566000000E+00 0. -1.
        994    1    1    2    0    0 -0.32051638922E+01  0.11838331391E+02  0.27668949610E+01  0.17166104646E+03  0.17120000000E+03 0.  0.
        998    1    1    2    0    0 -0.17715712554E+01 -0.11850765587E+01  0.14679153433E+04  0.14679509522E+04  0.10000000000E+02 0. -1.
</event>
<event>
 5    1  0.1252319E-008  0.3851312E+03  0.7957747E-01  0.3429116E+00
         13   -1    0    0    0    0  0.00000000000E+00  0.00000000000E+00  0.14999999963E+04  0.15000000000E+04  0.10566000000E+00 0. -1.
        994   -1    0    0    0    0 -0.00000000000E+00 -0.00000000000E+00  0.11368683772E-12  0.17120000000E+03  0.17120000000E+03 0.  0.
         13    1    1    2    0    0 -0.10947820398E+02  0.13339546295E+02  0.99070837158E+02  0.10056261833E+03  0.10566000000E+00 0. -1.
        994    1    1    2    0    0 -0.41866286320E+01 -0.11751835764E+02  0.20767863157E+01  0.17166649803E+03  0.17120000000E+03 0.  0.
        998    1    1    2    0    0  0.15134449030E+02 -0.15877105312E+01  0.13988523728E+04  0.13989708836E+04  0.10000000000E+02 0. -1.
</event>
<event>
 5    1  0.1252319E-008  0.3807428E+03  0.7957747E-01  0.3447931E+00
         13   -1    0    0    0    0  0.00000000000E+00  0.00000000000E+00  0.14999999963E+04  0.15000000000E+04  0.10566000000E+00 0.  1.
        994   -1    0    0    0    0 -0.00000000000E+00 -0.00000000000E+00  0.11368683772E-12  0.17120000000E+03  0.17120000000E+03 0.  0.
         13    1    1    2    0    0 -0.11777638416E+02 -0.23792683351E+00  0.16818711030E+02  0.20534107738E+02  0.10566000000E+00 0.  1.
        994    1    1    2    0    0  0.97640879384E+01  0.33974288367E+01  0.41151696146E+01  0.17156122685E+03  0.17120000000E+03 0.  0.
        998    1    1    2    0    0  0.20135504780E+01 -0.31595020032E+01  0.14790661156E+04  0.14791046654E+04  0.10000000000E+02 0.  1.
</event>
<event>
 5    1  0.1252319E-008  0.3805154E+03  0.7957747E-01  0.3448918E+00
         13   -1    0    0    0    0  0.00000000000E+00  0.00000000000E+00  0.14999999963E+04  0.15000000000E+04  0.10566000000E+00 0. -1.
        994   -1    0    0    0    0 -0.00000000000E+00 -0.00000000000E+00  0.11368683772E-12  0.17120000000E+03  0.17120000000E+03 0.  0.
         13    1    1    2    0    0 -0.23036875272E+02  0.45146810528E+02  0.25727362880E+03  0.26221873191E+03  0.10566000000E+00 0. -1.
        994    1    1    2    0    0  0.37132399347E+02 -0.47083246201E+02  0.15967352120E+02  0.18209899365E+03  0.17120000000E+03 0.  0.
        998    1    1    2    0    0 -0.14095524075E+02  0.19364356722E+01  0.12267590154E+04  0.12268822744E+04  0.10000000000E+02 0. -1.
</event>
<event>
 5    1  0.1252319E-008  0.3849914E+03  0.7957747E-01  0.3429709E+00
         13   -1    0    0    0    0  0.00000000000E+00  0.00000000000E+00  0.14999999963E+04  0.15000000000E+04  0.10566000000E+00 0. -1.
        994   -1    0    0    0    0 -0.00000000000E+00 -0.00000000000E+00  0.11368683772E-12  0.17120000000E+03  0.17120000000E+03 0.  0.
         13    1    1    2    0    0  0.10532526565E+02 -0.10443142950E+02  0.65542047578E+02  0.67199438355E+02  0.10566000000E+00 0. -1.
        994    1    1    2    0    0 -0.35766171420E+01  0.16398207304E+02  0.25613866136E+01  0.17203980381E+03  0.17120000000E+03 0.  0.
        998    1    1    2    0    0 -0.69559094225E+01 -0.59550643549E+01  0.14318965621E+04  0.14319607578E+04  0.10000000000E+02 0. -1.
</event>
<event>
 5    1  0.1252319E-008  0.3852711E+03  0.7957747E-01  0.3428523E+00
         13   -1    0    0    0    0  0.00000000000E+00  0.00000000000E+00  0.14999999963E+04  0.15000000000E+04  0.10566000000E+00 0.  1.
        994   -1    0    0    0    0 -0.00000000000E+00 -0.00000000000E+00  0.11368683772E-12  0.17120000000E+03  0.17120000000E+03 0.  0.
         13    1    1    2    0    0  0.15827877599E+02 -0.59741139894E+01  0.93537378182E+02  0.95055057880E+02  0.10566000000E+00 0.  1.
        994    1    1    2    0    0 -0.14657748137E+02  0.11890524562E+01  0.22065380355E+01  0.17184461655E+03  0.17120000000E+03 0.  0.
        998    1    1    2    0    0 -0.11701294617E+01  0.47850615332E+01  0.14042560801E+04  0.14043003256E+04  0.10000000000E+02 0.  1.
</event>
<event>
 5    1  0.1252319E-008  0.3700024E+03  0.7957747E-01  0.3495880E+00
         13   -1    0    0    0    0  0.00000000000E+00  0.00000000000E+00  0.14999999963E+04  0.15000000000E+04  0.10566000000E+00 0. -1.
        994   -1    0    0    0    0 -0.00000000000E+00 -0.00000000000E+00  0.11368683772E-12  0.17120000000E+03  0.17120000000E+03 0.  0.
         13    1    1    2    0    0  0.20036366200E+02  0.25610483378E+02  0.43388732962E+02  0.54221270194E+02  0.10566000000E+00 0. -1.
        994    1    1    2    0    0 -0.86726563087E+01 -0.28795781486E+02  0.14108415674E+02  0.17439294536E+03  0.17120000000E+03 0.  0.
        998    1    1    2    0    0 -0.11363709892E+02  0.31852981078E+01  0.14425028476E+04  0.14425857844E+04  0.10000000000E+02 0. -1.
</event>
<event>
 5    1  0.1252319E-008  0.3761281E+03  0.7957747E-01  0.3468193E+00
         13   -1    0    0    0    0  0.00000000000E+00  0.00000000000E+00  0.14999999963E+04  0.15000000000E+04  0.10566000000E+00 0.  1.
        994   -1    0    0    0    0 -0.00000000000E+00 -0.00000000000E+00  0.11368683772E-12  0.17120000000E+03  0.17120000000E+03 0.  0.
         13    1    1    2    0    0 -0.10637269622E+02 -0.54815823177E+01  0.88916257139E+01  0.14908769956E+02  0.10566000000E+00 0.  1.
        994    1    1    2    0    0  0.11587708881E+02  0.60621741153E+01  0.66798937653E+01  0.17182865283E+03  0.17120000000E+03 0.  0.
        998    1    1    2    0    0 -0.95043925910E+00 -0.58059179754E+00  0.14844284768E+04  0.14844625772E+04  0.10000000000E+02 0.  1.
</event>
<event>
 5    1  0.1252319E-008  0.3774673E+03  0.7957747E-01  0.3462261E+00
         13   -1    0    0    0    0  0.00000000000E+00  0.00000000000E+00  0.14999999963E+04  0.15000000000E+04  0.10566000000E+00 0. -1.
        994   -1    0    0    0    0 -0.00000000000E+00 -0.00000000000E+00  0.11368683772E-12  0.17120000000E+03  0.17120000000E+03 0.  0.
         13    1    1    2    0    0 -0.62427975427E+02  0.43129926712E+02  0.17550863907E+03  0.19120861970E+03  0.10566000000E+00 0. -1.
        994    1    1    2    0    0  0.68621553177E+02 -0.12896419541E+02  0.32660826037E+02  0.18775357455E+03  0.17120000000E+03 0.  0.
        998    1    1    2    0    0 -0.61935777508E+01 -0.30233507170E+02  0.12918305312E+04  0.12922378058E+04  0.10000000000E+02 0. -1.
</event>
<event>
 5    1  0.1252319E-008  0.3846436E+03  0.7957747E-01  0.3431185E+00
         13   -1    0    0    0    0  0.00000000000E+00  0.00000000000E+00  0.14999999963E+04  0.15000000000E+04  0.10566000000E+00 0.  1.
        994   -1    0    0    0    0 -0.00000000000E+00 -0.00000000000E+00  0.11368683772E-12  0.17120000000E+03  0.17120000000E+03 0.  0.
         13    1    1    2    0    0  0.88668796513E+01 -0.99727636472E+01  0.49817681209E+02  0.51574122335E+02  0.10566000000E+00 0.  1.
        994    1    1    2    0    0 -0.98054043788E+01 -0.64728712148E+00  0.21251723804E+01  0.17149495996E+03  0.17120000000E+03 0.  0.
        998    1    1    2    0    0  0.93852472749E+00  0.10620050769E+02  0.14480571427E+04  0.14481309177E+04  0.10000000000E+02 0.  1.
</event>
<event>
 5    1  0.1252319E-008  0.3855626E+03  0.7957747E-01  0.3427290E+00
         13   -1    0    0    0    0  0.00000000000E+00  0.00000000000E+00  0.14999999963E+04  0.15000000000E+04  0.10566000000E+00 0. -1.
        994   -1    0    0    0    0 -0.00000000000E+00 -0.00000000000E+00  0.11368683772E-12  0.17120000000E+03  0.17120000000E+03 0.  0.
         13    1    1    2    0    0 -0.70255789256E+01  0.72554918070E+01  0.37963205491E+02  0.39283801443E+02  0.10566000000E+00 0. -1.
        994    1    1    2    0    0  0.61927452663E+01 -0.29160324448E+01  0.15049020597E+01  0.17134339225E+03  0.17120000000E+03 0.  0.
        998    1    1    2    0    0  0.83283365929E+00 -0.43394593622E+01  0.14605318887E+04  0.14605728063E+04  0.10000000000E+02 0. -1.
</event>
<event>
 5    1  0.1252319E-008  0.3850643E+03  0.7957747E-01  0.3429400E+00
         13   -1    0    0    0    0  0.00000000000E+00  0.00000000000E+00  0.14999999963E+04  0.15000000000E+04  0.10566000000E+00 0.  1.
        994   -1    0    0    0    0 -0.00000000000E+00 -0.00000000000E+00  0.11368683772E-12  0.17120000000E+03  0.17120000000E+03 0.  0.
         13    1    1    2    0    0 -0.24613090669E+01 -0.11512235906E+02  0.43607288226E+02  0.45168532944E+02  0.10566000000E+00 0.  1.
        994    1    1    2    0    0 -0.49677639944E+01  0.77692887058E+01  0.18778738309E+01  0.17145847000E+03  0.17120000000E+03 0.  0.
        998    1    1    2    0    0  0.74290730613E+01  0.37429471997E+01  0.14545148342E+04  0.14545729971E+04  0.10000000000E+02 0.  1.
</event>
<event>
 5    1  0.1252319E-008  0.3713271E+03  0.7957747E-01  0.3489814E+00
         13   -1    0    0    0    0  0.00000000000E+00  0.00000000000E+00  0.14999999963E+04  0.15000000000E+04  0.10566000000E+00 0. -1.
        994   -1    0    0    0    0 -0.00000000000E+00 -0.00000000000E+00  0.11368683772E-12  0.17120000000E+03  0.17120000000E+03 0.  0.
         13    1    1    2    0    0 -0.36186780193E+02  0.17272434997E+02  0.99036846010E+02  0.10684628259E+03  0.10566000000E+00 0. -1.
        994    1    1    2    0    0 -0.42860416769E+01 -0.13969232255E+02  0.93122670816E+01  0.17207459987E+03  0.17120000000E+03 0.  0.
        998    1    1    2    0    0  0.40472821870E+02 -0.33032027411E+01  0.13916508832E+04  0.13922791175E+04  0.10000000000E+02 0. -1.
</event>
<event>
 5    1  0.1252319E-008  0.3856740E+03  0.7957747E-01  0.3426819E+00
         13   -1    0    0    0    0  0.00000000000E+00  0.00000000000E+00  0.14999999963E+04  0.15000000000E+04  0.10566000000E+00 0. -1.
        994   -1    0    0    0    0 -0.00000000000E+00 -0.00000000000E+00  0.11368683772E-12  0.17120000000E+03  0.17120000000E+03 0.  0.
         13    1    1    2    0    0 -0.66744775491E+01 -0.11700630109E+02  0.71174538157E+02  0.72438107660E+02  0.10566000000E+00 0. -1.
        994    1    1    2    0    0  0.30995107041E+01  0.70152007461E+01  0.14889319135E+01  0.17137816934E+03  0.17120000000E+03 0.  0.
        998    1    1    2    0    0  0.35749668449E+01  0.46854293633E+01  0.14273365262E+04  0.14273837230E+04  0.10000000000E+02 0. -1.
</event>
<event>
 5    1  0.1252319E-008  0.3780221E+03  0.7957747E-01  0.3459816E+00
         13   -1    0    0    0    0  0.00000000000E+00  0.00000000000E+00  0.14999999963E+04  0.15000000000E+04  0.10566000000E+00 0.  1.
        994   -1    0    0    0    0 -0.00000000000E+00 -0.00000000000E+00  0.11368683772E-12  0.17120000000E+03  0.17120000000E+03 0.  0.
         13    1    1    2    0    0 -0.20450047940E+02  0.26283040605E+02  0.10354685522E+03  0.10877023984E+03  0.10566000000E+00 0.  1.
        994    1    1    2    0    0  0.14480940473E+02 -0.20984380250E+02  0.73253183808E+01  0.17324301470E+03  0.17120000000E+03 0.  0.
        998    1    1    2    0    0  0.59691074666E+01 -0.52986603548E+01  0.13891278227E+04  0.13891867455E+04  0.10000000000E+02 0.  1.
</event>
<event>
 5    1  0.1252319E-008  0.3734837E+03  0.7957747E-01  0.3480032E+00
         13   -1    0    0    0    0  0.00000000000E+00  0.00000000000E+00  0.14999999963E+04  0.15000000000E+04  0.10566000000E+00 0. -1.
        994   -1    0    0    0    0 -0.00000000000E+00 -0.00000000000E+00  0.11368683772E-12  0.17120000000E+03  0.17120000000E+03 0.  0.
         13    1    1    2    0    0 -0.77065103893E+01  0.15195661537E+02  0.16117355651E+02  0.23453757677E+02  0.10566000000E+00 0. -1.
        994    1    1    2    0    0  0.68676647382E+01 -0.12944727517E+02  0.81934657767E+01  0.17202123029E+03  0.17120000000E+03 0.  0.
        998    1    1    2    0    0  0.83884565106E+00 -0.22509340195E+01  0.14756891749E+04  0.14757250120E+04  0.10000000000E+02 0. -1.
</event>
<event>
 5    1  0.1252319E-008  0.3727355E+03  0.7957747E-01  0.3483413E+00
         13   -1    0    0    0    0  0.00000000000E+00  0.00000000000E+00  0.14999999963E+04  0.15000000000E+04  0.10566000000E+00 0. -1.
        994   -1    0    0    0    0 -0.00000000000E+00 -0.00000000000E+00  0.11368683772E-12  0.17120000000E+03  0.17120000000E+03 0.  0.
         13    1    1    2    0    0 -0.16690182783E+02 -0.59536511092E+02  0.20967049842E+03  0.21859754670E+03  0.10566000000E+00 0. -1.
        994    1    1    2    0    0 -0.29473076040E+02  0.73249556009E+02  0.29512004392E+02  0.19082598898E+03  0.17120000000E+03 0.  0.
        998    1    1    2    0    0  0.46163258823E+02 -0.13713044917E+02  0.12608174935E+04  0.12617764643E+04  0.10000000000E+02 0. -1.
</event>
<event>
 5    1  0.1252319E-008  0.3836836E+03  0.7957747E-01  0.3435275E+00
         13   -1    0    0    0    0  0.00000000000E+00  0.00000000000E+00  0.14999999963E+04  0.15000000000E+04  0.10566000000E+00 0. -1.
        994   -1    0    0    0    0 -0.00000000000E+00 -0.00000000000E+00  0.11368683772E-12  0.17120000000E+03  0.17120000000E+03 0.  0.
         13    1    1    2    0    0 -0.29119923136E+03  0.24937748093E+02  0.10273380057E+04  0.10681021827E+04  0.10566000000E+00 0. -1.
        994    1    1    2    0    0  0.29421472341E+03 -0.28486368029E+02  0.38478655101E+03  0.51453270691E+03  0.17120000000E+03 0.  0.
        998    1    1    2    0    0 -0.30154920466E+01  0.35486199356E+01  0.87875439548E+02  0.88565110351E+02  0.10000000000E+02 0.  0.
</event>
<event>
 5    1  0.1252319E-008  0.4029432E+03  0.7957747E-01  0.3356964E+00
         13   -1    0    0    0    0  0.00000000000E+00  0.00000000000E+00  0.14999999963E+04  0.15000000000E+04  0.10566000000E+00 0.  1.
        994   -1    0    0    0    0 -0.00000000000E+00 -0.00000000000E+00  0.11368683772E-12  0.17120000000E+03  0.17120000000E+03 0.  0.
         13    1    1    2    0    0 -0.56435883537E+02  0.20722678636E+02  0.51830710441E+02  0.79378032663E+02  0.10566000000E+00 0.  1.
        994    1    1    2    0    0  0.56074998386E+01 -0.83699720454E+02  0.58016871880E+02  0.19927991540E+03  0.17120000000E+03 0.  0.
        998    1    1    2    0    0  0.50828383699E+02  0.62977041818E+02  0.13901524140E+04  0.13925420519E+04  0.10000000000E+02 0.  1.
</event>
<event>
 5    1  0.1252319E-008  0.3832771E+03  0.7957747E-01  0.3437012E+00
         13   -1    0    0    0    0  0.00000000000E+00  0.00000000000E+00  0.14999999963E+04  0.15000000000E+04  0.10566000000E+00 0.  1.
        994   -1    0    0    0    0 -0.00000000000E+00 -0.00000000000E+00  0.11368683772E-12  0.17120000000E+03  0.17120000000E+03 0.  0.
         13    1    1    2    0    0  0.15485322645E+02  0.53136533061E+01  0.55331763883E+02  0.57703079531E+02  0.10566000000E+00 0.  1.
        994    1    1    2    0    0 -0.73431321469E+00 -0.58147890091E+01  0.26015606021E+01  0.17132004875E+03  0.17120000000E+03 0.  0.
        998    1    1    2    0    0 -0.14751009431E+02  0.50113570299E+00  0.14420666718E+04  0.14421768717E+04  0.10000000000E+02 0.  1.
</event>
<event>
 5    1  0.1252319E-008  0.3801932E+03  0.7957747E-01  0.3450318E+00
         13   -1    0    0    0    0  0.00000000000E+00  0.00000000000E+00  0.14999999963E+04  0.15000000000E+04  0.10566000000E+00 0. -1.
        994   -1    0    0    0    0 -0.00000000000E+00 -0.00000000000E+00  0.11368683772E-12  0.17120000000E+03  0.17120000000E+03 0.  0.
         13    1    1    2    0    0  0.31330726107E+02  0.22326920514E+02  0.17261605784E+03  0.17685140759E+03  0.10566000000E+00 0. -1.
        994    1    1    2    0    0 -0.23630144212E+02 -0.18775290559E+02  0.70847250589E+01  0.17398427682E+03  0.17120000000E+03 0.  0.
        998    1    1    2    0    0 -0.77005818942E+01 -0.35516299552E+01  0.13202992134E+04  0.13203643156E+04  0.10000000000E+02 0. -1.
</event>
<event>
 5    1  0.1338939E-008  0.3860021E+03  0.7957747E-01  0.3425433E+00
         13   -1    0    0    0    0  0.00000000000E+00  0.00000000000E+00  0.14999999963E+04  0.15000000000E+04  0.10566000000E+00 0.  1.
        994   -1    0    0    0    0 -0.00000000000E+00 -0.00000000000E+00  0.11368683772E-12  0.17120000000E+03  0.17120000000E+03 0.  0.
         13    1    1    2    0    0 -0.91732561379E+01  0.51968817015E+01  0.49952657186E+02  0.51053259755E+02  0.10566000000E+00 0.  1.
        994    1    1    2    0    0  0.59339995163E+01 -0.18350224866E+01  0.12599016510E+01  0.17131727003E+03  0.17120000000E+03 0.  0.
        998    1    1    2    0    0  0.32392566215E+01 -0.33618592149E+01  0.14487874374E+04  0.14488294702E+04  0.10000000000E+02 0.  1.
</event>
<event>
 5    1  0.1252319E-008  0.3793138E+03  0.7957747E-01  0.3454152E+00
         13   -1    0    0    0    0  0.00000000000E+00  0.00000000000E+00  0.14999999963E+04  0.15000000000E+04  0.10566000000E+00 0.  1.
        994   -1    0    0    0    0 -0.00000000000E+00 -0.00000000000E+00  0.11368683772E-12  0.17120000000E+03  0.17120000000E+03 0.  0.
         13    1    1    2    0    0  0.11443199900E+02 -0.47582759231E+01  0.15464794151E+02  0.19818149153E+02  0.10566000000E+00 0.  1.
        994    1    1    2    0    0 -0.35814316910E+01 -0.31433836307E+01  0.45560025787E+01  0.17132689419E+03  0.17120000000E+03 0.  0.
        998    1    1    2    0    0 -0.78617682086E+01  0.79016595538E+01  0.14799791995E+04  0.14800549567E+04  0.10000000000E+02 0.  1.
</event>
<event>
 5    1  0.1252319E-008  0.3785027E+03  0.7957747E-01  0.3457704E+00
         13   -1    0    0    0    0  0.00000000000E+00  0.00000000000E+00  0.14999999963E+04  0.15000000000E+04  0.10566000000E+00 0.  1.
        994   -1    0    0    0    0 -0.00000000000E+00 -0.00000000000E+00  0.11368683772E-12  0.17120000000E+03  0.17120000000E+03 0.  0.
         13    1    1    2    0    0  0.35635563074E+02  0.51480963055E+01  0.14861598047E+03  0.15291539185E+03  0.10566000000E+00 0.  1.
        994    1    1    2    0    0 -0.21358887767E+01  0.14115331774E+02  0.55758860484E+01  0.17188465643E+03  0.17120000000E+03 0.  0.
        998    1    1    2    0    0 -0.33499674297E+02 -0.19263428080E+02  0.13458081298E+04  0.13463999517E+04  0.10000000000E+02 0.  1.
</event>
<event>
 5    1  0.1252319E-008  0.3798840E+03  0.7957747E-01  0.3451664E+00
         13   -1    0    0    0    0  0.00000000000E+00  0.00000000000E+00  0.14999999963E+04  0.15000000000E+04  0.10566000000E+00 0. -1.
        994   -1    0    0    0    0 -0.00000000000E+00 -0.00000000000E+00  0.11368683772E-12  0.17120000000E+03  0.17120000000E+03 0.  0.
         13    1    1    2    0    0 -0.13953023326E+02 -0.62164442810E+02  0.34869972512E+03  0.35447230395E+03  0.10566000000E+00 0. -1.
        994    1    1    2    0    0  0.25964105651E+02  0.66099831779E+02  0.21246244168E+02  0.18655874526E+03  0.17120000000E+03 0.  0.
        998    1    1    2    0    0 -0.12011082325E+02 -0.39353889698E+01  0.11300540270E+04  0.11301689508E+04  0.10000000000E+02 0. -1.
</event>
<event>
 5    1  0.1324093E-008  0.3859556E+03  0.7957747E-01  0.3425630E+00
         13   -1    0    0    0    0  0.00000000000E+00  0.00000000000E+00  0.14999999963E+04  0.15000000000E+04  0.10566000000E+00 0. -1.
        994   -1    0    0    0    0 -0.00000000000E+00 -0.00000000000E+00  0.11368683772E-12  0.17120000000E+03  0.17120000000E+03 0.  0.
         13    1    1    2    0    0  0.91647851129E+00 -0.10924155740E+02  0.52574104437E+02  0.53704978660E+02  0.10566000000E+00 0. -1.
        994    1    1    2    0    0  0.70884217300E+00  0.73379944414E+01  0.13346584259E+01  0.17136385247E+03  0.17120000000E+03 0.  0.
        998    1    1    2    0    0 -0.16253206843E+01  0.35861612988E+01  0.14460912334E+04  0.14461311689E+04  0.10000000000E+02 0. -1.
</event>
<event>
 5    1  0.1252319E-008  0.3688441E+03  0.7957747E-01  0.3501220E+00
         13   -1    0    0    0    0  0.00000000000E+00  0.00000000000E+00  0.14999999963E+04  0.15000000000E+04  0.10566000000E+00 0.  1.
        994   -1    0    0    0    0 -0.00000000000E+00 -0.00000000000E+00  0.11368683772E-12  0.17120000000E+03  0.17120000000E+03 0.  0.
         13    1    1    2    0    0  0.12398810475E+02 -0.47273583360E+01  0.43916139741E+01  0.13977691346E+02  0.10566000000E+00 0.  1.
        994    1    1    2    0    0 -0.11124319571E+02 -0.19714980951E+01  0.10317710960E+02  0.17188232152E+03  0.17120000000E+03 0.  0.
        998    1    1    2    0    0 -0.12744909034E+01  0.66988564310E+01  0.14852906713E+04  0.14853399871E+04  0.10000000000E+02 0.  1.
</event>
<event>
 5    1  0.1252319E-008  0.3783836E+03  0.7957747E-01  0.3458227E+00
         13   -1    0    0    0    0  0.00000000000E+00  0.00000000000E+00  0.14999999963E+04  0.15000000000E+04  0.10566000000E+00 0. -1.
        994   -1    0    0    0    0 -0.00000000000E+00 -0.00000000000E+00  0.11368683772E-12  0.17120000000E+03  0.17120000000E+03 0.  0.
         13    1    1    2    0    0  0.39382312647E+02 -0.69822612751E+01  0.15131230782E+03  0.15650924632E+03  0.10566000000E+00 0. -1.
        994    1    1    2    0    0 -0.33772762113E+02 -0.17596088388E+01  0.88047568186E+01  0.17473024760E+03  0.17120000000E+03 0.  0.
        998    1    1    2    0    0 -0.56095505341E+01  0.87418701139E+01  0.13398829316E+04  0.13399605061E+04  0.10000000000E+02 0. -1.
</event>
<event>
 5    1  0.1252319E-008  0.3851612E+03  0.7957747E-01  0.3428989E+00
         13   -1    0    0    0    0  0.00000000000E+00  0.00000000000E+00  0.14999999963E+04  0.15000000000E+04  0.10566000000E+00 0. -1.
        994   -1    0    0    0    0 -0.00000000000E+00 -0.00000000000E+00  0.11368683772E-12  0.17120000000E+03  0.17120000000E+03 0.  0.
         13    1    1    2    0    0 -0.32076591003E+01  0.11894658307E+02  0.48699886244E+02  0.50234072674E+02  0.10566000000E+00 0. -1.
        994    1    1    2    0    0  0.48637382875E+01 -0.82770190576E+01  0.18531142112E+01  0.17147897547E+03  0.17120000000E+03 0.  0.
        998    1    1    2    0    0 -0.16560791872E+01 -0.36176392498E+01  0.14494469958E+04  0.14494869519E+04  0.10000000000E+02 0. -1.
</event>
<event>
 5    1  0.1252319E-008  0.3844062E+03  0.7957747E-01  0.3432194E+00
         13   -1    0    0    0    0  0.00000000000E+00  0.00000000000E+00  0.14999999963E+04  0.15000000000E+04  0.10566000000E+00 0. -1.
        994   -1    0    0    0    0 -0.00000000000E+00 -0.00000000000E+00  0.11368683772E-12  0.17120000000E+03  0.17120000000E+03 0.  0.
         13    1    1    2    0    0 -0.12539381631E+02  0.77651799992E+01  0.55366902085E+02  0.57297810801E+02  0.10566000000E+00 0. -1.
        994    1    1    2    0    0  0.13427220347E+02 -0.21389190886E+01  0.25345881249E+01  0.17175776360E+03  0.17120000000E+03 0.  0.
        998    1    1    2    0    0 -0.88783871575E+00 -0.56262609106E+01  0.14420985061E+04  0.14421444256E+04  0.10000000000E+02 0. -1.
</event>
<event>
 5    1  0.1252319E-008  0.3988207E+03  0.7957747E-01  0.3373091E+00
         13   -1    0    0    0    0  0.00000000000E+00  0.00000000000E+00  0.14999999963E+04  0.15000000000E+04  0.10566000000E+00 0.  1.
        994   -1    0    0    0    0 -0.00000000000E+00 -0.00000000000E+00  0.11368683772E-12  0.17120000000E+03  0.17120000000E+03 0.  0.
         13    1    1    2    0    0  0.21177115553E+01 -0.28639235396E+02  0.37766886270E+01  0.28964893360E+02  0.10566000000E+00 0.  1.
        994    1    1    2    0    0 -0.30938475469E+01  0.26051373758E+02  0.29761780367E+02  0.17573687586E+03  0.17120000000E+03 0.  0.
        998    1    1    2    0    0  0.97613599156E+00  0.25878616383E+01  0.14664615273E+04  0.14664982308E+04  0.10000000000E+02 0.  1.
</event>
<event>
 5    1  0.1252319E-008  0.3795034E+03  0.7957747E-01  0.3453323E+00
         13   -1    0    0    0    0  0.00000000000E+00  0.00000000000E+00  0.14999999963E+04  0.15000000000E+04  0.10566000000E+00 0.  1.
        994   -1    0    0    0    0 -0.00000000000E+00 -0.00000000000E+00  0.11368683772E-12  0.17120000000E+03  0.17120000000E+03 0.  0.
         13    1    1    2    0    0  0.16905679945E+02  0.55362785322E+00  0.30408252002E+02  0.34796285320E+02  0.10566000000E+00 0.  1.
        994    1    1    2    0    0 -0.16479770203E+02 -0.32244560802E+01  0.53287573764E+01  0.17210408362E+03  0.17120000000E+03 0.  0.
        998    1    1    2    0    0 -0.42590974175E+00  0.26708282270E+01  0.14642629869E+04  0.14642996311E+04  0.10000000000E+02 0.  1.
</event>
<event>
 5    1  0.1252319E-008  0.3852816E+03  0.7957747E-01  0.3428479E+00
         13   -1    0    0    0    0  0.00000000000E+00  0.00000000000E+00  0.14999999963E+04  0.15000000000E+04  0.10566000000E+00 0.  1.
        994   -1    0    0    0    0 -0.00000000000E+00 -0.00000000000E+00  0.11368683772E-12  0.17120000000E+03  0.17120000000E+03 0.  0.
         13    1    1    2    0    0 -0.39861885466E+01 -0.11422866301E+02  0.51934773708E+02  0.53325448501E+02  0.10566000000E+00 0.  1.
        994    1    1    2    0    0 -0.93585168830E+01  0.23543404849E+01  0.17964047682E+01  0.17148117047E+03  0.17120000000E+03 0.  0.
        998    1    1    2    0    0  0.13344705430E+02  0.90685258161E+01  0.14462688178E+04  0.14463933810E+04  0.10000000000E+02 0.  1.
</event>
<event>
 5    1  0.1252319E-008  0.3762231E+03  0.7957747E-01  0.3467771E+00
         13   -1    0    0    0    0  0.00000000000E+00  0.00000000000E+00  0.14999999963E+04  0.15000000000E+04  0.10566000000E+00 0. -1.
        994   -1    0    0    0    0 -0.00000000000E+00 -0.00000000000E+00  0.11368683772E-12  0.17120000000E+03  0.17120000000E+03 0.  0.
         13    1    1    2    0    0 -0.28053803203E+02 -0.26293841948E+02  0.10799997472E+03  0.11464025341E+03  0.10566000000E+00 0. -1.
        994    1    1    2    0    0  0.28089512665E+02  0.38162425346E+02  0.13691289681E+02  0.17816364063E+03  0.17120000000E+03 0.  0.
        998    1    1    2    0    0 -0.35709462007E-01 -0.11868583398E+02  0.13783087319E+04  0.13783961060E+04  0.10000000000E+02 0. -1.
</event>
<event>
 5    1  0.1252319E-008  0.3826450E+03  0.7957747E-01  0.3439722E+00
         13   -1    0    0    0    0  0.00000000000E+00  0.00000000000E+00  0.14999999963E+04  0.15000000000E+04  0.10566000000E+00 0. -1.
        994   -1    0    0    0    0 -0.00000000000E+00 -0.00000000000E+00  0.11368683772E-12  0.17120000000E+03  0.17120000000E+03 0.  0.
         13    1    1    2    0    0 -0.20308010559E+02 -0.18464955561E+02  0.13580243327E+03  0.13854848221E+03  0.10566000000E+00 0. -1.
        994    1    1    2    0    0  0.11203639314E+02  0.86235099435E+01  0.34665961986E+01  0.17181776319E+03  0.17120000000E+03 0.  0.
        998    1    1    2    0    0  0.91043712456E+01  0.98414456177E+01  0.13607309668E+04  0.13608337546E+04  0.10000000000E+02 0.  1.
</event>
<event>
 5    1  0.1252319E-008  0.3856921E+03  0.7957747E-01  0.3426742E+00
         13   -1    0    0    0    0  0.00000000000E+00  0.00000000000E+00  0.14999999963E+04  0.15000000000E+04  0.10566000000E+00 0. -1.
        994   -1    0    0    0    0 -0.00000000000E+00 -0.00000000000E+00  0.11368683772E-12  0.17120000000E+03  0.17120000000E+03 0.  0.
         13    1    1    2    0    0 -0.14054701809E+02 -0.87165477110E+01  0.99758074990E+02  0.10111971883E+03  0.10566000000E+00 0. -1.
        994    1    1    2    0    0  0.13225233988E+02  0.14136913002E+02  0.25175913608E+01  0.17230942339E+03  0.17120000000E+03 0.  0.
        998    1    1    2    0    0  0.82946782047E+00 -0.54203652905E+01  0.13977243299E+04  0.13977708578E+04  0.10000000000E+02 0. -1.
</event>
<event>
 5    1  0.1252319E-008  0.3819628E+03  0.7957747E-01  0.3442656E+00
         13   -1    0    0    0    0  0.00000000000E+00  0.00000000000E+00  0.14999999963E+04  0.15000000000E+04  0.10566000000E+00 0.  1.
        994   -1    0    0    0    0 -0.00000000000E+00 -0.00000000000E+00  0.11368683772E-12  0.17120000000E+03  0.17120000000E+03 0.  0.
         13    1    1    2    0    0 -0.26228653617E+02 -0.14299485500E+02  0.14826334942E+03  0.15124301472E+03  0.10566000000E+00 0.  1.
        994    1    1    2    0    0  0.11246711858E+02  0.15227092882E+01  0.35735134850E+01  0.17161298660E+03  0.17120000000E+03 0.  0.
        998    1    1    2    0    0  0.14981941759E+02  0.12776776212E+02  0.13481631334E+04  0.13483439987E+04  0.10000000000E+02 0.  1.
</event>
<event>
 5    1  0.1252319E-008  0.3835739E+03  0.7957747E-01  0.3435743E+00
         13   -1    0    0    0    0  0.00000000000E+00  0.00000000000E+00  0.14999999963E+04  0.15000000000E+04  0.10566000000E+00 0. -1.
        994   -1    0    0    0    0 -0.00000000000E+00 -0.00000000000E+00  0.11368683772E-12  0.17120000000E+03  0.17120000000E+03 0.  0.
         13    1    1    2    0    0 -0.10325931276E+03  0.24627369481E+02  0.27916465768E+03  0.29866688846E+03  0.10566000000E+00 0. -1.
        994    1    1    2    0    0  0.90014647580E+02  0.25737090603E+02  0.51248289446E+02  0.20174454586E+03  0.17120000000E+03 0.  0.
        998    1    1    2    0    0  0.13244665180E+02 -0.50364460084E+02  0.11695870492E+04  0.11707885657E+04  0.10000000000E+02 0. -1.
</event>
<event>
 5    1  0.1252319E-008  0.3750832E+03  0.7957747E-01  0.3472851E+00
         13   -1    0    0    0    0  0.00000000000E+00  0.00000000000E+00  0.14999999963E+04  0.15000000000E+04  0.10566000000E+00 0. -1.
        994   -1    0    0    0    0 -0.00000000000E+00 -0.00000000000E+00  0.11368683772E-12  0.17120000000E+03  0.17120000000E+03 0.  0.
         13    1    1    2    0    0 -0.12134402053E+02  0.15800355356E+02  0.27896294368E+02  0.34279867941E+02  0.10566000000E+00 0. -1.
        994    1    1    2    0    0  0.79775918501E+01  0.19346219520E+01  0.68650305941E+01  0.17153411724E+03  0.17120000000E+03 0.  0.
        998    1    1    2    0    0  0.41568102033E+01 -0.17734977308E+02  0.14652386713E+04  0.14653860148E+04  0.10000000000E+02 0. -1.
</event>
<event>
 5    1  0.1252319E-008  0.3767674E+03  0.7957747E-01  0.3465356E+00
         13   -1    0    0    0    0  0.00000000000E+00  0.00000000000E+00  0.14999999963E+04  0.15000000000E+04  0.10566000000E+00 0.  1.
        994   -1    0    0    0    0 -0.00000000000E+00 -0.00000000000E+00  0.11368683772E-12  0.17120000000E+03  0.17120000000E+03 0.  0.
         13    1    1    2    0    0  0.17882770814E+01  0.69475895913E+02  0.15540406336E+03  0.17023669440E+03  0.10566000000E+00 0.  1.
        994    1    1    2    0    0 -0.11754790641E+02 -0.52562839410E+02  0.25025668347E+02  0.18120913682E+03  0.17120000000E+03 0.  0.
        998    1    1    2    0    0  0.99665135592E+01 -0.16913056504E+02  0.13195702646E+04  0.13197541688E+04  0.10000000000E+02 0.  1.
</event>
<event>
 5    1  0.1252319E-008  0.3730512E+03  0.7957747E-01  0.3481984E+00
         13   -1    0    0    0    0  0.00000000000E+00  0.00000000000E+00  0.14999999963E+04  0.15000000000E+04  0.10566000000E+00 0.  1.
        994   -1    0    0    0    0 -0.00000000000E+00 -0.00000000000E+00  0.11368683772E-12  0.17120000000E+03  0.17120000000E+03 0.  0.
         13    1    1    2    0    0 -0.27686642400E+02 -0.70319066575E+02  0.19300552479E+03  0.20727388898E+03  0.10566000000E+00 0.  1.
        994    1    1    2    0    0  0.28515428198E+02  0.72087732967E+02  0.34114379622E+02  0.19100524021E+03  0.17120000000E+03 0.  0.
        998    1    1    2    0    0 -0.82878579843E+00 -0.17686663923E+01  0.12728800919E+04  0.12729208708E+04  0.10000000000E+02 0.  0.
</event>
<event>
 5    1  0.1252319E-008  0.3842516E+03  0.7957747E-01  0.3432852E+00
         13   -1    0    0    0    0  0.00000000000E+00  0.00000000000E+00  0.14999999963E+04  0.15000000000E+04  0.10566000000E+00 0. -1.
        994   -1    0    0    0    0 -0.00000000000E+00 -0.00000000000E+00  0.11368683772E-12  0.17120000000E+03  0.17120000000E+03 0.  0.
         13    1    1    2    0    0  0.46455308089E+01 -0.22084005672E+02  0.11996515029E+03  0.12206937663E+03  0.10566000000E+00 0. -1.
        994    1    1    2    0    0 -0.22483432011E+01  0.21122900920E+02  0.34911054015E+01  0.17254813765E+03  0.17120000000E+03 0.  0.
        998    1    1    2    0    0 -0.23971876078E+01  0.96110475200E+00  0.13765437406E+04  0.13765824857E+04  0.10000000000E+02 0. -1.
</event>
<event>
 5    1  0.1252319E-008  0.3828724E+03  0.7957747E-01  0.3438746E+00
         13   -1    0    0    0    0  0.00000000000E+00  0.00000000000E+00  0.14999999963E+04  0.15000000000E+04  0.10566000000E+00 0.  1.
        994   -1    0    0    0    0 -0.00000000000E+00 -0.00000000000E+00  0.11368683772E-12  0.17120000000E+03  0.17120000000E+03 0.  0.
         13    1    1    2    0    0  0.27055798554E+02 -0.14261112421E+02  0.16655587924E+03  0.16934068512E+03  0.10566000000E+00 0.  1.
        994    1    1    2    0    0 -0.19892997370E+02  0.11120898014E+02  0.44120745160E+01  0.17276664064E+03  0.17120000000E+03 0.  0.
        998    1    1    2    0    0 -0.71628011832E+01  0.31402144071E+01  0.13290320425E+04  0.13290926742E+04  0.10000000000E+02 0.  0.
</event>
<event>
 5    1  0.1252319E-008  0.3781876E+03  0.7957747E-01  0.3459088E+00
         13   -1    0    0    0    0  0.00000000000E+00  0.00000000000E+00  0.14999999963E+04  0.15000000000E+04  0.10566000000E+00 0. -1.
        994   -1    0    0    0    0 -0.00000000000E+00 -0.00000000000E+00  0.11368683772E-12  0.17120000000E+03  0.17120000000E+03 0.  0.
         13    1    1    2    0    0  0.48919211026E+01 -0.13109174204E+02  0.16841700354E+02  0.21896012770E+02  0.10566000000E+00 0. -1.
        994    1    1    2    0    0 -0.22635712404E+01  0.18964542230E+02  0.62785514237E+01  0.17237644220E+03  0.17120000000E+03 0.  0.
        998    1    1    2    0    0 -0.26283498622E+01 -0.58553680264E+01  0.14768797445E+04  0.14769275450E+04  0.10000000000E+02 0. -1.
</event>
<event>
 5    1  0.1252319E-008  0.3856697E+03  0.7957747E-01  0.3426837E+00
         13   -1    0    0    0    0  0.00000000000E+00  0.00000000000E+00  0.14999999963E+04  0.15000000000E+04  0.10566000000E+00 0. -1.
        994   -1    0    0    0    0 -0.00000000000E+00 -0.00000000000E+00  0.11368683772E-12  0.17120000000E+03  0.17120000000E+03 0.  0.
         13    1    1    2    0    0 -0.50470705132E+01 -0.12380630573E+02  0.65879011774E+02  0.67222081867E+02  0.10566000000E+00 0. -1.
        994    1    1    2    0    0  0.11352653515E+02  0.12846787876E+02  0.22631059899E+01  0.17207116071E+03  0.17120000000E+03 0.  0.
        998    1    1    2    0    0 -0.63055830018E+01 -0.46615730289E+00  0.14318578785E+04  0.14319067574E+04  0.10000000000E+02 0. -1.
</event>
<event>
 5    1  0.1252319E-008  0.3846139E+03  0.7957747E-01  0.3431311E+00
         13   -1    0    0    0    0  0.00000000000E+00  0.00000000000E+00  0.14999999963E+04  0.15000000000E+04  0.10566000000E+00 0.  1.
        994   -1    0    0    0    0 -0.00000000000E+00 -0.00000000000E+00  0.11368683772E-12  0.17120000000E+03  0.17120000000E+03 0.  0.
         13    1    1    2    0    0 -0.18220305036E+01  0.15668722028E+02  0.65573179009E+02  0.67443914585E+02  0.10566000000E+00 0.  1.
        994    1    1    2    0    0 -0.27387533801E+01 -0.17113969894E+02  0.28116880479E+01  0.17209803696E+03  0.17120000000E+03 0.  0.
        998    1    1    2    0    0  0.45607838837E+01  0.14452478655E+01  0.14316151292E+04  0.14316580485E+04  0.10000000000E+02 0.  1.
</event>
<event>
 5    1  0.1252319E-008  0.3691183E+03  0.7957747E-01  0.3499953E+00
         13   -1    0    0    0    0  0.00000000000E+00  0.00000000000E+00  0.14999999963E+04  0.15000000000E+04  0.10566000000E+00 0. -1.
        994   -1    0    0    0    0 -0.00000000000E+00 -0.00000000000E+00  0.11368683772E-12  0.17120000000E+03  0.17120000000E+03 0.  0.
         13    1    1    2    0    0 -0.14970233936E+02 -0.82458888344E+02  0.35794291751E+03  0.36762306719E+03  0.10566000000E+00 0. -1.
        994    1    1    2    0    0 -0.69982793155E+02  0.59605820458E+02  0.40534519443E+02  0.19850171898E+03  0.17120000000E+03 0.  0.
        998    1    1    2    0    0  0.84953027091E+02  0.22853067885E+02  0.11015225593E+04  0.11050752138E+04  0.10000000000E+02 0. -1.
</event>
<event>
 5    1  0.1252319E-008  0.3805435E+03  0.7957747E-01  0.3448796E+00
         13   -1    0    0    0    0  0.00000000000E+00  0.00000000000E+00  0.14999999963E+04  0.15000000000E+04  0.10566000000E+00 0. -1.
        994   -1    0    0    0    0 -0.00000000000E+00 -0.00000000000E+00  0.11368683772E-12  0.17120000000E+03  0.17120000000E+03 0.  0.
         13    1    1    2    0    0 -0.18121558662E+00  0.30881449260E+02  0.14445489659E+03  0.14771907480E+03  0.10566000000E+00 0. -1.
        994    1    1    2    0    0 -0.14467589690E+01  0.70054144677E+01  0.40298270981E+01  0.17139675741E+03  0.17120000000E+03 0.  0.
        998    1    1    2    0    0  0.16279745556E+01 -0.37886863728E+02  0.13515152726E+04  0.13520841678E+04  0.10000000000E+02 0. -1.
</event>
<event>
 5    1  0.1252319E-008  0.3758758E+03  0.7957747E-01  0.3469315E+00
         13   -1    0    0    0    0  0.00000000000E+00  0.00000000000E+00  0.14999999963E+04  0.15000000000E+04  0.10566000000E+00 0.  1.
        994   -1    0    0    0    0 -0.00000000000E+00 -0.00000000000E+00  0.11368683772E-12  0.17120000000E+03  0.17120000000E+03 0.  0.
         13    1    1    2    0    0 -0.14597262227E+02  0.12694722333E+03  0.68794675841E+03  0.69971382090E+03  0.10566000000E+00 0.  1.
        994    1    1    2    0    0  0.23005364984E+02 -0.12438181285E+03  0.62543989348E+02  0.22185867752E+03  0.17120000000E+03 0.  0.
        998    1    1    2    0    0 -0.84081027575E+01 -0.25654104766E+01  0.74950924852E+03  0.74962750159E+03  0.10000000000E+02 0.  0.
</event>
<event>
 5    1  0.1252319E-008  0.3831909E+03  0.7957747E-01  0.3437381E+00
         13   -1    0    0    0    0  0.00000000000E+00  0.00000000000E+00  0.14999999963E+04  0.15000000000E+04  0.10566000000E+00 0.  1.
        994   -1    0    0    0    0 -0.00000000000E+00 -0.00000000000E+00  0.11368683772E-12  0.17120000000E+03  0.17120000000E+03 0.  0.
         13    1    1    2    0    0  0.18788979881E+02  0.17044838834E+01  0.72005808867E+02  0.74436407120E+02  0.10566000000E+00 0.  1.
        994    1    1    2    0    0 -0.55487983940E+01 -0.47808315463E+01  0.27084965473E+01  0.17137800754E+03  0.17120000000E+03 0.  0.
        998    1    1    2    0    0 -0.13240181487E+02  0.30763476628E+01  0.14252856909E+04  0.14253855853E+04  0.10000000000E+02 0.  1.
</event>
<event>
 5    1  0.1252319E-008  0.3995845E+03  0.7957747E-01  0.3370078E+00
         13   -1    0    0    0    0  0.00000000000E+00  0.00000000000E+00  0.14999999963E+04  0.15000000000E+04  0.10566000000E+00 0.  1.
        994   -1    0    0    0    0 -0.00000000000E+00 -0.00000000000E+00  0.11368683772E-12  0.17120000000E+03  0.17120000000E+03 0.  0.
         13    1    1    2    0    0  0.99954164823E+00  0.32136336032E+02  0.76997650755E+01  0.33061166394E+02  0.10566000000E+00 0.  1.
        994    1    1    2    0    0 -0.11843695513E+02 -0.17368306102E+02  0.29260402959E+02  0.17495011392E+03  0.17120000000E+03 0.  0.
        998    1    1    2    0    0  0.10844153865E+02 -0.14768029929E+02  0.14630398282E+04  0.14631887197E+04  0.10000000000E+02 0.  1.
</event>
<event>
 5    1  0.1252319E-008  0.3858061E+03  0.7957747E-01  0.3426261E+00
         13   -1    0    0    0    0  0.00000000000E+00  0.00000000000E+00  0.14999999963E+04  0.15000000000E+04  0.10566000000E+00 0.  1.
        994   -1    0    0    0    0 -0.00000000000E+00 -0.00000000000E+00  0.11368683772E-12  0.17120000000E+03  0.17120000000E+03 0.  0.
         13    1    1    2    0    0 -0.35286556358E+01  0.13942923869E+02  0.85531871201E+02  0.86732742905E+02  0.10566000000E+00 0.  1.
        994    1    1    2    0    0 -0.79304409448E+01 -0.10783491565E+02  0.18183929606E+01  0.17173212319E+03  0.17120000000E+03 0.  0.
        998    1    1    2    0    0  0.11459096581E+02 -0.31594323040E+01  0.14126497321E+04  0.14127351339E+04  0.10000000000E+02 0.  1.
</event>
<event>
 5    1  0.1252319E-008  0.3788540E+03  0.7957747E-01  0.3456164E+00
         13   -1    0    0    0    0  0.00000000000E+00  0.00000000000E+00  0.14999999963E+04  0.15000000000E+04  0.10566000000E+00 0.  1.
        994   -1    0    0    0    0 -0.00000000000E+00 -0.00000000000E+00  0.11368683772E-12  0.17120000000E+03  0.17120000000E+03 0.  0.
         13    1    1    2    0    0 -0.34305931677E+02  0.15295436745E+02  0.14238634220E+03  0.14725735616E+03  0.10566000000E+00 0.  1.
        994    1    1    2    0    0  0.29377693406E+02 -0.52285516072E+01  0.77063384122E+01  0.17395175847E+03  0.17120000000E+03 0.  0.
        998    1    1    2    0    0  0.49282382703E+01 -0.10066885137E+02  0.13499073157E+04  0.13499908854E+04  0.10000000000E+02 0.  1.
</event>
<event>
 5    1  0.1285550E-008  0.3840505E+03  0.7957747E-01  0.3433709E+00
         13   -1    0    0    0    0  0.00000000000E+00  0.00000000000E+00  0.14999999963E+04  0.15000000000E+04  0.10566000000E+00 0.  1.
        994   -1    0    0    0    0 -0.00000000000E+00 -0.00000000000E+00  0.11368683772E-12  0.17120000000E+03  0.17120000000E+03 0.  0.
         13    1    1    2    0    0  0.37376975930E+01 -0.10036943269E+02  0.26194137219E+02  0.28299374590E+02  0.10566000000E+00 0.  1.
        994    1    1    2    0    0 -0.39220097733E+01  0.11602034319E+02  0.25972062125E+01  0.17165714329E+03  0.17120000000E+03 0.  0.
        998    1    1    2    0    0  0.18431218037E+00 -0.15650910505E+01  0.14712086528E+04  0.14712434821E+04  0.10000000000E+02 0.  1.
</event>
<event>
 5    1  0.1252319E-008  0.3808773E+03  0.7957747E-01  0.3447347E+00
         13   -1    0    0    0    0  0.00000000000E+00  0.00000000000E+00  0.14999999963E+04  0.15000000000E+04  0.10566000000E+00 0.  1.
        994   -1    0    0    0    0 -0.00000000000E+00 -0.00000000000E+00  0.11368683772E-12  0.17120000000E+03  0.17120000000E+03 0.  0.
         13    1    1    2    0    0 -0.12476622505E+02  0.62600990211E+01  0.24833451813E+02  0.28488005228E+02  0.10566000000E+00 0.  1.
        994    1    1    2    0    0  0.10327358343E+02 -0.37171930540E+01  0.40926008566E+01  0.17160029498E+03  0.17120000000E+03 0.  0.
        998    1    1    2    0    0  0.21492641615E+01 -0.25429059672E+01  0.14710739436E+04  0.14711116998E+04  0.10000000000E+02 0.  1.
</event>
<event>
 5    1  0.1252319E-008  0.3824097E+03  0.7957747E-01  0.3440733E+00
         13   -1    0    0    0    0  0.00000000000E+00  0.00000000000E+00  0.14999999963E+04  0.15000000000E+04  0.10566000000E+00 0. -1.
        994   -1    0    0    0    0 -0.00000000000E+00 -0.00000000000E+00  0.11368683772E-12  0.17120000000E+03  0.17120000000E+03 0.  0.
         13    1    1    2    0    0  0.19699817327E+02 -0.78643739893E+01  0.72753319533E+02  0.75782503575E+02  0.10566000000E+00 0. -1.
        994    1    1    2    0    0 -0.16865800579E+02  0.17909884526E+02  0.49314678620E+01  0.17302883739E+03  0.17120000000E+03 0.  0.
        998    1    1    2    0    0 -0.28340167488E+01 -0.10045510537E+02  0.14223152089E+04  0.14223886590E+04  0.10000000000E+02 0. -1.
</event>
<event>
 5    1  0.1252319E-008  0.3826563E+03  0.7957747E-01  0.3439673E+00
         13   -1    0    0    0    0  0.00000000000E+00  0.00000000000E+00  0.14999999963E+04  0.15000000000E+04  0.10566000000E+00 0. -1.
        994   -1    0    0    0    0 -0.00000000000E+00 -0.00000000000E+00  0.11368683772E-12  0.17120000000E+03  0.17120000000E+03 0.  0.
         13    1    1    2    0    0  0.24636711827E+02 -0.21691968370E+02  0.16637398216E+03  0.16958131432E+03  0.10566000000E+00 0. -1.
        994    1    1    2    0    0 -0.11976821229E+02  0.44690236448E+02  0.99246520604E+01  0.17761925627E+03  0.17120000000E+03 0.  0.
        998    1    1    2    0    0 -0.12659890598E+02 -0.22998268078E+02  0.13237013621E+04  0.13239994294E+04  0.10000000000E+02 0. -1.
</event>
<event>
 5    1  0.1252319E-008  0.4004812E+03  0.7957747E-01  0.3366556E+00
         13   -1    0    0    0    0  0.00000000000E+00  0.00000000000E+00  0.14999999963E+04  0.15000000000E+04  0.10566000000E+00 0.  1.
        994   -1    0    0    0    0 -0.00000000000E+00 -0.00000000000E+00  0.11368683772E-12  0.17120000000E+03  0.17120000000E+03 0.  0.
         13    1    1    2    0    0 -0.55542846202E+02 -0.23978331116E+02  0.57120765250E+02  0.83203131636E+02  0.10566000000E+00 0.  1.
        994    1    1    2    0    0  0.27976333612E+02  0.26886383449E+02  0.33993637623E+02  0.17880313268E+03  0.17120000000E+03 0.  0.
        998    1    1    2    0    0  0.27566512590E+02 -0.29080523329E+01  0.14088855934E+04  0.14091937357E+04  0.10000000000E+02 0.  1.
</event>
<event>
 5    1  0.1252319E-008  0.3841879E+03  0.7957747E-01  0.3433124E+00
         13   -1    0    0    0    0  0.00000000000E+00  0.00000000000E+00  0.14999999963E+04  0.15000000000E+04  0.10566000000E+00 0.  1.
        994   -1    0    0    0    0 -0.00000000000E+00 -0.00000000000E+00  0.11368683772E-12  0.17120000000E+03  0.17120000000E+03 0.  0.
         13    1    1    2    0    0 -0.59818463937E+01  0.14648227539E+02  0.63548638265E+02  0.65488881847E+02  0.10566000000E+00 0.  1.
        994    1    1    2    0    0 -0.14296534344E+02 -0.10139499781E+02  0.30474792021E+01  0.17212183905E+03  0.17120000000E+03 0.  0.
        998    1    1    2    0    0  0.20278380738E+02 -0.45087277583E+01  0.14334038788E+04  0.14335892791E+04  0.10000000000E+02 0.  1.
</event>
<event>
 5    1  0.1252319E-008  0.3806653E+03  0.7957747E-01  0.3448267E+00
         13   -1    0    0    0    0  0.00000000000E+00  0.00000000000E+00  0.14999999963E+04  0.15000000000E+04  0.10566000000E+00 0.  1.
        994   -1    0    0    0    0 -0.00000000000E+00 -0.00000000000E+00  0.11368683772E-12  0.17120000000E+03  0.17120000000E+03 0.  0.
         13    1    1    2    0    0  0.10857680130E+03 -0.17534932267E+03  0.10319465265E+04  0.10523544800E+04  0.10566000000E+00 0.  1.
        994    1    1    2    0    0 -0.13552592189E+03  0.16927155926E+03  0.18099149741E+03  0.33028396633E+03  0.17120000000E+03 0.  0.
        998    1    1    2    0    0  0.26949120592E+02  0.60777634060E+01  0.28706197233E+03  0.28856155369E+03  0.10000000000E+02 0.  1.
</event>
<event>
 5    1  0.1252319E-008  0.3785950E+03  0.7957747E-01  0.3457299E+00
         13   -1    0    0    0    0  0.00000000000E+00  0.00000000000E+00  0.14999999963E+04  0.15000000000E+04  0.10566000000E+00 0.  1.
        994   -1    0    0    0    0 -0.00000000000E+00 -0.00000000000E+00  0.11368683772E-12  0.17120000000E+03  0.17120000000E+03 0.  0.
         13    1    1    2    0    0  0.36082375414E+02  0.29644479016E+02  0.27133478346E+03  0.27532400700E+03  0.10566000000E+00 0.  1.
        994    1    1    2    0    0  0.42840758392E+01 -0.11631703283E+02  0.53602565471E+01  0.17173183216E+03  0.17120000000E+03 0.  0.
        998    1    1    2    0    0 -0.40366451253E+02 -0.18012775733E+02  0.12233049563E+04  0.12241441608E+04  0.10000000000E+02 0.  1.
</event>
<event>
 5    1  0.1252319E-008  0.3786521E+03  0.7957747E-01  0.3457049E+00
         13   -1    0    0    0    0  0.00000000000E+00  0.00000000000E+00  0.14999999963E+04  0.15000000000E+04  0.10566000000E+00 0.  1.
        994   -1    0    0    0    0 -0.00000000000E+00 -0.00000000000E+00  0.11368683772E-12  0.17120000000E+03  0.17120000000E+03 0.  0.
         13    1    1    2    0    0 -0.35453622017E+02  0.31235485928E+02  0.27400235326E+03  0.27804660698E+03  0.10566000000E+00 0.  1.
        994    1    1    2    0    0 -0.14002019664E+02 -0.28367746060E+02  0.81829559790E+01  0.17429052281E+03  0.17120000000E+03 0.  0.
        998    1    1    2    0    0  0.49455641681E+02 -0.28677398675E+01  0.12178146870E+04  0.12188628702E+04  0.10000000000E+02 0.  1.
</event>
<event>
 5    1  0.1252319E-008  0.3846200E+03  0.7957747E-01  0.3431286E+00
         13   -1    0    0    0    0  0.00000000000E+00  0.00000000000E+00  0.14999999963E+04  0.15000000000E+04  0.10566000000E+00 0.  1.
        994   -1    0    0    0    0 -0.00000000000E+00 -0.00000000000E+00  0.11368683772E-12  0.17120000000E+03  0.17120000000E+03 0.  0.
         13    1    1    2    0    0  0.17008245818E+02  0.57964061497E+01  0.86473755548E+02  0.88321007199E+02  0.10566000000E+00 0.  1.
        994    1    1    2    0    0 -0.13439603680E+02 -0.72433384220E+01  0.25868066455E+01  0.17189886697E+03  0.17120000000E+03 0.  0.
        998    1    1    2    0    0 -0.35686421382E+01  0.14469322723E+01  0.14109394341E+04  0.14109801258E+04  0.10000000000E+02 0.  0.
</event>
<event>
 5    1  0.1252319E-008  0.3854899E+03  0.7957747E-01  0.3427597E+00
         13   -1    0    0    0    0  0.00000000000E+00  0.00000000000E+00  0.14999999963E+04  0.15000000000E+04  0.10566000000E+00 0.  1.
        994   -1    0    0    0    0 -0.00000000000E+00 -0.00000000000E+00  0.11368683772E-12  0.17120000000E+03  0.17120000000E+03 0.  0.
         13    1    1    2    0    0 -0.60409080075E+01 -0.11308087969E+02  0.60959229282E+02  0.62292890619E+02  0.10566000000E+00 0.  1.
        994    1    1    2    0    0  0.97170258732E+00  0.51309602209E+01  0.14766396273E+01  0.17128599307E+03  0.17120000000E+03 0.  0.
        998    1    1    2    0    0  0.50692054201E+01  0.61771277485E+01  0.14375641274E+04  0.14376211163E+04  0.10000000000E+02 0.  1.
</event>
<event>
 5    1  0.1252319E-008  0.3839355E+03  0.7957747E-01  0.3434199E+00
         13   -1    0    0    0    0  0.00000000000E+00  0.00000000000E+00  0.14999999963E+04  0.15000000000E+04  0.10566000000E+00 0.  1.
        994   -1    0    0    0    0 -0.00000000000E+00 -0.00000000000E+00  0.11368683772E-12  0.17120000000E+03  0.17120000000E+03 0.  0.
         13    1    1    2    0    0 -0.19871105959E+02 -0.34901173092E+01  0.94611361462E+02  0.96738630611E+02  0.10566000000E+00 0.  1.
        994    1    1    2    0    0  0.13153753852E+02 -0.80086589134E+01  0.29425698969E+01  0.17191642905E+03  0.17120000000E+03 0.  0.
        998    1    1    2    0    0  0.67173521072E+01  0.11498776223E+02  0.14024460649E+04  0.14025449403E+04  0.10000000000E+02 0.  1.
</event>
<event>
 5    1  0.1503093E-008  0.3849354E+03  0.7957747E-01  0.3429946E+00
         13   -1    0    0    0    0  0.00000000000E+00  0.00000000000E+00  0.14999999963E+04  0.15000000000E+04  0.10566000000E+00 0. -1.
        994   -1    0    0    0    0 -0.00000000000E+00 -0.00000000000E+00  0.11368683772E-12  0.17120000000E+03  0.17120000000E+03 0.  0.
         13    1    1    2    0    0 -0.93326038698E+01  0.46464580348E+01  0.32283613666E+02  0.33925358401E+02  0.10566000000E+00 0. -1.
        994    1    1    2    0    0  0.79160303714E+01 -0.27306067669E+01  0.18929060809E+01  0.17141511848E+03  0.17120000000E+03 0.  0.
        998    1    1    2    0    0  0.14165734984E+01 -0.19158512679E+01  0.14658234765E+04  0.14658595231E+04  0.10000000000E+02 0. -1.
</event>
<event>
 5    1  0.1252319E-008  0.3823667E+03  0.7957747E-01  0.3440918E+00
         13   -1    0    0    0    0  0.00000000000E+00  0.00000000000E+00  0.14999999963E+04  0.15000000000E+04  0.10566000000E+00 0. -1.
        994   -1    0    0    0    0 -0.00000000000E+00 -0.00000000000E+00  0.11368683772E-12  0.17120000000E+03  0.17120000000E+03 0.  0.
         13    1    1    2    0    0 -0.91194356725E+01  0.13770918612E+02  0.45253692121E+02  0.48173749293E+02  0.10566000000E+00 0. -1.
        994    1    1    2    0    0  0.70265476331E+01 -0.91723758092E+01  0.33861717124E+01  0.17162287437E+03  0.17120000000E+03 0.  0.
        998    1    1    2    0    0  0.20928880394E+01 -0.45985428026E+01  0.14513601324E+04  0.14514033763E+04  0.10000000000E+02 0. -1.
</event>
<event>
 5    1  0.1252319E-008  0.3723540E+03  0.7957747E-01  0.3485142E+00
         13   -1    0    0    0    0  0.00000000000E+00  0.00000000000E+00  0.14999999963E+04  0.15000000000E+04  0.10566000000E+00 0. -1.
        994   -1    0    0    0    0 -0.00000000000E+00 -0.00000000000E+00  0.11368683772E-12  0.17120000000E+03  0.17120000000E+03 0.  0.
         13    1    1    2    0    0  0.54790764126E+01  0.98026092663E+01  0.40880420441E+01  0.11951346307E+02  0.10566000000E+00 0. -1.
        994    1    1    2    0    0 -0.61375674435E+01 -0.90859648806E+01  0.84562889868E+01  0.17175905599E+03  0.17120000000E+03 0.  0.
        998    1    1    2    0    0  0.65849103090E+00 -0.71664438568E+00  0.14874556652E+04  0.14874895977E+04  0.10000000000E+02 0. -1.
</event>
<event>
 5    1  0.1252319E-008  0.3796345E+03  0.7957747E-01  0.3452751E+00
         13   -1    0    0    0    0  0.00000000000E+00  0.00000000000E+00  0.14999999963E+04  0.15000000000E+04  0.10566000000E+00 0. -1.
        994   -1    0    0    0    0 -0.00000000000E+00 -0.00000000000E+00  0.11368683772E-12  0.17120000000E+03  0.17120000000E+03 0.  0.
         13    1    1    2    0    0 -0.96940324746E+01  0.34786798135E+01  0.10431863828E+02  0.14659823526E+02  0.10566000000E+00 0. -1.
        994    1    1    2    0    0  0.76728702924E+00 -0.12006827323E+02  0.48023710463E+01  0.17168941551E+03  0.17120000000E+03 0.  0.
        998    1    1    2    0    0  0.89267454454E+01  0.85281475096E+01  0.14847657614E+04  0.14848507610E+04  0.10000000000E+02 0. -1.
</event>
<event>
 5    1  0.1252319E-008  0.3788679E+03  0.7957747E-01  0.3456103E+00
         13   -1    0    0    0    0  0.00000000000E+00  0.00000000000E+00  0.14999999963E+04  0.15000000000E+04  0.10566000000E+00 0.  1.
        994   -1    0    0    0    0 -0.00000000000E+00 -0.00000000000E+00  0.11368683772E-12  0.17120000000E+03  0.17120000000E+03 0.  0.
         13    1    1    2    0    0  0.61997534655E+02  0.51894148170E+01  0.13150624619E+03  0.14548033640E+03  0.10566000000E+00 0.  1.
        994    1    1    2    0    0 -0.86131643236E+01 -0.15461704316E+02  0.16837977504E+02  0.17293411574E+03  0.17120000000E+03 0.  0.
        998    1    1    2    0    0 -0.53384370332E+02  0.10272289499E+02  0.13516557726E+04  0.13527855479E+04  0.10000000000E+02 0.  1.
</event>
<event>
 5    1  0.1252319E-008  0.3758860E+03  0.7957747E-01  0.3469270E+00
         13   -1    0    0    0    0  0.00000000000E+00  0.00000000000E+00  0.14999999963E+04  0.15000000000E+04  0.10566000000E+00 0.  1.
        994   -1    0    0    0    0 -0.00000000000E+00 -0.00000000000E+00  0.11368683772E-12  0.17120000000E+03  0.17120000000E+03 0.  0.
         13    1    1    2    0    0 -0.52424448112E+01 -0.18694835019E+02  0.27808929941E+02  0.33916483198E+02  0.10566000000E+00 0.  1.
        994    1    1    2    0    0  0.14265515250E+02  0.83293940459E+01  0.71498005958E+01  0.17214367075E+03  0.17120000000E+03 0.  0.
        998    1    1    2    0    0 -0.90230704387E+01  0.10365440973E+02  0.14650412657E+04  0.14651398461E+04  0.10000000000E+02 0.  1.
</event>
<event>
 5    1  0.1252319E-008  0.3758555E+03  0.7957747E-01  0.3469405E+00
         13   -1    0    0    0    0  0.00000000000E+00  0.00000000000E+00  0.14999999963E+04  0.15000000000E+04  0.10566000000E+00 0. -1.
        994   -1    0    0    0    0 -0.00000000000E+00 -0.00000000000E+00  0.11368683772E-12  0.17120000000E+03  0.17120000000E+03 0.  0.
         13    1    1    2    0    0 -0.15171143523E+02 -0.57892588545E+01  0.18176815552E+02  0.24373897955E+02  0.10566000000E+00 0. -1.
        994    1    1    2    0    0  0.14845134959E+02  0.98380638816E+01  0.73157930389E+01  0.17227921047E+03  0.17120000000E+03 0.  0.
        998    1    1    2    0    0  0.32600856400E+00 -0.40488050271E+01  0.14745073877E+04  0.14745468916E+04  0.10000000000E+02 0. -1.
</event>
<event>
 5    1  0.1252319E-008  0.3841918E+03  0.7957747E-01  0.3433107E+00
         13   -1    0    0    0    0  0.00000000000E+00  0.00000000000E+00  0.14999999963E+04  0.15000000000E+04  0.10566000000E+00 0. -1.
        994   -1    0    0    0    0 -0.00000000000E+00 -0.00000000000E+00  0.11368683772E-12  0.17120000000E+03  0.17120000000E+03 0.  0.
         13    1    1    2    0    0  0.25060169139E+02  0.25959794269E+01  0.14603320838E+03  0.14819062150E+03  0.10566000000E+00 0. -1.
        994    1    1    2    0    0 -0.22437873274E+02 -0.53452553771E+01  0.37881541753E+01  0.17278836773E+03  0.17120000000E+03 0.  0.
        998    1    1    2    0    0 -0.26222958649E+01  0.27492759502E+01  0.13501786337E+04  0.13502210108E+04  0.10000000000E+02 0. -1.
</event>
<event>
 5    1  0.1252319E-008  0.3906797E+03  0.7957747E-01  0.3405935E+00
         13   -1    0    0    0    0  0.00000000000E+00  0.00000000000E+00  0.14999999963E+04  0.15000000000E+04  0.10566000000E+00 0. -1.
        994   -1    0    0    0    0 -0.00000000000E+00 -0.00000000000E+00  0.11368683772E-12  0.17120000000E+03  0.17120000000E+03 0.  0.
         13    1    1    2    0    0  0.74277085979E+02  0.68936912333E+02  0.19256880183E+03  0.21760546405E+03  0.10566000000E+00 0. -1.
        994    1    1    2    0    0 -0.93970359351E+02 -0.49690562779E+02  0.66337110110E+02  0.21215473750E+03  0.17120000000E+03 0.  0.
        998    1    1    2    0    0  0.19693273372E+02 -0.19246349554E+02  0.12410940843E+04  0.12414397984E+04  0.10000000000E+02 0. -1.
</event>
<event>
 5    1  0.1252319E-008  0.3706610E+03  0.7957747E-01  0.3492858E+00
         13   -1    0    0    0    0  0.00000000000E+00  0.00000000000E+00  0.14999999963E+04  0.15000000000E+04  0.10566000000E+00 0. -1.
        994   -1    0    0    0    0 -0.00000000000E+00 -0.00000000000E+00  0.11368683772E-12  0.17120000000E+03  0.17120000000E+03 0.  0.
         13    1    1    2    0    0  0.39279000772E+01  0.15822571764E+02  0.66350358846E+01  0.17601620422E+02  0.10566000000E+00 0. -1.
        994    1    1    2    0    0 -0.22176099045E+02 -0.95127305503E+01  0.13331742433E+02  0.17340544042E+03  0.17120000000E+03 0.  0.
        998    1    1    2    0    0  0.18248198968E+02 -0.63098412139E+01  0.14800332180E+04  0.14801929392E+04  0.10000000000E+02 0. -1.
</event>
<event>
 5    1  0.1252319E-008  0.3773668E+03  0.7957747E-01  0.3462705E+00
         13   -1    0    0    0    0  0.00000000000E+00  0.00000000000E+00  0.14999999963E+04  0.15000000000E+04  0.10566000000E+00 0. -1.
        994   -1    0    0    0    0 -0.00000000000E+00 -0.00000000000E+00  0.11368683772E-12  0.17120000000E+03  0.17120000000E+03 0.  0.
         13    1    1    2    0    0 -0.43091653722E+02 -0.69619641525E+02  0.46438380555E+03  0.47154651428E+03  0.10566000000E+00 0. -1.
        994    1    1    2    0    0  0.37662817913E+02  0.62678093501E+02  0.23717752173E+02  0.18766726679E+03  0.17120000000E+03 0.  0.
        998    1    1    2    0    0  0.54288358096E+01  0.69415480239E+01  0.10118984386E+04  0.10119862189E+04  0.10000000000E+02 0. -1.
</event>
<event>
 5    1  0.1252319E-008  0.4168725E+03  0.7957747E-01  0.3304809E+00
         13   -1    0    0    0    0  0.00000000000E+00  0.00000000000E+00  0.14999999963E+04  0.15000000000E+04  0.10566000000E+00 0.  1.
        994   -1    0    0    0    0 -0.00000000000E+00 -0.00000000000E+00  0.11368683772E-12  0.17120000000E+03  0.17120000000E+03 0.  0.
         13    1    1    2    0    0 -0.71039078246E+01 -0.13721656655E+03  0.21334102462E+03  0.25375826212E+03  0.10566000000E+00 0.  1.
        994    1    1    2    0    0  0.87526594501E+01  0.11971733544E+03  0.10205664743E+03  0.23266681916E+03  0.17120000000E+03 0.  0.
        998    1    1    2    0    0 -0.16487516255E+01  0.17499231108E+02  0.11846023242E+04  0.11847749187E+04  0.10000000000E+02 0.  1.
</event>
<event>
 5    1  0.1252319E-008  0.3855687E+03  0.7957747E-01  0.3427264E+00
         13   -1    0    0    0    0  0.00000000000E+00  0.00000000000E+00  0.14999999963E+04  0.15000000000E+04  0.10566000000E+00 0. -1.
        994   -1    0    0    0    0 -0.00000000000E+00 -0.00000000000E+00  0.11368683772E-12  0.17120000000E+03  0.17120000000E+03 0.  0.
         13    1    1    2    0    0 -0.10293735397E+02  0.12267942841E+02  0.94887218303E+02  0.96229199161E+02  0.10566000000E+00 0. -1.
        994    1    1    2    0    0  0.49035365058E+01 -0.10638549620E+02  0.17986314911E+01  0.17160972724E+03  0.17120000000E+03 0.  0.
        998    1    1    2    0    0  0.53901988911E+01 -0.16293932217E+01  0.14033141465E+04  0.14033610736E+04  0.10000000000E+02 0.  0.
</event>
<event>
 5    1  0.1252319E-008  0.3813169E+03  0.7957747E-01  0.3445444E+00
         13   -1    0    0    0    0  0.00000000000E+00  0.00000000000E+00  0.14999999963E+04  0.15000000000E+04  0.10566000000E+00 0.  1.
        994   -1    0    0    0    0 -0.00000000000E+00 -0.00000000000E+00  0.11368683772E-12  0.17120000000E+03  0.17120000000E+03 0.  0.
         13    1    1    2    0    0 -0.31825105418E+02 -0.11068567825E+02  0.15120445057E+03  0.15491335502E+03  0.10566000000E+00 0.  1.
        994    1    1    2    0    0  0.30247325722E+02  0.56301682873E+01  0.66269227690E+01  0.17406882436E+03  0.17120000000E+03 0.  0.
        998    1    1    2    0    0  0.15777796956E+01  0.54383995381E+01  0.13421686229E+04  0.13422178206E+04  0.10000000000E+02 0.  1.
</event>
<event>
 5    1  0.1252319E-008  0.3849150E+03  0.7957747E-01  0.3430033E+00
         13   -1    0    0    0    0  0.00000000000E+00  0.00000000000E+00  0.14999999963E+04  0.15000000000E+04  0.10566000000E+00 0.  1.
        994   -1    0    0    0    0 -0.00000000000E+00 -0.00000000000E+00  0.11368683772E-12  0.17120000000E+03  0.17120000000E+03 0.  0.
         13    1    1    2    0    0 -0.31951093580E+01  0.12846442383E+02  0.51666811163E+02  0.53335826097E+02  0.10566000000E+00 0.  1.
        994    1    1    2    0    0  0.59452533098E+01 -0.99079562562E+01  0.21116683779E+01  0.17160248476E+03  0.17120000000E+03 0.  0.
        998    1    1    2    0    0 -0.27501439518E+01 -0.29384861267E+01  0.14462215167E+04  0.14462616891E+04  0.10000000000E+02 0.  1.
</event>
<event>
 5    1  0.1252319E-008  0.3857964E+03  0.7957747E-01  0.3426302E+00
         13   -1    0    0    0    0  0.00000000000E+00  0.00000000000E+00  0.14999999963E+04  0.15000000000E+04  0.10566000000E+00 0. -1.
        994   -1    0    0    0    0 -0.00000000000E+00 -0.00000000000E+00  0.11368683772E-12  0.17120000000E+03  0.17120000000E+03 0.  0.
         13    1    1    2    0    0 -0.11881989357E+02 -0.16728153461E+01  0.57112060619E+02  0.58359049123E+02  0.10566000000E+00 0. -1.
        994    1    1    2    0    0  0.12456083372E+02 -0.17283177271E+00  0.17444648834E+01  0.17166148969E+03  0.17120000000E+03 0.  0.
        998    1    1    2    0    0 -0.57409401512E+00  0.18456471188E+01  0.14411434708E+04  0.14411794612E+04  0.10000000000E+02 0. -1.
</event>
<event>
 5    1  0.1252319E-008  0.3824827E+03  0.7957747E-01  0.3440419E+00
         13   -1    0    0    0    0  0.00000000000E+00  0.00000000000E+00  0.14999999963E+04  0.15000000000E+04  0.10566000000E+00 0. -1.
        994   -1    0    0    0    0 -0.00000000000E+00 -0.00000000000E+00  0.11368683772E-12  0.17120000000E+03  0.17120000000E+03 0.  0.
         13    1    1    2    0    0  0.28009401994E+01  0.24059701424E+02  0.96677346110E+02  0.99665615502E+02  0.10566000000E+00 0. -1.
        994    1    1    2    0    0 -0.25619761365E+01 -0.21875668512E+02  0.44952333179E+01  0.17266949851E+03  0.17120000000E+03 0.  0.
        998    1    1    2    0    0 -0.23896406293E+00 -0.21840329121E+01  0.13988274169E+04  0.13988648860E+04  0.10000000000E+02 0.  0.
</event>
<event>
 5    1  0.1252319E-008  0.3830978E+03  0.7957747E-01  0.3437780E+00
         13   -1    0    0    0    0  0.00000000000E+00  0.00000000000E+00  0.14999999963E+04  0.15000000000E+04  0.10566000000E+00 0. -1.
        994   -1    0    0    0    0 -0.00000000000E+00 -0.00000000000E+00  0.11368683772E-12  0.17120000000E+03  0.17120000000E+03 0.  0.
         13    1    1    2    0    0 -0.12747583809E+02  0.11169111464E+01  0.30207222449E+02  0.32806033524E+02  0.10566000000E+00 0. -1.
        994    1    1    2    0    0  0.14950695278E+02 -0.14336066376E+01  0.33242929047E+01  0.17188970138E+03  0.17120000000E+03 0.  0.
        998    1    1    2    0    0 -0.22031114689E+01  0.31669549116E+00  0.14664684809E+04  0.14665042651E+04  0.10000000000E+02 0. -1.
</event>
<event>
 5    1  0.1252319E-008  0.3856568E+03  0.7957747E-01  0.3426891E+00
         13   -1    0    0    0    0  0.00000000000E+00  0.00000000000E+00  0.14999999963E+04  0.15000000000E+04  0.10566000000E+00 0.  1.
        994   -1    0    0    0    0 -0.00000000000E+00 -0.00000000000E+00  0.11368683772E-12  0.17120000000E+03  0.17120000000E+03 0.  0.
         13    1    1    2    0    0  0.32768026722E+01 -0.12122226729E+02  0.61925400041E+02  0.63185854041E+02  0.10566000000E+00 0.  1.
        994    1    1    2    0    0  0.73969331911E+00  0.62674499527E+01  0.14350888809E+01  0.17132229147E+03  0.17120000000E+03 0.  0.
        998    1    1    2    0    0 -0.40164959913E+01  0.58547767759E+01  0.14366395074E+04  0.14366918545E+04  0.10000000000E+02 0.  1.
</event>
<event>
 5    1  0.1252319E-008  0.3770032E+03  0.7957747E-01  0.3464312E+00
         13   -1    0    0    0    0  0.00000000000E+00  0.00000000000E+00  0.14999999963E+04  0.15000000000E+04  0.10566000000E+00 0. -1.
        994   -1    0    0    0    0 -0.00000000000E+00 -0.00000000000E+00  0.11368683772E-12  0.17120000000E+03  0.17120000000E+03 0.  0.
         13    1    1    2    0    0  0.10902092496E+02  0.12530865333E+02  0.24448299595E+02  0.29556872702E+02  0.10566000000E+00 0. -1.
        994    1    1    2    0    0  0.55413650870E+02 -0.84396300271E+01  0.16336430819E+02  0.18088178192E+03  0.17120000000E+03 0.  0.
        998    1    1    2    0    0 -0.66315743367E+02 -0.40912353058E+01  0.14592152659E+04  0.14607613454E+04  0.10000000000E+02 0. -1.
</event>
<event>
 5    1  0.1252319E-008  0.3822652E+03  0.7957747E-01  0.3441354E+00
         13   -1    0    0    0    0  0.00000000000E+00  0.00000000000E+00  0.14999999963E+04  0.15000000000E+04  0.10566000000E+00 0.  1.
        994   -1    0    0    0    0 -0.00000000000E+00 -0.00000000000E+00  0.11368683772E-12  0.17120000000E+03  0.17120000000E+03 0.  0.
         13    1    1    2    0    0  0.14656378152E+02  0.89849761671E+01  0.49569511891E+02  0.52466054649E+02  0.10566000000E+00 0.  1.
        994    1    1    2    0    0 -0.43807318822E+01 -0.34021434814E+01  0.30961357305E+01  0.17131780832E+03  0.17120000000E+03 0.  0.
        998    1    1    2    0    0 -0.10275646270E+02 -0.55828326858E+01  0.14473343487E+04  0.14474161370E+04  0.10000000000E+02 0.  1.
</event>
<event>
 5    1  0.1608808E-008  0.3861205E+03  0.7957747E-01  0.3424934E+00
         13   -1    0    0    0    0  0.00000000000E+00  0.00000000000E+00  0.14999999963E+04  0.15000000000E+04  0.10566000000E+00 0.  1.
        994   -1    0    0    0    0 -0.00000000000E+00 -0.00000000000E+00  0.11368683772E-12  0.17120000000E+03  0.17120000000E+03 0.  0.
         13    1    1    2    0    0 -0.68934326237E+01 -0.97755609299E+01  0.64566255915E+02  0.65665010255E+02  0.10566000000E+00 0.  1.
        994    1    1    2    0    0  0.68507779903E+01  0.11966897567E+02  0.16981107406E+01  0.17176281139E+03  0.17120000000E+03 0.  0.
        998    1    1    2    0    0  0.42654633450E-01 -0.21913366371E+01  0.14337356296E+04  0.14337721784E+04  0.10000000000E+02 0.  1.
</event>
<event>
 5    1  0.1252319E-008  0.3809089E+03  0.7957747E-01  0.3447211E+00
         13   -1    0    0    0    0  0.00000000000E+00  0.00000000000E+00  0.14999999963E+04  0.15000000000E+04  0.10566000000E+00 0. -1.
        994   -1    0    0    0    0 -0.00000000000E+00 -0.00000000000E+00  0.11368683772E-12  0.17120000000E+03  0.17120000000E+03 0.  0.
         13    1    1    2    0    0 -0.30759544679E+02  0.96835612691E+01  0.12660080460E+03  0.13064339186E+03  0.10566000000E+00 0. -1.
        994    1    1    2    0    0  0.28004276083E+02 -0.33645181640E+02  0.10088216516E+02  0.17699562096E+03  0.17120000000E+03 0.  0.
        998    1    1    2    0    0  0.27552685962E+01  0.23961620371E+02  0.13633109752E+04  0.13635609872E+04  0.10000000000E+02 0. -1.
</event>
<event>
 5    1  0.1252319E-008  0.4073232E+03  0.7957747E-01  0.3340184E+00
         13   -1    0    0    0    0  0.00000000000E+00  0.00000000000E+00  0.14999999963E+04  0.15000000000E+04  0.10566000000E+00 0.  1.
        994   -1    0    0    0    0 -0.00000000000E+00 -0.00000000000E+00  0.11368683772E-12  0.17120000000E+03  0.17120000000E+03 0.  0.
         13    1    1    2    0    0  0.83489658297E+02  0.12455573996E+03  0.43363216429E+03  0.45882624213E+03  0.10566000000E+00 0.  1.
        994    1    1    2    0    0 -0.16979064112E+02 -0.47543232552E+02  0.42585540789E+02  0.18349827210E+03  0.17120000000E+03 0.  0.
        998    1    1    2    0    0 -0.66510594185E+02 -0.77012507406E+02  0.10237822912E+04  0.10288754858E+04  0.10000000000E+02 0.  1.
</event>
<event>
 5    1  0.1252319E-008  0.3850870E+03  0.7957747E-01  0.3429303E+00
         13   -1    0    0    0    0  0.00000000000E+00  0.00000000000E+00  0.14999999963E+04  0.15000000000E+04  0.10566000000E+00 0. -1.
        994   -1    0    0    0    0 -0.00000000000E+00 -0.00000000000E+00  0.11368683772E-12  0.17120000000E+03  0.17120000000E+03 0.  0.
         13    1    1    2    0    0  0.11234678739E+02  0.12235662864E+02  0.90237656040E+02  0.91753883753E+02  0.10566000000E+00 0. -1.
        994    1    1    2    0    0 -0.23514802658E+01 -0.59980459623E+01  0.17234163957E+01  0.17132984614E+03  0.17120000000E+03 0.  0.
        998    1    1    2    0    0 -0.88831984728E+01 -0.62376169016E+01  0.14080389238E+04  0.14081162701E+04  0.10000000000E+02 0. -1.
</event>
<event>
 5    1  0.1252319E-008  0.3738818E+03  0.7957747E-01  0.3478239E+00
         13   -1    0    0    0    0  0.00000000000E+00  0.00000000000E+00  0.14999999963E+04  0.15000000000E+04  0.10566000000E+00 0.  1.
        994   -1    0    0    0    0 -0.00000000000E+00 -0.00000000000E+00  0.11368683772E-12  0.17120000000E+03  0.17120000000E+03 0.  0.
         13    1    1    2    0    0  0.81658319137E+01 -0.20956954932E+03  0.92864156000E+03  0.95203005989E+03  0.10566000000E+00 0.  1.
        994    1    1    2    0    0  0.48455029151E+01  0.20604019547E+03  0.16967459165E+03  0.31713553585E+03  0.17120000000E+03 0.  0.
        998    1    1    2    0    0 -0.13011334829E+02  0.35293538520E+01  0.40168384463E+03  0.40203440426E+03  0.10000000000E+02 0. -1.
</event>
<event>
 5    1  0.1252319E-008  0.3782340E+03  0.7957747E-01  0.3458884E+00
         13   -1    0    0    0    0  0.00000000000E+00  0.00000000000E+00  0.14999999963E+04  0.15000000000E+04  0.10566000000E+00 0.  1.
        994   -1    0    0    0    0 -0.00000000000E+00 -0.00000000000E+00  0.11368683772E-12  0.17120000000E+03  0.17120000000E+03 0.  0.
         13    1    1    2    0    0 -0.24015912606E+02 -0.17035576697E+02  0.86157835717E+02  0.91050308902E+02  0.10566000000E+00 0.  1.
        994    1    1    2    0    0  0.66467348555E+01  0.14180976012E+02  0.58524497789E+01  0.17201444804E+03  0.17120000000E+03 0.  0.
        998    1    1    2    0    0  0.17369177751E+02  0.28546006848E+01  0.14079897108E+04  0.14081352431E+04  0.10000000000E+02 0.  1.
</event>
<event>
 5    1  0.1252319E-008  0.3804066E+03  0.7957747E-01  0.3449390E+00
         13   -1    0    0    0    0  0.00000000000E+00  0.00000000000E+00  0.14999999963E+04  0.15000000000E+04  0.10566000000E+00 0.  1.
        994   -1    0    0    0    0 -0.00000000000E+00 -0.00000000000E+00  0.11368683772E-12  0.17120000000E+03  0.17120000000E+03 0.  0.
         13    1    1    2    0    0 -0.15939422550E+02 -0.30971614459E+02  0.17595921369E+03  0.17937380561E+03  0.10566000000E+00 0.  1.
        994    1    1    2    0    0  0.20017391784E+02 -0.83101329719E+01  0.54978505662E+01  0.17265404902E+03  0.17120000000E+03 0.  0.
        998    1    1    2    0    0 -0.40779692338E+01  0.39281747431E+02  0.13185429320E+04  0.13191721454E+04  0.10000000000E+02 0.  1.
</event>
<event>
 5    1  0.1252319E-008  0.3825814E+03  0.7957747E-01  0.3439995E+00
         13   -1    0    0    0    0  0.00000000000E+00  0.00000000000E+00  0.14999999963E+04  0.15000000000E+04  0.10566000000E+00 0. -1.
        994   -1    0    0    0    0 -0.00000000000E+00 -0.00000000000E+00  0.11368683772E-12  0.17120000000E+03  0.17120000000E+03 0.  0.
         13    1    1    2    0    0 -0.16933443790E+01 -0.31201812375E+02  0.14564239124E+03  0.14895683200E+03  0.10566000000E+00 0. -1.
        994    1    1    2    0    0  0.35915561788E+01  0.40955708110E+02  0.84586805698E+01  0.17627041323E+03  0.17120000000E+03 0.  0.
        998    1    1    2    0    0 -0.18982117998E+01 -0.97538957355E+01  0.13458989245E+04  0.13459727548E+04  0.10000000000E+02 0. -1.
</event>
<event>
 5    1  0.1252319E-008  0.3843269E+03  0.7957747E-01  0.3432532E+00
         13   -1    0    0    0    0  0.00000000000E+00  0.00000000000E+00  0.14999999963E+04  0.15000000000E+04  0.10566000000E+00 0. -1.
        994   -1    0    0    0    0 -0.00000000000E+00 -0.00000000000E+00  0.11368683772E-12  0.17120000000E+03  0.17120000000E+03 0.  0.
         13    1    1    2    0    0 -0.12060144206E+02 -0.62125505094E+01  0.47027639945E+02  0.48945407802E+02  0.10566000000E+00 0. -1.
        994    1    1    2    0    0  0.72183291681E+01  0.60938512648E+00  0.21376479519E+01  0.17136652288E+03  0.17120000000E+03 0.  0.
        998    1    1    2    0    0  0.48418150376E+01  0.56031653829E+01  0.14508347084E+04  0.14508880693E+04  0.10000000000E+02 0. -1.
</event>
<event>
 5    1  0.1252319E-008  0.4099203E+03  0.7957747E-01  0.3330402E+00
         13   -1    0    0    0    0  0.00000000000E+00  0.00000000000E+00  0.14999999963E+04  0.15000000000E+04  0.10566000000E+00 0. -1.
        994   -1    0    0    0    0 -0.00000000000E+00 -0.00000000000E+00  0.11368683772E-12  0.17120000000E+03  0.17120000000E+03 0.  0.
         13    1    1    2    0    0  0.85350405663E+02  0.10928143972E+03  0.23767169469E+03  0.27516353398E+03  0.10566000000E+00 0. -1.
        994    1    1    2    0    0 -0.67099422221E+02 -0.10804036833E+03  0.10356726381E+03  0.23708789886E+03  0.17120000000E+03 0.  0.
        998    1    1    2    0    0 -0.18250983441E+02 -0.12410713925E+01  0.11587610378E+04  0.11589485672E+04  0.10000000000E+02 0. -1.
</event>
<event>
 5    1  0.1252319E-008  0.3937436E+03  0.7957747E-01  0.3393415E+00
         13   -1    0    0    0    0  0.00000000000E+00  0.00000000000E+00  0.14999999963E+04  0.15000000000E+04  0.10566000000E+00 0. -1.
        994   -1    0    0    0    0 -0.00000000000E+00 -0.00000000000E+00  0.11368683772E-12  0.17120000000E+03  0.17120000000E+03 0.  0.
         13    1    1    2    0    0  0.11796611925E+03  0.37542936008E+02  0.22035698860E+03  0.25275025405E+03  0.10566000000E+00 0. -1.
        994    1    1    2    0    0 -0.14795969032E+03 -0.55362155196E+02  0.12716507507E+03  0.26540051716E+03  0.17120000000E+03 0.  0.
        998    1    1    2    0    0  0.29993571078E+02  0.17819219187E+02  0.11524779326E+04  0.11530492288E+04  0.10000000000E+02 0. -1.
</event>
<event>
 5    1  0.1252319E-008  0.3836421E+03  0.7957747E-01  0.3435452E+00
         13   -1    0    0    0    0  0.00000000000E+00  0.00000000000E+00  0.14999999963E+04  0.15000000000E+04  0.10566000000E+00 0. -1.
        994   -1    0    0    0    0 -0.00000000000E+00 -0.00000000000E+00  0.11368683772E-12  0.17120000000E+03  0.17120000000E+03 0.  0.
         13    1    1    2    0    0 -0.77146799780E+01  0.17021145548E+02  0.78550312550E+02  0.80742791930E+02  0.10566000000E+00 0. -1.
        994    1    1    2    0    0  0.39062768059E+01 -0.33027014665E+01  0.23922371200E+01  0.17129311029E+03  0.17120000000E+03 0.  0.
        998    1    1    2    0    0  0.38084031720E+01 -0.13718444082E+02  0.14190574466E+04  0.14191640978E+04  0.10000000000E+02 0. -1.
</event>
<event>
 5    1  0.1252319E-008  0.3794895E+03  0.7957747E-01  0.3453385E+00
         13   -1    0    0    0    0  0.00000000000E+00  0.00000000000E+00  0.14999999963E+04  0.15000000000E+04  0.10566000000E+00 0. -1.
        994   -1    0    0    0    0 -0.00000000000E+00 -0.00000000000E+00  0.11368683772E-12  0.17120000000E+03  0.17120000000E+03 0.  0.
         13    1    1    2    0    0 -0.22346753178E+02 -0.23249506629E+02  0.12766601545E+03  0.13167588845E+03  0.10566000000E+00 0. -1.
        994    1    1    2    0    0  0.42321825136E+01  0.13542151088E+01  0.44572129362E+01  0.17131565023E+03  0.17120000000E+03 0.  0.
        998    1    1    2    0    0  0.18114570664E+02  0.21895291520E+02  0.13678767679E+04  0.13682084613E+04  0.10000000000E+02 0. -1.
</event>
<event>
 5    1  0.1252319E-008  0.3835165E+03  0.7957747E-01  0.3435988E+00
         13   -1    0    0    0    0  0.00000000000E+00  0.00000000000E+00  0.14999999963E+04  0.15000000000E+04  0.10566000000E+00 0. -1.
        994   -1    0    0    0    0 -0.00000000000E+00 -0.00000000000E+00  0.11368683772E-12  0.17120000000E+03  0.17120000000E+03 0.  0.
         13    1    1    2    0    0  0.15685961107E+02 -0.50797762264E+01  0.56341669859E+02  0.58704756442E+02  0.10566000000E+00 0. -1.
        994    1    1    2    0    0 -0.11937013215E+02  0.32242999745E+01  0.28738534951E+01  0.17166999571E+03  0.17120000000E+03 0.  0.
        998    1    1    2    0    0 -0.37489478919E+01  0.18554762519E+01  0.14407844729E+04  0.14408252478E+04  0.10000000000E+02 0. -1.
</event>
<event>
 5    1  0.1252319E-008  0.3769605E+03  0.7957747E-01  0.3464501E+00
         13   -1    0    0    0    0  0.00000000000E+00  0.00000000000E+00  0.14999999963E+04  0.15000000000E+04  0.10566000000E+00 0.  1.
        994   -1    0    0    0    0 -0.00000000000E+00 -0.00000000000E+00  0.11368683772E-12  0.17120000000E+03  0.17120000000E+03 0.  0.
         13    1    1    2    0    0 -0.13901225813E+02  0.90988064056E+00  0.14525045018E+02  0.20126103913E+02  0.10566000000E+00 0.  1.
        994    1    1    2    0    0  0.12379970901E+02 -0.24057350734E+01  0.62126684448E+01  0.17177627453E+03  0.17120000000E+03 0.  0.
        998    1    1    2    0    0  0.15212549118E+01  0.14958544329E+01  0.14792622828E+04  0.14792976216E+04  0.10000000000E+02 0.  1.
</event>
<event>
 5    1  0.1252319E-008  0.3789847E+03  0.7957747E-01  0.3455591E+00
         13   -1    0    0    0    0  0.00000000000E+00  0.00000000000E+00  0.14999999963E+04  0.15000000000E+04  0.10566000000E+00 0. -1.
        994   -1    0    0    0    0 -0.00000000000E+00 -0.00000000000E+00  0.11368683772E-12  0.17120000000E+03  0.17120000000E+03 0.  0.
         13    1    1    2    0    0  0.28159667972E+01 -0.63331302460E+02  0.33953010569E+03  0.34539757870E+03  0.10566000000E+00 0. -1.
        994    1    1    2    0    0 -0.89092605949E+01  0.61661488670E+02  0.17777883497E+02  0.18304919353E+03  0.17120000000E+03 0.  0.
        998    1    1    2    0    0  0.60932937976E+01  0.16698137900E+01  0.11426920071E+04  0.11427532278E+04  0.10000000000E+02 0. -1.
</event>
<event>
 5    1  0.1252319E-008  0.3837820E+03  0.7957747E-01  0.3434854E+00
         13   -1    0    0    0    0  0.00000000000E+00  0.00000000000E+00  0.14999999963E+04  0.15000000000E+04  0.10566000000E+00 0. -1.
        994   -1    0    0    0    0 -0.00000000000E+00 -0.00000000000E+00  0.11368683772E-12  0.17120000000E+03  0.17120000000E+03 0.  0.
         13    1    1    2    0    0  0.27645518670E+01 -0.12084022390E+02  0.32611653530E+02  0.34888357000E+02  0.10566000000E+00 0. -1.
        994    1    1    2    0    0  0.11628951123E+01  0.17569091459E+02  0.32603360823E+01  0.17213394520E+03  0.17120000000E+03 0.  0.
        998    1    1    2    0    0 -0.39274469794E+01 -0.54850690689E+01  0.14641280067E+04  0.14641776978E+04  0.10000000000E+02 0. -1.
</event>
<event>
 5    1  0.1252319E-008  0.3695904E+03  0.7957747E-01  0.3497775E+00
         13   -1    0    0    0    0  0.00000000000E+00  0.00000000000E+00  0.14999999963E+04  0.15000000000E+04  0.10566000000E+00 0.  1.
        994   -1    0    0    0    0 -0.00000000000E+00 -0.00000000000E+00  0.11368683772E-12  0.17120000000E+03  0.17120000000E+03 0.  0.
         13    1    1    2    0    0 -0.12633755635E+02  0.67113693472E+02  0.17066521679E+03  0.18382188939E+03  0.10566000000E+00 0.  1.
        994    1    1    2    0    0  0.50783799706E+02 -0.83159712181E+02  0.44645119998E+02  0.20198306558E+03  0.17120000000E+03 0.  0.
        998    1    1    2    0    0 -0.38150044071E+02  0.16046018708E+02  0.12846896595E+04  0.12853950450E+04  0.10000000000E+02 0.  1.
</event>
<event>
 5    1  0.1252319E-008  0.3708533E+03  0.7957747E-01  0.3491978E+00
         13   -1    0    0    0    0  0.00000000000E+00  0.00000000000E+00  0.14999999963E+04  0.15000000000E+04  0.10566000000E+00 0.  1.
        994   -1    0    0    0    0 -0.00000000000E+00 -0.00000000000E+00  0.11368683772E-12  0.17120000000E+03  0.17120000000E+03 0.  0.
         13    1    1    2    0    0  0.69438277015E+02  0.88203089139E+02  0.66625694149E+03  0.67564767630E+03  0.10566000000E+00 0.  1.
        994    1    1    2    0    0 -0.77334473358E+02 -0.10697539255E+02  0.33080943981E+02  0.19104671411E+03  0.17120000000E+03 0.  0.
        998    1    1    2    0    0  0.78961963432E+01 -0.77505549884E+02  0.80066211081E+03  0.80450560959E+03  0.10000000000E+02 0.  1.
</event>
<event>
 5    1  0.1252319E-008  0.3758809E+03  0.7957747E-01  0.3469292E+00
         13   -1    0    0    0    0  0.00000000000E+00  0.00000000000E+00  0.14999999963E+04  0.15000000000E+04  0.10566000000E+00 0.  1.
        994   -1    0    0    0    0 -0.00000000000E+00 -0.00000000000E+00  0.11368683772E-12  0.17120000000E+03  0.17120000000E+03 0.  0.
         13    1    1    2    0    0 -0.88454364107E+02 -0.39222883766E+02  0.25124851690E+03  0.26923676857E+03  0.10566000000E+00 0.  1.
        994    1    1    2    0    0  0.12281912890E+03 -0.17720670961E+01  0.70107302896E+02  0.22206339763E+03  0.17120000000E+03 0.  0.
        998    1    1    2    0    0 -0.34364764797E+02  0.40994950862E+02  0.11786441765E+04  0.11798998338E+04  0.10000000000E+02 0. -1.
</event>
<event>
 5    1  0.1252319E-008  0.3792183E+03  0.7957747E-01  0.3454569E+00
         13   -1    0    0    0    0  0.00000000000E+00  0.00000000000E+00  0.14999999963E+04  0.15000000000E+04  0.10566000000E+00 0. -1.
        994   -1    0    0    0    0 -0.00000000000E+00 -0.00000000000E+00  0.11368683772E-12  0.17120000000E+03  0.17120000000E+03 0.  0.
         13    1    1    2    0    0 -0.70486354237E+02  0.74741097508E+02  0.32279528685E+03  0.33874971021E+03  0.10566000000E+00 0. -1.
        994    1    1    2    0    0  0.72614567750E+02 -0.20329929324E+02  0.36742790706E+02  0.19064536224E+03  0.17120000000E+03 0.  0.
        998    1    1    2    0    0 -0.21282135132E+01 -0.54411168184E+02  0.11404619187E+04  0.11418049275E+04  0.10000000000E+02 0. -1.
</event>
<event>
 5    1  0.1252319E-008  0.3860045E+03  0.7957747E-01  0.3425423E+00
         13   -1    0    0    0    0  0.00000000000E+00  0.00000000000E+00  0.14999999963E+04  0.15000000000E+04  0.10566000000E+00 0. -1.
        994   -1    0    0    0    0 -0.00000000000E+00 -0.00000000000E+00  0.11368683772E-12  0.17120000000E+03  0.17120000000E+03 0.  0.
         13    1    1    2    0    0  0.52707198070E+01  0.11836063750E+02  0.78191012014E+02  0.79257292511E+02  0.10566000000E+00 0. -1.
        994    1    1    2    0    0 -0.98750809585E+01  0.36020539806E+00  0.14523994922E+01  0.17149109725E+03  0.17120000000E+03 0.  0.
        998    1    1    2    0    0  0.46043611515E+01 -0.12196269148E+02  0.14203565848E+04  0.14204516102E+04  0.10000000000E+02 0. -1.
</event>
<event>
 5    1  0.1252319E-008  0.3799059E+03  0.7957747E-01  0.3451568E+00
         13   -1    0    0    0    0  0.00000000000E+00  0.00000000000E+00  0.14999999963E+04  0.15000000000E+04  0.10566000000E+00 0. -1.
        994   -1    0    0    0    0 -0.00000000000E+00 -0.00000000000E+00  0.11368683772E-12  0.17120000000E+03  0.17120000000E+03 0.  0.
         13    1    1    2    0    0 -0.19196342209E+02 -0.26557173691E+02  0.13203944754E+03  0.13604488193E+03  0.10566000000E+00 0. -1.
        994    1    1    2    0    0  0.17149862224E+02  0.37114100434E+01  0.52108773150E+01  0.17217574040E+03  0.17120000000E+03 0.  0.
        998    1    1    2    0    0  0.20464799851E+01  0.22845763647E+02  0.13627496714E+04  0.13629793777E+04  0.10000000000E+02 0. -1.
</event>
<event>
 5    1  0.1252319E-008  0.3842919E+03  0.7957747E-01  0.3432681E+00
         13   -1    0    0    0    0  0.00000000000E+00  0.00000000000E+00  0.14999999963E+04  0.15000000000E+04  0.10566000000E+00 0.  1.
        994   -1    0    0    0    0 -0.00000000000E+00 -0.00000000000E+00  0.11368683772E-12  0.17120000000E+03  0.17120000000E+03 0.  0.
         13    1    1    2    0    0  0.12364228358E+02  0.84030797457E+01  0.54338532978E+02  0.56357548052E+02  0.10566000000E+00 0.  1.
        994    1    1    2    0    0 -0.11736106188E+02 -0.10662321200E+02  0.28112752218E+01  0.17195570520E+03  0.17120000000E+03 0.  0.
        998    1    1    2    0    0 -0.62812217046E+00  0.22592414540E+01  0.14428501881E+04  0.14428867468E+04  0.10000000000E+02 0.  1.
</event>
<event>
 5    1  0.1252319E-008  0.3811474E+03  0.7957747E-01  0.3446177E+00
         13   -1    0    0    0    0  0.00000000000E+00  0.00000000000E+00  0.14999999963E+04  0.15000000000E+04  0.10566000000E+00 0.  1.
        994   -1    0    0    0    0 -0.00000000000E+00 -0.00000000000E+00  0.11368683772E-12  0.17120000000E+03  0.17120000000E+03 0.  0.
         13    1    1    2    0    0  0.89966780526E+01  0.17709600379E+02  0.51476724710E+02  0.55176394522E+02  0.10566000000E+00 0.  1.
        994    1    1    2    0    0 -0.10462811728E+02 -0.23704921633E+02  0.57941869937E+01  0.17324666329E+03  0.17120000000E+03 0.  0.
        998    1    1    2    0    0  0.14661336754E+01  0.59953212543E+01  0.14427290846E+04  0.14427769422E+04  0.10000000000E+02 0.  1.
</event>
<event>
 5    1  0.1252319E-008  0.3745529E+03  0.7957747E-01  0.3475225E+00
         13   -1    0    0    0    0  0.00000000000E+00  0.00000000000E+00  0.14999999963E+04  0.15000000000E+04  0.10566000000E+00 0. -1.
        994   -1    0    0    0    0 -0.00000000000E+00 -0.00000000000E+00  0.11368683772E-12  0.17120000000E+03  0.17120000000E+03 0.  0.
         13    1    1    2    0    0 -0.15728404712E+02 -0.64537038210E+02  0.34684044357E+03  0.35314404494E+03  0.10566000000E+00 0. -1.
        994    1    1    2    0    0 -0.70092093312E+00  0.28107757836E+02  0.96044417862E+01  0.17375909370E+03  0.17120000000E+03 0.  0.
        998    1    1    2    0    0  0.16429325645E+02  0.36429280374E+02  0.11435551109E+04  0.11442968614E+04  0.10000000000E+02 0. -1.
</event>
<event>
 5    1  0.1802014E-008  0.3860490E+03  0.7957747E-01  0.3425235E+00
         13   -1    0    0    0    0  0.00000000000E+00  0.00000000000E+00  0.14999999963E+04  0.15000000000E+04  0.10566000000E+00 0.  1.
        994   -1    0    0    0    0 -0.00000000000E+00 -0.00000000000E+00  0.11368683772E-12  0.17120000000E+03  0.17120000000E+03 0.  0.
         13    1    1    2    0    0  0.90162155304E-01  0.10556922537E+02  0.50614822537E+02  0.51704237420E+02  0.10566000000E+00 0.  1.
        994    1    1    2    0    0  0.24183463549E+01 -0.77613026140E+01  0.13268469958E+01  0.17139803599E+03  0.17120000000E+03 0.  0.
        998    1    1    2    0    0 -0.25085085102E+01 -0.27956199228E+01  0.14480583267E+04  0.14480977266E+04  0.10000000000E+02 0.  1.
</event>
<event>
 5    1  0.1252319E-008  0.3859331E+03  0.7957747E-01  0.3425724E+00
         13   -1    0    0    0    0  0.00000000000E+00  0.00000000000E+00  0.14999999963E+04  0.15000000000E+04  0.10566000000E+00 0.  1.
        994   -1    0    0    0    0 -0.00000000000E+00 -0.00000000000E+00  0.11368683772E-12  0.17120000000E+03  0.17120000000E+03 0.  0.
         13    1    1    2    0    0 -0.97010402399E+01 -0.36334331635E+01  0.46754475800E+02  0.47888455704E+02  0.10566000000E+00 0.  1.
        994    1    1    2    0    0  0.62417423646E+01  0.15922112260E+00  0.12954063978E+01  0.17131871695E+03  0.17120000000E+03 0.  0.
        998    1    1    2    0    0  0.34592978753E+01  0.34742120409E+01  0.14519501141E+04  0.14519928273E+04  0.10000000000E+02 0.  1.
</event>
<event>
 5    1  0.1252319E-008  0.3762044E+03  0.7957747E-01  0.3467854E+00
         13   -1    0    0    0    0  0.00000000000E+00  0.00000000000E+00  0.14999999963E+04  0.15000000000E+04  0.10566000000E+00 0.  1.
        994   -1    0    0    0    0 -0.00000000000E+00 -0.00000000000E+00  0.11368683772E-12  0.17120000000E+03  0.17120000000E+03 0.  0.
         13    1    1    2    0    0 -0.11991343915E+02 -0.14582148162E+02  0.26270128523E+02  0.32350613450E+02  0.10566000000E+00 0.  1.
        994    1    1    2    0    0  0.14835427794E+02  0.15847350512E+02  0.76585083040E+01  0.17274061823E+03  0.17120000000E+03 0.  0.
        998    1    1    2    0    0 -0.28440838788E+01 -0.12652023493E+01  0.14660713595E+04  0.14661087683E+04  0.10000000000E+02 0.  1.
</event>
<event>
 5    1  0.1252319E-008  0.3834665E+03  0.7957747E-01  0.3436202E+00
         13   -1    0    0    0    0  0.00000000000E+00  0.00000000000E+00  0.14999999963E+04  0.15000000000E+04  0.10566000000E+00 0. -1.
        994   -1    0    0    0    0 -0.00000000000E+00 -0.00000000000E+00  0.11368683772E-12  0.17120000000E+03  0.17120000000E+03 0.  0.
         13    1    1    2    0    0  0.83706712104E+01  0.82251355833E+01  0.27678376634E+02  0.30063677237E+02  0.10566000000E+00 0. -1.
        994    1    1    2    0    0 -0.97225063963E+01 -0.61330956574E+01  0.28302682510E+01  0.17160883547E+03  0.17120000000E+03 0.  0.
        998    1    1    2    0    0  0.13518351859E+01 -0.20920399258E+01  0.14694913514E+04  0.14695274873E+04  0.10000000000E+02 0. -1.
</event>
<event>
 5    1  0.1252319E-008  0.3849568E+03  0.7957747E-01  0.3429855E+00
         13   -1    0    0    0    0  0.00000000000E+00  0.00000000000E+00  0.14999999963E+04  0.15000000000E+04  0.10566000000E+00 0.  1.
        994   -1    0    0    0    0 -0.00000000000E+00 -0.00000000000E+00  0.11368683772E-12  0.17120000000E+03  0.17120000000E+03 0.  0.
         13    1    1    2    0    0 -0.13866292651E+02 -0.37983840573E+01  0.62731592293E+02  0.64358104610E+02  0.10566000000E+00 0.  1.
        994    1    1    2    0    0  0.86943748509E+01  0.25211327259E+01  0.19211606451E+01  0.17144993182E+03  0.17120000000E+03 0.  0.
        998    1    1    2    0    0  0.51719177999E+01  0.12772513314E+01  0.14353472433E+04  0.14353919636E+04  0.10000000000E+02 0.  1.
</event>
<event>
 5    1  0.1252319E-008  0.3854918E+03  0.7957747E-01  0.3427589E+00
         13   -1    0    0    0    0  0.00000000000E+00  0.00000000000E+00  0.14999999963E+04  0.15000000000E+04  0.10566000000E+00 0.  1.
        994   -1    0    0    0    0 -0.00000000000E+00 -0.00000000000E+00  0.11368683772E-12  0.17120000000E+03  0.17120000000E+03 0.  0.
         13    1    1    2    0    0  0.50449498188E+00  0.10545022666E+02  0.39501690047E+02  0.40888222006E+02  0.10566000000E+00 0.  1.
        994    1    1    2    0    0  0.52123403870E+01 -0.11238342377E+02  0.18902119673E+01  0.17165803719E+03  0.17120000000E+03 0.  0.
        998    1    1    2    0    0 -0.57168353689E+01  0.69331971055E+00  0.14586080943E+04  0.14586537408E+04  0.10000000000E+02 0.  1.
</event>
<event>
 5    1  0.1252319E-008  0.3711587E+03  0.7957747E-01  0.3490582E+00
         13   -1    0    0    0    0  0.00000000000E+00  0.00000000000E+00  0.14999999963E+04  0.15000000000E+04  0.10566000000E+00 0. -1.
        994   -1    0    0    0    0 -0.00000000000E+00 -0.00000000000E+00  0.11368683772E-12  0.17120000000E+03  0.17120000000E+03 0.  0.
         13    1    1    2    0    0 -0.55124182463E+01  0.34365305473E+02  0.71639961072E+02  0.79647072523E+02  0.10566000000E+00 0. -1.
        994    1    1    2    0    0  0.46521436869E+01 -0.21801679554E+00  0.87393756698E+01  0.17148617046E+03  0.17120000000E+03 0.  0.
        998    1    1    2    0    0  0.86027455938E+00 -0.34147288677E+02  0.14196206595E+04  0.14200667570E+04  0.10000000000E+02 0. -1.
</event>
<event>
 5    1  0.1252319E-008  0.3705822E+03  0.7957747E-01  0.3493220E+00
         13   -1    0    0    0    0  0.00000000000E+00  0.00000000000E+00  0.14999999963E+04  0.15000000000E+04  0.10566000000E+00 0.  1.
        994   -1    0    0    0    0 -0.00000000000E+00 -0.00000000000E+00  0.11368683772E-12  0.17120000000E+03  0.17120000000E+03 0.  0.
         13    1    1    2    0    0 -0.10703366520E+02 -0.13886700901E+02  0.13271644591E+02  0.21989775601E+02  0.10566000000E+00 0.  1.
        994    1    1    2    0    0 -0.86069103489E+01  0.19267226350E+02  0.10503200180E+02  0.17281510967E+03  0.17120000000E+03 0.  0.
        998    1    1    2    0    0  0.19310276869E+02 -0.53805254487E+01  0.14762251515E+04  0.14763951147E+04  0.10000000000E+02 0.  1.
</event>
<event>
 5    1  0.1252319E-008  0.3821239E+03  0.7957747E-01  0.3441962E+00
         13   -1    0    0    0    0  0.00000000000E+00  0.00000000000E+00  0.14999999963E+04  0.15000000000E+04  0.10566000000E+00 0. -1.
        994   -1    0    0    0    0 -0.00000000000E+00 -0.00000000000E+00  0.11368683772E-12  0.17120000000E+03  0.17120000000E+03 0.  0.
         13    1    1    2    0    0 -0.20012581411E+02  0.73950149818E+01  0.69990817810E+02  0.73170454440E+02  0.10566000000E+00 0. -1.
        994    1    1    2    0    0  0.22630440739E+02 -0.47768875537E+01  0.48426925083E+01  0.17282316735E+03  0.17120000000E+03 0.  0.
        998    1    1    2    0    0 -0.26178593283E+01 -0.26181274281E+01  0.14251664860E+04  0.14252063782E+04  0.10000000000E+02 0. -1.
</event>
<event>
 5    1  0.1252319E-008  0.3855192E+03  0.7957747E-01  0.3427473E+00
         13   -1    0    0    0    0  0.00000000000E+00  0.00000000000E+00  0.14999999963E+04  0.15000000000E+04  0.10566000000E+00 0.  1.
        994   -1    0    0    0    0 -0.00000000000E+00 -0.00000000000E+00  0.11368683772E-12  0.17120000000E+03  0.17120000000E+03 0.  0.
         13    1    1    2    0    0  0.11753856617E+01  0.10393073527E+02  0.41922489013E+02  0.43207681700E+02  0.10566000000E+00 0.  1.
        994    1    1    2    0    0  0.28979383853E+02 -0.27164501052E+01  0.41589289994E+01  0.17370642038E+03  0.17120000000E+03 0.  0.
        998    1    1    2    0    0 -0.30154769515E+02 -0.76766234214E+01  0.14539185783E+04  0.14542858979E+04  0.10000000000E+02 0.  1.
</event>
<event>
 5    1  0.1252319E-008  0.3847534E+03  0.7957747E-01  0.3430719E+00
         13   -1    0    0    0    0  0.00000000000E+00  0.00000000000E+00  0.14999999963E+04  0.15000000000E+04  0.10566000000E+00 0.  1.
        994   -1    0    0    0    0 -0.00000000000E+00 -0.00000000000E+00  0.11368683772E-12  0.17120000000E+03  0.17120000000E+03 0.  0.
         13    1    1    2    0    0 -0.17580731421E+02 -0.22042398901E+01  0.92435139837E+02  0.94118048384E+02  0.10566000000E+00 0.  1.
        994    1    1    2    0    0  0.64043839916E+01  0.48246674735E+01  0.19642765066E+01  0.17139892629E+03  0.17120000000E+03 0.  0.
        998    1    1    2    0    0  0.11176347430E+02 -0.26204275835E+01  0.14056005799E+04  0.14056830253E+04  0.10000000000E+02 0.  1.
</event>
<event>
 5    1  0.1252319E-008  0.3786315E+03  0.7957747E-01  0.3457139E+00
         13   -1    0    0    0    0  0.00000000000E+00  0.00000000000E+00  0.14999999963E+04  0.15000000000E+04  0.10566000000E+00 0.  1.
        994   -1    0    0    0    0 -0.00000000000E+00 -0.00000000000E+00  0.11368683772E-12  0.17120000000E+03  0.17120000000E+03 0.  0.
         13    1    1    2    0    0 -0.61088077126E+02  0.34220977875E+02  0.39819719119E+03  0.40430661969E+03  0.10566000000E+00 0.  1.
        994    1    1    2    0    0  0.42299860178E+02 -0.59640642407E+02  0.22993904115E+02  0.18757516900E+03  0.17120000000E+03 0.  0.
        998    1    1    2    0    0  0.18788216948E+02  0.25419664532E+02  0.10788089010E+04  0.10793182113E+04  0.10000000000E+02 0.  1.
</event>
<event>
 5    1  0.1252319E-008  0.3823225E+03  0.7957747E-01  0.3441108E+00
         13   -1    0    0    0    0  0.00000000000E+00  0.00000000000E+00  0.14999999963E+04  0.15000000000E+04  0.10566000000E+00 0.  1.
        994   -1    0    0    0    0 -0.00000000000E+00 -0.00000000000E+00  0.11368683772E-12  0.17120000000E+03  0.17120000000E+03 0.  0.
         13    1    1    2    0    0 -0.28047013121E+01  0.12671616173E+02  0.27255935929E+02  0.30188299278E+02  0.10566000000E+00 0.  1.
        994    1    1    2    0    0  0.13307744108E+01 -0.94533484854E+01  0.32677470739E+01  0.17149709889E+03  0.17120000000E+03 0.  0.
        998    1    1    2    0    0  0.14739269014E+01 -0.32182676879E+01  0.14694763133E+04  0.14695146018E+04  0.10000000000E+02 0.  1.
</event>
<event>
 5    1  0.1252319E-008  0.3856207E+03  0.7957747E-01  0.3427044E+00
         13   -1    0    0    0    0  0.00000000000E+00  0.00000000000E+00  0.14999999963E+04  0.15000000000E+04  0.10566000000E+00 0. -1.
        994   -1    0    0    0    0 -0.00000000000E+00 -0.00000000000E+00  0.11368683772E-12  0.17120000000E+03  0.17120000000E+03 0.  0.
         13    1    1    2    0    0 -0.61272493775E+01  0.11462524205E+02  0.66020767978E+02  0.67288079289E+02  0.10566000000E+00 0. -1.
        994    1    1    2    0    0  0.19130768463E+02  0.41141081420E+01  0.25800493878E+01  0.17233400373E+03  0.17120000000E+03 0.  0.
        998    1    1    2    0    0 -0.13003519086E+02 -0.15576632347E+02  0.14313991789E+04  0.14315779170E+04  0.10000000000E+02 0. -1.
</event>
<event>
 5    1  0.1252319E-008  0.3750623E+03  0.7957747E-01  0.3472944E+00
         13   -1    0    0    0    0  0.00000000000E+00  0.00000000000E+00  0.14999999963E+04  0.15000000000E+04  0.10566000000E+00 0. -1.
        994   -1    0    0    0    0 -0.00000000000E+00 -0.00000000000E+00  0.11368683772E-12  0.17120000000E+03  0.17120000000E+03 0.  0.
         13    1    1    2    0    0 -0.10145776416E+02  0.14033484262E+02  0.19415372931E+02  0.26016212824E+02  0.10566000000E+00 0. -1.
        994    1    1    2    0    0  0.11320149387E+02 -0.14465279947E+02  0.77941845550E+01  0.17235886812E+03  0.17120000000E+03 0.  0.
        998    1    1    2    0    0 -0.11743729709E+01  0.43179568530E+00  0.14727904388E+04  0.14728249191E+04  0.10000000000E+02 0. -1.
</event>
<event>
 5    1  0.1252319E-008  0.3751147E+03  0.7957747E-01  0.3472710E+00
         13   -1    0    0    0    0  0.00000000000E+00  0.00000000000E+00  0.14999999963E+04  0.15000000000E+04  0.10566000000E+00 0.  1.
        994   -1    0    0    0    0 -0.00000000000E+00 -0.00000000000E+00  0.11368683772E-12  0.17120000000E+03  0.17120000000E+03 0.  0.
         13    1    1    2    0    0 -0.20393590372E+02 -0.52493829353E+02  0.10803831852E+03  0.12183509380E+03  0.10566000000E+00 0.  1.
        994    1    1    2    0    0  0.17115121988E+02  0.41975071130E+02  0.21020229010E+02  0.17834271509E+03  0.17120000000E+03 0.  0.
        998    1    1    2    0    0  0.32784683841E+01  0.10518758223E+02  0.13709414487E+04  0.13710221911E+04  0.10000000000E+02 0.  1.
</event>
<event>
 5    1  0.1252319E-008  0.3843540E+03  0.7957747E-01  0.3432416E+00
         13   -1    0    0    0    0  0.00000000000E+00  0.00000000000E+00  0.14999999963E+04  0.15000000000E+04  0.10566000000E+00 0. -1.
        994   -1    0    0    0    0 -0.00000000000E+00 -0.00000000000E+00  0.11368683772E-12  0.17120000000E+03  0.17120000000E+03 0.  0.
         13    1    1    2    0    0 -0.33060035434E+01 -0.12163166040E+02  0.40592244972E+02  0.42504279590E+02  0.10566000000E+00 0. -1.
        994    1    1    2    0    0  0.15790815439E+01  0.68851511069E+01  0.21156528792E+01  0.17135873130E+03  0.17120000000E+03 0.  0.
        998    1    1    2    0    0  0.17269219995E+01  0.52780149331E+01  0.14572920984E+04  0.14573369891E+04  0.10000000000E+02 0. -1.
</event>
<event>
 5    1  0.1252319E-008  0.3837973E+03  0.7957747E-01  0.3434789E+00
         13   -1    0    0    0    0  0.00000000000E+00  0.00000000000E+00  0.14999999963E+04  0.15000000000E+04  0.10566000000E+00 0.  1.
        994   -1    0    0    0    0 -0.00000000000E+00 -0.00000000000E+00  0.11368683772E-12  0.17120000000E+03  0.17120000000E+03 0.  0.
         13    1    1    2    0    0 -0.13069915341E+02 -0.50214392308E+01  0.42693571013E+02  0.44930943778E+02  0.10566000000E+00 0.  1.
        994    1    1    2    0    0  0.13890702756E+02  0.41675298122E+00  0.28662886015E+01  0.17178702197E+03  0.17120000000E+03 0.  0.
        998    1    1    2    0    0 -0.82078741467E+00  0.46046862496E+01  0.14544401367E+04  0.14544820343E+04  0.10000000000E+02 0.  1.
</event>
<event>
 5    1  0.1252319E-008  0.3816332E+03  0.7957747E-01  0.3444078E+00
         13   -1    0    0    0    0  0.00000000000E+00  0.00000000000E+00  0.14999999963E+04  0.15000000000E+04  0.10566000000E+00 0. -1.
        994   -1    0    0    0    0 -0.00000000000E+00 -0.00000000000E+00  0.11368683772E-12  0.17120000000E+03  0.17120000000E+03 0.  0.
         13    1    1    2    0    0 -0.41083393146E+01  0.20785978661E+02  0.64250900062E+02  0.67654450582E+02  0.10566000000E+00 0. -1.
        994    1    1    2    0    0  0.74517235045E+01 -0.20586909797E+02  0.49064256558E+01  0.17266401493E+03  0.17120000000E+03 0.  0.
        998    1    1    2    0    0 -0.33433841900E+01 -0.19906886462E+00  0.14308426706E+04  0.14308815345E+04  0.10000000000E+02 0. -1.
</event>
<event>
 5    1  0.1252319E-008  0.3856484E+03  0.7957747E-01  0.3426927E+00
         13   -1    0    0    0    0  0.00000000000E+00  0.00000000000E+00  0.14999999963E+04  0.15000000000E+04  0.10566000000E+00 0. -1.
        994   -1    0    0    0    0 -0.00000000000E+00 -0.00000000000E+00  0.11368683772E-12  0.17120000000E+03  0.17120000000E+03 0.  0.
         13    1    1    2    0    0  0.10410522132E+02 -0.68696544425E+01  0.62607840751E+02  0.63838264472E+02  0.10566000000E+00 0. -1.
        994    1    1    2    0    0  0.11947822731E+01  0.51920033277E+01  0.14017261855E+01  0.17128861386E+03  0.17120000000E+03 0.  0.
        998    1    1    2    0    0 -0.11605304405E+02  0.16776511148E+01  0.14359904293E+04  0.14360731217E+04  0.10000000000E+02 0. -1.
</event>
<event>
 5    1  0.1252319E-008  0.3791650E+03  0.7957747E-01  0.3454802E+00
         13   -1    0    0    0    0  0.00000000000E+00  0.00000000000E+00  0.14999999963E+04  0.15000000000E+04  0.10566000000E+00 0. -1.
        994   -1    0    0    0    0 -0.00000000000E+00 -0.00000000000E+00  0.11368683772E-12  0.17120000000E+03  0.17120000000E+03 0.  0.
         13    1    1    2    0    0 -0.29028417314E+02  0.12124815826E+02  0.97207916457E+02  0.10217167101E+03  0.10566000000E+00 0. -1.
        994    1    1    2    0    0  0.30956320918E+02 -0.27527719934E+02  0.10329385487E+02  0.17644320722E+03  0.17120000000E+03 0.  0.
        998    1    1    2    0    0 -0.19279036039E+01  0.15402904108E+02  0.13924626943E+04  0.13925851218E+04  0.10000000000E+02 0. -1.
</event>
<event>
 5    1  0.1252319E-008  0.3764506E+03  0.7957747E-01  0.3466761E+00
         13   -1    0    0    0    0  0.00000000000E+00  0.00000000000E+00  0.14999999963E+04  0.15000000000E+04  0.10566000000E+00 0.  1.
        994   -1    0    0    0    0 -0.00000000000E+00 -0.00000000000E+00  0.11368683772E-12  0.17120000000E+03  0.17120000000E+03 0.  0.
         13    1    1    2    0    0 -0.19732876824E+02 -0.39192906122E+02  0.13732398507E+03  0.14416434496E+03  0.10566000000E+00 0.  1.
        994    1    1    2    0    0  0.30741834490E+02  0.47427449469E+02  0.16818798314E+02  0.18107107811E+03  0.17120000000E+03 0.  0.
        998    1    1    2    0    0 -0.11008957666E+02 -0.82345433477E+01  0.13458572129E+04  0.13459645769E+04  0.10000000000E+02 0.  1.
</event>
<event>
 5    1  0.1252319E-008  0.3815215E+03  0.7957747E-01  0.3444560E+00
         13   -1    0    0    0    0  0.00000000000E+00  0.00000000000E+00  0.14999999963E+04  0.15000000000E+04  0.10566000000E+00 0.  1.
        994   -1    0    0    0    0 -0.00000000000E+00 -0.00000000000E+00  0.11368683772E-12  0.17120000000E+03  0.17120000000E+03 0.  0.
         13    1    1    2    0    0  0.15073521409E+02  0.38808811392E+02  0.22362752750E+03  0.22747003563E+03  0.10566000000E+00 0.  1.
        994    1    1    2    0    0 -0.20966565368E+02 -0.34932163359E+02  0.89078295701E+01  0.17620624940E+03  0.17120000000E+03 0.  0.
        998    1    1    2    0    0  0.58930439589E+01 -0.38766480333E+01  0.12674646392E+04  0.12675237150E+04  0.10000000000E+02 0.  1.
</event>
<event>
 5    1  0.1252319E-008  0.3792347E+03  0.7957747E-01  0.3454498E+00
         13   -1    0    0    0    0  0.00000000000E+00  0.00000000000E+00  0.14999999963E+04  0.15000000000E+04  0.10566000000E+00 0. -1.
        994   -1    0    0    0    0 -0.00000000000E+00 -0.00000000000E+00  0.11368683772E-12  0.17120000000E+03  0.17120000000E+03 0.  0.
         13    1    1    2    0    0 -0.11969240521E+02 -0.64548686022E+00  0.14208074827E+02  0.18589242218E+02  0.10566000000E+00 0. -1.
        994    1    1    2    0    0  0.73994460098E+00 -0.73044109550E+01  0.47006371024E+01  0.17142181287E+03  0.17120000000E+03 0.  0.
        998    1    1    2    0    0  0.11229295920E+02  0.79498978152E+01  0.14810912843E+04  0.14811889449E+04  0.10000000000E+02 0. -1.
</event>
<event>
 5    1  0.1252319E-008  0.3744744E+03  0.7957747E-01  0.3475577E+00
         13   -1    0    0    0    0  0.00000000000E+00  0.00000000000E+00  0.14999999963E+04  0.15000000000E+04  0.10566000000E+00 0.  1.
        994   -1    0    0    0    0 -0.00000000000E+00 -0.00000000000E+00  0.11368683772E-12  0.17120000000E+03  0.17120000000E+03 0.  0.
         13    1    1    2    0    0  0.16446472565E+02 -0.22503952597E+01  0.43791919087E+01  0.17167970890E+02  0.10566000000E+00 0.  1.
        994    1    1    2    0    0 -0.10424052061E+02 -0.75576175207E+01  0.13913571098E+02  0.17224635237E+03  0.17120000000E+03 0.  0.
        998    1    1    2    0    0 -0.60224205041E+01  0.98080127804E+01  0.14817072333E+04  0.14817856767E+04  0.10000000000E+02 0.  1.
</event>
<event>
 5    1  0.1252319E-008  0.3786515E+03  0.7957747E-01  0.3457051E+00
         13   -1    0    0    0    0  0.00000000000E+00  0.00000000000E+00  0.14999999963E+04  0.15000000000E+04  0.10566000000E+00 0.  1.
        994   -1    0    0    0    0 -0.00000000000E+00 -0.00000000000E+00  0.11368683772E-12  0.17120000000E+03  0.17120000000E+03 0.  0.
         13    1    1    2    0    0  0.37244662415E+02 -0.10850408005E+02  0.13721954365E+03  0.14259772283E+03  0.10566000000E+00 0.  1.
        994    1    1    2    0    0 -0.52569837751E+02 -0.18658411393E+02  0.15336194728E+02  0.18071071641E+03  0.17120000000E+03 0.  0.
        998    1    1    2    0    0  0.15325175336E+02  0.29508819397E+02  0.13474442579E+04  0.13478915608E+04  0.10000000000E+02 0.  1.
</event>
<event>
 5    1  0.1252319E-008  0.3851748E+03  0.7957747E-01  0.3428931E+00
         13   -1    0    0    0    0  0.00000000000E+00  0.00000000000E+00  0.14999999963E+04  0.15000000000E+04  0.10566000000E+00 0. -1.
        994   -1    0    0    0    0 -0.00000000000E+00 -0.00000000000E+00  0.11368683772E-12  0.17120000000E+03  0.17120000000E+03 0.  0.
         13    1    1    2    0    0 -0.43158654751E+01  0.10814332461E+02  0.44339233533E+02  0.45842723258E+02  0.10566000000E+00 0. -1.
        994    1    1    2    0    0 -0.17395025340E+02 -0.13888308917E+02  0.31735676156E+01  0.17267015829E+03  0.17120000000E+03 0.  0.
        998    1    1    2    0    0  0.21710890815E+02  0.30739764563E+01  0.14524871951E+04  0.14526871185E+04  0.10000000000E+02 0. -1.
</event>
<event>
 5    1  0.1252319E-008  0.3795103E+03  0.7957747E-01  0.3453293E+00
         13   -1    0    0    0    0  0.00000000000E+00  0.00000000000E+00  0.14999999963E+04  0.15000000000E+04  0.10566000000E+00 0. -1.
        994   -1    0    0    0    0 -0.00000000000E+00 -0.00000000000E+00  0.11368683772E-12  0.17120000000E+03  0.17120000000E+03 0.  0.
         13    1    1    2    0    0 -0.21004097127E+02 -0.10152751764E+02  0.62813243457E+02  0.67005710071E+02  0.10566000000E+00 0. -1.
        994    1    1    2    0    0  0.45959763285E+01  0.36143032715E+01  0.44950127432E+01  0.17135877954E+03  0.17120000000E+03 0.  0.
        998    1    1    2    0    0  0.16408120799E+02  0.65384484921E+01  0.14326917401E+04  0.14328355104E+04  0.10000000000E+02 0. -1.
</event>
<event>
 5    1  0.1252319E-008  0.3819762E+03  0.7957747E-01  0.3442599E+00
         13   -1    0    0    0    0  0.00000000000E+00  0.00000000000E+00  0.14999999963E+04  0.15000000000E+04  0.10566000000E+00 0.  1.
        994   -1    0    0    0    0 -0.00000000000E+00 -0.00000000000E+00  0.11368683772E-12  0.17120000000E+03  0.17120000000E+03 0.  0.
         13    1    1    2    0    0  0.27738233183E+02  0.15082888913E+02  0.16089480523E+03  0.16396357105E+03  0.10566000000E+00 0.  1.
        994    1    1    2    0    0 -0.10055313263E+02 -0.15213871143E+02  0.42441990264E+01  0.17222085944E+03  0.17120000000E+03 0.  0.
        998    1    1    2    0    0 -0.17682919919E+02  0.13098223021E+00  0.13348609920E+04  0.13350155695E+04  0.10000000000E+02 0.  1.
</event>
<event>
 5    1  0.1252319E-008  0.3835167E+03  0.7957747E-01  0.3435987E+00
         13   -1    0    0    0    0  0.00000000000E+00  0.00000000000E+00  0.14999999963E+04  0.15000000000E+04  0.10566000000E+00 0. -1.
        994   -1    0    0    0    0 -0.00000000000E+00 -0.00000000000E+00  0.11368683772E-12  0.17120000000E+03  0.17120000000E+03 0.  0.
         13    1    1    2    0    0  0.24643107234E+02 -0.58811331785E+01  0.12879635558E+03  0.13126455285E+03  0.10566000000E+00 0. -1.
        994    1    1    2    0    0 -0.21842288325E+02  0.15603037929E+01  0.39545424587E+01  0.17264008374E+03  0.17120000000E+03 0.  0.
        998    1    1    2    0    0 -0.28008189090E+01  0.43208293856E+01  0.13672490982E+04  0.13672953634E+04  0.10000000000E+02 0. -1.
</event>
<event>
 5    1  0.1252319E-008  0.3832151E+03  0.7957747E-01  0.3437278E+00
         13   -1    0    0    0    0  0.00000000000E+00  0.00000000000E+00  0.14999999963E+04  0.15000000000E+04  0.10566000000E+00 0. -1.
        994   -1    0    0    0    0 -0.00000000000E+00 -0.00000000000E+00  0.11368683772E-12  0.17120000000E+03  0.17120000000E+03 0.  0.
         13    1    1    2    0    0 -0.95897249399E+01 -0.68678893973E+01  0.26473916614E+02  0.28982928667E+02  0.10566000000E+00 0. -1.
        994    1    1    2    0    0  0.10319723774E+02  0.48739663666E+01  0.29498850667E+01  0.17160534394E+03  0.17120000000E+03 0.  0.
        998    1    1    2    0    0 -0.72999883361E+00  0.19939230307E+01  0.14705761946E+04  0.14706117274E+04  0.10000000000E+02 0. -1.
</event>
<event>
 5    1  0.1252319E-008  0.3735854E+03  0.7957747E-01  0.3479574E+00
         13   -1    0    0    0    0  0.00000000000E+00  0.00000000000E+00  0.14999999963E+04  0.15000000000E+04  0.10566000000E+00 0.  1.
        994   -1    0    0    0    0 -0.00000000000E+00 -0.00000000000E+00  0.11368683772E-12  0.17120000000E+03  0.17120000000E+03 0.  0.
         13    1    1    2    0    0  0.11083387383E+02  0.17980122889E+01  0.52543890226E+01  0.12397342139E+02  0.10566000000E+00 0.  1.
        994    1    1    2    0    0  0.44516064293E+01 -0.39890843670E+01  0.75290083627E+01  0.17146969283E+03  0.17120000000E+03 0.  0.
        998    1    1    2    0    0 -0.15534993813E+02  0.21910720781E+01  0.14872165989E+04  0.14873329650E+04  0.10000000000E+02 0.  1.
</event>
<event>
 5    1  0.1252319E-008  0.3815762E+03  0.7957747E-01  0.3444324E+00
         13   -1    0    0    0    0  0.00000000000E+00  0.00000000000E+00  0.14999999963E+04  0.15000000000E+04  0.10566000000E+00 0. -1.
        994   -1    0    0    0    0 -0.00000000000E+00 -0.00000000000E+00  0.11368683772E-12  0.17120000000E+03  0.17120000000E+03 0.  0.
         13    1    1    2    0    0  0.14944031997E+02 -0.35858596661E+02  0.18959022988E+03  0.19352940210E+03  0.10566000000E+00 0. -1.
        994    1    1    2    0    0  0.75601651884E+01  0.52850272505E+02  0.12877198232E+02  0.17979313011E+03  0.17120000000E+03 0.  0.
        998    1    1    2    0    0 -0.22504197186E+02 -0.16991675845E+02  0.12975325682E+04  0.12978774678E+04  0.10000000000E+02 0. -1.
</event>
<event>
 5    1  0.1252319E-008  0.3855551E+03  0.7957747E-01  0.3427321E+00
         13   -1    0    0    0    0  0.00000000000E+00  0.00000000000E+00  0.14999999963E+04  0.15000000000E+04  0.10566000000E+00 0.  1.
        994   -1    0    0    0    0 -0.00000000000E+00 -0.00000000000E+00  0.11368683772E-12  0.17120000000E+03  0.17120000000E+03 0.  0.
         13    1    1    2    0    0 -0.10257701273E+02  0.20330512351E+01  0.40314321234E+02  0.41648642154E+02  0.10566000000E+00 0.  1.
        994    1    1    2    0    0  0.69786464229E+01 -0.58241765910E+01  0.16260701213E+01  0.17144884556E+03  0.17120000000E+03 0.  0.
        998    1    1    2    0    0  0.32790548496E+01  0.37911253559E+01  0.14580596049E+04  0.14581025123E+04  0.10000000000E+02 0.  1.
</event>
<event>
 5    1  0.1252319E-008  0.3823798E+03  0.7957747E-01  0.3440862E+00
         13   -1    0    0    0    0  0.00000000000E+00  0.00000000000E+00  0.14999999963E+04  0.15000000000E+04  0.10566000000E+00 0. -1.
        994   -1    0    0    0    0 -0.00000000000E+00 -0.00000000000E+00  0.11368683772E-12  0.17120000000E+03  0.17120000000E+03 0.  0.
         13    1    1    2    0    0 -0.41923441730E+01 -0.18011593117E+02  0.56413816664E+02  0.59367694169E+02  0.10566000000E+00 0. -1.
        994    1    1    2    0    0  0.36141473633E+01  0.14956158551E+02  0.37223039325E+01  0.17193034719E+03  0.17120000000E+03 0.  0.
        998    1    1    2    0    0  0.57819680969E+00  0.30554345664E+01  0.14398638757E+04  0.14399019586E+04  0.10000000000E+02 0. -1.
</event>
<event>
 5    1  0.1252319E-008  0.3794995E+03  0.7957747E-01  0.3453341E+00
         13   -1    0    0    0    0  0.00000000000E+00  0.00000000000E+00  0.14999999963E+04  0.15000000000E+04  0.10566000000E+00 0. -1.
        994   -1    0    0    0    0 -0.00000000000E+00 -0.00000000000E+00  0.11368683772E-12  0.17120000000E+03  0.17120000000E+03 0.  0.
         13    1    1    2    0    0  0.51164780480E+01 -0.95095057260E+01  0.11457884115E+02  0.15744945830E+02  0.10566000000E+00 0. -1.
        994    1    1    2    0    0  0.98754383939E+01  0.98432149095E+01  0.50372502200E+01  0.17184070255E+03  0.17120000000E+03 0.  0.
        998    1    1    2    0    0 -0.14991916442E+02 -0.33370918350E+00  0.14835048619E+04  0.14836143516E+04  0.10000000000E+02 0. -1.
</event>
<event>
 5    1  0.1252319E-008  0.3740406E+03  0.7957747E-01  0.3477525E+00
         13   -1    0    0    0    0  0.00000000000E+00  0.00000000000E+00  0.14999999963E+04  0.15000000000E+04  0.10566000000E+00 0. -1.
        994   -1    0    0    0    0 -0.00000000000E+00 -0.00000000000E+00  0.11368683772E-12  0.17120000000E+03  0.17120000000E+03 0.  0.
         13    1    1    2    0    0 -0.90138783856E+02  0.28198129814E+02  0.41828799627E+03  0.42881813612E+03  0.10566000000E+00 0. -1.
        994    1    1    2    0    0  0.10050734211E+03 -0.14830917603E+02  0.43231823078E+02  0.20371576390E+03  0.17120000000E+03 0.  0.
        998    1    1    2    0    0 -0.10368558254E+02 -0.13367212210E+02  0.10384801769E+04  0.10386661000E+04  0.10000000000E+02 0. -1.
</event>
<event>
 5    1  0.1252319E-008  0.3836977E+03  0.7957747E-01  0.3435214E+00
         13   -1    0    0    0    0  0.00000000000E+00  0.00000000000E+00  0.14999999963E+04  0.15000000000E+04  0.10566000000E+00 0.  1.
        994   -1    0    0    0    0 -0.00000000000E+00 -0.00000000000E+00  0.11368683772E-12  0.17120000000E+03  0.17120000000E+03 0.  0.
         13    1    1    2    0    0 -0.22156473612E+02  0.73834484614E+01  0.12080303581E+03  0.12303986858E+03  0.10566000000E+00 0.  1.
        994    1    1    2    0    0  0.13605994282E+02  0.11260315713E+01  0.28939055852E+01  0.17176788325E+03  0.17120000000E+03 0.  0.
        998    1    1    2    0    0  0.85504793300E+01 -0.85094800327E+01  0.13763030549E+04  0.13763922482E+04  0.10000000000E+02 0.  1.
</event>
<event>
 5    1  0.1252319E-008  0.3725400E+03  0.7957747E-01  0.3484298E+00
         13   -1    0    0    0    0  0.00000000000E+00  0.00000000000E+00  0.14999999963E+04  0.15000000000E+04  0.10566000000E+00 0. -1.
        994   -1    0    0    0    0 -0.00000000000E+00 -0.00000000000E+00  0.11368683772E-12  0.17120000000E+03  0.17120000000E+03 0.  0.
         13    1    1    2    0    0  0.30773205162E+02 -0.26991977509E+02  0.60993274681E+02  0.73455753526E+02  0.10566000000E+00 0. -1.
        994    1    1    2    0    0 -0.30772423449E+02  0.29124766943E+02  0.18647410544E+02  0.17734813226E+03  0.17120000000E+03 0.  0.
        998    1    1    2    0    0 -0.78171207724E-03 -0.21327894347E+01  0.14203593111E+04  0.14203961142E+04  0.10000000000E+02 0.  0.
</event>
<event>
 5    1  0.1252319E-008  0.3756264E+03  0.7957747E-01  0.3470426E+00
         13   -1    0    0    0    0  0.00000000000E+00  0.00000000000E+00  0.14999999963E+04  0.15000000000E+04  0.10566000000E+00 0. -1.
        994   -1    0    0    0    0 -0.00000000000E+00 -0.00000000000E+00  0.11368683772E-12  0.17120000000E+03  0.17120000000E+03 0.  0.
         13    1    1    2    0    0  0.86765217305E+01 -0.39716297321E+02  0.13468540496E+03  0.14068701353E+03  0.10566000000E+00 0. -1.
        994    1    1    2    0    0 -0.32218775345E+01  0.13359470775E+02  0.69982455601E+01  0.17189319764E+03  0.17120000000E+03 0.  0.
        998    1    1    2    0    0 -0.54546441959E+01  0.26356826546E+02  0.13583163458E+04  0.13586197888E+04  0.10000000000E+02 0. -1.
</event>
<event>
 5    1  0.1252319E-008  0.3771815E+03  0.7957747E-01  0.3463524E+00
         13   -1    0    0    0    0  0.00000000000E+00  0.00000000000E+00  0.14999999963E+04  0.15000000000E+04  0.10566000000E+00 0. -1.
        994   -1    0    0    0    0 -0.00000000000E+00 -0.00000000000E+00  0.11368683772E-12  0.17120000000E+03  0.17120000000E+03 0.  0.
         13    1    1    2    0    0  0.85218018739E+00  0.14094989863E+02  0.15811377980E+02  0.21199193098E+02  0.10566000000E+00 0. -1.
        994    1    1    2    0    0  0.11823117587E+02 -0.23495141692E+01  0.60532109685E+01  0.17173056714E+03  0.17120000000E+03 0.  0.
        998    1    1    2    0    0 -0.12675297774E+02 -0.11745475694E+02  0.14781354073E+04  0.14782702398E+04  0.10000000000E+02 0. -1.
</event>
<event>
 5    1  0.1252319E-008  0.3859653E+03  0.7957747E-01  0.3425588E+00
         13   -1    0    0    0    0  0.00000000000E+00  0.00000000000E+00  0.14999999963E+04  0.15000000000E+04  0.10566000000E+00 0.  1.
        994   -1    0    0    0    0 -0.00000000000E+00 -0.00000000000E+00  0.11368683772E-12  0.17120000000E+03  0.17120000000E+03 0.  0.
         13    1    1    2    0    0  0.11390912334E+02  0.59079184613E+01  0.71655679875E+02  0.72795631784E+02  0.10566000000E+00 0.  1.
        994    1    1    2    0    0 -0.61603215901E+01 -0.90563592723E+01  0.15450231751E+01  0.17155697101E+03  0.17120000000E+03 0.  0.
        998    1    1    2    0    0 -0.52305907444E+01  0.31484408110E+01  0.14267992932E+04  0.14268473972E+04  0.10000000000E+02 0.  1.
</event>
<event>
 5    1  0.1252319E-008  0.3791093E+03  0.7957747E-01  0.3455046E+00
         13   -1    0    0    0    0  0.00000000000E+00  0.00000000000E+00  0.14999999963E+04  0.15000000000E+04  0.10566000000E+00 0.  1.
        994   -1    0    0    0    0 -0.00000000000E+00 -0.00000000000E+00  0.11368683772E-12  0.17120000000E+03  0.17120000000E+03 0.  0.
         13    1    1    2    0    0  0.44431896165E+02 -0.12485859959E+02  0.21740511423E+03  0.22225005051E+03  0.10566000000E+00 0.  1.
        994    1    1    2    0    0 -0.32903117416E+02  0.11073635365E+02  0.86349309411E+01  0.17489780607E+03  0.17120000000E+03 0.  0.
        998    1    1    2    0    0 -0.11528778748E+02  0.14122245932E+01  0.12739599511E+04  0.12740521434E+04  0.10000000000E+02 0.  1.
</event>
<event>
 5    1  0.1252319E-008  0.3692335E+03  0.7957747E-01  0.3499421E+00
         13   -1    0    0    0    0  0.00000000000E+00  0.00000000000E+00  0.14999999963E+04  0.15000000000E+04  0.10566000000E+00 0. -1.
        994   -1    0    0    0    0 -0.00000000000E+00 -0.00000000000E+00  0.11368683772E-12  0.17120000000E+03  0.17120000000E+03 0.  0.
         13    1    1    2    0    0 -0.27164305153E+01  0.60347778057E+02  0.15668207389E+03  0.16792413987E+03  0.10566000000E+00 0. -1.
        994    1    1    2    0    0  0.18163688396E+02 -0.72944933613E+02  0.29524838105E+02  0.18929352599E+03  0.17120000000E+03 0.  0.
        998    1    1    2    0    0 -0.15447257881E+02  0.12597155555E+02  0.13137930843E+04  0.13139823341E+04  0.10000000000E+02 0. -1.
</event>
<event>
 5    1  0.1252319E-008  0.3708672E+03  0.7957747E-01  0.3491915E+00
         13   -1    0    0    0    0  0.00000000000E+00  0.00000000000E+00  0.14999999963E+04  0.15000000000E+04  0.10566000000E+00 0.  1.
        994   -1    0    0    0    0 -0.00000000000E+00 -0.00000000000E+00  0.11368683772E-12  0.17120000000E+03  0.17120000000E+03 0.  0.
         13    1    1    2    0    0  0.16731874828E+02 -0.21738599009E+02  0.37610762198E+02  0.46552152681E+02  0.10566000000E+00 0.  1.
        994    1    1    2    0    0 -0.21039687218E+02  0.26181834817E+02  0.12715594377E+02  0.17492650815E+03  0.17120000000E+03 0.  0.
        998    1    1    2    0    0  0.43078123901E+01 -0.44432358081E+01  0.14496736397E+04  0.14497213392E+04  0.10000000000E+02 0.  1.
</event>
<event>
 5    1  0.1252319E-008  0.3845993E+03  0.7957747E-01  0.3431373E+00
         13   -1    0    0    0    0  0.00000000000E+00  0.00000000000E+00  0.14999999963E+04  0.15000000000E+04  0.10566000000E+00 0. -1.
        994   -1    0    0    0    0 -0.00000000000E+00 -0.00000000000E+00  0.11368683772E-12  0.17120000000E+03  0.17120000000E+03 0.  0.
         13    1    1    2    0    0  0.66608784416E+01  0.87415988920E+01  0.31403287751E+02  0.33271015891E+02  0.10566000000E+00 0. -1.
        994    1    1    2    0    0 -0.12164231019E+02 -0.11624215175E+02  0.27619677049E+01  0.17204696847E+03  0.17120000000E+03 0.  0.
        998    1    1    2    0    0  0.55033525774E+01  0.28826162826E+01  0.14658347408E+04  0.14658820156E+04  0.10000000000E+02 0. -1.
</event>
<event>
 5    1  0.1252319E-008  0.3707993E+03  0.7957747E-01  0.3492225E+00
         13   -1    0    0    0    0  0.00000000000E+00  0.00000000000E+00  0.14999999963E+04  0.15000000000E+04  0.10566000000E+00 0.  1.
        994   -1    0    0    0    0 -0.00000000000E+00 -0.00000000000E+00  0.11368683772E-12  0.17120000000E+03  0.17120000000E+03 0.  0.
         13    1    1    2    0    0  0.31879297070E+02 -0.74369283560E+01  0.43261608323E+02  0.54251040578E+02  0.10566000000E+00 0.  1.
        994    1    1    2    0    0 -0.16716951642E+02  0.70287719070E+01  0.12515819691E+02  0.17261212544E+03  0.17120000000E+03 0.  0.
        998    1    1    2    0    0 -0.15162345428E+02  0.40815644896E+00  0.14442225683E+04  0.14443368340E+04  0.10000000000E+02 0.  1.
</event>
<event>
 5    1  0.1252319E-008  0.3769472E+03  0.7957747E-01  0.3464560E+00
         13   -1    0    0    0    0  0.00000000000E+00  0.00000000000E+00  0.14999999963E+04  0.15000000000E+04  0.10566000000E+00 0. -1.
        994   -1    0    0    0    0 -0.00000000000E+00 -0.00000000000E+00  0.11368683772E-12  0.17120000000E+03  0.17120000000E+03 0.  0.
         13    1    1    2    0    0  0.26142679449E+02  0.14286469536E+02  0.75439735124E+02  0.81109233138E+02  0.10566000000E+00 0. -1.
        994    1    1    2    0    0 -0.22681872624E+02 -0.14829501681E+01  0.74289078122E+01  0.17286206975E+03  0.17120000000E+03 0.  0.
        998    1    1    2    0    0 -0.34608068251E+01 -0.12803519368E+02  0.14171313533E+04  0.14172286971E+04  0.10000000000E+02 0. -1.
</event>
<event>
 5    1  0.1252319E-008  0.3907111E+03  0.7957747E-01  0.3405806E+00
         13   -1    0    0    0    0  0.00000000000E+00  0.00000000000E+00  0.14999999963E+04  0.15000000000E+04  0.10566000000E+00 0. -1.
        994   -1    0    0    0    0 -0.00000000000E+00 -0.00000000000E+00  0.11368683772E-12  0.17120000000E+03  0.17120000000E+03 0.  0.
         13    1    1    2    0    0 -0.44493180404E+02  0.29561381511E+02  0.63908237477E+02  0.83293411268E+02  0.10566000000E+00 0. -1.
        994    1    1    2    0    0  0.12286431342E+02  0.43325365402E+02  0.30029841383E+02  0.17955298676E+03  0.17120000000E+03 0.  0.
        998    1    1    2    0    0  0.32206749061E+02 -0.72886746913E+02  0.14060619174E+04  0.14083536020E+04  0.10000000000E+02 0. -1.
</event>
<event>
 5    1  0.1252319E-008  0.3783773E+03  0.7957747E-01  0.3458255E+00
         13   -1    0    0    0    0  0.00000000000E+00  0.00000000000E+00  0.14999999963E+04  0.15000000000E+04  0.10566000000E+00 0.  1.
        994   -1    0    0    0    0 -0.00000000000E+00 -0.00000000000E+00  0.11368683772E-12  0.17120000000E+03  0.17120000000E+03 0.  0.
         13    1    1    2    0    0 -0.38524265798E+02 -0.34524538260E+02  0.28159153840E+03  0.28630380448E+03  0.10566000000E+00 0.  1.
        994    1    1    2    0    0  0.33429264872E+02 -0.40941259332E+00  0.87201688830E+01  0.17465155228E+03  0.17120000000E+03 0.  0.
        998    1    1    2    0    0  0.50950009256E+01  0.34933950853E+02  0.12096882890E+04  0.12102446432E+04  0.10000000000E+02 0.  1.
</event>
<event>
 5    1  0.1252319E-008  0.3739582E+03  0.7957747E-01  0.3477895E+00
         13   -1    0    0    0    0  0.00000000000E+00  0.00000000000E+00  0.14999999963E+04  0.15000000000E+04  0.10566000000E+00 0.  1.
        994   -1    0    0    0    0 -0.00000000000E+00 -0.00000000000E+00  0.11368683772E-12  0.17120000000E+03  0.17120000000E+03 0.  0.
         13    1    1    2    0    0 -0.38715925846E+01 -0.51510795983E+02  0.10154970135E+03  0.11393289402E+03  0.10566000000E+00 0.  1.
        994    1    1    2    0    0  0.11162263634E+02  0.21493530819E+02  0.15129458513E+02  0.17356528602E+03  0.17120000000E+03 0.  0.
        998    1    1    2    0    0 -0.72906710492E+01  0.30017265165E+02  0.13833208364E+04  0.13837018200E+04  0.10000000000E+02 0.  1.
</event>
<event>
 5    1  0.1252319E-008  0.3796415E+03  0.7957747E-01  0.3452721E+00
         13   -1    0    0    0    0  0.00000000000E+00  0.00000000000E+00  0.14999999963E+04  0.15000000000E+04  0.10566000000E+00 0. -1.
        994   -1    0    0    0    0 -0.00000000000E+00 -0.00000000000E+00  0.11368683772E-12  0.17120000000E+03  0.17120000000E+03 0.  0.
         13    1    1    2    0    0  0.36302503830E+02 -0.41752642005E+01  0.14422039596E+03  0.14877781552E+03  0.10566000000E+00 0. -1.
        994    1    1    2    0    0 -0.31087869643E+02  0.65387358044E+01  0.76993189642E+01  0.17429265681E+03  0.17120000000E+03 0.  0.
        998    1    1    2    0    0 -0.52146341875E+01 -0.23634716040E+01  0.13480802814E+04  0.13481295277E+04  0.10000000000E+02 0. -1.
</event>
<event>
 5    1  0.1252319E-008  0.3742123E+03  0.7957747E-01  0.3476753E+00
         13   -1    0    0    0    0  0.00000000000E+00  0.00000000000E+00  0.14999999963E+04  0.15000000000E+04  0.10566000000E+00 0.  1.
        994   -1    0    0    0    0 -0.00000000000E+00 -0.00000000000E+00  0.11368683772E-12  0.17120000000E+03  0.17120000000E+03 0.  0.
         13    1    1    2    0    0 -0.11892817533E+02  0.24839724503E+02  0.51068522899E+02  0.58021170424E+02  0.10566000000E+00 0.  1.
        994    1    1    2    0    0  0.11527847084E+02 -0.12611289461E+02  0.80793808075E+01  0.17224010066E+03  0.17120000000E+03 0.  0.
        998    1    1    2    0    0  0.36497044983E+00 -0.12228435043E+02  0.14408520926E+04  0.14409387289E+04  0.10000000000E+02 0.  1.
</event>
<event>
 5    1  0.1252319E-008  0.3841033E+03  0.7957747E-01  0.3433484E+00
         13   -1    0    0    0    0  0.00000000000E+00  0.00000000000E+00  0.14999999963E+04  0.15000000000E+04  0.10566000000E+00 0.  1.
        994   -1    0    0    0    0 -0.00000000000E+00 -0.00000000000E+00  0.11368683772E-12  0.17120000000E+03  0.17120000000E+03 0.  0.
         13    1    1    2    0    0  0.12138393738E+02  0.32358856041E+01  0.37323180807E+02  0.39380738284E+02  0.10566000000E+00 0.  1.
        994    1    1    2    0    0 -0.92374309101E+01 -0.27376650094E+01  0.23821927119E+01  0.17148743331E+03  0.17120000000E+03 0.  0.
        998    1    1    2    0    0 -0.29009628281E+01 -0.49822059469E+00  0.14602946228E+04  0.14603318284E+04  0.10000000000E+02 0.  1.
</event>
<event>
 5    1  0.1252319E-008  0.3708150E+03  0.7957747E-01  0.3492154E+00
         13   -1    0    0    0    0  0.00000000000E+00  0.00000000000E+00  0.14999999963E+04  0.15000000000E+04  0.10566000000E+00 0. -1.
        994   -1    0    0    0    0 -0.00000000000E+00 -0.00000000000E+00  0.11368683772E-12  0.17120000000E+03  0.17120000000E+03 0.  0.
         13    1    1    2    0    0  0.37864134782E+02 -0.67975894591E+02  0.39118615538E+03  0.39884963868E+03  0.10566000000E+00 0. -1.
        994    1    1    2    0    0 -0.20508422796E+02 -0.18674549083E+02  0.14072359258E+02  0.17400231459E+03  0.17120000000E+03 0.  0.
        998    1    1    2    0    0 -0.17355711986E+02  0.86650443674E+02  0.10947414816E+04  0.10983480467E+04  0.10000000000E+02 0. -1.
</event>
<event>
 5    1  0.1252319E-008  0.3684619E+03  0.7957747E-01  0.3502990E+00
         13   -1    0    0    0    0  0.00000000000E+00  0.00000000000E+00  0.14999999963E+04  0.15000000000E+04  0.10566000000E+00 0. -1.
        994   -1    0    0    0    0 -0.00000000000E+00 -0.00000000000E+00  0.11368683772E-12  0.17120000000E+03  0.17120000000E+03 0.  0.
         13    1    1    2    0    0 -0.11563978032E+03  0.41938395706E+02  0.69854929963E+03  0.70929720358E+03  0.10566000000E+00 0. -1.
        994    1    1    2    0    0  0.79624132371E+02 -0.14445837803E+02  0.33198334178E+02  0.19225049825E+03  0.17120000000E+03 0.  0.
        998    1    1    2    0    0  0.36015647948E+02 -0.27492557903E+02  0.76825236247E+03  0.76965229817E+03  0.10000000000E+02 0. -1.
</event>
<event>
 5    1  0.1252319E-008  0.3806632E+03  0.7957747E-01  0.3448276E+00
         13   -1    0    0    0    0  0.00000000000E+00  0.00000000000E+00  0.14999999963E+04  0.15000000000E+04  0.10566000000E+00 0. -1.
        994   -1    0    0    0    0 -0.00000000000E+00 -0.00000000000E+00  0.11368683772E-12  0.17120000000E+03  0.17120000000E+03 0.  0.
         13    1    1    2    0    0  0.34364235622E+01 -0.44491587390E+02  0.22984349628E+03  0.23413533331E+03  0.10566000000E+00 0. -1.
        994    1    1    2    0    0 -0.68603114538E+01  0.40731706700E+02  0.95107691272E+01  0.17636901807E+03  0.17120000000E+03 0.  0.
        998    1    1    2    0    0  0.34238878916E+01  0.37598806899E+01  0.12606457309E+04  0.12606956486E+04  0.10000000000E+02 0. -1.
</event>
<event>
 5    1  0.1252319E-008  0.3852817E+03  0.7957747E-01  0.3428478E+00
         13   -1    0    0    0    0  0.00000000000E+00  0.00000000000E+00  0.14999999963E+04  0.15000000000E+04  0.10566000000E+00 0. -1.
        994   -1    0    0    0    0 -0.00000000000E+00 -0.00000000000E+00  0.11368683772E-12  0.17120000000E+03  0.17120000000E+03 0.  0.
         13    1    1    2    0    0 -0.34586574343E+01 -0.13871385269E+02  0.68942907926E+02  0.70409611260E+02  0.10566000000E+00 0. -1.
        994    1    1    2    0    0  0.32606447759E+01  0.85020831361E+01  0.17628367250E+01  0.17145105662E+03  0.17120000000E+03 0.  0.
        998    1    1    2    0    0  0.19801265834E+00  0.53693021328E+01  0.14292942516E+04  0.14293393321E+04  0.10000000000E+02 0. -1.
</event>
<event>
 5    1  0.1252319E-008  0.3855470E+03  0.7957747E-01  0.3427356E+00
         13   -1    0    0    0    0  0.00000000000E+00  0.00000000000E+00  0.14999999963E+04  0.15000000000E+04  0.10566000000E+00 0.  1.
        994   -1    0    0    0    0 -0.00000000000E+00 -0.00000000000E+00  0.11368683772E-12  0.17120000000E+03  0.17120000000E+03 0.  0.
         13    1    1    2    0    0  0.12181871619E+02  0.12187619133E+02  0.10272849953E+03  0.10416377410E+03  0.10566000000E+00 0.  1.
        994    1    1    2    0    0 -0.18003757209E+02 -0.86575916416E+01  0.26700447703E+01  0.17238230276E+03  0.17120000000E+03 0.  0.
        998    1    1    2    0    0  0.58218855897E+01 -0.35300274912E+01  0.13946014520E+04  0.13946539231E+04  0.10000000000E+02 0.  1.
</event>
<event>
 5    1  0.1252319E-008  0.3850227E+03  0.7957747E-01  0.3429576E+00
         13   -1    0    0    0    0  0.00000000000E+00  0.00000000000E+00  0.14999999963E+04  0.15000000000E+04  0.10566000000E+00 0.  1.
        994   -1    0    0    0    0 -0.00000000000E+00 -0.00000000000E+00  0.11368683772E-12  0.17120000000E+03  0.17120000000E+03 0.  0.
         13    1    1    2    0    0  0.46789907884E+01  0.92846732135E+01  0.34816460403E+02  0.36335866448E+02  0.10566000000E+00 0.  1.
        994    1    1    2    0    0  0.11860417183E+02 -0.28280565712E+01  0.21078882633E+01  0.17164658631E+03  0.17120000000E+03 0.  0.
        998    1    1    2    0    0 -0.16539407972E+02 -0.64566166423E+01  0.14630756476E+04  0.14632175472E+04  0.10000000000E+02 0.  1.
</event>
<event>
 5    1  0.1252319E-008  0.3694256E+03  0.7957747E-01  0.3498535E+00
         13   -1    0    0    0    0  0.00000000000E+00  0.00000000000E+00  0.14999999963E+04  0.15000000000E+04  0.10566000000E+00 0.  1.
        994   -1    0    0    0    0 -0.00000000000E+00 -0.00000000000E+00  0.11368683772E-12  0.17120000000E+03  0.17120000000E+03 0.  0.
         13    1    1    2    0    0 -0.16767899447E+02 -0.13473092258E+02  0.17047761831E+02  0.27446748702E+02  0.10566000000E+00 0.  1.
        994    1    1    2    0    0  0.15132382355E+02  0.11562527311E+02  0.11901775595E+02  0.17266665369E+03  0.17120000000E+03 0.  0.
        998    1    1    2    0    0  0.16355170920E+01  0.19105649471E+01  0.14710504589E+04  0.14710865976E+04  0.10000000000E+02 0.  1.
</event>
<event>
 5    1  0.1275356E-008  0.3857738E+03  0.7957747E-01  0.3426397E+00
         13   -1    0    0    0    0  0.00000000000E+00  0.00000000000E+00  0.14999999963E+04  0.15000000000E+04  0.10566000000E+00 0. -1.
        994   -1    0    0    0    0 -0.00000000000E+00 -0.00000000000E+00  0.11368683772E-12  0.17120000000E+03  0.17120000000E+03 0.  0.
         13    1    1    2    0    0  0.23480791104E+01 -0.10458261912E+02  0.46435621626E+02  0.47656760670E+02  0.10566000000E+00 0. -1.
        994    1    1    2    0    0 -0.31054891735E+00  0.73820892356E+01  0.14255481156E+01  0.17136529366E+03  0.17120000000E+03 0.  0.
        998    1    1    2    0    0 -0.20375301930E+01  0.30761726765E+01  0.14521388265E+04  0.14521779457E+04  0.10000000000E+02 0. -1.
</event>
<event>
 5    1  0.1252319E-008  0.3784818E+03  0.7957747E-01  0.3457796E+00
         13   -1    0    0    0    0  0.00000000000E+00  0.00000000000E+00  0.14999999963E+04  0.15000000000E+04  0.10566000000E+00 0.  1.
        994   -1    0    0    0    0 -0.00000000000E+00 -0.00000000000E+00  0.11368683772E-12  0.17120000000E+03  0.17120000000E+03 0.  0.
         13    1    1    2    0    0 -0.34427437519E+02 -0.56882851765E+00  0.12333443450E+03  0.12805063810E+03  0.10566000000E+00 0.  1.
        994    1    1    2    0    0  0.14271719609E+02 -0.12831376559E+01  0.55916585791E+01  0.17188960140E+03  0.17120000000E+03 0.  0.
        998    1    1    2    0    0  0.20155717909E+02  0.18519661735E+01  0.13710739032E+04  0.13712597605E+04  0.10000000000E+02 0.  1.
</event>
<event>
 5    1  0.1252319E-008  0.3842523E+03  0.7957747E-01  0.3432849E+00
         13   -1    0    0    0    0  0.00000000000E+00  0.00000000000E+00  0.14999999963E+04  0.15000000000E+04  0.10566000000E+00 0. -1.
        994   -1    0    0    0    0 -0.00000000000E+00 -0.00000000000E+00  0.11368683772E-12  0.17120000000E+03  0.17120000000E+03 0.  0.
         13    1    1    2    0    0  0.15666714970E+02  0.14665933694E+02  0.10895806257E+03  0.11105136709E+03  0.10566000000E+00 0. -1.
        994    1    1    2    0    0 -0.14196500707E+02 -0.14583035138E+02  0.33684854455E+01  0.17243837230E+03  0.17120000000E+03 0.  0.
        998    1    1    2    0    0 -0.14702142636E+01 -0.82898556851E-01  0.13876734483E+04  0.13877102606E+04  0.10000000000E+02 0. -1.
</event>
<event>
 5    1  0.1252319E-008  0.3754218E+03  0.7957747E-01  0.3471339E+00
         13   -1    0    0    0    0  0.00000000000E+00  0.00000000000E+00  0.14999999963E+04  0.15000000000E+04  0.10566000000E+00 0.  1.
        994   -1    0    0    0    0 -0.00000000000E+00 -0.00000000000E+00  0.11368683772E-12  0.17120000000E+03  0.17120000000E+03 0.  0.
         13    1    1    2    0    0 -0.58072098832E+01  0.13321314106E+02  0.13269590441E+02  0.19679285826E+02  0.10566000000E+00 0.  1.
        994    1    1    2    0    0  0.72314323648E+01 -0.15887818453E+02  0.74972846236E+01  0.17225088002E+03  0.17120000000E+03 0.  0.
        998    1    1    2    0    0 -0.14242224817E+01  0.25665043469E+01  0.14792331212E+04  0.14792698342E+04  0.10000000000E+02 0.  1.
</event>
<event>
 5    1  0.1252319E-008  0.3849209E+03  0.7957747E-01  0.3430008E+00
         13   -1    0    0    0    0  0.00000000000E+00  0.00000000000E+00  0.14999999963E+04  0.15000000000E+04  0.10566000000E+00 0. -1.
        994   -1    0    0    0    0 -0.00000000000E+00 -0.00000000000E+00  0.11368683772E-12  0.17120000000E+03  0.17120000000E+03 0.  0.
         13    1    1    2    0    0  0.11840518268E+02 -0.55011685905E+00  0.41525292641E+02  0.43184043284E+02  0.10566000000E+00 0. -1.
        994    1    1    2    0    0 -0.99712124660E+01 -0.10451873792E+01  0.20001287441E+01  0.17150497955E+03  0.17120000000E+03 0.  0.
        998    1    1    2    0    0 -0.18693058019E+01  0.15953042382E+01  0.14564745749E+04  0.14565109772E+04  0.10000000000E+02 0. -1.
</event>
<event>
 5    1  0.1252319E-008  0.3777697E+03  0.7957747E-01  0.3460928E+00
         13   -1    0    0    0    0  0.00000000000E+00  0.00000000000E+00  0.14999999963E+04  0.15000000000E+04  0.10566000000E+00 0.  1.
        994   -1    0    0    0    0 -0.00000000000E+00 -0.00000000000E+00  0.11368683772E-12  0.17120000000E+03  0.17120000000E+03 0.  0.
         13    1    1    2    0    0 -0.10529376274E+01 -0.19749553224E+02  0.34292964713E+02  0.39587524841E+02  0.10566000000E+00 0.  1.
        994    1    1    2    0    0  0.10976153527E+02  0.20033919191E+02  0.70226473390E+01  0.17286003425E+03  0.17120000000E+03 0.  0.
        998    1    1    2    0    0 -0.99232158998E+01 -0.28436596631E+00  0.14586843842E+04  0.14587524409E+04  0.10000000000E+02 0.  1.
</event>
<event>
 5    1  0.1252319E-008  0.3845852E+03  0.7957747E-01  0.3431433E+00
         13   -1    0    0    0    0  0.00000000000E+00  0.00000000000E+00  0.14999999963E+04  0.15000000000E+04  0.10566000000E+00 0. -1.
        994   -1    0    0    0    0 -0.00000000000E+00 -0.00000000000E+00  0.11368683772E-12  0.17120000000E+03  0.17120000000E+03 0.  0.
         13    1    1    2    0    0  0.13757493337E+02 -0.13701068141E+02  0.10020571287E+03  0.10206950547E+03  0.10566000000E+00 0. -1.
        994    1    1    2    0    0 -0.13935696618E+02  0.77572929040E+01  0.26743526091E+01  0.17196212198E+03  0.17120000000E+03 0.  0.
        998    1    1    2    0    0  0.17820328125E+00  0.59437752368E+01  0.13971199308E+04  0.13971683726E+04  0.10000000000E+02 0. -1.
</event>
<event>
 5    1  0.1252319E-008  0.2854888E+03  0.7957747E-01  0.4005391E+00
         13   -1    0    0    0    0  0.00000000000E+00  0.00000000000E+00  0.14999999963E+04  0.15000000000E+04  0.10566000000E+00 0.  1.
        994   -1    0    0    0    0 -0.00000000000E+00 -0.00000000000E+00  0.11368683772E-12  0.17120000000E+03  0.17120000000E+03 0.  0.
         13    1    1    2    0    0 -0.10261069777E+03  0.13824101238E+03  0.89655044317E+03  0.91293057847E+03  0.10566000000E+00 0.  1.
        994    1    1    2    0    0 -0.55468390737E+02 -0.54888298140E+02  0.78894148338E+02  0.20401763229E+03  0.17120000000E+03 0.  0.
        998    1    1    2    0    0  0.15807908851E+03 -0.83352714239E+02  0.52455540477E+03  0.55425178924E+03  0.10000000000E+02 0.  1.
</event>
<event>
 5    1  0.1252319E-008  0.4051489E+03  0.7957747E-01  0.3348469E+00
         13   -1    0    0    0    0  0.00000000000E+00  0.00000000000E+00  0.14999999963E+04  0.15000000000E+04  0.10566000000E+00 0.  1.
        994   -1    0    0    0    0 -0.00000000000E+00 -0.00000000000E+00  0.11368683772E-12  0.17120000000E+03  0.17120000000E+03 0.  0.
         13    1    1    2    0    0  0.27978291315E+02 -0.10824443983E+02  0.15851630094E+01  0.30041259598E+02  0.10566000000E+00 0.  1.
        994    1    1    2    0    0 -0.27946395819E+02  0.97696671310E+01  0.34405314718E+02  0.17711468916E+03  0.17120000000E+03 0.  0.
        998    1    1    2    0    0 -0.31895495486E-01  0.10547768517E+01  0.14640095186E+04  0.14640440512E+04  0.10000000000E+02 0.  1.
</event>
<event>
 5    1  0.1252319E-008  0.3927392E+03  0.7957747E-01  0.3397498E+00
         13   -1    0    0    0    0  0.00000000000E+00  0.00000000000E+00  0.14999999963E+04  0.15000000000E+04  0.10566000000E+00 0. -1.
        994   -1    0    0    0    0 -0.00000000000E+00 -0.00000000000E+00  0.11368683772E-12  0.17120000000E+03  0.17120000000E+03 0.  0.
         13    1    1    2    0    0  0.14441594492E+03 -0.41968168347E+00  0.34105496259E+03  0.37037094912E+03  0.10566000000E+00 0. -1.
        994    1    1    2    0    0 -0.13517842125E+03  0.30406598459E+02  0.10087338237E+03  0.24224501248E+03  0.17120000000E+03 0.  0.
        998    1    1    2    0    0 -0.92375236739E+01 -0.29986916776E+02  0.10580716513E+04  0.10585840384E+04  0.10000000000E+02 0.  1.
</event>
<event>
 5    1  0.1252319E-008  0.3827822E+03  0.7957747E-01  0.3439133E+00
         13   -1    0    0    0    0  0.00000000000E+00  0.00000000000E+00  0.14999999963E+04  0.15000000000E+04  0.10566000000E+00 0.  1.
        994   -1    0    0    0    0 -0.00000000000E+00 -0.00000000000E+00  0.11368683772E-12  0.17120000000E+03  0.17120000000E+03 0.  0.
         13    1    1    2    0    0  0.15191498796E+02 -0.61287505033E+01  0.45477070418E+02  0.48337545617E+02  0.10566000000E+00 0.  1.
        994    1    1    2    0    0 -0.21865342739E+02  0.11373753783E+02  0.47500308359E+01  0.17303022361E+03  0.17120000000E+03 0.  0.
        998    1    1    2    0    0  0.66738439425E+01 -0.52450032801E+01  0.14497728950E+04  0.14498322308E+04  0.10000000000E+02 0.  1.
</event>
<event>
 5    1  0.1252319E-008  0.3823030E+03  0.7957747E-01  0.3441192E+00
         13   -1    0    0    0    0  0.00000000000E+00  0.00000000000E+00  0.14999999963E+04  0.15000000000E+04  0.10566000000E+00 0.  1.
        994   -1    0    0    0    0 -0.00000000000E+00 -0.00000000000E+00  0.11368683772E-12  0.17120000000E+03  0.17120000000E+03 0.  0.
         13    1    1    2    0    0  0.30627180345E+02 -0.18241481922E+02  0.27878274907E+02  0.45254670637E+02  0.10566000000E+00 0.  1.
        994    1    1    2    0    0 -0.34917523595E+02  0.28023856938E+02  0.24959600989E+02  0.17870923785E+03  0.17120000000E+03 0.  0.
        998    1    1    2    0    0  0.42903432494E+01 -0.97823750153E+01  0.14471621204E+04  0.14472360915E+04  0.10000000000E+02 0.  1.
</event>
<event>
 5    1  0.1252319E-008  0.3819033E+03  0.7957747E-01  0.3442913E+00
         13   -1    0    0    0    0  0.00000000000E+00  0.00000000000E+00  0.14999999963E+04  0.15000000000E+04  0.10566000000E+00 0.  1.
        994   -1    0    0    0    0 -0.00000000000E+00 -0.00000000000E+00  0.11368683772E-12  0.17120000000E+03  0.17120000000E+03 0.  0.
         13    1    1    2    0    0  0.51063044939E+01 -0.18819080577E+02  0.58016431031E+02  0.61205796891E+02  0.10566000000E+00 0.  1.
        994    1    1    2    0    0 -0.58055540295E+01  0.14633229622E+02  0.39991985142E+01  0.17196880373E+03  0.17120000000E+03 0.  0.
        998    1    1    2    0    0  0.69924953559E+00  0.41858509552E+01  0.14379843667E+04  0.14380253994E+04  0.10000000000E+02 0.  1.
</event>
<event>
 5    1  0.1252319E-008  0.3725491E+03  0.7957747E-01  0.3484257E+00
         13   -1    0    0    0    0  0.00000000000E+00  0.00000000000E+00  0.14999999963E+04  0.15000000000E+04  0.10566000000E+00 0.  1.
        994   -1    0    0    0    0 -0.00000000000E+00 -0.00000000000E+00  0.11368683772E-12  0.17120000000E+03  0.17120000000E+03 0.  0.
         13    1    1    2    0    0  0.47674044601E+02  0.66636916301E+02  0.33643856514E+03  0.34627187645E+03  0.10566000000E+00 0.  1.
        994    1    1    2    0    0 -0.10030904834E+03 -0.30156112958E+02  0.46537791430E+02  0.20602548958E+03  0.17120000000E+03 0.  0.
        998    1    1    2    0    0  0.52635003734E+02 -0.36480803343E+02  0.11170236397E+04  0.11189026340E+04  0.10000000000E+02 0.  1.
</event>
<event>
 5    1  0.1695337E-008  0.3861094E+03  0.7957747E-01  0.3424981E+00
         13   -1    0    0    0    0  0.00000000000E+00  0.00000000000E+00  0.14999999963E+04  0.15000000000E+04  0.10566000000E+00 0. -1.
        994   -1    0    0    0    0 -0.00000000000E+00 -0.00000000000E+00  0.11368683772E-12  0.17120000000E+03  0.17120000000E+03 0.  0.
         13    1    1    2    0    0 -0.98211283895E+01 -0.31118434401E+01  0.48454882892E+02  0.49538116361E+02  0.10566000000E+00 0. -1.
        994    1    1    2    0    0  0.89703420599E+01  0.83734913009E+01  0.15739469097E+01  0.17164643807E+03  0.17120000000E+03 0.  0.
        998    1    1    2    0    0  0.85078632959E+00 -0.52616478609E+01  0.14499711665E+04  0.14500154456E+04  0.10000000000E+02 0. -1.
</event>
<event>
 5    1  0.1252319E-008  0.3848934E+03  0.7957747E-01  0.3430124E+00
         13   -1    0    0    0    0  0.00000000000E+00  0.00000000000E+00  0.14999999963E+04  0.15000000000E+04  0.10566000000E+00 0. -1.
        994   -1    0    0    0    0 -0.00000000000E+00 -0.00000000000E+00  0.11368683772E-12  0.17120000000E+03  0.17120000000E+03 0.  0.
         13    1    1    2    0    0  0.45551553624E+01  0.12741215792E+02  0.52864691782E+02  0.54568991392E+02  0.10566000000E+00 0. -1.
        994    1    1    2    0    0 -0.29270911390E+01 -0.13604656081E+02  0.23203985127E+01  0.17178032128E+03  0.17120000000E+03 0.  0.
        998    1    1    2    0    0 -0.16280642234E+01  0.86344028929E+00  0.14448149060E+04  0.14448506873E+04  0.10000000000E+02 0. -1.
</event>
<event>
 5    1  0.1252319E-008  0.3861180E+03  0.7957747E-01  0.3424944E+00
         13   -1    0    0    0    0  0.00000000000E+00  0.00000000000E+00  0.14999999963E+04  0.15000000000E+04  0.10566000000E+00 0.  1.
        994   -1    0    0    0    0 -0.00000000000E+00 -0.00000000000E+00  0.11368683772E-12  0.17120000000E+03  0.17120000000E+03 0.  0.
         13    1    1    2    0    0 -0.16706831103E+01 -0.10096604593E+02  0.53309251463E+02  0.54282778687E+02  0.10566000000E+00 0.  1.
        994    1    1    2    0    0  0.24255532620E+02 -0.71198795803E+01  0.31727996224E+01  0.17308532637E+03  0.17120000000E+03 0.  0.
        998    1    1    2    0    0 -0.22584849509E+02  0.17216484173E+02  0.14435179452E+04  0.14438318949E+04  0.10000000000E+02 0.  1.
</event>
<event>
 5    1  0.1252319E-008  0.3852947E+03  0.7957747E-01  0.3428423E+00
         13   -1    0    0    0    0  0.00000000000E+00  0.00000000000E+00  0.14999999963E+04  0.15000000000E+04  0.10566000000E+00 0. -1.
        994   -1    0    0    0    0 -0.00000000000E+00 -0.00000000000E+00  0.11368683772E-12  0.17120000000E+03  0.17120000000E+03 0.  0.
         13    1    1    2    0    0  0.16079593454E+02 -0.71948496257E+01  0.10142513557E+03  0.10294361795E+03  0.10566000000E+00 0. -1.
        994    1    1    2    0    0 -0.80355314247E+01  0.20521743193E+02  0.30813451367E+01  0.17264022242E+03  0.17120000000E+03 0.  0.
        998    1    1    2    0    0 -0.80440620296E+01 -0.13326893567E+02  0.13954935156E+04  0.13956161596E+04  0.10000000000E+02 0. -1.
</event>
<event>
 5    1  0.1252319E-008  0.3828535E+03  0.7957747E-01  0.3438827E+00
         13   -1    0    0    0    0  0.00000000000E+00  0.00000000000E+00  0.14999999963E+04  0.15000000000E+04  0.10566000000E+00 0. -1.
        994   -1    0    0    0    0 -0.00000000000E+00 -0.00000000000E+00  0.11368683772E-12  0.17120000000E+03  0.17120000000E+03 0.  0.
         13    1    1    2    0    0  0.20308378810E+02 -0.10383254212E+02  0.10307579149E+03  0.10556927666E+03  0.10566000000E+00 0. -1.
        994    1    1    2    0    0  0.48642998732E+00  0.60958825441E+01  0.28234659774E+01  0.17133244981E+03  0.17120000000E+03 0.  0.
        998    1    1    2    0    0 -0.20794808797E+02  0.42873716682E+01  0.13941007388E+04  0.13942982735E+04  0.10000000000E+02 0. -1.
</event>
<event>
 5    1  0.1252319E-008  0.3840517E+03  0.7957747E-01  0.3433704E+00
         13   -1    0    0    0    0  0.00000000000E+00  0.00000000000E+00  0.14999999963E+04  0.15000000000E+04  0.10566000000E+00 0. -1.
        994   -1    0    0    0    0 -0.00000000000E+00 -0.00000000000E+00  0.11368683772E-12  0.17120000000E+03  0.17120000000E+03 0.  0.
         13    1    1    2    0    0  0.90822764377E+01 -0.22058759138E+02  0.13269633105E+03  0.13482360341E+03  0.10566000000E+00 0. -1.
        994    1    1    2    0    0 -0.31242658615E+01  0.16770989239E+02  0.30622891301E+01  0.17207511363E+03  0.17120000000E+03 0.  0.
        998    1    1    2    0    0 -0.59580105763E+01  0.52877698995E+01  0.13642413761E+04  0.13643012830E+04  0.10000000000E+02 0. -1.
</event>
<event>
 5    1  0.1252319E-008  0.3821106E+03  0.7957747E-01  0.3442020E+00
         13   -1    0    0    0    0  0.00000000000E+00  0.00000000000E+00  0.14999999963E+04  0.15000000000E+04  0.10566000000E+00 0. -1.
        994   -1    0    0    0    0 -0.00000000000E+00 -0.00000000000E+00  0.11368683772E-12  0.17120000000E+03  0.17120000000E+03 0.  0.
         13    1    1    2    0    0 -0.10384462179E+02  0.12679415221E+01  0.16438361936E+02  0.19485267194E+02  0.10566000000E+00 0. -1.
        994    1    1    2    0    0  0.10411618883E+02 -0.44649788362E+00  0.34321289826E+01  0.17155121882E+03  0.17120000000E+03 0.  0.
        998    1    1    2    0    0 -0.27156703872E-01 -0.82144363849E+00  0.14801295054E+04  0.14801635140E+04  0.10000000000E+02 0. -1.
</event>
<event>
 5    1  0.1252319E-008  0.3793915E+03  0.7957747E-01  0.3453812E+00
         13   -1    0    0    0    0  0.00000000000E+00  0.00000000000E+00  0.14999999963E+04  0.15000000000E+04  0.10566000000E+00 0. -1.
        994   -1    0    0    0    0 -0.00000000000E+00 -0.00000000000E+00  0.11368683772E-12  0.17120000000E+03  0.17120000000E+03 0.  0.
         13    1    1    2    0    0  0.39050725356E+02 -0.10977771976E+02  0.15785956099E+03  0.16298810628E+03  0.10566000000E+00 0. -1.
        994    1    1    2    0    0 -0.52737270122E+02 -0.72169037226E+01  0.13990323092E+02  0.17982900906E+03  0.17120000000E+03 0.  0.
        998    1    1    2    0    0  0.13686544766E+02  0.18194675698E+02  0.13281501122E+04  0.13283828847E+04  0.10000000000E+02 0. -1.
</event>
<event>
 5    1  0.1252319E-008  0.3824672E+03  0.7957747E-01  0.3440486E+00
         13   -1    0    0    0    0  0.00000000000E+00  0.00000000000E+00  0.14999999963E+04  0.15000000000E+04  0.10566000000E+00 0.  1.
        994   -1    0    0    0    0 -0.00000000000E+00 -0.00000000000E+00  0.11368683772E-12  0.17120000000E+03  0.17120000000E+03 0.  0.
         13    1    1    2    0    0 -0.16096425100E+01 -0.10474675735E+02  0.18220812959E+02  0.21078874963E+02  0.10566000000E+00 0.  1.
        994    1    1    2    0    0 -0.14025262418E+01  0.88661375852E+01  0.31601032250E+01  0.17146428703E+03  0.17120000000E+03 0.  0.
        998    1    1    2    0    0  0.30121687518E+01  0.16085381500E+01  0.14786190801E+04  0.14786568380E+04  0.10000000000E+02 0.  1.
</event>
<event>
 5    1  0.1252319E-008  0.3720852E+03  0.7957747E-01  0.3486362E+00
         13   -1    0    0    0    0  0.00000000000E+00  0.00000000000E+00  0.14999999963E+04  0.15000000000E+04  0.10566000000E+00 0. -1.
        994   -1    0    0    0    0 -0.00000000000E+00 -0.00000000000E+00  0.11368683772E-12  0.17120000000E+03  0.17120000000E+03 0.  0.
         13    1    1    2    0    0 -0.42525411465E+02 -0.72648693115E+02  0.30156978446E+03  0.31309836999E+03  0.10566000000E+00 0. -1.
        994    1    1    2    0    0  0.48163688775E+02  0.89461752162E+02  0.44500515593E+02  0.20399235747E+03  0.17120000000E+03 0.  0.
        998    1    1    2    0    0 -0.56382773093E+01 -0.16813059047E+02  0.11539296962E+04  0.11541092725E+04  0.10000000000E+02 0. -1.
</event>
<event>
 5    1  0.1252319E-008  0.3767257E+03  0.7957747E-01  0.3465541E+00
         13   -1    0    0    0    0  0.00000000000E+00  0.00000000000E+00  0.14999999963E+04  0.15000000000E+04  0.10566000000E+00 0.  1.
        994   -1    0    0    0    0 -0.00000000000E+00 -0.00000000000E+00  0.11368683772E-12  0.17120000000E+03  0.17120000000E+03 0.  0.
         13    1    1    2    0    0  0.79023799325E+01 -0.73890485983E+01  0.74168680142E+01  0.13117421353E+02  0.10566000000E+00 0.  1.
        994    1    1    2    0    0 -0.69611066418E+01  0.77077519964E+01  0.61598380124E+01  0.17162531879E+03  0.17120000000E+03 0.  0.
        998    1    1    2    0    0 -0.94127329063E+00 -0.31870339804E+00  0.14864232903E+04  0.14864572599E+04  0.10000000000E+02 0.  1.
</event>
<event>
 5    1  0.1252319E-008  0.3769961E+03  0.7957747E-01  0.3464343E+00
         13   -1    0    0    0    0  0.00000000000E+00  0.00000000000E+00  0.14999999963E+04  0.15000000000E+04  0.10566000000E+00 0.  1.
        994   -1    0    0    0    0 -0.00000000000E+00 -0.00000000000E+00  0.11368683772E-12  0.17120000000E+03  0.17120000000E+03 0.  0.
         13    1    1    2    0    0  0.38283581120E+02  0.20590153772E+02  0.21763563561E+03  0.22193437784E+03  0.10566000000E+00 0.  1.
        994    1    1    2    0    0  0.18143397563E+02 -0.46279834660E+01  0.68419408596E+01  0.17235676158E+03  0.17120000000E+03 0.  0.
        998    1    1    2    0    0 -0.56426978683E+02 -0.15962170306E+02  0.12755224198E+04  0.12769088606E+04  0.10000000000E+02 0.  1.
</event>
<event>
 5    1  0.1252319E-008  0.3837252E+03  0.7957747E-01  0.3435097E+00
         13   -1    0    0    0    0  0.00000000000E+00  0.00000000000E+00  0.14999999963E+04  0.15000000000E+04  0.10566000000E+00 0. -1.
        994   -1    0    0    0    0 -0.00000000000E+00 -0.00000000000E+00  0.11368683772E-12  0.17120000000E+03  0.17120000000E+03 0.  0.
         13    1    1    2    0    0 -0.12441428378E+02 -0.68722192023E+01  0.46782473639E+02  0.48894044020E+02  0.10566000000E+00 0. -1.
        994    1    1    2    0    0 -0.91996036047E+01  0.97749049035E+01  0.28596192494E+01  0.17174923259E+03  0.17120000000E+03 0.  0.
        998    1    1    2    0    0  0.21641031983E+02 -0.29026857011E+01  0.14503579034E+04  0.14505567234E+04  0.10000000000E+02 0. -1.
</event>
<event>
 5    1  0.1252319E-008  0.3733895E+03  0.7957747E-01  0.3480457E+00
         13   -1    0    0    0    0  0.00000000000E+00  0.00000000000E+00  0.14999999963E+04  0.15000000000E+04  0.10566000000E+00 0.  1.
        994   -1    0    0    0    0 -0.00000000000E+00 -0.00000000000E+00  0.11368683772E-12  0.17120000000E+03  0.17120000000E+03 0.  0.
         13    1    1    2    0    0  0.16688600877E+02 -0.54540310332E+01  0.17859136921E+02  0.25044276579E+02  0.10566000000E+00 0.  1.
        994    1    1    2    0    0 -0.10557450690E+02 -0.43554020734E+02  0.14403651077E+02  0.17755370357E+03  0.17120000000E+03 0.  0.
        998    1    1    2    0    0 -0.61311501874E+01  0.49008051767E+02  0.14677372083E+04  0.14686020199E+04  0.10000000000E+02 0.  1.
</event>
<event>
 5    1  0.1252319E-008  0.3713292E+03  0.7957747E-01  0.3489805E+00
         13   -1    0    0    0    0  0.00000000000E+00  0.00000000000E+00  0.14999999963E+04  0.15000000000E+04  0.10566000000E+00 0.  1.
        994   -1    0    0    0    0 -0.00000000000E+00 -0.00000000000E+00  0.11368683772E-12  0.17120000000E+03  0.17120000000E+03 0.  0.
         13    1    1    2    0    0 -0.74685836897E+02 -0.15618580856E+03  0.64623192142E+03  0.66901994623E+03  0.10566000000E+00 0.  1.
        994    1    1    2    0    0  0.65384084557E+02  0.16019331117E+03  0.12565200612E+03  0.27392488405E+03  0.17120000000E+03 0.  0.
        998    1    1    2    0    0  0.93017523399E+01 -0.40075026157E+01  0.72811606874E+03  0.72825516973E+03  0.10000000000E+02 0.  0.
</event>
<event>
 5    1  0.1252319E-008  0.3762787E+03  0.7957747E-01  0.3467524E+00
         13   -1    0    0    0    0  0.00000000000E+00  0.00000000000E+00  0.14999999963E+04  0.15000000000E+04  0.10566000000E+00 0.  1.
        994   -1    0    0    0    0 -0.00000000000E+00 -0.00000000000E+00  0.11368683772E-12  0.17120000000E+03  0.17120000000E+03 0.  0.
         13    1    1    2    0    0  0.54992965112E+01  0.64972044159E+02  0.25957356478E+03  0.26763791862E+03  0.10566000000E+00 0.  1.
        994    1    1    2    0    0  0.24145119380E+02 -0.84143848005E+02  0.32417687616E+02  0.19499620616E+03  0.17120000000E+03 0.  0.
        998    1    1    2    0    0 -0.29644415891E+02  0.19171803846E+02  0.12080087439E+04  0.12085658752E+04  0.10000000000E+02 0.  1.
</event>
<event>
 5    1  0.1252319E-008  0.3847565E+03  0.7957747E-01  0.3430706E+00
         13   -1    0    0    0    0  0.00000000000E+00  0.00000000000E+00  0.14999999963E+04  0.15000000000E+04  0.10566000000E+00 0.  1.
        994   -1    0    0    0    0 -0.00000000000E+00 -0.00000000000E+00  0.11368683772E-12  0.17120000000E+03  0.17120000000E+03 0.  0.
         13    1    1    2    0    0  0.39611437586E+01 -0.13505661135E+02  0.60327530223E+02  0.61947684455E+02  0.10566000000E+00 0.  1.
        994    1    1    2    0    0  0.12128910527E+02  0.17765895438E+01  0.22458253871E+01  0.17165299436E+03  0.17120000000E+03 0.  0.
        998    1    1    2    0    0 -0.16090054285E+02  0.11729071591E+02  0.14374266407E+04  0.14375993212E+04  0.10000000000E+02 0.  1.
</event>
<event>
 5    1  0.1252319E-008  0.3808667E+03  0.7957747E-01  0.3447394E+00
         13   -1    0    0    0    0  0.00000000000E+00  0.00000000000E+00  0.14999999963E+04  0.15000000000E+04  0.10566000000E+00 0.  1.
        994   -1    0    0    0    0 -0.00000000000E+00 -0.00000000000E+00  0.11368683772E-12  0.17120000000E+03  0.17120000000E+03 0.  0.
         13    1    1    2    0    0  0.25383176819E+02  0.66228655262E+01  0.85541745962E+02  0.89473848020E+02  0.10566000000E+00 0.  1.
        994    1    1    2    0    0 -0.28451583035E+02 -0.11673598562E+02  0.68552975048E+01  0.17407527275E+03  0.17120000000E+03 0.  0.
        998    1    1    2    0    0  0.30684062156E+01  0.50507330356E+01  0.14076029528E+04  0.14076508792E+04  0.10000000000E+02 0.  1.
</event>
<event>
 5    1  0.1252319E-008  0.3694505E+03  0.7957747E-01  0.3498420E+00
         13   -1    0    0    0    0  0.00000000000E+00  0.00000000000E+00  0.14999999963E+04  0.15000000000E+04  0.10566000000E+00 0. -1.
        994   -1    0    0    0    0 -0.00000000000E+00 -0.00000000000E+00  0.11368683772E-12  0.17120000000E+03  0.17120000000E+03 0.  0.
         13    1    1    2    0    0 -0.53622309012E+01  0.39503948876E+02  0.10141551110E+03  0.10896986993E+03  0.10566000000E+00 0. -1.
        994    1    1    2    0    0 -0.93724426194E+01  0.37930966912E+02  0.14863618765E+02  0.17622987288E+03  0.17120000000E+03 0.  0.
        998    1    1    2    0    0  0.14734673521E+02 -0.77434915787E+02  0.13837208664E+04  0.13860002572E+04  0.10000000000E+02 0. -1.
</event>
<event>
 5    1  0.1252319E-008  0.3811958E+03  0.7957747E-01  0.3445968E+00
         13   -1    0    0    0    0  0.00000000000E+00  0.00000000000E+00  0.14999999963E+04  0.15000000000E+04  0.10566000000E+00 0. -1.
        994   -1    0    0    0    0 -0.00000000000E+00 -0.00000000000E+00  0.11368683772E-12  0.17120000000E+03  0.17120000000E+03 0.  0.
         13    1    1    2    0    0  0.13236815320E+02  0.18346640509E+02  0.80339675328E+02  0.83464286336E+02  0.10566000000E+00 0. -1.
        994    1    1    2    0    0  0.73990616129E+01  0.64367609804E+01  0.38510679166E+01  0.17152390133E+03  0.17120000000E+03 0.  0.
        998    1    1    2    0    0 -0.20635876933E+02 -0.24783401489E+02  0.14158092530E+04  0.14162118123E+04  0.10000000000E+02 0. -1.
</event>
<event>
 5    1  0.1252319E-008  0.3828707E+03  0.7957747E-01  0.3438753E+00
         13   -1    0    0    0    0  0.00000000000E+00  0.00000000000E+00  0.14999999963E+04  0.15000000000E+04  0.10566000000E+00 0.  1.
        994   -1    0    0    0    0 -0.00000000000E+00 -0.00000000000E+00  0.11368683772E-12  0.17120000000E+03  0.17120000000E+03 0.  0.
         13    1    1    2    0    0 -0.18125579731E+02 -0.13136790511E+02  0.94363643688E+02  0.96982577402E+02  0.10566000000E+00 0.  1.
        994    1    1    2    0    0  0.16024992543E+02 -0.41645892335E+01  0.35993579710E+01  0.17203644837E+03  0.17120000000E+03 0.  0.
        998    1    1    2    0    0  0.21005871884E+01  0.17301379744E+02  0.14020369946E+04  0.14021809742E+04  0.10000000000E+02 0.  1.
</event>
<event>
 5    1  0.1252319E-008  0.3775704E+03  0.7957747E-01  0.3461806E+00
         13   -1    0    0    0    0  0.00000000000E+00  0.00000000000E+00  0.14999999963E+04  0.15000000000E+04  0.10566000000E+00 0.  1.
        994   -1    0    0    0    0 -0.00000000000E+00 -0.00000000000E+00  0.11368683772E-12  0.17120000000E+03  0.17120000000E+03 0.  0.
         13    1    1    2    0    0  0.15553079628E+02  0.23928020335E+02  0.72392163497E+02  0.77814426316E+02  0.10566000000E+00 0.  1.
        994    1    1    2    0    0 -0.14156847049E+02 -0.18521347425E+02  0.71982221418E+01  0.17292978642E+03  0.17120000000E+03 0.  0.
        998    1    1    2    0    0 -0.13962325796E+01 -0.54066729104E+01  0.14204096106E+04  0.14204557873E+04  0.10000000000E+02 0.  1.
</event>
<event>
 5    1  0.1252319E-008  0.3700676E+03  0.7957747E-01  0.3495580E+00
         13   -1    0    0    0    0  0.00000000000E+00  0.00000000000E+00  0.14999999963E+04  0.15000000000E+04  0.10566000000E+00 0.  1.
        994   -1    0    0    0    0 -0.00000000000E+00 -0.00000000000E+00  0.11368683772E-12  0.17120000000E+03  0.17120000000E+03 0.  0.
         13    1    1    2    0    0 -0.32168343784E+02  0.36499422587E+02  0.98992861285E+02  0.11030234785E+03  0.10566000000E+00 0.  1.
        994    1    1    2    0    0  0.28911626384E+02 -0.34441807795E+02  0.18079119868E+02  0.17792811706E+03  0.17120000000E+03 0.  0.
        998    1    1    2    0    0  0.32567174000E+01 -0.20576147922E+01  0.13829280151E+04  0.13829695351E+04  0.10000000000E+02 0.  1.
</event>
<event>
 5    1  0.1252319E-008  0.3740933E+03  0.7957747E-01  0.3477288E+00
         13   -1    0    0    0    0  0.00000000000E+00  0.00000000000E+00  0.14999999963E+04  0.15000000000E+04  0.10566000000E+00 0. -1.
        994   -1    0    0    0    0 -0.00000000000E+00 -0.00000000000E+00  0.11368683772E-12  0.17120000000E+03  0.17120000000E+03 0.  0.
         13    1    1    2    0    0  0.61336898232E+01  0.11912897450E+02  0.92295650921E+01  0.16270688748E+02  0.10566000000E+00 0. -1.
        994    1    1    2    0    0 -0.11888872745E+02 -0.10828994119E+02  0.80273077219E+01  0.17214090182E+03  0.17120000000E+03 0.  0.
        998    1    1    2    0    0  0.57551829220E+01 -0.10839033311E+01  0.14827431235E+04  0.14827884094E+04  0.10000000000E+02 0. -1.
</event>
<event>
 5    1  0.1252319E-008  0.3807230E+03  0.7957747E-01  0.3448016E+00
         13   -1    0    0    0    0  0.00000000000E+00  0.00000000000E+00  0.14999999963E+04  0.15000000000E+04  0.10566000000E+00 0. -1.
        994   -1    0    0    0    0 -0.00000000000E+00 -0.00000000000E+00  0.11368683772E-12  0.17120000000E+03  0.17120000000E+03 0.  0.
         13    1    1    2    0    0 -0.90700367322E+02 -0.10359387482E+02  0.18778008484E+03  0.20879474363E+03  0.10566000000E+00 0. -1.
        994    1    1    2    0    0  0.11866129121E+03  0.71465966609E+01  0.70058126318E+02  0.21988441723E+03  0.17120000000E+03 0.  0.
        998    1    1    2    0    0 -0.27960923891E+02  0.32127908207E+01  0.12421617851E+04  0.12425208391E+04  0.10000000000E+02 0. -1.
</event>
<event>
 5    1  0.1252319E-008  0.3792692E+03  0.7957747E-01  0.3454347E+00
         13   -1    0    0    0    0  0.00000000000E+00  0.00000000000E+00  0.14999999963E+04  0.15000000000E+04  0.10566000000E+00 0.  1.
        994   -1    0    0    0    0 -0.00000000000E+00 -0.00000000000E+00  0.11368683772E-12  0.17120000000E+03  0.17120000000E+03 0.  0.
         13    1    1    2    0    0  0.27695533008E+02 -0.13164545224E+02  0.10431852435E+03  0.10873230195E+03  0.10566000000E+00 0.  1.
        994    1    1    2    0    0 -0.10451765272E+02  0.14975808194E+02  0.56208927403E+01  0.17226302175E+03  0.17120000000E+03 0.  0.
        998    1    1    2    0    0 -0.17243767736E+02 -0.18112629700E+01  0.13900605792E+04  0.13902046763E+04  0.10000000000E+02 0.  1.
</event>
<event>
 5    1  0.1252319E-008  0.3827582E+03  0.7957747E-01  0.3439236E+00
         13   -1    0    0    0    0  0.00000000000E+00  0.00000000000E+00  0.14999999963E+04  0.15000000000E+04  0.10566000000E+00 0.  1.
        994   -1    0    0    0    0 -0.00000000000E+00 -0.00000000000E+00  0.11368683772E-12  0.17120000000E+03  0.17120000000E+03 0.  0.
         13    1    1    2    0    0 -0.95633943102E+01 -0.67114186793E+01  0.23925404320E+02  0.26625885663E+02  0.10566000000E+00 0.  1.
        994    1    1    2    0    0  0.72479923765E+01  0.18596087421E+01  0.29327704173E+01  0.17138854303E+03  0.17120000000E+03 0.  0.
        998    1    1    2    0    0  0.23154019337E+01  0.48518099372E+01  0.14731418215E+04  0.14731855713E+04  0.10000000000E+02 0.  1.
</event>
<event>
 5    1  0.1252319E-008  0.3753199E+03  0.7957747E-01  0.3471793E+00
         13   -1    0    0    0    0  0.00000000000E+00  0.00000000000E+00  0.14999999963E+04  0.15000000000E+04  0.10566000000E+00 0.  1.
        994   -1    0    0    0    0 -0.00000000000E+00 -0.00000000000E+00  0.11368683772E-12  0.17120000000E+03  0.17120000000E+03 0.  0.
         13    1    1    2    0    0  0.15047600085E+02 -0.48130365227E+01  0.39795267244E+01  0.16292433394E+02  0.10566000000E+00 0.  1.
        994    1    1    2    0    0  0.95829508830E+02 -0.24460940623E+02  0.49503655997E+02  0.20381777237E+03  0.17120000000E+03 0.  0.
        998    1    1    2    0    0 -0.11087710892E+03  0.29273977145E+02  0.14465168136E+04  0.14510897942E+04  0.10000000000E+02 0.  1.
</event>
<event>
 5    1  0.1252319E-008  0.3782406E+03  0.7957747E-01  0.3458855E+00
         13   -1    0    0    0    0  0.00000000000E+00  0.00000000000E+00  0.14999999963E+04  0.15000000000E+04  0.10566000000E+00 0. -1.
        994   -1    0    0    0    0 -0.00000000000E+00 -0.00000000000E+00  0.11368683772E-12  0.17120000000E+03  0.17120000000E+03 0.  0.
         13    1    1    2    0    0  0.85271391355E+01  0.13496429271E+02  0.23069106856E+02  0.28054599624E+02  0.10566000000E+00 0. -1.
        994    1    1    2    0    0 -0.13172082155E+02 -0.85384323142E+01  0.58529117374E+01  0.17201774661E+03  0.17120000000E+03 0.  0.
        998    1    1    2    0    0  0.46449430195E+01 -0.49579969568E+01  0.14710779777E+04  0.14711276538E+04  0.10000000000E+02 0. -1.
</event>
<event>
 5    1  0.1252319E-008  0.3816089E+03  0.7957747E-01  0.3444183E+00
         13   -1    0    0    0    0  0.00000000000E+00  0.00000000000E+00  0.14999999963E+04  0.15000000000E+04  0.10566000000E+00 0.  1.
        994   -1    0    0    0    0 -0.00000000000E+00 -0.00000000000E+00  0.11368683772E-12  0.17120000000E+03  0.17120000000E+03 0.  0.
         13    1    1    2    0    0  0.19766937392E+02 -0.49853875216E+02  0.29690511367E+03  0.30170979164E+03  0.10566000000E+00 0.  1.
        994    1    1    2    0    0 -0.19822489171E+02  0.66981602061E+02  0.19722118165E+02  0.18595125177E+03  0.17120000000E+03 0.  0.
        998    1    1    2    0    0  0.55551779172E-01 -0.17127726845E+02  0.11833727644E+04  0.11835389566E+04  0.10000000000E+02 0.  0.
</event>
<event>
 5    1  0.1252319E-008  0.3815519E+03  0.7957747E-01  0.3444429E+00
         13   -1    0    0    0    0  0.00000000000E+00  0.00000000000E+00  0.14999999963E+04  0.15000000000E+04  0.10566000000E+00 0.  1.
        994   -1    0    0    0    0 -0.00000000000E+00 -0.00000000000E+00  0.11368683772E-12  0.17120000000E+03  0.17120000000E+03 0.  0.
         13    1    1    2    0    0 -0.24763119838E+01  0.17547601657E+02  0.46607657006E+02  0.49863165769E+02  0.10566000000E+00 0.  1.
        994    1    1    2    0    0 -0.96593361593E+01 -0.79675304935E+01  0.38734373026E+01  0.17170098379E+03  0.17120000000E+03 0.  0.
        998    1    1    2    0    0  0.12135648143E+02 -0.95800711634E+01  0.14495189020E+04  0.14496358504E+04  0.10000000000E+02 0.  1.
</event>
<event>
 5    1  0.1252319E-008  0.3808560E+03  0.7957747E-01  0.3447440E+00
         13   -1    0    0    0    0  0.00000000000E+00  0.00000000000E+00  0.14999999963E+04  0.15000000000E+04  0.10566000000E+00 0.  1.
        994   -1    0    0    0    0 -0.00000000000E+00 -0.00000000000E+00  0.11368683772E-12  0.17120000000E+03  0.17120000000E+03 0.  0.
         13    1    1    2    0    0 -0.20796854361E+02  0.15306336516E+03  0.50881431987E+03  0.53174517034E+03  0.10566000000E+00 0.  1.
        994    1    1    2    0    0  0.67046406332E+01 -0.13611549064E+03  0.87850607615E+02  0.23579556454E+03  0.17120000000E+03 0.  0.
        998    1    1    2    0    0  0.14092213728E+02 -0.16947874522E+02  0.90333506879E+03  0.90365926512E+03  0.10000000000E+02 0.  1.
</event>
<event>
 5    1  0.1252319E-008  0.3777829E+03  0.7957747E-01  0.3460870E+00
         13   -1    0    0    0    0  0.00000000000E+00  0.00000000000E+00  0.14999999963E+04  0.15000000000E+04  0.10566000000E+00 0. -1.
        994   -1    0    0    0    0 -0.00000000000E+00 -0.00000000000E+00  0.11368683772E-12  0.17120000000E+03  0.17120000000E+03 0.  0.
         13    1    1    2    0    0 -0.78759047863E+01 -0.31878576053E+02  0.98687660879E+02  0.10400739907E+03  0.10566000000E+00 0. -1.
        994    1    1    2    0    0  0.34664766835E+01  0.24263274310E+02  0.72821696538E+01  0.17309879530E+03  0.17120000000E+03 0.  0.
        998    1    1    2    0    0  0.44094281028E+01  0.76153017435E+01  0.13940301657E+04  0.13940938056E+04  0.10000000000E+02 0. -1.
</event>
<event>
 5    1  0.1252319E-008  0.3076683E+03  0.7957747E-01  0.3842751E+00
         13   -1    0    0    0    0  0.00000000000E+00  0.00000000000E+00  0.14999999963E+04  0.15000000000E+04  0.10566000000E+00 0. -1.
        994   -1    0    0    0    0 -0.00000000000E+00 -0.00000000000E+00  0.11368683772E-12  0.17120000000E+03  0.17120000000E+03 0.  0.
         13    1    1    2    0    0 -0.19521586669E+03  0.32193376890E+02  0.70023048126E+03  0.72764578345E+03  0.10566000000E+00 0. -1.
        994    1    1    2    0    0  0.18541170609E+03  0.41654884221E+01  0.15203834406E+03  0.29465225286E+03  0.17120000000E+03 0.  0.
        998    1    1    2    0    0  0.98041605987E+01 -0.36358865312E+02  0.64773117095E+03  0.64890196369E+03  0.10000000000E+02 0. -1.
</event>
<event>
 5    1  0.1252319E-008  0.2967355E+03  0.7957747E-01  0.3919604E+00
         13   -1    0    0    0    0  0.00000000000E+00  0.00000000000E+00  0.14999999963E+04  0.15000000000E+04  0.10566000000E+00 0.  1.
        994   -1    0    0    0    0 -0.00000000000E+00 -0.00000000000E+00  0.11368683772E-12  0.17120000000E+03  0.17120000000E+03 0.  0.
         13    1    1    2    0    0  0.98227293006E+02 -0.13521905327E+03  0.68660409950E+03  0.70665266862E+03  0.10566000000E+00 0.  1.
        994    1    1    2    0    0 -0.10615477948E+03  0.93020545687E+02  0.89406120317E+02  0.23921654097E+03  0.17120000000E+03 0.  0.
        998    1    1    2    0    0  0.79274864702E+01  0.42198507584E+02  0.72398977646E+03  0.72533079040E+03  0.10000000000E+02 0. -1.
</event>
<event>
 5    1  0.1252319E-008  0.3726068E+03  0.7957747E-01  0.3483996E+00
         13   -1    0    0    0    0  0.00000000000E+00  0.00000000000E+00  0.14999999963E+04  0.15000000000E+04  0.10566000000E+00 0.  1.
        994   -1    0    0    0    0 -0.00000000000E+00 -0.00000000000E+00  0.11368683772E-12  0.17120000000E+03  0.17120000000E+03 0.  0.
         13    1    1    2    0    0 -0.23265093334E+02  0.16342412243E+01  0.29936629942E+02  0.37949285745E+02  0.10566000000E+00 0.  1.
        994    1    1    2    0    0  0.31816936307E+02  0.13503993489E+02  0.12017860633E+02  0.17506725636E+03  0.17120000000E+03 0.  0.
        998    1    1    2    0    0 -0.85518429734E+01 -0.15138234713E+02  0.14580455057E+04  0.14581834579E+04  0.10000000000E+02 0.  1.
</event>
<event>
 5    1  0.1252319E-008  0.3823029E+03  0.7957747E-01  0.3441192E+00
         13   -1    0    0    0    0  0.00000000000E+00  0.00000000000E+00  0.14999999963E+04  0.15000000000E+04  0.10566000000E+00 0.  1.
        994   -1    0    0    0    0 -0.00000000000E+00 -0.00000000000E+00  0.11368683772E-12  0.17120000000E+03  0.17120000000E+03 0.  0.
         13    1    1    2    0    0 -0.10607190055E+01 -0.12762882476E+02  0.24601621495E+02  0.27735667256E+02  0.10566000000E+00 0.  1.
        994    1    1    2    0    0  0.84118665788E+01  0.30874697796E+02  0.63799260707E+01  0.17428181179E+03  0.17120000000E+03 0.  0.
        998    1    1    2    0    0 -0.73511475732E+01 -0.18111815320E+02  0.14690184487E+04  0.14691825210E+04  0.10000000000E+02 0.  1.
</event>
<event>
 5    1  0.1252319E-008  0.3845746E+03  0.7957747E-01  0.3431479E+00
         13   -1    0    0    0    0  0.00000000000E+00  0.00000000000E+00  0.14999999963E+04  0.15000000000E+04  0.10566000000E+00 0.  1.
        994   -1    0    0    0    0 -0.00000000000E+00 -0.00000000000E+00  0.11368683772E-12  0.17120000000E+03  0.17120000000E+03 0.  0.
         13    1    1    2    0    0 -0.10822275878E+02  0.25300075287E+02  0.16352056926E+03  0.16581979134E+03  0.10566000000E+00 0.  1.
        994    1    1    2    0    0 -0.13237105088E+02 -0.53010466196E+02  0.11735368870E+02  0.18009022561E+03  0.17120000000E+03 0.  0.
        998    1    1    2    0    0  0.24059380967E+02  0.27710390909E+02  0.13247440581E+04  0.13252899831E+04  0.10000000000E+02 0.  1.
</event>
<event>
 5    1  0.1252319E-008  0.3847018E+03  0.7957747E-01  0.3430938E+00
         13   -1    0    0    0    0  0.00000000000E+00  0.00000000000E+00  0.14999999963E+04  0.15000000000E+04  0.10566000000E+00 0. -1.
        994   -1    0    0    0    0 -0.00000000000E+00 -0.00000000000E+00  0.11368683772E-12  0.17120000000E+03  0.17120000000E+03 0.  0.
         13    1    1    2    0    0 -0.71870660706E+01 -0.91660192269E+01  0.41076118605E+02  0.42695766896E+02  0.10566000000E+00 0. -1.
        994    1    1    2    0    0  0.12841106288E+02 -0.20386731762E+02  0.36915408759E+01  0.17292651710E+03  0.17120000000E+03 0.  0.
        998    1    1    2    0    0 -0.56540402178E+01  0.29552750989E+02  0.14552323368E+04  0.14555777160E+04  0.10000000000E+02 0. -1.
</event>
<event>
 5    1  0.1252319E-008  0.3769954E+03  0.7957747E-01  0.3464347E+00
         13   -1    0    0    0    0  0.00000000000E+00  0.00000000000E+00  0.14999999963E+04  0.15000000000E+04  0.10566000000E+00 0.  1.
        994   -1    0    0    0    0 -0.00000000000E+00 -0.00000000000E+00  0.11368683772E-12  0.17120000000E+03  0.17120000000E+03 0.  0.
         13    1    1    2    0    0 -0.33946580098E+02  0.27842983195E+02  0.17037225756E+03  0.17593839639E+03  0.10566000000E+00 0.  1.
        994    1    1    2    0    0  0.12643865804E+02 -0.22067945577E+02  0.78448043017E+01  0.17325658002E+03  0.17120000000E+03 0.  0.
        998    1    1    2    0    0  0.21302714293E+02 -0.57750376181E+01  0.13217829344E+04  0.13220050236E+04  0.10000000000E+02 0.  1.
</event>
<event>
 5    1  0.1252319E-008  0.3831891E+03  0.7957747E-01  0.3437389E+00
         13   -1    0    0    0    0  0.00000000000E+00  0.00000000000E+00  0.14999999963E+04  0.15000000000E+04  0.10566000000E+00 0.  1.
        994   -1    0    0    0    0 -0.00000000000E+00 -0.00000000000E+00  0.11368683772E-12  0.17120000000E+03  0.17120000000E+03 0.  0.
         13    1    1    2    0    0 -0.14452676180E+02 -0.15955005816E+02  0.92062625475E+02  0.94546180424E+02  0.10566000000E+00 0.  1.
        994    1    1    2    0    0  0.11394893834E+02  0.49557037357E+01  0.30428425689E+01  0.17167731794E+03  0.17120000000E+03 0.  0.
        998    1    1    2    0    0  0.30577823463E+01  0.10999302080E+02  0.14048945282E+04  0.14049765016E+04  0.10000000000E+02 0.  1.
</event>
<event>
 5    1  0.1252319E-008  0.3828295E+03  0.7957747E-01  0.3438930E+00
         13   -1    0    0    0    0  0.00000000000E+00  0.00000000000E+00  0.14999999963E+04  0.15000000000E+04  0.10566000000E+00 0.  1.
        994   -1    0    0    0    0 -0.00000000000E+00 -0.00000000000E+00  0.11368683772E-12  0.17120000000E+03  0.17120000000E+03 0.  0.
         13    1    1    2    0    0 -0.19842365933E+02  0.14743295158E+02  0.14627027596E+03  0.14834449444E+03  0.10566000000E+00 0.  1.
        994    1    1    2    0    0 -0.26436198876E+01  0.26658598221E+02  0.50920937920E+01  0.17335812356E+03  0.17120000000E+03 0.  0.
        998    1    1    2    0    0  0.22485985820E+02 -0.41401893379E+02  0.13486376265E+04  0.13494973820E+04  0.10000000000E+02 0. -1.
</event>
<event>
 5    1  0.1252319E-008  0.3855730E+03  0.7957747E-01  0.3427246E+00
         13   -1    0    0    0    0  0.00000000000E+00  0.00000000000E+00  0.14999999963E+04  0.15000000000E+04  0.10566000000E+00 0. -1.
        994   -1    0    0    0    0 -0.00000000000E+00 -0.00000000000E+00  0.11368683772E-12  0.17120000000E+03  0.17120000000E+03 0.  0.
         13    1    1    2    0    0 -0.31988075860E+01  0.11256790294E+02  0.51364489394E+02  0.52680827940E+02  0.10566000000E+00 0. -1.
        994    1    1    2    0    0  0.25692775716E+01 -0.67293997214E+01  0.15162825109E+01  0.17135817786E+03  0.17120000000E+03 0.  0.
        998    1    1    2    0    0  0.62953001433E+00 -0.45273905730E+01  0.14471192244E+04  0.14471609942E+04  0.10000000000E+02 0. -1.
</event>
<event>
 5    1  0.1252319E-008  0.3703805E+03  0.7957747E-01  0.3494144E+00
         13   -1    0    0    0    0  0.00000000000E+00  0.00000000000E+00  0.14999999963E+04  0.15000000000E+04  0.10566000000E+00 0. -1.
        994   -1    0    0    0    0 -0.00000000000E+00 -0.00000000000E+00  0.11368683772E-12  0.17120000000E+03  0.17120000000E+03 0.  0.
         13    1    1    2    0    0  0.25679664818E+02  0.17818630926E+02  0.51881355374E+02  0.60569257819E+02  0.10566000000E+00 0. -1.
        994    1    1    2    0    0 -0.31213591730E+01 -0.14123332883E+02  0.97930941351E+01  0.17208880297E+03  0.17120000000E+03 0.  0.
        998    1    1    2    0    0 -0.22558305645E+02 -0.36952980429E+01  0.14383255468E+04  0.14385419392E+04  0.10000000000E+02 0. -1.
</event>
<event>
 5    1  0.1252319E-008  0.3855691E+03  0.7957747E-01  0.3427262E+00
         13   -1    0    0    0    0  0.00000000000E+00  0.00000000000E+00  0.14999999963E+04  0.15000000000E+04  0.10566000000E+00 0. -1.
        994   -1    0    0    0    0 -0.00000000000E+00 -0.00000000000E+00  0.11368683772E-12  0.17120000000E+03  0.17120000000E+03 0.  0.
         13    1    1    2    0    0 -0.10538906144E+02  0.73827253671E+01  0.63685738915E+02  0.64972745684E+02  0.10566000000E+00 0. -1.
        994    1    1    2    0    0  0.91537751549E+01  0.56042561241E+01  0.17261068004E+01  0.17154480094E+03  0.17120000000E+03 0.  0.
        998    1    1    2    0    0  0.13851309889E+01 -0.12986981491E+02  0.14345881506E+04  0.14346824534E+04  0.10000000000E+02 0. -1.
</event>
<event>
 5    1  0.1252319E-008  0.3790585E+03  0.7957747E-01  0.3455268E+00
         13   -1    0    0    0    0  0.00000000000E+00  0.00000000000E+00  0.14999999963E+04  0.15000000000E+04  0.10566000000E+00 0.  1.
        994   -1    0    0    0    0 -0.00000000000E+00 -0.00000000000E+00  0.11368683772E-12  0.17120000000E+03  0.17120000000E+03 0.  0.
         13    1    1    2    0    0 -0.10279167449E+02 -0.17629763821E+02  0.42845248369E+02  0.47457310582E+02  0.10566000000E+00 0.  1.
        994    1    1    2    0    0  0.81420015965E+01  0.15261924966E+02  0.56132063946E+01  0.17216319766E+03  0.17120000000E+03 0.  0.
        998    1    1    2    0    0  0.21371658525E+01  0.23678388556E+01  0.14515415415E+04  0.14515794918E+04  0.10000000000E+02 0.  1.
</event>
<event>
 5    1  0.1252319E-008  0.2908391E+03  0.7957747E-01  0.3963671E+00
         13   -1    0    0    0    0  0.00000000000E+00  0.00000000000E+00  0.14999999963E+04  0.15000000000E+04  0.10566000000E+00 0. -1.
        994   -1    0    0    0    0 -0.00000000000E+00 -0.00000000000E+00  0.11368683772E-12  0.17120000000E+03  0.17120000000E+03 0.  0.
         13    1    1    2    0    0  0.48553535272E+02 -0.16472006904E+03  0.59550120030E+03  0.61976756744E+03  0.10566000000E+00 0. -1.
        994    1    1    2    0    0 -0.46616395936E+02  0.16564910293E+03  0.12716469732E+03  0.27403104553E+03  0.17120000000E+03 0.  0.
        998    1    1    2    0    0 -0.19371393362E+01 -0.92903388127E+00  0.77733409866E+03  0.77740138703E+03  0.10000000000E+02 0.  0.
</event>
<event>
 5    1  0.1252319E-008  0.3853289E+03  0.7957747E-01  0.3428279E+00
         13   -1    0    0    0    0  0.00000000000E+00  0.00000000000E+00  0.14999999963E+04  0.15000000000E+04  0.10566000000E+00 0.  1.
        994   -1    0    0    0    0 -0.00000000000E+00 -0.00000000000E+00  0.11368683772E-12  0.17120000000E+03  0.17120000000E+03 0.  0.
         13    1    1    2    0    0 -0.10402911183E+02  0.69347149697E+01  0.55570563258E+02  0.56959718202E+02  0.10566000000E+00 0.  1.
        994    1    1    2    0    0 -0.42487072993E+01 -0.10234498029E+02  0.18704432143E+01  0.17156845579E+03  0.17120000000E+03 0.  0.
        998    1    1    2    0    0  0.14651618482E+02  0.32997830596E+01  0.14425589898E+04  0.14426718260E+04  0.10000000000E+02 0.  1.
</event>
<event>
 5    1  0.1252319E-008  0.3843750E+03  0.7957747E-01  0.3432327E+00
         13   -1    0    0    0    0  0.00000000000E+00  0.00000000000E+00  0.14999999963E+04  0.15000000000E+04  0.10566000000E+00 0.  1.
        994   -1    0    0    0    0 -0.00000000000E+00 -0.00000000000E+00  0.11368683772E-12  0.17120000000E+03  0.17120000000E+03 0.  0.
         13    1    1    2    0    0 -0.48727173455E+01  0.20901571652E+02  0.11726260663E+03  0.11921052449E+03  0.10566000000E+00 0.  1.
        994    1    1    2    0    0 -0.13998847843E+01 -0.15319550351E+02  0.27209801908E+01  0.17191129118E+03  0.17120000000E+03 0.  0.
        998    1    1    2    0    0  0.62726021298E+01 -0.55820213012E+01  0.13800164095E+04  0.13800781843E+04  0.10000000000E+02 0.  1.
</event>
<event>
 5    1  0.1252319E-008  0.3827882E+03  0.7957747E-01  0.3439107E+00
         13   -1    0    0    0    0  0.00000000000E+00  0.00000000000E+00  0.14999999963E+04  0.15000000000E+04  0.10566000000E+00 0.  1.
        994   -1    0    0    0    0 -0.00000000000E+00 -0.00000000000E+00  0.11368683772E-12  0.17120000000E+03  0.17120000000E+03 0.  0.
         13    1    1    2    0    0  0.68906316520E+00  0.12603773116E+02  0.28143019003E+02  0.30844295865E+02  0.10566000000E+00 0.  1.
        994    1    1    2    0    0 -0.19562279832E+01 -0.91205506978E+01  0.30205277048E+01  0.17148053785E+03  0.17120000000E+03 0.  0.
        998    1    1    2    0    0  0.12671648180E+01 -0.34832224185E+01  0.14688364496E+04  0.14688751663E+04  0.10000000000E+02 0.  1.
</event>
<event>
 5    1  0.1252319E-008  0.3814929E+03  0.7957747E-01  0.3444684E+00
         13   -1    0    0    0    0  0.00000000000E+00  0.00000000000E+00  0.14999999963E+04  0.15000000000E+04  0.10566000000E+00 0. -1.
        994   -1    0    0    0    0 -0.00000000000E+00 -0.00000000000E+00  0.11368683772E-12  0.17120000000E+03  0.17120000000E+03 0.  0.
         13    1    1    2    0    0 -0.22191760976E+02  0.80699680286E+01  0.80490135026E+02  0.83882487086E+02  0.10566000000E+00 0. -1.
        994    1    1    2    0    0  0.14106325724E+02 -0.10386380965E+02  0.44028725127E+01  0.17215019785E+03  0.17120000000E+03 0.  0.
        998    1    1    2    0    0  0.80854352513E+01  0.23164129360E+01  0.14151069887E+04  0.14151673151E+04  0.10000000000E+02 0. -1.
</event>
<event>
 5    1  0.1252319E-008  0.3800303E+03  0.7957747E-01  0.3451027E+00
         13   -1    0    0    0    0  0.00000000000E+00  0.00000000000E+00  0.14999999963E+04  0.15000000000E+04  0.10566000000E+00 0. -1.
        994   -1    0    0    0    0 -0.00000000000E+00 -0.00000000000E+00  0.11368683772E-12  0.17120000000E+03  0.17120000000E+03 0.  0.
         13    1    1    2    0    0 -0.58913936499E+01  0.12770261220E+02  0.21985998656E+02  0.26099490257E+02  0.10566000000E+00 0. -1.
        994    1    1    2    0    0  0.55595813641E+01 -0.14214647634E+02  0.48969616866E+01  0.17194878710E+03  0.17120000000E+03 0.  0.
        998    1    1    2    0    0  0.33181228585E+00  0.14443864135E+01  0.14731170359E+04  0.14731517226E+04  0.10000000000E+02 0. -1.
</event>
<event>
 5    1  0.1252319E-008  0.3832640E+03  0.7957747E-01  0.3437068E+00
         13   -1    0    0    0    0  0.00000000000E+00  0.00000000000E+00  0.14999999963E+04  0.15000000000E+04  0.10566000000E+00 0.  1.
        994   -1    0    0    0    0 -0.00000000000E+00 -0.00000000000E+00  0.11368683772E-12  0.17120000000E+03  0.17120000000E+03 0.  0.
         13    1    1    2    0    0  0.20898942277E+02  0.85660377206E+01  0.10193306227E+03  0.10440547466E+03  0.10566000000E+00 0.  1.
        994    1    1    2    0    0 -0.10953321849E+02 -0.88881224781E+01  0.31528073794E+01  0.17180906313E+03  0.17120000000E+03 0.  0.
        998    1    1    2    0    0 -0.99456204286E+01  0.32208475746E+00  0.13949141266E+04  0.13949854622E+04  0.10000000000E+02 0.  1.
</event>
<event>
 5    1  0.1252319E-008  0.3860076E+03  0.7957747E-01  0.3425410E+00
         13   -1    0    0    0    0  0.00000000000E+00  0.00000000000E+00  0.14999999963E+04  0.15000000000E+04  0.10566000000E+00 0. -1.
        994   -1    0    0    0    0 -0.00000000000E+00 -0.00000000000E+00  0.11368683772E-12  0.17120000000E+03  0.17120000000E+03 0.  0.
         13    1    1    2    0    0 -0.22456388261E+01 -0.13632611631E+02  0.82791822874E+02  0.83936810116E+02  0.10566000000E+00 0. -1.
        994    1    1    2    0    0  0.16153543537E+01  0.12563213895E+02  0.16567901058E+01  0.17167594085E+03  0.17120000000E+03 0.  0.
        998    1    1    2    0    0  0.63028447240E+00  0.10693977360E+01  0.14155513833E+04  0.14155872490E+04  0.10000000000E+02 0. -1.
</event>
<event>
 5    1  0.1252319E-008  0.3805869E+03  0.7957747E-01  0.3448607E+00
         13   -1    0    0    0    0  0.00000000000E+00  0.00000000000E+00  0.14999999963E+04  0.15000000000E+04  0.10566000000E+00 0. -1.
        994   -1    0    0    0    0 -0.00000000000E+00 -0.00000000000E+00  0.11368683772E-12  0.17120000000E+03  0.17120000000E+03 0.  0.
         13    1    1    2    0    0  0.35232198703E+02 -0.96118004248E+01  0.32872455382E+02  0.49135567766E+02  0.10566000000E+00 0. -1.
        994    1    1    2    0    0 -0.33217475732E+02  0.11062424366E+02  0.21114085137E+02  0.17601426794E+03  0.17120000000E+03 0.  0.
        998    1    1    2    0    0 -0.20147229705E+01 -0.14506239409E+01  0.14460134558E+04  0.14460501643E+04  0.10000000000E+02 0. -1.
</event>
<event>
 5    1  0.1252319E-008  0.3852711E+03  0.7957747E-01  0.3428523E+00
         13   -1    0    0    0    0  0.00000000000E+00  0.00000000000E+00  0.14999999963E+04  0.15000000000E+04  0.10566000000E+00 0.  1.
        994   -1    0    0    0    0 -0.00000000000E+00 -0.00000000000E+00  0.11368683772E-12  0.17120000000E+03  0.17120000000E+03 0.  0.
         13    1    1    2    0    0  0.80933108837E+01  0.83567051043E+01  0.45713958788E+02  0.47171107613E+02  0.10566000000E+00 0.  1.
        994    1    1    2    0    0 -0.84232104145E+01 -0.47111322685E+00  0.17294702095E+01  0.17141646213E+03  0.17120000000E+03 0.  0.
        998    1    1    2    0    0  0.32989953080E+00 -0.78855918774E+01  0.14525565673E+04  0.14526124303E+04  0.10000000000E+02 0.  1.
</event>
<event>
 5    1  0.1252319E-008  0.3847460E+03  0.7957747E-01  0.3430750E+00
         13   -1    0    0    0    0  0.00000000000E+00  0.00000000000E+00  0.14999999963E+04  0.15000000000E+04  0.10566000000E+00 0.  1.
        994   -1    0    0    0    0 -0.00000000000E+00 -0.00000000000E+00  0.11368683772E-12  0.17120000000E+03  0.17120000000E+03 0.  0.
         13    1    1    2    0    0 -0.85688017150E+01 -0.93417219618E+01  0.46446515749E+02  0.48145426796E+02  0.10566000000E+00 0.  1.
        994    1    1    2    0    0  0.14571343234E+02 -0.66381892377E+01  0.26006100860E+01  0.17196683626E+03  0.17120000000E+03 0.  0.
        998    1    1    2    0    0 -0.60025415187E+01  0.15979911200E+02  0.14509528704E+04  0.14510877369E+04  0.10000000000E+02 0.  1.
</event>
<event>
 5    1  0.1252319E-008  0.3741494E+03  0.7957747E-01  0.3477036E+00
         13   -1    0    0    0    0  0.00000000000E+00  0.00000000000E+00  0.14999999963E+04  0.15000000000E+04  0.10566000000E+00 0. -1.
        994   -1    0    0    0    0 -0.00000000000E+00 -0.00000000000E+00  0.11368683772E-12  0.17120000000E+03  0.17120000000E+03 0.  0.
         13    1    1    2    0    0  0.77298874118E+01 -0.34387410330E+02  0.80646774672E+02  0.88012263791E+02  0.10566000000E+00 0. -1.
        994    1    1    2    0    0 -0.87140334764E+01  0.34066870806E+02  0.11343004344E+02  0.17514162787E+03  0.17120000000E+03 0.  0.
        998    1    1    2    0    0  0.98414606454E+00  0.32053952321E+00  0.14080102173E+04  0.14080461083E+04  0.10000000000E+02 0. -1.
</event>
<event>
 5    1  0.1252319E-008  0.3692229E+03  0.7957747E-01  0.3499470E+00
         13   -1    0    0    0    0  0.00000000000E+00  0.00000000000E+00  0.14999999963E+04  0.15000000000E+04  0.10566000000E+00 0.  1.
        994   -1    0    0    0    0 -0.00000000000E+00 -0.00000000000E+00  0.11368683772E-12  0.17120000000E+03  0.17120000000E+03 0.  0.
         13    1    1    2    0    0 -0.54623916527E+01  0.29647056299E+02  0.45908211407E+02  0.54921404829E+02  0.10566000000E+00 0.  1.
        994    1    1    2    0    0  0.34515365569E+01  0.26056830292E+01  0.97406648462E+01  0.17153140599E+03  0.17120000000E+03 0.  0.
        998    1    1    2    0    0  0.20108550958E+01 -0.32252739329E+02  0.14443511200E+04  0.14447471892E+04  0.10000000000E+02 0.  1.
</event>
<event>
 5    1  0.1252319E-008  0.3833716E+03  0.7957747E-01  0.3436608E+00
         13   -1    0    0    0    0  0.00000000000E+00  0.00000000000E+00  0.14999999963E+04  0.15000000000E+04  0.10566000000E+00 0.  1.
        994   -1    0    0    0    0 -0.00000000000E+00 -0.00000000000E+00  0.11368683772E-12  0.17120000000E+03  0.17120000000E+03 0.  0.
         13    1    1    2    0    0 -0.98509920415E+01  0.15612876521E+02  0.68352732766E+02  0.70801915214E+02  0.10566000000E+00 0.  1.
        994    1    1    2    0    0  0.62636700781E+01 -0.12733367598E+02  0.31067892535E+01  0.17181520408E+03  0.17120000000E+03 0.  0.
        998    1    1    2    0    0  0.35873219635E+01 -0.28795089230E+01  0.14285404743E+04  0.14285828807E+04  0.10000000000E+02 0.  1.
</event>
<event>
 5    1  0.1252319E-008  0.3790148E+03  0.7957747E-01  0.3455459E+00
         13   -1    0    0    0    0  0.00000000000E+00  0.00000000000E+00  0.14999999963E+04  0.15000000000E+04  0.10566000000E+00 0.  1.
        994   -1    0    0    0    0 -0.00000000000E+00 -0.00000000000E+00  0.11368683772E-12  0.17120000000E+03  0.17120000000E+03 0.  0.
         13    1    1    2    0    0  0.55917167566E+01  0.12735574990E+02  0.18788672217E+02  0.23377072835E+02  0.10566000000E+00 0.  1.
        994    1    1    2    0    0 -0.34233896178E+01 -0.12214978271E+02  0.51711716461E+01  0.17174721630E+03  0.17120000000E+03 0.  0.
        998    1    1    2    0    0 -0.21683271388E+01 -0.52059671821E+00  0.14760401524E+04  0.14760757109E+04  0.10000000000E+02 0.  1.
</event>
<event>
 5    1  0.1252319E-008  0.3830619E+03  0.7957747E-01  0.3437934E+00
         13   -1    0    0    0    0  0.00000000000E+00  0.00000000000E+00  0.14999999963E+04  0.15000000000E+04  0.10566000000E+00 0. -1.
        994   -1    0    0    0    0 -0.00000000000E+00 -0.00000000000E+00  0.11368683772E-12  0.17120000000E+03  0.17120000000E+03 0.  0.
         13    1    1    2    0    0  0.42563733248E+02  0.11940128205E+01  0.22047770134E+03  0.22455183145E+03  0.10566000000E+00 0. -1.
        994    1    1    2    0    0 -0.75883820835E+02 -0.14084344986E+02  0.22565253767E+02  0.18914373824E+03  0.17120000000E+03 0.  0.
        998    1    1    2    0    0  0.33320087587E+02  0.12890332165E+02  0.12569570412E+04  0.12575044303E+04  0.10000000000E+02 0. -1.
</event>
<event>
 5    1  0.1608132E-008  0.3857589E+03  0.7957747E-01  0.3426460E+00
         13   -1    0    0    0    0  0.00000000000E+00  0.00000000000E+00  0.14999999963E+04  0.15000000000E+04  0.10566000000E+00 0. -1.
        994   -1    0    0    0    0 -0.00000000000E+00 -0.00000000000E+00  0.11368683772E-12  0.17120000000E+03  0.17120000000E+03 0.  0.
         13    1    1    2    0    0 -0.26705846658E+01  0.96564823778E+01  0.39621103633E+02  0.40868358072E+02  0.10566000000E+00 0. -1.
        994    1    1    2    0    0  0.65639735444E+00 -0.99932411265E+01  0.15829294067E+01  0.17149997490E+03  0.17120000000E+03 0.  0.
        998    1    1    2    0    0  0.20141873114E+01  0.33675874867E+00  0.14587959632E+04  0.14588316670E+04  0.10000000000E+02 0. -1.
</event>
<event>
 5    1  0.1252319E-008  0.3839217E+03  0.7957747E-01  0.3434258E+00
         13   -1    0    0    0    0  0.00000000000E+00  0.00000000000E+00  0.14999999963E+04  0.15000000000E+04  0.10566000000E+00 0.  1.
        994   -1    0    0    0    0 -0.00000000000E+00 -0.00000000000E+00  0.11368683772E-12  0.17120000000E+03  0.17120000000E+03 0.  0.
         13    1    1    2    0    0  0.11317241644E+02  0.17322499447E+02  0.10346206482E+03  0.10551094240E+03  0.10566000000E+00 0.  1.
        994    1    1    2    0    0  0.28339680510E+01 -0.88802406520E+01  0.24532494198E+01  0.17147113017E+03  0.17120000000E+03 0.  0.
        998    1    1    2    0    0 -0.14151209695E+02 -0.84422587951E+01  0.13940846820E+04  0.13942179274E+04  0.10000000000E+02 0.  1.
</event>
<event>
 5    1  0.1252319E-008  0.3752633E+03  0.7957747E-01  0.3472046E+00
         13   -1    0    0    0    0  0.00000000000E+00  0.00000000000E+00  0.14999999963E+04  0.15000000000E+04  0.10566000000E+00 0.  1.
        994   -1    0    0    0    0 -0.00000000000E+00 -0.00000000000E+00  0.11368683772E-12  0.17120000000E+03  0.17120000000E+03 0.  0.
         13    1    1    2    0    0 -0.13147129113E+02 -0.25609462445E+02  0.25842779428E+02  0.38685294147E+02  0.10566000000E+00 0.  1.
        994    1    1    2    0    0 -0.14832691311E+02  0.51557227230E+01  0.14628095457E+02  0.17253988346E+03  0.17120000000E+03 0.  0.
        998    1    1    2    0    0  0.27979820424E+02  0.20453739722E+02  0.14595291214E+04  0.14599748224E+04  0.10000000000E+02 0.  1.
</event>
<event>
 5    1  0.1252319E-008  0.3852805E+03  0.7957747E-01  0.3428484E+00
         13   -1    0    0    0    0  0.00000000000E+00  0.00000000000E+00  0.14999999963E+04  0.15000000000E+04  0.10566000000E+00 0. -1.
        994   -1    0    0    0    0 -0.00000000000E+00 -0.00000000000E+00  0.11368683772E-12  0.17120000000E+03  0.17120000000E+03 0.  0.
         13    1    1    2    0    0  0.99263869092E+01 -0.22490908866E+01  0.34275987673E+02  0.35755364100E+02  0.10566000000E+00 0. -1.
        994    1    1    2    0    0 -0.93114147406E+01  0.11341179331E+01  0.17801045273E+01  0.17146602416E+03  0.17120000000E+03 0.  0.
        998    1    1    2    0    0 -0.61497216860E+00  0.11149729535E+01  0.14639439041E+04  0.14639786117E+04  0.10000000000E+02 0. -1.
</event>
<event>
 5    1  0.1252319E-008  0.3814418E+03  0.7957747E-01  0.3444905E+00
         13   -1    0    0    0    0  0.00000000000E+00  0.00000000000E+00  0.14999999963E+04  0.15000000000E+04  0.10566000000E+00 0. -1.
        994   -1    0    0    0    0 -0.00000000000E+00 -0.00000000000E+00  0.11368683772E-12  0.17120000000E+03  0.17120000000E+03 0.  0.
         13    1    1    2    0    0 -0.52538381490E+02  0.31184433850E+02  0.35122309320E+03  0.35649743731E+03  0.10566000000E+00 0. -1.
        994    1    1    2    0    0  0.56297608987E+02 -0.58780546696E+02  0.25770542037E+02  0.19130638851E+03  0.17120000000E+03 0.  0.
        998    1    1    2    0    0 -0.37592274965E+01  0.27596112846E+02  0.11230063610E+04  0.11233961742E+04  0.10000000000E+02 0. -1.
</event>
<event>
 5    1  0.1252319E-008  0.3715702E+03  0.7957747E-01  0.3488706E+00
         13   -1    0    0    0    0  0.00000000000E+00  0.00000000000E+00  0.14999999963E+04  0.15000000000E+04  0.10566000000E+00 0.  1.
        994   -1    0    0    0    0 -0.00000000000E+00 -0.00000000000E+00  0.11368683772E-12  0.17120000000E+03  0.17120000000E+03 0.  0.
         13    1    1    2    0    0 -0.30819892347E+02 -0.10897102178E+03  0.45340389618E+03  0.46733248720E+03  0.10566000000E+00 0.  1.
        994    1    1    2    0    0  0.32229090484E+02  0.12192128628E+03  0.65300502764E+02  0.22243450718E+03  0.17120000000E+03 0.  0.
        998    1    1    2    0    0 -0.14091981368E+01 -0.12950264497E+02  0.98129559733E+03  0.98143300563E+03  0.10000000000E+02 0. -1.
</event>
<event>
 5    1  0.1252319E-008  0.3854959E+03  0.7957747E-01  0.3427572E+00
         13   -1    0    0    0    0  0.00000000000E+00  0.00000000000E+00  0.14999999963E+04  0.15000000000E+04  0.10566000000E+00 0.  1.
        994   -1    0    0    0    0 -0.00000000000E+00 -0.00000000000E+00  0.11368683772E-12  0.17120000000E+03  0.17120000000E+03 0.  0.
         13    1    1    2    0    0  0.53424681190E+01  0.89795624616E+01  0.42801961599E+02  0.44058978522E+02  0.10566000000E+00 0.  1.
        994    1    1    2    0    0  0.60362715279E+01  0.44003048376E+01  0.15673779707E+01  0.17137005552E+03  0.17120000000E+03 0.  0.
        998    1    1    2    0    0 -0.11378739647E+02 -0.13379867299E+02  0.14556306567E+04  0.14557709660E+04  0.10000000000E+02 0.  1.
</event>
<event>
 5    1  0.1252319E-008  0.3745601E+03  0.7957747E-01  0.3475192E+00
         13   -1    0    0    0    0  0.00000000000E+00  0.00000000000E+00  0.14999999963E+04  0.15000000000E+04  0.10566000000E+00 0.  1.
        994   -1    0    0    0    0 -0.00000000000E+00 -0.00000000000E+00  0.11368683772E-12  0.17120000000E+03  0.17120000000E+03 0.  0.
         13    1    1    2    0    0  0.42788149390E+02 -0.13496267187E+02  0.73048560862E+02  0.85726765740E+02  0.10566000000E+00 0.  1.
        994    1    1    2    0    0 -0.70274686358E+01  0.36636865532E+02  0.18331068616E+02  0.17617353180E+03  0.17120000000E+03 0.  0.
        998    1    1    2    0    0 -0.35760680754E+02 -0.23140598345E+02  0.14086203668E+04  0.14092997025E+04  0.10000000000E+02 0.  1.
</event>
<event>
 5    1  0.1252319E-008  0.3744947E+03  0.7957747E-01  0.3475486E+00
         13   -1    0    0    0    0  0.00000000000E+00  0.00000000000E+00  0.14999999963E+04  0.15000000000E+04  0.10566000000E+00 0. -1.
        994   -1    0    0    0    0 -0.00000000000E+00 -0.00000000000E+00  0.11368683772E-12  0.17120000000E+03  0.17120000000E+03 0.  0.
         13    1    1    2    0    0  0.15687897490E+02  0.11245795311E+03  0.52453784824E+03  0.53668693551E+03  0.10566000000E+00 0. -1.
        994    1    1    2    0    0  0.35224039156E+01 -0.56988789808E+02  0.25007391264E+02  0.18219478344E+03  0.17120000000E+03 0.  0.
        998    1    1    2    0    0 -0.19210301406E+02 -0.55469163305E+02  0.95045475677E+03  0.95231828105E+03  0.10000000000E+02 0. -1.
</event>
<event>
 5    1  0.1252319E-008  0.3846397E+03  0.7957747E-01  0.3431202E+00
         13   -1    0    0    0    0  0.00000000000E+00  0.00000000000E+00  0.14999999963E+04  0.15000000000E+04  0.10566000000E+00 0. -1.
        994   -1    0    0    0    0 -0.00000000000E+00 -0.00000000000E+00  0.11368683772E-12  0.17120000000E+03  0.17120000000E+03 0.  0.
         13    1    1    2    0    0 -0.77107083794E+01  0.67768087659E+01  0.28500160124E+02  0.30292745863E+02  0.10566000000E+00 0. -1.
        994    1    1    2    0    0  0.10500397389E+02 -0.17674915348E+01  0.21825027502E+01  0.17154470464E+03  0.17120000000E+03 0.  0.
        998    1    1    2    0    0 -0.27896890097E+01 -0.50093172311E+01  0.14693173334E+04  0.14693625495E+04  0.10000000000E+02 0. -1.
</event>
<event>
 5    1  0.1252319E-008  0.3749284E+03  0.7957747E-01  0.3473543E+00
         13   -1    0    0    0    0  0.00000000000E+00  0.00000000000E+00  0.14999999963E+04  0.15000000000E+04  0.10566000000E+00 0. -1.
        994   -1    0    0    0    0 -0.00000000000E+00 -0.00000000000E+00  0.11368683772E-12  0.17120000000E+03  0.17120000000E+03 0.  0.
         13    1    1    2    0    0  0.30988056478E+02 -0.66332810641E+02  0.32228120546E+03  0.33049279564E+03  0.10566000000E+00 0. -1.
        994    1    1    2    0    0 -0.25890295197E+02  0.64135054743E+02  0.23157833909E+02  0.18608959644E+03  0.17120000000E+03 0.  0.
        998    1    1    2    0    0 -0.50977612802E+01  0.21977558973E+01  0.11545609569E+04  0.11546176079E+04  0.10000000000E+02 0.  0.
</event>
<event>
 5    1  0.1252319E-008  0.3816948E+03  0.7957747E-01  0.3443812E+00
         13   -1    0    0    0    0  0.00000000000E+00  0.00000000000E+00  0.14999999963E+04  0.15000000000E+04  0.10566000000E+00 0.  1.
        994   -1    0    0    0    0 -0.00000000000E+00 -0.00000000000E+00  0.11368683772E-12  0.17120000000E+03  0.17120000000E+03 0.  0.
         13    1    1    2    0    0 -0.38935912748E+02  0.91956389536E+01  0.23850637332E+03  0.24183851297E+03  0.10566000000E+00 0.  1.
        994    1    1    2    0    0  0.22168524516E+02 -0.15772926705E+02  0.57446740172E+01  0.17344356424E+03  0.17120000000E+03 0.  0.
        998    1    1    2    0    0  0.16767388231E+02  0.65772877515E+01  0.12557489489E+04  0.12559179228E+04  0.10000000000E+02 0.  1.
</event>
<event>
 5    1  0.1252319E-008  0.3855741E+03  0.7957747E-01  0.3427241E+00
         13   -1    0    0    0    0  0.00000000000E+00  0.00000000000E+00  0.14999999963E+04  0.15000000000E+04  0.10566000000E+00 0. -1.
        994   -1    0    0    0    0 -0.00000000000E+00 -0.00000000000E+00  0.11368683772E-12  0.17120000000E+03  0.17120000000E+03 0.  0.
         13    1    1    2    0    0 -0.40318504966E+01 -0.12180741036E+02  0.57042323118E+02  0.58467632595E+02  0.10566000000E+00 0. -1.
        994    1    1    2    0    0  0.12086723975E+02  0.17501765877E+02  0.28318242576E+01  0.17253944457E+03  0.17120000000E+03 0.  0.
        998    1    1    2    0    0 -0.80548734779E+01 -0.53210248411E+01  0.14401258489E+04  0.14401929228E+04  0.10000000000E+02 0. -1.
</event>
<event>
 5    1  0.1252319E-008  0.3799669E+03  0.7957747E-01  0.3451303E+00
         13   -1    0    0    0    0  0.00000000000E+00  0.00000000000E+00  0.14999999963E+04  0.15000000000E+04  0.10566000000E+00 0. -1.
        994   -1    0    0    0    0 -0.00000000000E+00 -0.00000000000E+00  0.11368683772E-12  0.17120000000E+03  0.17120000000E+03 0.  0.
         13    1    1    2    0    0 -0.13929760264E+02 -0.17315250885E+02  0.63701371264E+02  0.67466525026E+02  0.10566000000E+00 0. -1.
        994    1    1    2    0    0 -0.13801222337E+01 -0.93492468755E+01  0.44484952954E+01  0.17151834381E+03  0.17120000000E+03 0.  0.
        998    1    1    2    0    0  0.15309882498E+02  0.26664497760E+02  0.14318501297E+04  0.14322151312E+04  0.10000000000E+02 0. -1.
</event>
<event>
 5    1  0.1252319E-008  0.3803581E+03  0.7957747E-01  0.3449601E+00
         13   -1    0    0    0    0  0.00000000000E+00  0.00000000000E+00  0.14999999963E+04  0.15000000000E+04  0.10566000000E+00 0.  1.
        994   -1    0    0    0    0 -0.00000000000E+00 -0.00000000000E+00  0.11368683772E-12  0.17120000000E+03  0.17120000000E+03 0.  0.
         13    1    1    2    0    0 -0.97227814959E+01 -0.11301309735E+02  0.26254037634E+02  0.30191683256E+02  0.10566000000E+00 0.  1.
        994    1    1    2    0    0  0.52732309258E+01  0.13669367059E+02  0.46695410009E+01  0.17188921773E+03  0.17120000000E+03 0.  0.
        998    1    1    2    0    0  0.44495505701E+01 -0.23680573245E+01  0.14690764176E+04  0.14691190990E+04  0.10000000000E+02 0.  1.
</event>
<event>
 5    1  0.1252319E-008  0.3808408E+03  0.7957747E-01  0.3447506E+00
         13   -1    0    0    0    0  0.00000000000E+00  0.00000000000E+00  0.14999999963E+04  0.15000000000E+04  0.10566000000E+00 0.  1.
        994   -1    0    0    0    0 -0.00000000000E+00 -0.00000000000E+00  0.11368683772E-12  0.17120000000E+03  0.17120000000E+03 0.  0.
         13    1    1    2    0    0 -0.24138527713E+02  0.23289805236E+01  0.99611407998E+02  0.10252090732E+03  0.10566000000E+00 0.  1.
        994    1    1    2    0    0 -0.26650027962E+02  0.19762698526E+02  0.73876757360E+01  0.17454170274E+03  0.17120000000E+03 0.  0.
        998    1    1    2    0    0  0.50788555675E+02 -0.22091679050E+02  0.13930009125E+04  0.13941373899E+04  0.10000000000E+02 0.  1.
</event>
<event>
 5    1  0.1252319E-008  0.3713341E+03  0.7957747E-01  0.3489782E+00
         13   -1    0    0    0    0  0.00000000000E+00  0.00000000000E+00  0.14999999963E+04  0.15000000000E+04  0.10566000000E+00 0.  1.
        994   -1    0    0    0    0 -0.00000000000E+00 -0.00000000000E+00  0.11368683772E-12  0.17120000000E+03  0.17120000000E+03 0.  0.
         13    1    1    2    0    0 -0.11539422329E+02  0.97385381266E+02  0.45820255899E+03  0.46857941374E+03  0.10566000000E+00 0.  1.
        994    1    1    2    0    0  0.99080283954E+00 -0.79746217075E+02  0.30793856683E+02  0.19135867484E+03  0.17120000000E+03 0.  0.
        998    1    1    2    0    0  0.10548619489E+02 -0.17639164191E+02  0.10110035806E+04  0.10112619114E+04  0.10000000000E+02 0.  1.
</event>
<event>
 5    1  0.1252319E-008  0.3777581E+03  0.7957747E-01  0.3460979E+00
         13   -1    0    0    0    0  0.00000000000E+00  0.00000000000E+00  0.14999999963E+04  0.15000000000E+04  0.10566000000E+00 0.  1.
        994   -1    0    0    0    0 -0.00000000000E+00 -0.00000000000E+00  0.11368683772E-12  0.17120000000E+03  0.17120000000E+03 0.  0.
         13    1    1    2    0    0  0.10782887470E+03  0.25456508441E+03  0.10975827866E+04  0.11318650243E+04  0.10566000000E+00 0.  1.
        994    1    1    2    0    0 -0.10349429355E+03 -0.25323880992E+03  0.31411874083E+03  0.45035651098E+03  0.17120000000E+03 0.  0.
        998    1    1    2    0    0 -0.43345811537E+01 -0.13262744937E+01  0.88298468810E+02  0.88978464765E+02  0.10000000000E+02 0.  0.
</event>
<event>
 5    1  0.1252319E-008  0.3818180E+03  0.7957747E-01  0.3443281E+00
         13   -1    0    0    0    0  0.00000000000E+00  0.00000000000E+00  0.14999999963E+04  0.15000000000E+04  0.10566000000E+00 0.  1.
        994   -1    0    0    0    0 -0.00000000000E+00 -0.00000000000E+00  0.11368683772E-12  0.17120000000E+03  0.17120000000E+03 0.  0.
         13    1    1    2    0    0  0.20634715229E+02  0.21274144489E+02  0.11866357001E+03  0.12230876791E+03  0.10566000000E+00 0.  1.
        994    1    1    2    0    0 -0.27385981384E+02 -0.28194096538E+02  0.83689332718E+01  0.17585328572E+03  0.17120000000E+03 0.  0.
        998    1    1    2    0    0  0.67512661544E+01  0.69199520495E+01  0.13729674930E+04  0.13730379464E+04  0.10000000000E+02 0.  1.
</event>
<event>
 5    1  0.1252319E-008  0.3702669E+03  0.7957747E-01  0.3494665E+00
         13   -1    0    0    0    0  0.00000000000E+00  0.00000000000E+00  0.14999999963E+04  0.15000000000E+04  0.10566000000E+00 0. -1.
        994   -1    0    0    0    0 -0.00000000000E+00 -0.00000000000E+00  0.11368683772E-12  0.17120000000E+03  0.17120000000E+03 0.  0.
         13    1    1    2    0    0  0.30295752674E+02  0.50850945755E+01  0.54247169490E+02  0.62341457944E+02  0.10566000000E+00 0. -1.
        994    1    1    2    0    0  0.22322087268E+02 -0.11044323671E+02  0.11275233760E+02  0.17336903865E+03  0.17120000000E+03 0.  0.
        998    1    1    2    0    0 -0.52617839942E+02  0.59592290953E+01  0.14344775930E+04  0.14354895034E+04  0.10000000000E+02 0. -1.
</event>
<event>
 5    1  0.1252319E-008  0.3827818E+03  0.7957747E-01  0.3439135E+00
         13   -1    0    0    0    0  0.00000000000E+00  0.00000000000E+00  0.14999999963E+04  0.15000000000E+04  0.10566000000E+00 0. -1.
        994   -1    0    0    0    0 -0.00000000000E+00 -0.00000000000E+00  0.11368683772E-12  0.17120000000E+03  0.17120000000E+03 0.  0.
         13    1    1    2    0    0 -0.24065711552E+02 -0.78795630858E+01  0.11120334999E+03  0.11405017405E+03  0.10566000000E+00 0. -1.
        994    1    1    2    0    0  0.23188140748E+02  0.16548763031E+01  0.45276743212E+01  0.17283046121E+03  0.17120000000E+03 0.  0.
        998    1    1    2    0    0  0.87757080470E+00  0.62246867826E+01  0.13842689720E+04  0.13843193647E+04  0.10000000000E+02 0. -1.
</event>
<event>
 5    1  0.1252319E-008  0.3778422E+03  0.7957747E-01  0.3460608E+00
         13   -1    0    0    0    0  0.00000000000E+00  0.00000000000E+00  0.14999999963E+04  0.15000000000E+04  0.10566000000E+00 0.  1.
        994   -1    0    0    0    0 -0.00000000000E+00 -0.00000000000E+00  0.11368683772E-12  0.17120000000E+03  0.17120000000E+03 0.  0.
         13    1    1    2    0    0 -0.15193377447E+02  0.58403587974E+02  0.34889849532E+03  0.35407907169E+03  0.10566000000E+00 0.  1.
        994    1    1    2    0    0 -0.17326270375E+02 -0.40735007443E+02  0.11852576949E+02  0.17722715384E+03  0.17120000000E+03 0.  0.
        998    1    1    2    0    0  0.32519647822E+02 -0.17668580531E+02  0.11392489240E+04  0.11398937745E+04  0.10000000000E+02 0.  1.
</event>
<event>
 5    1  0.1252319E-008  0.3810912E+03  0.7957747E-01  0.3446421E+00
         13   -1    0    0    0    0  0.00000000000E+00  0.00000000000E+00  0.14999999963E+04  0.15000000000E+04  0.10566000000E+00 0. -1.
        994   -1    0    0    0    0 -0.00000000000E+00 -0.00000000000E+00  0.11368683772E-12  0.17120000000E+03  0.17120000000E+03 0.  0.
         13    1    1    2    0    0 -0.24706987517E+02 -0.66112387302E+02  0.14522376346E+03  0.16146589617E+03  0.10566000000E+00 0. -1.
        994    1    1    2    0    0  0.58846463834E+02  0.19511763304E+02  0.31047680405E+02  0.18470791448E+03  0.17120000000E+03 0.  0.
        998    1    1    2    0    0 -0.34139476317E+02  0.46600623999E+02  0.13237285524E+04  0.13250261894E+04  0.10000000000E+02 0. -1.
</event>
<event>
 5    1  0.1252319E-008  0.3837259E+03  0.7957747E-01  0.3435094E+00
         13   -1    0    0    0    0  0.00000000000E+00  0.00000000000E+00  0.14999999963E+04  0.15000000000E+04  0.10566000000E+00 0.  1.
        994   -1    0    0    0    0 -0.00000000000E+00 -0.00000000000E+00  0.11368683772E-12  0.17120000000E+03  0.17120000000E+03 0.  0.
         13    1    1    2    0    0  0.17354015781E+02 -0.25249295454E+00  0.65348570186E+02  0.67614143533E+02  0.10566000000E+00 0.  1.
        994    1    1    2    0    0 -0.13086224147E+02 -0.82613011477E+00  0.28320130188E+01  0.17172475666E+03  0.17120000000E+03 0.  0.
        998    1    1    2    0    0 -0.42677916335E+01  0.10786230693E+01  0.14318194131E+04  0.14318610998E+04  0.10000000000E+02 0.  1.
</event>
<event>
 5    1  0.1252319E-008  0.3816451E+03  0.7957747E-01  0.3444027E+00
         13   -1    0    0    0    0  0.00000000000E+00  0.00000000000E+00  0.14999999963E+04  0.15000000000E+04  0.10566000000E+00 0. -1.
        994   -1    0    0    0    0 -0.00000000000E+00 -0.00000000000E+00  0.11368683772E-12  0.17120000000E+03  0.17120000000E+03 0.  0.
         13    1    1    2    0    0  0.25118576963E+02 -0.26866583029E+02  0.20629533058E+03  0.20954839721E+03  0.10566000000E+00 0. -1.
        994    1    1    2    0    0 -0.32052716920E+02 -0.15687003709E+01  0.67366375329E+01  0.17431196106E+03  0.17120000000E+03 0.  0.
        998    1    1    2    0    0  0.69341399566E+01  0.28435283400E+02  0.12869680282E+04  0.12873396417E+04  0.10000000000E+02 0. -1.
</event>
<event>
 5    1  0.1252319E-008  0.3857808E+03  0.7957747E-01  0.3426367E+00
         13   -1    0    0    0    0  0.00000000000E+00  0.00000000000E+00  0.14999999963E+04  0.15000000000E+04  0.10566000000E+00 0. -1.
        994   -1    0    0    0    0 -0.00000000000E+00 -0.00000000000E+00  0.11368683772E-12  0.17120000000E+03  0.17120000000E+03 0.  0.
         13    1    1    2    0    0  0.96242648312E+01  0.89538533166E+01  0.67278080188E+02  0.68550340631E+02  0.10566000000E+00 0. -1.
        994    1    1    2    0    0 -0.83293702775E+01 -0.12140288382E+02  0.19543595901E+01  0.17184302294E+03  0.17120000000E+03 0.  0.
        998    1    1    2    0    0 -0.12948945536E+01  0.31864350654E+01  0.14307675565E+04  0.14308066364E+04  0.10000000000E+02 0. -1.
</event>
<event>
 5    1  0.1252319E-008  0.3833934E+03  0.7957747E-01  0.3436515E+00
         13   -1    0    0    0    0  0.00000000000E+00  0.00000000000E+00  0.14999999963E+04  0.15000000000E+04  0.10566000000E+00 0.  1.
        994   -1    0    0    0    0 -0.00000000000E+00 -0.00000000000E+00  0.11368683772E-12  0.17120000000E+03  0.17120000000E+03 0.  0.
         13    1    1    2    0    0 -0.33013495324E+00  0.13387162091E+02  0.35997763227E+02  0.38408009833E+02  0.10566000000E+00 0.  1.
        994    1    1    2    0    0  0.19310920327E+00 -0.10205520720E+02  0.27743925289E+01  0.17152646209E+03  0.17120000000E+03 0.  0.
        998    1    1    2    0    0  0.13702574997E+00 -0.31816413709E+01  0.14612278405E+04  0.14612655281E+04  0.10000000000E+02 0.  1.
</event>
<event>
 5    1  0.1252319E-008  0.3840038E+03  0.7957747E-01  0.3433908E+00
         13   -1    0    0    0    0  0.00000000000E+00  0.00000000000E+00  0.14999999963E+04  0.15000000000E+04  0.10566000000E+00 0. -1.
        994   -1    0    0    0    0 -0.00000000000E+00 -0.00000000000E+00  0.11368683772E-12  0.17120000000E+03  0.17120000000E+03 0.  0.
         13    1    1    2    0    0 -0.15242903427E+02 -0.15234113039E+02  0.12896848265E+03  0.13075666326E+03  0.10566000000E+00 0. -1.
        994    1    1    2    0    0 -0.13009215645E+00 -0.10216810558E+02  0.24700825218E+01  0.17152242259E+03  0.17120000000E+03 0.  0.
        998    1    1    2    0    0  0.15372995584E+02  0.25450923597E+02  0.13685614311E+04  0.13689209142E+04  0.10000000000E+02 0. -1.
</event>
<event>
 5    1  0.1252319E-008  0.3800103E+03  0.7957747E-01  0.3451113E+00
         13   -1    0    0    0    0  0.00000000000E+00  0.00000000000E+00  0.14999999963E+04  0.15000000000E+04  0.10566000000E+00 0. -1.
        994   -1    0    0    0    0 -0.00000000000E+00 -0.00000000000E+00  0.11368683772E-12  0.17120000000E+03  0.17120000000E+03 0.  0.
         13    1    1    2    0    0  0.14075752016E+02  0.19568855769E+01  0.23848596956E+02  0.27761897212E+02  0.10566000000E+00 0. -1.
        994    1    1    2    0    0  0.73508584027E+01 -0.58348164079E+01  0.44224142957E+01  0.17151407508E+03  0.17120000000E+03 0.  0.
        998    1    1    2    0    0 -0.21426610419E+02  0.38779308310E+01  0.14717289850E+04  0.14719240277E+04  0.10000000000E+02 0. -1.
</event>
<event>
 5    1  0.1252319E-008  0.3781309E+03  0.7957747E-01  0.3459338E+00
         13   -1    0    0    0    0  0.00000000000E+00  0.00000000000E+00  0.14999999963E+04  0.15000000000E+04  0.10566000000E+00 0.  1.
        994   -1    0    0    0    0 -0.00000000000E+00 -0.00000000000E+00  0.11368683772E-12  0.17120000000E+03  0.17120000000E+03 0.  0.
         13    1    1    2    0    0  0.39169383420E+02 -0.11021892436E+02  0.14704672241E+03  0.15257284308E+03  0.10566000000E+00 0.  1.
        994    1    1    2    0    0 -0.36302969178E+02  0.19715424202E+02  0.10841707028E+02  0.17644711994E+03  0.17120000000E+03 0.  0.
        998    1    1    2    0    0 -0.28664142412E+01 -0.86935317669E+01  0.13421115668E+04  0.13421800370E+04  0.10000000000E+02 0.  1.
</event>
<event>
 5    1  0.1252319E-008  0.3714190E+03  0.7957747E-01  0.3489395E+00
         13   -1    0    0    0    0  0.00000000000E+00  0.00000000000E+00  0.14999999963E+04  0.15000000000E+04  0.10566000000E+00 0.  1.
        994   -1    0    0    0    0 -0.00000000000E+00 -0.00000000000E+00  0.11368683772E-12  0.17120000000E+03  0.17120000000E+03 0.  0.
         13    1    1    2    0    0  0.22170686550E+02  0.28957630813E+02  0.76944201160E+02  0.85149897126E+02  0.10566000000E+00 0.  1.
        994    1    1    2    0    0 -0.81847265941E+01 -0.13006202163E+02  0.93422214516E+01  0.17214199995E+03  0.17120000000E+03 0.  0.
        998    1    1    2    0    0 -0.13985959956E+02 -0.15951428650E+02  0.14137135737E+04  0.14139081029E+04  0.10000000000E+02 0.  1.
</event>
<event>
 5    1  0.1252319E-008  0.3704917E+03  0.7957747E-01  0.3493634E+00
         13   -1    0    0    0    0  0.00000000000E+00  0.00000000000E+00  0.14999999963E+04  0.15000000000E+04  0.10566000000E+00 0. -1.
        994   -1    0    0    0    0 -0.00000000000E+00 -0.00000000000E+00  0.11368683772E-12  0.17120000000E+03  0.17120000000E+03 0.  0.
         13    1    1    2    0    0 -0.41059386549E+02 -0.39227460542E+02  0.14262704388E+03  0.15351596560E+03  0.10566000000E+00 0. -1.
        994    1    1    2    0    0  0.28250332371E+02  0.15164742035E+02  0.14807788142E+02  0.17480492347E+03  0.17120000000E+03 0.  0.
        998    1    1    2    0    0  0.12809054178E+02  0.24062718507E+02  0.13425651643E+04  0.13428791109E+04  0.10000000000E+02 0. -1.
</event>
<event>
 5    1  0.1252319E-008  0.3757314E+03  0.7957747E-01  0.3469958E+00
         13   -1    0    0    0    0  0.00000000000E+00  0.00000000000E+00  0.14999999963E+04  0.15000000000E+04  0.10566000000E+00 0.  1.
        994   -1    0    0    0    0 -0.00000000000E+00 -0.00000000000E+00  0.11368683772E-12  0.17120000000E+03  0.17120000000E+03 0.  0.
         13    1    1    2    0    0 -0.15866543617E+02 -0.32836293882E+01  0.17937593162E+02  0.24172253532E+02  0.10566000000E+00 0.  1.
        994    1    1    2    0    0  0.15438181238E+02  0.82384084214E+00  0.71144772234E+01  0.17204380820E+03  0.17120000000E+03 0.  0.
        998    1    1    2    0    0  0.42836237880E+00  0.24597885461E+01  0.14749479259E+04  0.14749839383E+04  0.10000000000E+02 0.  1.
</event>
<event>
 5    1  0.1252319E-008  0.3708106E+03  0.7957747E-01  0.3492174E+00
         13   -1    0    0    0    0  0.00000000000E+00  0.00000000000E+00  0.14999999963E+04  0.15000000000E+04  0.10566000000E+00 0.  1.
        994   -1    0    0    0    0 -0.00000000000E+00 -0.00000000000E+00  0.11368683772E-12  0.17120000000E+03  0.17120000000E+03 0.  0.
         13    1    1    2    0    0  0.38368538057E+00  0.22626001896E+02  0.24250212972E+02  0.33168767983E+02  0.10566000000E+00 0.  1.
        994    1    1    2    0    0  0.45326299974E+01 -0.32217789768E+02  0.12504565540E+02  0.17471214861E+03  0.17120000000E+03 0.  0.
        998    1    1    2    0    0 -0.49163153780E+01  0.95917878721E+01  0.14632452178E+04  0.14633190834E+04  0.10000000000E+02 0.  1.
</event>
<event>
 5    1  0.1252319E-008  0.3803073E+03  0.7957747E-01  0.3449822E+00
         13   -1    0    0    0    0  0.00000000000E+00  0.00000000000E+00  0.14999999963E+04  0.15000000000E+04  0.10566000000E+00 0. -1.
        994   -1    0    0    0    0 -0.00000000000E+00 -0.00000000000E+00  0.11368683772E-12  0.17120000000E+03  0.17120000000E+03 0.  0.
         13    1    1    2    0    0  0.32025604301E+02  0.30714338192E+02  0.23610646372E+03  0.24024005344E+03  0.10566000000E+00 0. -1.
        994    1    1    2    0    0 -0.38747779893E+02 -0.49604251513E+01  0.90910764094E+01  0.17583538874E+03  0.17120000000E+03 0.  0.
        998    1    1    2    0    0  0.67221755913E+01 -0.25753913040E+02  0.12548024561E+04  0.12551245578E+04  0.10000000000E+02 0. -1.
</event>
<event>
 5    1  0.1252319E-008  0.2796556E+03  0.7957747E-01  0.4052894E+00
         13   -1    0    0    0    0  0.00000000000E+00  0.00000000000E+00  0.14999999963E+04  0.15000000000E+04  0.10566000000E+00 0.  1.
        994   -1    0    0    0    0 -0.00000000000E+00 -0.00000000000E+00  0.11368683772E-12  0.17120000000E+03  0.17120000000E+03 0.  0.
         13    1    1    2    0    0  0.15697680104E+03  0.76806225855E+02  0.56084449276E+03  0.58744145973E+03  0.10566000000E+00 0.  1.
        994    1    1    2    0    0 -0.14391548890E+03 -0.20728058858E+02  0.10567144723E+03  0.24822815136E+03  0.17120000000E+03 0.  0.
        998    1    1    2    0    0 -0.13061312139E+02 -0.56078166997E+02  0.83348405629E+03  0.83553038890E+03  0.10000000000E+02 0.  1.
</event>
<event>
 5    1  0.1252319E-008  0.3731917E+03  0.7957747E-01  0.3481350E+00
         13   -1    0    0    0    0  0.00000000000E+00  0.00000000000E+00  0.14999999963E+04  0.15000000000E+04  0.10566000000E+00 0. -1.
        994   -1    0    0    0    0 -0.00000000000E+00 -0.00000000000E+00  0.11368683772E-12  0.17120000000E+03  0.17120000000E+03 0.  0.
         13    1    1    2    0    0  0.38994995435E+02  0.58668971537E+00  0.10310649139E+03  0.11023571837E+03  0.10566000000E+00 0. -1.
        994    1    1    2    0    0 -0.97074492749E+01  0.40965919306E+00  0.79332147395E+01  0.17165890099E+03  0.17120000000E+03 0.  0.
        998    1    1    2    0    0 -0.29287546161E+02 -0.99634890843E+00  0.13889602901E+04  0.13893053806E+04  0.10000000000E+02 0. -1.
</event>
<event>
 5    1  0.1252319E-008  0.3686380E+03  0.7957747E-01  0.3502174E+00
         13   -1    0    0    0    0  0.00000000000E+00  0.00000000000E+00  0.14999999963E+04  0.15000000000E+04  0.10566000000E+00 0. -1.
        994   -1    0    0    0    0 -0.00000000000E+00 -0.00000000000E+00  0.11368683772E-12  0.17120000000E+03  0.17120000000E+03 0.  0.
         13    1    1    2    0    0 -0.80395418882E+01 -0.17671095578E+02  0.13659664136E+02  0.23738143167E+02  0.10566000000E+00 0. -1.
        994    1    1    2    0    0 -0.10071165728E+02  0.30151818547E+02  0.13744691554E+02  0.17466801965E+03  0.17120000000E+03 0.  0.
        998    1    1    2    0    0  0.18110707616E+02 -0.12480722969E+02  0.14725956406E+04  0.14727938372E+04  0.10000000000E+02 0. -1.
</event>
<event>
 5    1  0.1252319E-008  0.3722767E+03  0.7957747E-01  0.3485492E+00
         13   -1    0    0    0    0  0.00000000000E+00  0.00000000000E+00  0.14999999963E+04  0.15000000000E+04  0.10566000000E+00 0.  1.
        994   -1    0    0    0    0 -0.00000000000E+00 -0.00000000000E+00  0.11368683772E-12  0.17120000000E+03  0.17120000000E+03 0.  0.
         13    1    1    2    0    0 -0.26053326899E+01 -0.37370850038E+02  0.71992709702E+02  0.81156204970E+02  0.10566000000E+00 0.  1.
        994    1    1    2    0    0 -0.37252124213E+02  0.70454809916E+02  0.30199503123E+02  0.19124081936E+03  0.17120000000E+03 0.  0.
        998    1    1    2    0    0  0.39857456903E+02 -0.33083959879E+02  0.13978077835E+04  0.13988029757E+04  0.10000000000E+02 0.  1.
</event>
<event>
 5    1  0.1252319E-008  0.3778911E+03  0.7957747E-01  0.3460393E+00
         13   -1    0    0    0    0  0.00000000000E+00  0.00000000000E+00  0.14999999963E+04  0.15000000000E+04  0.10566000000E+00 0.  1.
        994   -1    0    0    0    0 -0.00000000000E+00 -0.00000000000E+00  0.11368683772E-12  0.17120000000E+03  0.17120000000E+03 0.  0.
         13    1    1    2    0    0 -0.69678929151E+01  0.21252690262E+02  0.45519069629E+02  0.50717109924E+02  0.10566000000E+00 0.  1.
        994    1    1    2    0    0 -0.21521553751E+00 -0.19341258766E+02  0.64619910520E+01  0.17241034753E+03  0.17120000000E+03 0.  0.
        998    1    1    2    0    0  0.71831084527E+01 -0.19114314957E+01  0.14480189356E+04  0.14480725425E+04  0.10000000000E+02 0.  1.
</event>
<event>
 5    1  0.1252319E-008  0.3824504E+03  0.7957747E-01  0.3440558E+00
         13   -1    0    0    0    0  0.00000000000E+00  0.00000000000E+00  0.14999999963E+04  0.15000000000E+04  0.10566000000E+00 0. -1.
        994   -1    0    0    0    0 -0.00000000000E+00 -0.00000000000E+00  0.11368683772E-12  0.17120000000E+03  0.17120000000E+03 0.  0.
         13    1    1    2    0    0  0.41748956586E+01  0.11656969420E+02  0.25014413122E+02  0.27911408379E+02  0.10566000000E+00 0. -1.
        994    1    1    2    0    0 -0.34878029304E+01 -0.12174202501E+02  0.34332979415E+01  0.17170207777E+03  0.17120000000E+03 0.  0.
        998    1    1    2    0    0 -0.68709272825E+00  0.51723308056E+00  0.14715522852E+04  0.14715865139E+04  0.10000000000E+02 0. -1.
</event>
<event>
 5    1  0.1252319E-008  0.3821980E+03  0.7957747E-01  0.3441644E+00
         13   -1    0    0    0    0  0.00000000000E+00  0.00000000000E+00  0.14999999963E+04  0.15000000000E+04  0.10566000000E+00 0.  1.
        994   -1    0    0    0    0 -0.00000000000E+00 -0.00000000000E+00  0.11368683772E-12  0.17120000000E+03  0.17120000000E+03 0.  0.
         13    1    1    2    0    0  0.67497998894E+01 -0.12542544565E+02  0.31664245429E+02  0.34720466951E+02  0.10566000000E+00 0.  1.
        994    1    1    2    0    0 -0.25113263448E+01  0.17218371871E+02  0.40332340099E+01  0.17212927138E+03  0.17120000000E+03 0.  0.
        998    1    1    2    0    0 -0.42384735446E+01 -0.46758273061E+01  0.14643025168E+04  0.14643502617E+04  0.10000000000E+02 0.  1.
</event>
<event>
 5    1  0.1252319E-008  0.3810878E+03  0.7957747E-01  0.3446435E+00
         13   -1    0    0    0    0  0.00000000000E+00  0.00000000000E+00  0.14999999963E+04  0.15000000000E+04  0.10566000000E+00 0.  1.
        994   -1    0    0    0    0 -0.00000000000E+00 -0.00000000000E+00  0.11368683772E-12  0.17120000000E+03  0.17120000000E+03 0.  0.
         13    1    1    2    0    0  0.15526023927E+02 -0.41326087800E+01  0.35578204328E+02  0.39037874706E+02  0.10566000000E+00 0.  1.
        994    1    1    2    0    0 -0.49332389808E+01 -0.62219504758E+01  0.37950614500E+01  0.17142605405E+03  0.17120000000E+03 0.  0.
        998    1    1    2    0    0 -0.10592784947E+02  0.10354559256E+02  0.14606267305E+04  0.14607360712E+04  0.10000000000E+02 0.  1.
</event>
<event>
 5    1  0.1252319E-008  0.3786070E+03  0.7957747E-01  0.3457247E+00
         13   -1    0    0    0    0  0.00000000000E+00  0.00000000000E+00  0.14999999963E+04  0.15000000000E+04  0.10566000000E+00 0.  1.
        994   -1    0    0    0    0 -0.00000000000E+00 -0.00000000000E+00  0.11368683772E-12  0.17120000000E+03  0.17120000000E+03 0.  0.
         13    1    1    2    0    0 -0.31698928156E+02  0.69003697538E+01  0.11303099276E+03  0.11759444560E+03  0.10566000000E+00 0.  1.
        994    1    1    2    0    0  0.69925226674E+01 -0.10669754550E+02  0.53847235615E+01  0.17175905881E+03  0.17120000000E+03 0.  0.
        998    1    1    2    0    0  0.24706405488E+02  0.37693847963E+01  0.13815842800E+04  0.13818464956E+04  0.10000000000E+02 0.  1.
</event>
<event>
 5    1  0.1252319E-008  0.3852427E+03  0.7957747E-01  0.3428643E+00
         13   -1    0    0    0    0  0.00000000000E+00  0.00000000000E+00  0.14999999963E+04  0.15000000000E+04  0.10566000000E+00 0.  1.
        994   -1    0    0    0    0 -0.00000000000E+00 -0.00000000000E+00  0.11368683772E-12  0.17120000000E+03  0.17120000000E+03 0.  0.
         13    1    1    2    0    0  0.70517189075E+01  0.71236127020E+01  0.32466747824E+02  0.33979015227E+02  0.10566000000E+00 0.  1.
        994    1    1    2    0    0 -0.10243278971E+02 -0.59596369559E+01  0.19713185914E+01  0.17162100144E+03  0.17120000000E+03 0.  0.
        998    1    1    2    0    0  0.31915600638E+01 -0.11639757461E+01  0.14655619299E+04  0.14655999833E+04  0.10000000000E+02 0.  1.
</event>
<event>
 5    1  0.1252319E-008  0.3841886E+03  0.7957747E-01  0.3433121E+00
         13   -1    0    0    0    0  0.00000000000E+00  0.00000000000E+00  0.14999999963E+04  0.15000000000E+04  0.10566000000E+00 0.  1.
        994   -1    0    0    0    0 -0.00000000000E+00 -0.00000000000E+00  0.11368683772E-12  0.17120000000E+03  0.17120000000E+03 0.  0.
         13    1    1    2    0    0 -0.29142168763E+01 -0.15742508405E+02  0.59449031593E+02  0.61567180804E+02  0.10566000000E+00 0.  1.
        994    1    1    2    0    0  0.30929694351E+01  0.19939428747E+02  0.33771490759E+01  0.17241807450E+03  0.17120000000E+03 0.  0.
        998    1    1    2    0    0 -0.17875255877E+00 -0.41969203422E+01  0.14371738156E+04  0.14372147447E+04  0.10000000000E+02 0.  1.
</event>
<event>
 5    1  0.1252319E-008  0.3856312E+03  0.7957747E-01  0.3427000E+00
         13   -1    0    0    0    0  0.00000000000E+00  0.00000000000E+00  0.14999999963E+04  0.15000000000E+04  0.10566000000E+00 0. -1.
        994   -1    0    0    0    0 -0.00000000000E+00 -0.00000000000E+00  0.11368683772E-12  0.17120000000E+03  0.17120000000E+03 0.  0.
         13    1    1    2    0    0 -0.12221926606E+02 -0.11321728622E+01  0.58172948559E+02  0.59453851124E+02  0.10566000000E+00 0. -1.
        994    1    1    2    0    0  0.66093940080E+01  0.37847327991E+00  0.14609247608E+01  0.17133418116E+03  0.17120000000E+03 0.  0.
        998    1    1    2    0    0  0.56125325975E+01  0.75369958226E+00  0.14403661230E+04  0.14404119677E+04  0.10000000000E+02 0. -1.
</event>
<event>
 5    1  0.1252319E-008  0.3908323E+03  0.7957747E-01  0.3405307E+00
         13   -1    0    0    0    0  0.00000000000E+00  0.00000000000E+00  0.14999999963E+04  0.15000000000E+04  0.10566000000E+00 0. -1.
        994   -1    0    0    0    0 -0.00000000000E+00 -0.00000000000E+00  0.11368683772E-12  0.17120000000E+03  0.17120000000E+03 0.  0.
         13    1    1    2    0    0  0.69286194968E+02  0.27292379093E+02  0.11255533019E+03  0.13495986176E+03  0.10566000000E+00 0. -1.
        994    1    1    2    0    0 -0.56908244224E+02 -0.26925616368E+02  0.37527496200E+02  0.18622913319E+03  0.17120000000E+03 0.  0.
        998    1    1    2    0    0 -0.12377950744E+02 -0.36676272542E+00  0.13499171699E+04  0.13500110050E+04  0.10000000000E+02 0. -1.
</event>
<event>
 5    1  0.1252319E-008  0.3824449E+03  0.7957747E-01  0.3440582E+00
         13   -1    0    0    0    0  0.00000000000E+00  0.00000000000E+00  0.14999999963E+04  0.15000000000E+04  0.10566000000E+00 0.  1.
        994   -1    0    0    0    0 -0.00000000000E+00 -0.00000000000E+00  0.11368683772E-12  0.17120000000E+03  0.17120000000E+03 0.  0.
         13    1    1    2    0    0 -0.16158084365E+01 -0.11743637085E+02  0.22937740010E+02  0.25820048987E+02  0.10566000000E+00 0.  1.
        994    1    1    2    0    0 -0.39217196926E+01  0.11131298206E+02  0.33660840520E+01  0.17163932011E+03  0.17120000000E+03 0.  0.
        998    1    1    2    0    0  0.55375281291E+01  0.61233887889E+00  0.14736961722E+04  0.14737406309E+04  0.10000000000E+02 0.  1.
</event>
<event>
 5    1  0.1252319E-008  0.3859640E+03  0.7957747E-01  0.3425594E+00
         13   -1    0    0    0    0  0.00000000000E+00  0.00000000000E+00  0.14999999963E+04  0.15000000000E+04  0.10566000000E+00 0.  1.
        994   -1    0    0    0    0 -0.00000000000E+00 -0.00000000000E+00  0.11368683772E-12  0.17120000000E+03  0.17120000000E+03 0.  0.
         13    1    1    2    0    0 -0.11112668069E+02  0.76789722841E+01  0.81197822407E+02  0.82313762729E+02  0.10566000000E+00 0.  1.
        994    1    1    2    0    0  0.13762616528E+02  0.67836547875E+01  0.19244905853E+01  0.17189697859E+03  0.17120000000E+03 0.  0.
        998    1    1    2    0    0 -0.26499484587E+01 -0.14462627072E+02  0.14168776833E+04  0.14169892587E+04  0.10000000000E+02 0.  1.
</event>
<event>
 5    1  0.1252319E-008  0.3860717E+03  0.7957747E-01  0.3425140E+00
         13   -1    0    0    0    0  0.00000000000E+00  0.00000000000E+00  0.14999999963E+04  0.15000000000E+04  0.10566000000E+00 0.  1.
        994   -1    0    0    0    0 -0.00000000000E+00 -0.00000000000E+00  0.11368683772E-12  0.17120000000E+03  0.17120000000E+03 0.  0.
         13    1    1    2    0    0 -0.10896219604E+02 -0.71699537195E+00  0.55109222876E+02  0.56180773348E+02  0.10566000000E+00 0.  1.
        994    1    1    2    0    0  0.64207553526E+01  0.10391626530E+02  0.15881283499E+01  0.17164257675E+03  0.17120000000E+03 0.  0.
        998    1    1    2    0    0  0.44754642512E+01 -0.96746311575E+01  0.14433026451E+04  0.14433766499E+04  0.10000000000E+02 0.  1.
</event>
<event>
 5    1  0.1252319E-008  0.3856365E+03  0.7957747E-01  0.3426977E+00
         13   -1    0    0    0    0  0.00000000000E+00  0.00000000000E+00  0.14999999963E+04  0.15000000000E+04  0.10566000000E+00 0.  1.
        994   -1    0    0    0    0 -0.00000000000E+00 -0.00000000000E+00  0.11368683772E-12  0.17120000000E+03  0.17120000000E+03 0.  0.
         13    1    1    2    0    0 -0.36157203137E+01 -0.14356868477E+02  0.83806125345E+02  0.85103883080E+02  0.10566000000E+00 0.  1.
        994    1    1    2    0    0  0.36496508409E+01  0.92169491515E+01  0.16370214891E+01  0.17149458284E+03  0.17120000000E+03 0.  0.
        998    1    1    2    0    0 -0.33930527199E-01  0.51399193255E+01  0.14145568494E+04  0.14146015341E+04  0.10000000000E+02 0.  1.
</event>
<event>
 5    1  0.1658853E-008  0.3864279E+03  0.7957747E-01  0.3423639E+00
         13   -1    0    0    0    0  0.00000000000E+00  0.00000000000E+00  0.14999999963E+04  0.15000000000E+04  0.10566000000E+00 0.  1.
        994   -1    0    0    0    0 -0.00000000000E+00 -0.00000000000E+00  0.11368683772E-12  0.17120000000E+03  0.17120000000E+03 0.  0.
         13    1    1    2    0    0  0.48268301249E+01 -0.10135945008E+02  0.67913381122E+02  0.68835123082E+02  0.10566000000E+00 0.  1.
        994    1    1    2    0    0 -0.34617291597E+01  0.99146615086E+01  0.12839459711E+01  0.17152659444E+03  0.17120000000E+03 0.  0.
        998    1    1    2    0    0 -0.13651009652E+01  0.22128349968E+00  0.14308026692E+04  0.14308382825E+04  0.10000000000E+02 0.  0.
</event>
<event>
 5    1  0.1252319E-008  0.3831762E+03  0.7957747E-01  0.3437444E+00
         13   -1    0    0    0    0  0.00000000000E+00  0.00000000000E+00  0.14999999963E+04  0.15000000000E+04  0.10566000000E+00 0. -1.
        994   -1    0    0    0    0 -0.00000000000E+00 -0.00000000000E+00  0.11368683772E-12  0.17120000000E+03  0.17120000000E+03 0.  0.
         13    1    1    2    0    0 -0.21573723044E+02  0.15491738119E+02  0.12843704121E+03  0.13115450505E+03  0.10566000000E+00 0. -1.
        994    1    1    2    0    0  0.17649754308E+02 -0.20594691848E+02  0.49758221766E+01  0.17340661454E+03  0.17120000000E+03 0.  0.
        998    1    1    2    0    0  0.39239687359E+01  0.51029537292E+01  0.13665871329E+04  0.13666388804E+04  0.10000000000E+02 0. -1.
</event>
<event>
 5    1  0.1252319E-008  0.3861541E+03  0.7957747E-01  0.3424792E+00
         13   -1    0    0    0    0  0.00000000000E+00  0.00000000000E+00  0.14999999963E+04  0.15000000000E+04  0.10566000000E+00 0. -1.
        994   -1    0    0    0    0 -0.00000000000E+00 -0.00000000000E+00  0.11368683772E-12  0.17120000000E+03  0.17120000000E+03 0.  0.
         13    1    1    2    0    0  0.91269607287E+01 -0.72100540610E+01  0.66549380187E+02  0.67558252338E+02  0.10566000000E+00 0. -1.
        994    1    1    2    0    0  0.91302122920E+00  0.85122210737E+01  0.12983994480E+01  0.17141883606E+03  0.17120000000E+03 0.  0.
        998    1    1    2    0    0 -0.10039981958E+02 -0.13021670127E+01  0.14321522166E+04  0.14322229116E+04  0.10000000000E+02 0. -1.
</event>
<event>
 5    1  0.1252319E-008  0.3760379E+03  0.7957747E-01  0.3468594E+00
         13   -1    0    0    0    0  0.00000000000E+00  0.00000000000E+00  0.14999999963E+04  0.15000000000E+04  0.10566000000E+00 0. -1.
        994   -1    0    0    0    0 -0.00000000000E+00 -0.00000000000E+00  0.11368683772E-12  0.17120000000E+03  0.17120000000E+03 0.  0.
         13    1    1    2    0    0 -0.14165352156E+02 -0.18941721066E+02  0.43402934633E+02  0.49429463860E+02  0.10566000000E+00 0. -1.
        994    1    1    2    0    0  0.40981509701E+01  0.13552640169E+02  0.68260309659E+01  0.17192005001E+03  0.17120000000E+03 0.  0.
        998    1    1    2    0    0  0.10067201186E+02  0.53890808972E+01  0.14497710307E+04  0.14498504861E+04  0.10000000000E+02 0. -1.
</event>
<event>
 5    1  0.1252319E-008  0.3839227E+03  0.7957747E-01  0.3434254E+00
         13   -1    0    0    0    0  0.00000000000E+00  0.00000000000E+00  0.14999999963E+04  0.15000000000E+04  0.10566000000E+00 0.  1.
        994   -1    0    0    0    0 -0.00000000000E+00 -0.00000000000E+00  0.11368683772E-12  0.17120000000E+03  0.17120000000E+03 0.  0.
         13    1    1    2    0    0 -0.44803728716E+01 -0.21880168464E+02  0.12766886782E+03  0.12960774085E+03  0.10566000000E+00 0.  1.
        994    1    1    2    0    0  0.50953477452E+01 -0.67860730949E+00  0.22531749116E+01  0.17129197259E+03  0.17120000000E+03 0.  0.
        998    1    1    2    0    0 -0.61497487350E+00  0.22558775773E+02  0.13700779535E+04  0.13703002866E+04  0.10000000000E+02 0.  1.
</event>
<event>
 5    1  0.1252319E-008  0.3790762E+03  0.7957747E-01  0.3455191E+00
         13   -1    0    0    0    0  0.00000000000E+00  0.00000000000E+00  0.14999999963E+04  0.15000000000E+04  0.10566000000E+00 0. -1.
        994   -1    0    0    0    0 -0.00000000000E+00 -0.00000000000E+00  0.11368683772E-12  0.17120000000E+03  0.17120000000E+03 0.  0.
         13    1    1    2    0    0  0.11508548971E+02 -0.22599496213E+02  0.65167093160E+02  0.69928142572E+02  0.10566000000E+00 0. -1.
        994    1    1    2    0    0 -0.17677986572E+02  0.21810880997E+02  0.72477339207E+01  0.17363811617E+03  0.17120000000E+03 0.  0.
        998    1    1    2    0    0  0.61694376003E+01  0.78861521634E+00  0.14275851692E+04  0.14276337413E+04  0.10000000000E+02 0. -1.
</event>
<event>
 5    1  0.1252319E-008  0.3804985E+03  0.7957747E-01  0.3448991E+00
         13   -1    0    0    0    0  0.00000000000E+00  0.00000000000E+00  0.14999999963E+04  0.15000000000E+04  0.10566000000E+00 0. -1.
        994   -1    0    0    0    0 -0.00000000000E+00 -0.00000000000E+00  0.11368683772E-12  0.17120000000E+03  0.17120000000E+03 0.  0.
         13    1    1    2    0    0 -0.19920784019E+02 -0.15719616885E+02  0.75594539257E+02  0.79740137450E+02  0.10566000000E+00 0. -1.
        994    1    1    2    0    0  0.23768200697E+02  0.22268802881E+02  0.74302361594E+01  0.17442899803E+03  0.17120000000E+03 0.  0.
        998    1    1    2    0    0 -0.38474166780E+01 -0.65491859959E+01  0.14169752209E+04  0.14170308645E+04  0.10000000000E+02 0. -1.
</event>
<event>
 5    1  0.1252319E-008  0.3746990E+03  0.7957747E-01  0.3474570E+00
         13   -1    0    0    0    0  0.00000000000E+00  0.00000000000E+00  0.14999999963E+04  0.15000000000E+04  0.10566000000E+00 0.  1.
        994   -1    0    0    0    0 -0.00000000000E+00 -0.00000000000E+00  0.11368683772E-12  0.17120000000E+03  0.17120000000E+03 0.  0.
         13    1    1    2    0    0 -0.19877082973E+02 -0.10658070937E+02  0.36103386488E+02  0.42569455993E+02  0.10566000000E+00 0.  1.
        994    1    1    2    0    0  0.62045466435E+01 -0.14771718938E+02  0.77073192371E+01  0.17212072173E+03  0.17120000000E+03 0.  0.
        998    1    1    2    0    0  0.13672536330E+02  0.25429789875E+02  0.14561892906E+04  0.14565098223E+04  0.10000000000E+02 0.  1.
</event>
<event>
 5    1  0.1252319E-008  0.3839220E+03  0.7957747E-01  0.3434257E+00
         13   -1    0    0    0    0  0.00000000000E+00  0.00000000000E+00  0.14999999963E+04  0.15000000000E+04  0.10566000000E+00 0.  1.
        994   -1    0    0    0    0 -0.00000000000E+00 -0.00000000000E+00  0.11368683772E-12  0.17120000000E+03  0.17120000000E+03 0.  0.
         13    1    1    2    0    0  0.18796376956E+02  0.26519561843E+01  0.91117311751E+02  0.93073692970E+02  0.10566000000E+00 0.  1.
        994    1    1    2    0    0  0.37352762463E+01 -0.10309707706E+02  0.25632221725E+01  0.17156996377E+03  0.17120000000E+03 0.  0.
        998    1    1    2    0    0 -0.22531653202E+02  0.76577515219E+01  0.14063194624E+04  0.14065563433E+04  0.10000000000E+02 0.  1.
</event>
<event>
 5    1  0.1252319E-008  0.3826326E+03  0.7957747E-01  0.3439775E+00
         13   -1    0    0    0    0  0.00000000000E+00  0.00000000000E+00  0.14999999963E+04  0.15000000000E+04  0.10566000000E+00 0. -1.
        994   -1    0    0    0    0 -0.00000000000E+00 -0.00000000000E+00  0.11368683772E-12  0.17120000000E+03  0.17120000000E+03 0.  0.
         13    1    1    2    0    0  0.27875386572E+02 -0.18323381575E+02  0.22595432750E+02  0.40290795898E+02  0.10566000000E+00 0. -1.
        994    1    1    2    0    0 -0.62539679706E+02 -0.63628594318E+01  0.32386018492E+02  0.18522956490E+03  0.17120000000E+03 0.  0.
        998    1    1    2    0    0  0.34664293134E+02  0.24686241007E+02  0.14450185450E+04  0.14456796392E+04  0.10000000000E+02 0. -1.
</event>
<event>
 5    1  0.1252319E-008  0.3827517E+03  0.7957747E-01  0.3439264E+00
         13   -1    0    0    0    0  0.00000000000E+00  0.00000000000E+00  0.14999999963E+04  0.15000000000E+04  0.10566000000E+00 0. -1.
        994   -1    0    0    0    0 -0.00000000000E+00 -0.00000000000E+00  0.11368683772E-12  0.17120000000E+03  0.17120000000E+03 0.  0.
         13    1    1    2    0    0 -0.86195287403E+01  0.18868100042E+02  0.79311699802E+02  0.81979621641E+02  0.10566000000E+00 0. -1.
        994    1    1    2    0    0 -0.29297715206E+02 -0.24354882949E+02  0.75740300151E+01  0.17555148068E+03  0.17120000000E+03 0.  0.
        998    1    1    2    0    0  0.37917243947E+02  0.54867829069E+01  0.14131142665E+04  0.14136688977E+04  0.10000000000E+02 0. -1.
</event>
<event>
 5    1  0.1252319E-008  0.3727364E+03  0.7957747E-01  0.3483409E+00
         13   -1    0    0    0    0  0.00000000000E+00  0.00000000000E+00  0.14999999963E+04  0.15000000000E+04  0.10566000000E+00 0.  1.
        994   -1    0    0    0    0 -0.00000000000E+00 -0.00000000000E+00  0.11368683772E-12  0.17120000000E+03  0.17120000000E+03 0.  0.
         13    1    1    2    0    0  0.37012226426E+02 -0.21217013815E+02  0.10168593883E+03  0.11027287926E+03  0.10566000000E+00 0.  1.
        994    1    1    2    0    0 -0.55150776037E+02  0.10761272545E+02  0.18739478455E+02  0.18115744847E+03  0.17120000000E+03 0.  0.
        998    1    1    2    0    0  0.18138549611E+02  0.10455741270E+02  0.13795745790E+04  0.13797696723E+04  0.10000000000E+02 0.  1.
</event>
<event>
 5    1  0.1252319E-008  0.3837406E+03  0.7957747E-01  0.3435031E+00
         13   -1    0    0    0    0  0.00000000000E+00  0.00000000000E+00  0.14999999963E+04  0.15000000000E+04  0.10566000000E+00 0.  1.
        994   -1    0    0    0    0 -0.00000000000E+00 -0.00000000000E+00  0.11368683772E-12  0.17120000000E+03  0.17120000000E+03 0.  0.
         13    1    1    2    0    0 -0.67127048525E+01 -0.12753091025E+02  0.46002947598E+02  0.48207718146E+02  0.10566000000E+00 0.  1.
        994    1    1    2    0    0  0.56950988791E+01  0.48880300752E+01  0.24427125418E+01  0.17138183636E+03  0.17120000000E+03 0.  0.
        998    1    1    2    0    0  0.10176059734E+01  0.78650609497E+01  0.14515543361E+04  0.14516104455E+04  0.10000000000E+02 0.  1.
</event>
<event>
 5    1  0.1252319E-008  0.3786651E+03  0.7957747E-01  0.3456992E+00
         13   -1    0    0    0    0  0.00000000000E+00  0.00000000000E+00  0.14999999963E+04  0.15000000000E+04  0.10566000000E+00 0. -1.
        994   -1    0    0    0    0 -0.00000000000E+00 -0.00000000000E+00  0.11368683772E-12  0.17120000000E+03  0.17120000000E+03 0.  0.
         13    1    1    2    0    0  0.57022251034E+02 -0.24678107934E+02  0.31330335885E+03  0.31940499676E+03  0.10566000000E+00 0. -1.
        994    1    1    2    0    0 -0.61458302395E+02  0.18404184273E+02  0.18754991238E+02  0.18378527315E+03  0.17120000000E+03 0.  0.
        998    1    1    2    0    0  0.44360513610E+01  0.62739236613E+01  0.11679416462E+04  0.11680097301E+04  0.10000000000E+02 0.  0.
</event>
<event>
 5    1  0.1252319E-008  0.3811218E+03  0.7957747E-01  0.3446288E+00
         13   -1    0    0    0    0  0.00000000000E+00  0.00000000000E+00  0.14999999963E+04  0.15000000000E+04  0.10566000000E+00 0. -1.
        994   -1    0    0    0    0 -0.00000000000E+00 -0.00000000000E+00  0.11368683772E-12  0.17120000000E+03  0.17120000000E+03 0.  0.
         13    1    1    2    0    0 -0.20905785226E+02  0.61996441516E+01  0.69796407782E+02  0.73123437740E+02  0.10566000000E+00 0. -1.
        994    1    1    2    0    0  0.20423360224E+01  0.72356970741E+01  0.37562305372E+01  0.17140617176E+03  0.17120000000E+03 0.  0.
        998    1    1    2    0    0  0.18863449204E+02 -0.13435341226E+02  0.14264473580E+04  0.14266703905E+04  0.10000000000E+02 0. -1.
</event>
<event>
 5    1  0.1252319E-008  0.3795904E+03  0.7957747E-01  0.3452944E+00
         13   -1    0    0    0    0  0.00000000000E+00  0.00000000000E+00  0.14999999963E+04  0.15000000000E+04  0.10566000000E+00 0. -1.
        994   -1    0    0    0    0 -0.00000000000E+00 -0.00000000000E+00  0.11368683772E-12  0.17120000000E+03  0.17120000000E+03 0.  0.
         13    1    1    2    0    0 -0.10053429310E+02 -0.51975380083E+01  0.13071113652E+02  0.17290200068E+02  0.10566000000E+00 0. -1.
        994    1    1    2    0    0 -0.18841922354E+01  0.66878151507E+01  0.45016882175E+01  0.17140006490E+03  0.17120000000E+03 0.  0.
        998    1    1    2    0    0  0.11937621545E+02 -0.14902771424E+01  0.14824271944E+04  0.14825097350E+04  0.10000000000E+02 0. -1.
</event>
<event>
 5    1  0.1252319E-008  0.3777085E+03  0.7957747E-01  0.3461197E+00
         13   -1    0    0    0    0  0.00000000000E+00  0.00000000000E+00  0.14999999963E+04  0.15000000000E+04  0.10566000000E+00 0. -1.
        994   -1    0    0    0    0 -0.00000000000E+00 -0.00000000000E+00  0.11368683772E-12  0.17120000000E+03  0.17120000000E+03 0.  0.
         13    1    1    2    0    0  0.13587664815E+02 -0.46997654823E+02  0.22503866263E+03  0.23029506082E+03  0.10566000000E+00 0. -1.
        994    1    1    2    0    0 -0.79248301766E+01  0.26422526938E+02  0.78618323213E+01  0.17358629344E+03  0.17120000000E+03 0.  0.
        998    1    1    2    0    0 -0.56628346381E+01  0.20575127885E+02  0.12670995013E+04  0.12673186457E+04  0.10000000000E+02 0. -1.
</event>
<event>
 5    1  0.1252319E-008  0.3860026E+03  0.7957747E-01  0.3425431E+00
         13   -1    0    0    0    0  0.00000000000E+00  0.00000000000E+00  0.14999999963E+04  0.15000000000E+04  0.10566000000E+00 0. -1.
        994   -1    0    0    0    0 -0.00000000000E+00 -0.00000000000E+00  0.11368683772E-12  0.17120000000E+03  0.17120000000E+03 0.  0.
         13    1    1    2    0    0 -0.82157296859E+01  0.58562792830E+01  0.47825161385E+02  0.48877923922E+02  0.10566000000E+00 0. -1.
        994    1    1    2    0    0 -0.42904038056E+01 -0.43383209170E+01  0.12552013548E+01  0.17131329231E+03  0.17120000000E+03 0.  0.
        998    1    1    2    0    0  0.12506133491E+02 -0.15179583660E+01  0.14509196335E+04  0.14510087838E+04  0.10000000000E+02 0. -1.
</event>
<event>
 5    1  0.1252319E-008  0.3686933E+03  0.7957747E-01  0.3501918E+00
         13   -1    0    0    0    0  0.00000000000E+00  0.00000000000E+00  0.14999999963E+04  0.15000000000E+04  0.10566000000E+00 0.  1.
        994   -1    0    0    0    0 -0.00000000000E+00 -0.00000000000E+00  0.11368683772E-12  0.17120000000E+03  0.17120000000E+03 0.  0.
         13    1    1    2    0    0 -0.94544196137E+02  0.51164350480E+02  0.37516463242E+03  0.39026261461E+03  0.10566000000E+00 0.  1.
        994    1    1    2    0    0  0.73633885956E+02 -0.14227779522E+03  0.10521426180E+03  0.25699105249E+03  0.17120000000E+03 0.  0.
        998    1    1    2    0    0  0.20910310180E+02  0.91113444737E+02  0.10196211021E+04  0.10239463329E+04  0.10000000000E+02 0.  1.
</event>
<event>
 5    1  0.1252319E-008  0.3851529E+03  0.7957747E-01  0.3429024E+00
         13   -1    0    0    0    0  0.00000000000E+00  0.00000000000E+00  0.14999999963E+04  0.15000000000E+04  0.10566000000E+00 0. -1.
        994   -1    0    0    0    0 -0.00000000000E+00 -0.00000000000E+00  0.11368683772E-12  0.17120000000E+03  0.17120000000E+03 0.  0.
         13    1    1    2    0    0  0.15026877737E+02 -0.98804894215E+01  0.94147561723E+02  0.95849912197E+02  0.10566000000E+00 0. -1.
        994    1    1    2    0    0 -0.19002200879E+02  0.16269442651E+02  0.36139025417E+01  0.17305570980E+03  0.17120000000E+03 0.  0.
        998    1    1    2    0    0  0.39753231424E+01 -0.63889532296E+01  0.14022385320E+04  0.14022943780E+04  0.10000000000E+02 0. -1.
</event>
<event>
 5    1  0.1252319E-008  0.3823653E+03  0.7957747E-01  0.3440924E+00
         13   -1    0    0    0    0  0.00000000000E+00  0.00000000000E+00  0.14999999963E+04  0.15000000000E+04  0.10566000000E+00 0. -1.
        994   -1    0    0    0    0 -0.00000000000E+00 -0.00000000000E+00  0.11368683772E-12  0.17120000000E+03  0.17120000000E+03 0.  0.
         13    1    1    2    0    0 -0.11774029863E+02  0.21519267274E+02  0.11553636778E+03  0.11811168481E+03  0.10566000000E+00 0. -1.
        994    1    1    2    0    0  0.38925609134E+00  0.58992544126E+01  0.30598589264E+01  0.17132937711E+03  0.17120000000E+03 0.  0.
        998    1    1    2    0    0  0.11384773771E+02 -0.27418521687E+02  0.13814037696E+04  0.13817589381E+04  0.10000000000E+02 0. -1.
</event>
<event>
 5    1  0.1252319E-008  0.3848137E+03  0.7957747E-01  0.3430463E+00
         13   -1    0    0    0    0  0.00000000000E+00  0.00000000000E+00  0.14999999963E+04  0.15000000000E+04  0.10566000000E+00 0. -1.
        994   -1    0    0    0    0 -0.00000000000E+00 -0.00000000000E+00  0.11368683772E-12  0.17120000000E+03  0.17120000000E+03 0.  0.
         13    1    1    2    0    0  0.15803101554E+02  0.11231477352E+02  0.99838710978E+02  0.10170380266E+03  0.10566000000E+00 0. -1.
        994    1    1    2    0    0 -0.10900437539E+02 -0.26751287816E+02  0.44733871030E+01  0.17367758097E+03  0.17120000000E+03 0.  0.
        998    1    1    2    0    0 -0.49026640154E+01  0.15519810464E+02  0.13956878982E+04  0.13958186164E+04  0.10000000000E+02 0. -1.
</event>
<event>
 5    1  0.1252319E-008  0.3820700E+03  0.7957747E-01  0.3442194E+00
         13   -1    0    0    0    0  0.00000000000E+00  0.00000000000E+00  0.14999999963E+04  0.15000000000E+04  0.10566000000E+00 0.  1.
        994   -1    0    0    0    0 -0.00000000000E+00 -0.00000000000E+00  0.11368683772E-12  0.17120000000E+03  0.17120000000E+03 0.  0.
         13    1    1    2    0    0  0.16019697094E+02  0.11313156578E+02  0.58856418012E+02  0.62037950579E+02  0.10566000000E+00 0.  1.
        994    1    1    2    0    0 -0.18049250973E+02 -0.11228999683E+02  0.45935702435E+01  0.17257580011E+03  0.17120000000E+03 0.  0.
        998    1    1    2    0    0  0.20295538780E+01 -0.84156894962E-01  0.14365500080E+04  0.14365862493E+04  0.10000000000E+02 0.  1.
</event>
<event>
 5    1  0.1252319E-008  0.3700398E+03  0.7957747E-01  0.3495708E+00
         13   -1    0    0    0    0  0.00000000000E+00  0.00000000000E+00  0.14999999963E+04  0.15000000000E+04  0.10566000000E+00 0.  1.
        994   -1    0    0    0    0 -0.00000000000E+00 -0.00000000000E+00  0.11368683772E-12  0.17120000000E+03  0.17120000000E+03 0.  0.
         13    1    1    2    0    0  0.27668387222E+03  0.17153335747E+03  0.74577040899E+03  0.81372671823E+03  0.10566000000E+00 0.  1.
        994    1    1    2    0    0 -0.28340540769E+03 -0.15502621292E+03  0.60525262315E+03  0.70710107455E+03  0.17120000000E+03 0.  0.
        998    1    1    2    0    0  0.67215354695E+01 -0.16507144545E+02  0.14897696414E+03  0.15037220722E+03  0.10000000000E+02 0.  1.
</event>
<event>
 5    1  0.1383875E-008  0.3865400E+03  0.7957747E-01  0.3423167E+00
         13   -1    0    0    0    0  0.00000000000E+00  0.00000000000E+00  0.14999999963E+04  0.15000000000E+04  0.10566000000E+00 0.  1.
        994   -1    0    0    0    0 -0.00000000000E+00 -0.00000000000E+00  0.11368683772E-12  0.17120000000E+03  0.17120000000E+03 0.  0.
         13    1    1    2    0    0  0.95607392974E+01  0.36962213238E+01  0.56392352458E+02  0.57316475535E+02  0.10566000000E+00 0.  1.
        994    1    1    2    0    0 -0.12410371993E+02 -0.21273233437E+02  0.28548582456E+01  0.17298600524E+03  0.17120000000E+03 0.  0.
        998    1    1    2    0    0  0.28496326953E+01  0.17577012113E+02  0.14407527856E+04  0.14408975192E+04  0.10000000000E+02 0.  1.
</event>
<event>
 5    1  0.1252319E-008  0.3854483E+03  0.7957747E-01  0.3427773E+00
         13   -1    0    0    0    0  0.00000000000E+00  0.00000000000E+00  0.14999999963E+04  0.15000000000E+04  0.10566000000E+00 0. -1.
        994   -1    0    0    0    0 -0.00000000000E+00 -0.00000000000E+00  0.11368683772E-12  0.17120000000E+03  0.17120000000E+03 0.  0.
         13    1    1    2    0    0  0.98253519534E+01 -0.47329330405E+01  0.41582229170E+02  0.42988732744E+02  0.10566000000E+00 0. -1.
        994    1    1    2    0    0 -0.10794883284E+02  0.23822205025E+01  0.18091181406E+01  0.17156607295E+03  0.17120000000E+03 0.  0.
        998    1    1    2    0    0  0.96953133108E+00  0.23507125380E+01  0.14566086490E+04  0.14566451943E+04  0.10000000000E+02 0. -1.
</event>
<event>
 5    1  0.1252319E-008  0.3854116E+03  0.7957747E-01  0.3427928E+00
         13   -1    0    0    0    0  0.00000000000E+00  0.00000000000E+00  0.14999999963E+04  0.15000000000E+04  0.10566000000E+00 0. -1.
        994   -1    0    0    0    0 -0.00000000000E+00 -0.00000000000E+00  0.11368683772E-12  0.17120000000E+03  0.17120000000E+03 0.  0.
         13    1    1    2    0    0 -0.15834405979E+01 -0.13131555640E+02  0.59720953007E+02  0.61168197862E+02  0.10566000000E+00 0. -1.
        994    1    1    2    0    0 -0.51070993651E+00  0.13745547640E+02  0.20475496712E+01  0.17176388842E+03  0.17120000000E+03 0.  0.
        998    1    1    2    0    0  0.20941505344E+01 -0.61399200057E+00  0.14382314936E+04  0.14382679137E+04  0.10000000000E+02 0. -1.
</event>
<event>
 5    1  0.1252319E-008  0.3813092E+03  0.7957747E-01  0.3445478E+00
         13   -1    0    0    0    0  0.00000000000E+00  0.00000000000E+00  0.14999999963E+04  0.15000000000E+04  0.10566000000E+00 0.  1.
        994   -1    0    0    0    0 -0.00000000000E+00 -0.00000000000E+00  0.11368683772E-12  0.17120000000E+03  0.17120000000E+03 0.  0.
         13    1    1    2    0    0 -0.33070120589E+02  0.96226715474E+01  0.15289074866E+03  0.15672211354E+03  0.10566000000E+00 0.  1.
        994    1    1    2    0    0  0.36323461132E+02 -0.24677699399E+01  0.78982257377E+01  0.17520646588E+03  0.17120000000E+03 0.  0.
        998    1    1    2    0    0 -0.32533405426E+01 -0.71549016075E+01  0.13392110219E+04  0.13392714206E+04  0.10000000000E+02 0.  1.
</event>
<event>
 5    1  0.1252319E-008  0.3705214E+03  0.7957747E-01  0.3493498E+00
         13   -1    0    0    0    0  0.00000000000E+00  0.00000000000E+00  0.14999999963E+04  0.15000000000E+04  0.10566000000E+00 0.  1.
        994   -1    0    0    0    0 -0.00000000000E+00 -0.00000000000E+00  0.11368683772E-12  0.17120000000E+03  0.17120000000E+03 0.  0.
         13    1    1    2    0    0  0.29265673938E+02  0.44397506572E+02  0.12556811069E+03  0.13636341095E+03  0.10566000000E+00 0.  1.
        994    1    1    2    0    0 -0.43227818462E+02 -0.33341819445E+01  0.17827448987E+02  0.17750216617E+03  0.17120000000E+03 0.  0.
        998    1    1    2    0    0  0.13962144524E+02 -0.41063324627E+02  0.13566044366E+04  0.13573344229E+04  0.10000000000E+02 0.  1.
</event>
<event>
 5    1  0.1252319E-008  0.3810137E+03  0.7957747E-01  0.3446756E+00
         13   -1    0    0    0    0  0.00000000000E+00  0.00000000000E+00  0.14999999963E+04  0.15000000000E+04  0.10566000000E+00 0.  1.
        994   -1    0    0    0    0 -0.00000000000E+00 -0.00000000000E+00  0.11368683772E-12  0.17120000000E+03  0.17120000000E+03 0.  0.
         13    1    1    2    0    0 -0.35063300310E+02 -0.91060609496E+01  0.20134402517E+03  0.20457708330E+03  0.10566000000E+00 0.  1.
        994    1    1    2    0    0  0.61356798421E+01  0.43772916435E+01  0.38115943294E+01  0.17140821305E+03  0.17120000000E+03 0.  0.
        998    1    1    2    0    0  0.28927620468E+02  0.47287693061E+01  0.12948443768E+04  0.12952147037E+04  0.10000000000E+02 0.  1.
</event>
<event>
 5    1  0.1252319E-008  0.3820879E+03  0.7957747E-01  0.3442117E+00
         13   -1    0    0    0    0  0.00000000000E+00  0.00000000000E+00  0.14999999963E+04  0.15000000000E+04  0.10566000000E+00 0. -1.
        994   -1    0    0    0    0 -0.00000000000E+00 -0.00000000000E+00  0.11368683772E-12  0.17120000000E+03  0.17120000000E+03 0.  0.
         13    1    1    2    0    0  0.23418089247E+02  0.20934570888E+02  0.16557505899E+03  0.16852826020E+03  0.10566000000E+00 0. -1.
        994    1    1    2    0    0 -0.48435519937E+02  0.27608011296E+02  0.13471644165E+02  0.18055228350E+03  0.17120000000E+03 0.  0.
        998    1    1    2    0    0  0.25017430690E+02 -0.48542582184E+02  0.13209532931E+04  0.13221194563E+04  0.10000000000E+02 0. -1.
</event>
<event>
 5    1  0.1252319E-008  0.3755114E+03  0.7957747E-01  0.3470939E+00
         13   -1    0    0    0    0  0.00000000000E+00  0.00000000000E+00  0.14999999963E+04  0.15000000000E+04  0.10566000000E+00 0. -1.
        994   -1    0    0    0    0 -0.00000000000E+00 -0.00000000000E+00  0.11368683772E-12  0.17120000000E+03  0.17120000000E+03 0.  0.
         13    1    1    2    0    0 -0.11000658277E+03  0.52449009936E+02  0.48787867653E+03  0.50286972575E+03  0.10566000000E+00 0. -1.
        994    1    1    2    0    0  0.95842247578E+02  0.33552723896E+01  0.47443810121E+02  0.20188449518E+03  0.17120000000E+03 0.  0.
        998    1    1    2    0    0  0.14164335188E+02 -0.55804282326E+02  0.96467750963E+03  0.96644577908E+03  0.10000000000E+02 0. -1.
</event>
<event>
 5    1  0.1252319E-008  0.3801844E+03  0.7957747E-01  0.3450356E+00
         13   -1    0    0    0    0  0.00000000000E+00  0.00000000000E+00  0.14999999963E+04  0.15000000000E+04  0.10566000000E+00 0. -1.
        994   -1    0    0    0    0 -0.00000000000E+00 -0.00000000000E+00  0.11368683772E-12  0.17120000000E+03  0.17120000000E+03 0.  0.
         13    1    1    2    0    0  0.48955145123E+02  0.66939720864E+01  0.27390557303E+03  0.27832658802E+03  0.10566000000E+00 0. -1.
        994    1    1    2    0    0 -0.37445388771E+02 -0.13231937304E+02  0.93275207753E+01  0.17599342019E+03  0.17120000000E+03 0.  0.
        998    1    1    2    0    0 -0.11509756352E+02  0.65379652174E+01  0.12167669025E+04  0.12168799918E+04  0.10000000000E+02 0. -1.
</event>
<event>
 5    1  0.1252319E-008  0.3805965E+03  0.7957747E-01  0.3448565E+00
         13   -1    0    0    0    0  0.00000000000E+00  0.00000000000E+00  0.14999999963E+04  0.15000000000E+04  0.10566000000E+00 0.  1.
        994   -1    0    0    0    0 -0.00000000000E+00 -0.00000000000E+00  0.11368683772E-12  0.17120000000E+03  0.17120000000E+03 0.  0.
         13    1    1    2    0    0 -0.21344960932E+01  0.12364755725E+02  0.19769872431E+02  0.23415855263E+02  0.10566000000E+00 0.  1.
        994    1    1    2    0    0 -0.25200458326E+01  0.63010939475E+01  0.39859965448E+01  0.17138081160E+03  0.17120000000E+03 0.  0.
        998    1    1    2    0    0  0.46545419259E+01 -0.18665849673E+02  0.14762441273E+04  0.14764033331E+04  0.10000000000E+02 0.  1.
</event>
<event>
 5    1  0.1252319E-008  0.3815310E+03  0.7957747E-01  0.3444519E+00
         13   -1    0    0    0    0  0.00000000000E+00  0.00000000000E+00  0.14999999963E+04  0.15000000000E+04  0.10566000000E+00 0. -1.
        994   -1    0    0    0    0 -0.00000000000E+00 -0.00000000000E+00  0.11368683772E-12  0.17120000000E+03  0.17120000000E+03 0.  0.
         13    1    1    2    0    0  0.74731067439E+01  0.74855620463E+01  0.15075993712E+02  0.18416778057E+02  0.10566000000E+00 0. -1.
        994    1    1    2    0    0 -0.42959802794E+01 -0.12033679105E+02  0.39055127590E+01  0.17172058091E+03  0.17120000000E+03 0.  0.
        998    1    1    2    0    0 -0.31771264645E+01  0.45481170584E+01  0.14810184898E+04  0.14810626410E+04  0.10000000000E+02 0. -1.
</event>
<event>
 5    1  0.1252319E-008  0.3837491E+03  0.7957747E-01  0.3434995E+00
         13   -1    0    0    0    0  0.00000000000E+00  0.00000000000E+00  0.14999999963E+04  0.15000000000E+04  0.10566000000E+00 0. -1.
        994   -1    0    0    0    0 -0.00000000000E+00 -0.00000000000E+00  0.11368683772E-12  0.17120000000E+03  0.17120000000E+03 0.  0.
         13    1    1    2    0    0  0.11526346228E+02  0.71728812552E+01  0.38695921870E+02  0.41008443231E+02  0.10566000000E+00 0. -1.
        994    1    1    2    0    0 -0.24493595047E+02  0.37769472935E+01  0.42832083022E+01  0.17303753177E+03  0.17120000000E+03 0.  0.
        998    1    1    2    0    0  0.12967248819E+02 -0.10949828549E+02  0.14570208661E+04  0.14571540250E+04  0.10000000000E+02 0. -1.
</event>
<event>
 5    1  0.1252319E-008  0.3852432E+03  0.7957747E-01  0.3428641E+00
         13   -1    0    0    0    0  0.00000000000E+00  0.00000000000E+00  0.14999999963E+04  0.15000000000E+04  0.10566000000E+00 0. -1.
        994   -1    0    0    0    0 -0.00000000000E+00 -0.00000000000E+00  0.11368683772E-12  0.17120000000E+03  0.17120000000E+03 0.  0.
         13    1    1    2    0    0  0.81269209780E+01 -0.68096579281E+01  0.31639609034E+02  0.33369062161E+02  0.10566000000E+00 0. -1.
        994    1    1    2    0    0 -0.30461311735E+02  0.29540871357E+02  0.74486596137E+01  0.17653746663E+03  0.17120000000E+03 0.  0.
        998    1    1    2    0    0  0.22334390757E+02 -0.22731213429E+02  0.14609117276E+04  0.14612934712E+04  0.10000000000E+02 0. -1.
</event>
<event>
 5    1  0.1252319E-008  0.3858323E+03  0.7957747E-01  0.3426150E+00
         13   -1    0    0    0    0  0.00000000000E+00  0.00000000000E+00  0.14999999963E+04  0.15000000000E+04  0.10566000000E+00 0.  1.
        994   -1    0    0    0    0 -0.00000000000E+00 -0.00000000000E+00  0.11368683772E-12  0.17120000000E+03  0.17120000000E+03 0.  0.
         13    1    1    2    0    0 -0.74880665490E+01 -0.10464497747E+02  0.71148030379E+02  0.72302352967E+02  0.10566000000E+00 0.  1.
        994    1    1    2    0    0 -0.43531432065E+01  0.79360034948E+01  0.14862586735E+01  0.17144555687E+03  0.17120000000E+03 0.  0.
        998    1    1    2    0    0  0.11841209756E+02  0.25284942522E+01  0.14273657072E+04  0.14274520902E+04  0.10000000000E+02 0.  1.
</event>
<event>
 5    1  0.1252319E-008  0.3851589E+03  0.7957747E-01  0.3428999E+00
         13   -1    0    0    0    0  0.00000000000E+00  0.00000000000E+00  0.14999999963E+04  0.15000000000E+04  0.10566000000E+00 0. -1.
        994   -1    0    0    0    0 -0.00000000000E+00 -0.00000000000E+00  0.11368683772E-12  0.17120000000E+03  0.17120000000E+03 0.  0.
         13    1    1    2    0    0 -0.34819771129E+01 -0.10731671721E+02  0.41395067918E+02  0.42905194959E+02  0.10566000000E+00 0. -1.
        994    1    1    2    0    0  0.25867195338E+00  0.59053861835E+01  0.16661183079E+01  0.17131011776E+03  0.17120000000E+03 0.  0.
        998    1    1    2    0    0  0.32233051595E+01  0.48262855376E+01  0.14569388101E+04  0.14569846873E+04  0.10000000000E+02 0. -1.
</event>
<event>
 5    1  0.1252319E-008  0.3846623E+03  0.7957747E-01  0.3431106E+00
         13   -1    0    0    0    0  0.00000000000E+00  0.00000000000E+00  0.14999999963E+04  0.15000000000E+04  0.10566000000E+00 0. -1.
        994   -1    0    0    0    0 -0.00000000000E+00 -0.00000000000E+00  0.11368683772E-12  0.17120000000E+03  0.17120000000E+03 0.  0.
         13    1    1    2    0    0  0.13644085251E+01  0.11852965335E+02  0.38456869220E+02  0.40265324438E+02  0.10566000000E+00 0. -1.
        994    1    1    2    0    0  0.20117388167E+01 -0.13029639604E+02  0.23703547215E+01  0.17172325755E+03  0.17120000000E+03 0.  0.
        998    1    1    2    0    0 -0.33761473418E+01  0.11766742690E+01  0.14591727723E+04  0.14592114180E+04  0.10000000000E+02 0. -1.
</event>
<event>
 5    1  0.1252319E-008  0.3818619E+03  0.7957747E-01  0.3443091E+00
         13   -1    0    0    0    0  0.00000000000E+00  0.00000000000E+00  0.14999999963E+04  0.15000000000E+04  0.10566000000E+00 0.  1.
        994   -1    0    0    0    0 -0.00000000000E+00 -0.00000000000E+00  0.11368683772E-12  0.17120000000E+03  0.17120000000E+03 0.  0.
         13    1    1    2    0    0 -0.18447074285E+02 -0.30027339920E+01  0.52613931923E+02  0.55835006560E+02  0.10566000000E+00 0.  1.
        994    1    1    2    0    0  0.15931423413E+02  0.39980076095E+01  0.40930935095E+01  0.17203484453E+03  0.17120000000E+03 0.  0.
        998    1    1    2    0    0  0.25156508717E+01 -0.99527361747E+00  0.14432929708E+04  0.14433301489E+04  0.10000000000E+02 0.  1.
</event>
<event>
 5    1  0.1252319E-008  0.3855553E+03  0.7957747E-01  0.3427320E+00
         13   -1    0    0    0    0  0.00000000000E+00  0.00000000000E+00  0.14999999963E+04  0.15000000000E+04  0.10566000000E+00 0. -1.
        994   -1    0    0    0    0 -0.00000000000E+00 -0.00000000000E+00  0.11368683772E-12  0.17120000000E+03  0.17120000000E+03 0.  0.
         13    1    1    2    0    0 -0.14362984404E+02  0.63175925057E+01  0.91053372856E+02  0.92395536519E+02  0.10566000000E+00 0. -1.
        994    1    1    2    0    0  0.44541208643E+01 -0.16978498834E+02  0.23667774359E+01  0.17211377124E+03  0.17120000000E+03 0.  0.
        998    1    1    2    0    0  0.99088635396E+01  0.10660906328E+02  0.14065798460E+04  0.14066906922E+04  0.10000000000E+02 0. -1.
</event>
<event>
 5    1  0.1252319E-008  0.3845832E+03  0.7957747E-01  0.3431442E+00
         13   -1    0    0    0    0  0.00000000000E+00  0.00000000000E+00  0.14999999963E+04  0.15000000000E+04  0.10566000000E+00 0. -1.
        994   -1    0    0    0    0 -0.00000000000E+00 -0.00000000000E+00  0.11368683772E-12  0.17120000000E+03  0.17120000000E+03 0.  0.
         13    1    1    2    0    0  0.12831723463E+02 -0.39871807496E+01  0.50461893574E+02  0.52220346652E+02  0.10566000000E+00 0. -1.
        994    1    1    2    0    0 -0.43785358775E+01 -0.38262659791E+01  0.19485587101E+01  0.17130980348E+03  0.17120000000E+03 0.  0.
        998    1    1    2    0    0 -0.84531875853E+01  0.78134467287E+01  0.14475895440E+04  0.14476698499E+04  0.10000000000E+02 0. -1.
</event>
<event>
 5    1  0.1252319E-008  0.3802694E+03  0.7957747E-01  0.3449986E+00
         13   -1    0    0    0    0  0.00000000000E+00  0.00000000000E+00  0.14999999963E+04  0.15000000000E+04  0.10566000000E+00 0.  1.
        994   -1    0    0    0    0 -0.00000000000E+00 -0.00000000000E+00  0.11368683772E-12  0.17120000000E+03  0.17120000000E+03 0.  0.
         13    1    1    2    0    0  0.23959802274E+02 -0.34009147289E+01  0.71818032824E+02  0.75785746343E+02  0.10566000000E+00 0.  1.
        994    1    1    2    0    0 -0.15577630680E+02 -0.85787795975E+00  0.48105733958E+01  0.17197668490E+03  0.17120000000E+03 0.  0.
        998    1    1    2    0    0 -0.83821715938E+01  0.42587926887E+01  0.14233713901E+04  0.14234375688E+04  0.10000000000E+02 0.  1.
</event>
<event>
 5    1  0.1252319E-008  0.3839166E+03  0.7957747E-01  0.3434280E+00
         13   -1    0    0    0    0  0.00000000000E+00  0.00000000000E+00  0.14999999963E+04  0.15000000000E+04  0.10566000000E+00 0.  1.
        994   -1    0    0    0    0 -0.00000000000E+00 -0.00000000000E+00  0.11368683772E-12  0.17120000000E+03  0.17120000000E+03 0.  0.
         13    1    1    2    0    0 -0.79389050962E+01  0.82849845269E+01  0.28599744974E+02  0.30815965981E+02  0.10566000000E+00 0.  1.
        994    1    1    2    0    0  0.17491539849E+02 -0.81702284098E+01  0.33999799472E+01  0.17231861902E+03  0.17120000000E+03 0.  0.
        998    1    1    2    0    0 -0.95526347530E+01 -0.11475611713E+00  0.14680002714E+04  0.14680654150E+04  0.10000000000E+02 0.  1.
</event>
<event>
 5    1  0.1252319E-008  0.3821192E+03  0.7957747E-01  0.3441982E+00
         13   -1    0    0    0    0  0.00000000000E+00  0.00000000000E+00  0.14999999963E+04  0.15000000000E+04  0.10566000000E+00 0.  1.
        994   -1    0    0    0    0 -0.00000000000E+00 -0.00000000000E+00  0.11368683772E-12  0.17120000000E+03  0.17120000000E+03 0.  0.
         13    1    1    2    0    0  0.96519070606E+01  0.36606241415E+02  0.20119281104E+03  0.20472355653E+03  0.10566000000E+00 0.  1.
        994    1    1    2    0    0 -0.12729274823E+02 -0.37445091399E+02  0.82771518011E+01  0.17590372523E+03  0.17120000000E+03 0.  0.
        998    1    1    2    0    0  0.30773677629E+01  0.83884998360E+00  0.12905300334E+04  0.12905727182E+04  0.10000000000E+02 0.  0.
</event>
<event>
 5    1  0.1252319E-008  0.3843830E+03  0.7957747E-01  0.3432293E+00
         13   -1    0    0    0    0  0.00000000000E+00  0.00000000000E+00  0.14999999963E+04  0.15000000000E+04  0.10566000000E+00 0. -1.
        994   -1    0    0    0    0 -0.00000000000E+00 -0.00000000000E+00  0.11368683772E-12  0.17120000000E+03  0.17120000000E+03 0.  0.
         13    1    1    2    0    0 -0.75376502926E+02 -0.26557671666E+02  0.19675518122E+03  0.21236652189E+03  0.10566000000E+00 0. -1.
        994    1    1    2    0    0 -0.89993189915E+00  0.22464056247E+02  0.20619463722E+02  0.17389665317E+03  0.17120000000E+03 0.  0.
        998    1    1    2    0    0  0.76276434825E+02  0.40936154186E+01  0.12826253513E+04  0.12849368249E+04  0.10000000000E+02 0. -1.
</event>
<event>
 5    1  0.1252319E-008  0.3746085E+03  0.7957747E-01  0.3474975E+00
         13   -1    0    0    0    0  0.00000000000E+00  0.00000000000E+00  0.14999999963E+04  0.15000000000E+04  0.10566000000E+00 0. -1.
        994   -1    0    0    0    0 -0.00000000000E+00 -0.00000000000E+00  0.11368683772E-12  0.17120000000E+03  0.17120000000E+03 0.  0.
         13    1    1    2    0    0 -0.17107689035E+02  0.62862220731E+01  0.20855309947E+02  0.27697377657E+02  0.10566000000E+00 0. -1.
        994    1    1    2    0    0  0.14778901402E+02 -0.16584003472E+02  0.85612345837E+01  0.17284727315E+03  0.17120000000E+03 0.  0.
        998    1    1    2    0    0  0.23287876333E+01  0.10297781399E+02  0.14705834517E+04  0.14706553492E+04  0.10000000000E+02 0. -1.
</event>
<event>
 5    1  0.1252319E-008  0.3820738E+03  0.7957747E-01  0.3442178E+00
         13   -1    0    0    0    0  0.00000000000E+00  0.00000000000E+00  0.14999999963E+04  0.15000000000E+04  0.10566000000E+00 0. -1.
        994   -1    0    0    0    0 -0.00000000000E+00 -0.00000000000E+00  0.11368683772E-12  0.17120000000E+03  0.17120000000E+03 0.  0.
         13    1    1    2    0    0  0.36580564831E+01  0.12014015168E+02  0.24839044081E+02  0.27833562700E+02  0.10566000000E+00 0. -1.
        994    1    1    2    0    0  0.39240904871E+01 -0.36410924098E+01  0.31851051564E+01  0.17131328301E+03  0.17120000000E+03 0.  0.
        998    1    1    2    0    0 -0.75821469702E+01 -0.83729227579E+01  0.14719758470E+04  0.14720531543E+04  0.10000000000E+02 0. -1.
</event>
<event>
 5    1  0.1252319E-008  0.3795347E+03  0.7957747E-01  0.3453187E+00
         13   -1    0    0    0    0  0.00000000000E+00  0.00000000000E+00  0.14999999963E+04  0.15000000000E+04  0.10566000000E+00 0. -1.
        994   -1    0    0    0    0 -0.00000000000E+00 -0.00000000000E+00  0.11368683772E-12  0.17120000000E+03  0.17120000000E+03 0.  0.
         13    1    1    2    0    0  0.10058869709E+02 -0.15430494365E+01  0.98741089495E+01  0.14179952502E+02  0.10566000000E+00 0. -1.
        994    1    1    2    0    0 -0.88465994956E+01  0.13713469041E+01  0.46365945377E+01  0.17149659158E+03  0.17120000000E+03 0.  0.
        998    1    1    2    0    0 -0.12122702134E+01  0.17170253237E+00  0.14854892928E+04  0.14855234559E+04  0.10000000000E+02 0. -1.
</event>
<event>
 5    1  0.1252319E-008  0.3731486E+03  0.7957747E-01  0.3481544E+00
         13   -1    0    0    0    0  0.00000000000E+00  0.00000000000E+00  0.14999999963E+04  0.15000000000E+04  0.10566000000E+00 0.  1.
        994   -1    0    0    0    0 -0.00000000000E+00 -0.00000000000E+00  0.11368683772E-12  0.17120000000E+03  0.17120000000E+03 0.  0.
         13    1    1    2    0    0 -0.37058234919E+01 -0.32333168647E+02  0.75486061312E+02  0.82202941182E+02  0.10566000000E+00 0.  1.
        994    1    1    2    0    0 -0.71985782680E+00 -0.14636210255E+02  0.83673983760E+01  0.17202962013E+03  0.17120000000E+03 0.  0.
        998    1    1    2    0    0  0.44256813187E+01  0.46969378902E+02  0.14161465366E+04  0.14169674387E+04  0.10000000000E+02 0.  1.
</event>
<event>
 5    1  0.1252319E-008  0.3870699E+03  0.7957747E-01  0.3420941E+00
         13   -1    0    0    0    0  0.00000000000E+00  0.00000000000E+00  0.14999999963E+04  0.15000000000E+04  0.10566000000E+00 0. -1.
        994   -1    0    0    0    0 -0.00000000000E+00 -0.00000000000E+00  0.11368683772E-12  0.17120000000E+03  0.17120000000E+03 0.  0.
         13    1    1    2    0    0 -0.18042074268E+02  0.64397910368E+01 -0.10263425528E+00  0.19157480270E+02  0.10566000000E+00 0. -1.
        994    1    1    2    0    0  0.25965712050E+02 -0.14052975608E+00  0.22778375196E+02  0.17464974185E+03  0.17120000000E+03 0.  0.
        998    1    1    2    0    0 -0.79236377827E+01 -0.62992612807E+01  0.14773242553E+04  0.14773927779E+04  0.10000000000E+02 0. -1.
</event>
<event>
 5    1  0.1252319E-008  0.3722721E+03  0.7957747E-01  0.3485513E+00
         13   -1    0    0    0    0  0.00000000000E+00  0.00000000000E+00  0.14999999963E+04  0.15000000000E+04  0.10566000000E+00 0. -1.
        994   -1    0    0    0    0 -0.00000000000E+00 -0.00000000000E+00  0.11368683772E-12  0.17120000000E+03  0.17120000000E+03 0.  0.
         13    1    1    2    0    0 -0.75022072993E+01 -0.13233446044E+02  0.10541131502E+02  0.18507669382E+02  0.10566000000E+00 0. -1.
        994    1    1    2    0    0  0.98629773729E+00  0.19332306851E+02  0.93728739068E+01  0.17254565088E+03  0.17120000000E+03 0.  0.
        998    1    1    2    0    0  0.65159095620E+01 -0.60988608073E+01  0.14800859909E+04  0.14801466797E+04  0.10000000000E+02 0. -1.
</event>
<event>
 5    1  0.1311867E-008  0.3860127E+03  0.7957747E-01  0.3425389E+00
         13   -1    0    0    0    0  0.00000000000E+00  0.00000000000E+00  0.14999999963E+04  0.15000000000E+04  0.10566000000E+00 0. -1.
        994   -1    0    0    0    0 -0.00000000000E+00 -0.00000000000E+00  0.11368683772E-12  0.17120000000E+03  0.17120000000E+03 0.  0.
         13    1    1    2    0    0 -0.28709482480E+01 -0.11442369551E+02  0.59656832222E+02  0.60812161280E+02  0.10566000000E+00 0. -1.
        994    1    1    2    0    0  0.37146679395E+01  0.13693138981E+02  0.17883032937E+01  0.17179621312E+03  0.17120000000E+03 0.  0.
        998    1    1    2    0    0 -0.84371969145E+00 -0.22507694299E+01  0.14385548608E+04  0.14385916256E+04  0.10000000000E+02 0. -1.
</event>
<event>
 5    1  0.1252319E-008  0.3835324E+03  0.7957747E-01  0.3435920E+00
         13   -1    0    0    0    0  0.00000000000E+00  0.00000000000E+00  0.14999999963E+04  0.15000000000E+04  0.10566000000E+00 0.  1.
        994   -1    0    0    0    0 -0.00000000000E+00 -0.00000000000E+00  0.11368683772E-12  0.17120000000E+03  0.17120000000E+03 0.  0.
         13    1    1    2    0    0 -0.26020188122E+02 -0.46171832812E+01  0.15605138628E+03  0.15827322861E+03  0.10566000000E+00 0.  1.
        994    1    1    2    0    0  0.94250244762E+01 -0.13244505686E+01  0.26599157801E+01  0.17148498595E+03  0.17120000000E+03 0.  0.
        998    1    1    2    0    0  0.16595163646E+02  0.59416338499E+01  0.13412886942E+04  0.13414417854E+04  0.10000000000E+02 0.  1.
</event>
<event>
 5    1  0.1252319E-008  0.3829576E+03  0.7957747E-01  0.3438381E+00
         13   -1    0    0    0    0  0.00000000000E+00  0.00000000000E+00  0.14999999963E+04  0.15000000000E+04  0.10566000000E+00 0. -1.
        994   -1    0    0    0    0 -0.00000000000E+00 -0.00000000000E+00  0.11368683772E-12  0.17120000000E+03  0.17120000000E+03 0.  0.
         13    1    1    2    0    0  0.10956542756E+02  0.89455870025E+01  0.36175985123E+02  0.38843048536E+02  0.10566000000E+00 0. -1.
        994    1    1    2    0    0 -0.11345298599E+02 -0.95127586328E+01  0.33735883510E+01  0.17187213118E+03  0.17120000000E+03 0.  0.
        998    1    1    2    0    0  0.38875584307E+00  0.56717163022E+00  0.14604504228E+04  0.14604848203E+04  0.10000000000E+02 0. -1.
</event>
<event>
 5    1  0.1252319E-008  0.3734102E+03  0.7957747E-01  0.3480364E+00
         13   -1    0    0    0    0  0.00000000000E+00  0.00000000000E+00  0.14999999963E+04  0.15000000000E+04  0.10566000000E+00 0. -1.
        994   -1    0    0    0    0 -0.00000000000E+00 -0.00000000000E+00  0.11368683772E-12  0.17120000000E+03  0.17120000000E+03 0.  0.
         13    1    1    2    0    0 -0.11960378267E+03  0.59729684088E+01  0.61629842926E+03  0.62782521951E+03  0.10566000000E+00 0. -1.
        994    1    1    2    0    0  0.10918736167E+03 -0.21958200075E+02  0.51152461696E+02  0.21054704186E+03  0.17120000000E+03 0.  0.
        998    1    1    2    0    0  0.10416421005E+02  0.15985231666E+02  0.83254910532E+03  0.83282773863E+03  0.10000000000E+02 0. -1.
</event>
<event>
 5    1  0.1252319E-008  0.3824592E+03  0.7957747E-01  0.3440520E+00
         13   -1    0    0    0    0  0.00000000000E+00  0.00000000000E+00  0.14999999963E+04  0.15000000000E+04  0.10566000000E+00 0.  1.
        994   -1    0    0    0    0 -0.00000000000E+00 -0.00000000000E+00  0.11368683772E-12  0.17120000000E+03  0.17120000000E+03 0.  0.
         13    1    1    2    0    0  0.79919759368E+01  0.23185821177E+02  0.95418270116E+02  0.98519599162E+02  0.10566000000E+00 0.  1.
        994    1    1    2    0    0 -0.18147231310E+02 -0.23598743817E+02  0.58411335024E+01  0.17386713765E+03  0.17120000000E+03 0.  0.
        998    1    1    2    0    0  0.10155255373E+02  0.41292264004E+00  0.13987405927E+04  0.13988132632E+04  0.10000000000E+02 0.  1.
</event>
<event>
 5    1  0.1252319E-008  0.3892668E+03  0.7957747E-01  0.3411775E+00
         13   -1    0    0    0    0  0.00000000000E+00  0.00000000000E+00  0.14999999963E+04  0.15000000000E+04  0.10566000000E+00 0. -1.
        994   -1    0    0    0    0 -0.00000000000E+00 -0.00000000000E+00  0.11368683772E-12  0.17120000000E+03  0.17120000000E+03 0.  0.
         13    1    1    2    0    0  0.69908281972E+02 -0.38285333179E+02  0.15832162520E+03  0.17725316018E+03  0.10566000000E+00 0. -1.
        994    1    1    2    0    0 -0.11365680854E+02  0.20831458012E+02  0.23628869519E+02  0.17444452361E+03  0.17120000000E+03 0.  0.
        998    1    1    2    0    0 -0.58542601118E+02  0.17453875167E+02  0.13180495016E+04  0.13195023162E+04  0.10000000000E+02 0.  1.
</event>
<event>
 5    1  0.1252319E-008  0.3851174E+03  0.7957747E-01  0.3429174E+00
         13   -1    0    0    0    0  0.00000000000E+00  0.00000000000E+00  0.14999999963E+04  0.15000000000E+04  0.10566000000E+00 0. -1.
        994   -1    0    0    0    0 -0.00000000000E+00 -0.00000000000E+00  0.11368683772E-12  0.17120000000E+03  0.17120000000E+03 0.  0.
         13    1    1    2    0    0  0.17217953614E+02 -0.24538538003E+01  0.93214237832E+02  0.94822911913E+02  0.10566000000E+00 0. -1.
        994    1    1    2    0    0 -0.14728122070E+02  0.67374792502E+01  0.24346365577E+01  0.17198162303E+03  0.17120000000E+03 0.  0.
        998    1    1    2    0    0 -0.24898315440E+01 -0.42836254499E+01  0.14043511219E+04  0.14043954651E+04  0.10000000000E+02 0. -1.
</event>
<event>
 5    1  0.1252319E-008  0.2770376E+03  0.7957747E-01  0.4074940E+00
         13   -1    0    0    0    0  0.00000000000E+00  0.00000000000E+00  0.14999999963E+04  0.15000000000E+04  0.10566000000E+00 0. -1.
        994   -1    0    0    0    0 -0.00000000000E+00 -0.00000000000E+00  0.11368683772E-12  0.17120000000E+03  0.17120000000E+03 0.  0.
         13    1    1    2    0    0 -0.14546640828E+03 -0.88022290697E+02  0.89053582366E+03  0.90662145573E+03  0.10566000000E+00 0. -1.
        994    1    1    2    0    0 -0.49835993957E+02  0.65167155978E+02  0.92072997506E+02  0.21099114053E+03  0.17120000000E+03 0.  0.
        998    1    1    2    0    0  0.19530240223E+03  0.22855134720E+02  0.51739117511E+03  0.55358740374E+03  0.10000000000E+02 0. -1.
</event>
<event>
 5    1  0.1252319E-008  0.3837331E+03  0.7957747E-01  0.3435063E+00
         13   -1    0    0    0    0  0.00000000000E+00  0.00000000000E+00  0.14999999963E+04  0.15000000000E+04  0.10566000000E+00 0.  1.
        994   -1    0    0    0    0 -0.00000000000E+00 -0.00000000000E+00  0.11368683772E-12  0.17120000000E+03  0.17120000000E+03 0.  0.
         13    1    1    2    0    0  0.10387991790E+02  0.18861775666E+02  0.96471984059E+02  0.98846000561E+02  0.10566000000E+00 0.  1.
        994    1    1    2    0    0 -0.11571763838E+02 -0.18777181648E+02  0.38685541349E+01  0.17265831570E+03  0.17120000000E+03 0.  0.
        998    1    1    2    0    0  0.11837720473E+01 -0.84594018152E-01  0.13996594581E+04  0.13996956837E+04  0.10000000000E+02 0.  1.
</event>
<event>
 5    1  0.1252319E-008  0.3849868E+03  0.7957747E-01  0.3429728E+00
         13   -1    0    0    0    0  0.00000000000E+00  0.00000000000E+00  0.14999999963E+04  0.15000000000E+04  0.10566000000E+00 0.  1.
        994   -1    0    0    0    0 -0.00000000000E+00 -0.00000000000E+00  0.11368683772E-12  0.17120000000E+03  0.17120000000E+03 0.  0.
         13    1    1    2    0    0 -0.26298522807E+01  0.17647209375E+02  0.90862576158E+02  0.92597834920E+02  0.10566000000E+00 0.  1.
        994    1    1    2    0    0 -0.57808248493E+01 -0.21942305225E+02  0.33318790357E+01  0.17272933773E+03  0.17120000000E+03 0.  0.
        998    1    1    2    0    0  0.84106771300E+01  0.42950958506E+01  0.14058055411E+04  0.14058728274E+04  0.10000000000E+02 0.  1.
</event>
<event>
 5    1  0.1252319E-008  0.3846279E+03  0.7957747E-01  0.3431252E+00
         13   -1    0    0    0    0  0.00000000000E+00  0.00000000000E+00  0.14999999963E+04  0.15000000000E+04  0.10566000000E+00 0. -1.
        994   -1    0    0    0    0 -0.00000000000E+00 -0.00000000000E+00  0.11368683772E-12  0.17120000000E+03  0.17120000000E+03 0.  0.
         13    1    1    2    0    0 -0.48864950897E+01 -0.11949924782E+02  0.46665764217E+02  0.48418831569E+02  0.10566000000E+00 0. -1.
        994    1    1    2    0    0  0.47367941188E+01  0.28947213227E+01  0.19164651538E+01  0.17130069897E+03  0.17120000000E+03 0.  0.
        998    1    1    2    0    0  0.14970097095E+00  0.90552034591E+01  0.14514177669E+04  0.14514804695E+04  0.10000000000E+02 0. -1.
</event>
<event>
 5    1  0.1252319E-008  0.3785996E+03  0.7957747E-01  0.3457279E+00
         13   -1    0    0    0    0  0.00000000000E+00  0.00000000000E+00  0.14999999963E+04  0.15000000000E+04  0.10566000000E+00 0. -1.
        994   -1    0    0    0    0 -0.00000000000E+00 -0.00000000000E+00  0.11368683772E-12  0.17120000000E+03  0.17120000000E+03 0.  0.
         13    1    1    2    0    0  0.42420735730E+02 -0.28235258417E+00  0.17525513703E+03  0.18031631308E+03  0.10566000000E+00 0. -1.
        994    1    1    2    0    0 -0.32680955062E+02  0.17065693921E+02  0.94203771260E+01  0.17537806658E+03  0.17120000000E+03 0.  0.
        998    1    1    2    0    0 -0.97397806685E+01 -0.16783341337E+02  0.13153244821E+04  0.13155056203E+04  0.10000000000E+02 0. -1.
</event>
<event>
 5    1  0.1252319E-008  0.3849826E+03  0.7957747E-01  0.3429746E+00
         13   -1    0    0    0    0  0.00000000000E+00  0.00000000000E+00  0.14999999963E+04  0.15000000000E+04  0.10566000000E+00 0.  1.
        994   -1    0    0    0    0 -0.00000000000E+00 -0.00000000000E+00  0.11368683772E-12  0.17120000000E+03  0.17120000000E+03 0.  0.
         13    1    1    2    0    0  0.30522390267E+01  0.10721445162E+02  0.37240131547E+02  0.38872922595E+02  0.10566000000E+00 0.  1.
        994    1    1    2    0    0 -0.71084038072E+01 -0.87823019724E+01  0.20587151916E+01  0.17158477946E+03  0.17120000000E+03 0.  0.
        998    1    1    2    0    0  0.40561647805E+01 -0.19391431899E+01  0.14607011495E+04  0.14607422979E+04  0.10000000000E+02 0.  1.
</event>
<event>
 5    1  0.1252319E-008  0.3834995E+03  0.7957747E-01  0.3436061E+00
         13   -1    0    0    0    0  0.00000000000E+00  0.00000000000E+00  0.14999999963E+04  0.15000000000E+04  0.10566000000E+00 0.  1.
        994   -1    0    0    0    0 -0.00000000000E+00 -0.00000000000E+00  0.11368683772E-12  0.17120000000E+03  0.17120000000E+03 0.  0.
         13    1    1    2    0    0  0.46292516148E+01 -0.13408932394E+02  0.42249418894E+02  0.44567409611E+02  0.10566000000E+00 0.  1.
        994    1    1    2    0    0 -0.10482120371E+01  0.62819936090E+01  0.25110270175E+01  0.17133682456E+03  0.17120000000E+03 0.  0.
        998    1    1    2    0    0 -0.35810395776E+01  0.71269387853E+01  0.14552395504E+04  0.14552957658E+04  0.10000000000E+02 0.  1.
</event>
<event>
 5    1  0.1252319E-008  0.3799783E+03  0.7957747E-01  0.3451253E+00
         13   -1    0    0    0    0  0.00000000000E+00  0.00000000000E+00  0.14999999963E+04  0.15000000000E+04  0.10566000000E+00 0.  1.
        994   -1    0    0    0    0 -0.00000000000E+00 -0.00000000000E+00  0.11368683772E-12  0.17120000000E+03  0.17120000000E+03 0.  0.
         13    1    1    2    0    0  0.91892583526E+00  0.46397218249E+02  0.24956324577E+03  0.25384123205E+03  0.10566000000E+00 0.  1.
        994    1    1    2    0    0 -0.19117041804E+02 -0.30925032726E+02  0.85757959492E+01  0.17522786083E+03  0.17120000000E+03 0.  0.
        998    1    1    2    0    0  0.18198115968E+02 -0.15472185523E+02  0.12418609546E+04  0.12421309071E+04  0.10000000000E+02 0.  1.
</event>
<event>
 5    1  0.1252319E-008  0.3807243E+03  0.7957747E-01  0.3448011E+00
         13   -1    0    0    0    0  0.00000000000E+00  0.00000000000E+00  0.14999999963E+04  0.15000000000E+04  0.10566000000E+00 0.  1.
        994   -1    0    0    0    0 -0.00000000000E+00 -0.00000000000E+00  0.11368683772E-12  0.17120000000E+03  0.17120000000E+03 0.  0.
         13    1    1    2    0    0 -0.49354701147E+02 -0.35860162971E+01  0.27974488813E+03  0.28408794349E+03  0.10566000000E+00 0.  1.
        994    1    1    2    0    0  0.44615439104E+02 -0.33020401896E+01  0.10471660449E+02  0.17725838922E+03  0.17120000000E+03 0.  0.
        998    1    1    2    0    0  0.47392620434E+01  0.68880564867E+01  0.12097834477E+04  0.12098536673E+04  0.10000000000E+02 0.  1.
</event>
<event>
 5    1  0.1252319E-008  0.3848908E+03  0.7957747E-01  0.3430135E+00
         13   -1    0    0    0    0  0.00000000000E+00  0.00000000000E+00  0.14999999963E+04  0.15000000000E+04  0.10566000000E+00 0. -1.
        994   -1    0    0    0    0 -0.00000000000E+00 -0.00000000000E+00  0.11368683772E-12  0.17120000000E+03  0.17120000000E+03 0.  0.
         13    1    1    2    0    0  0.12159831071E+02  0.10126167151E+02  0.81113073238E+02  0.82642256546E+02  0.10566000000E+00 0. -1.
        994    1    1    2    0    0  0.10176684737E+02 -0.93959200152E+01  0.23157506439E+01  0.17177500088E+03  0.17120000000E+03 0.  0.
        998    1    1    2    0    0 -0.22336515808E+02 -0.73024713609E+00  0.14165711724E+04  0.14167827426E+04  0.10000000000E+02 0. -1.
</event>
<event>
 5    1  0.1252319E-008  0.3743793E+03  0.7957747E-01  0.3476003E+00
         13   -1    0    0    0    0  0.00000000000E+00  0.00000000000E+00  0.14999999963E+04  0.15000000000E+04  0.10566000000E+00 0.  1.
        994   -1    0    0    0    0 -0.00000000000E+00 -0.00000000000E+00  0.11368683772E-12  0.17120000000E+03  0.17120000000E+03 0.  0.
         13    1    1    2    0    0 -0.34542864983E+02  0.16762449609E+02  0.50375352597E+02  0.63339375995E+02  0.10566000000E+00 0.  1.
        994    1    1    2    0    0  0.39786431618E+02  0.20276890305E+02  0.20387305573E+02  0.17809883394E+03  0.17120000000E+03 0.  0.
        998    1    1    2    0    0 -0.52435666345E+01 -0.37039339914E+02  0.14292373381E+04  0.14297617901E+04  0.10000000000E+02 0.  1.
</event>
<event>
 5    1  0.1252319E-008  0.2671110E+03  0.7957747E-01  0.4162954E+00
         13   -1    0    0    0    0  0.00000000000E+00  0.00000000000E+00  0.14999999963E+04  0.15000000000E+04  0.10566000000E+00 0.  1.
        994   -1    0    0    0    0 -0.00000000000E+00 -0.00000000000E+00  0.11368683772E-12  0.17120000000E+03  0.17120000000E+03 0.  0.
         13    1    1    2    0    0 -0.78768616931E+02 -0.15107241227E+03  0.54765120773E+03  0.57354095343E+03  0.10566000000E+00 0.  1.
        994    1    1    2    0    0  0.10299922088E+02  0.90788823713E+02  0.63642020848E+02  0.20422645696E+03  0.17120000000E+03 0.  0.
        998    1    1    2    0    0  0.68468694843E+02  0.60283588562E+02  0.88870676770E+03  0.89343258961E+03  0.10000000000E+02 0.  1.
</event>
<event>
 5    1  0.1252319E-008  0.3729997E+03  0.7957747E-01  0.3482217E+00
         13   -1    0    0    0    0  0.00000000000E+00  0.00000000000E+00  0.14999999963E+04  0.15000000000E+04  0.10566000000E+00 0.  1.
        994   -1    0    0    0    0 -0.00000000000E+00 -0.00000000000E+00  0.11368683772E-12  0.17120000000E+03  0.17120000000E+03 0.  0.
         13    1    1    2    0    0  0.93025434803E+01 -0.72829950793E+01  0.54990435442E+01  0.13031883074E+02  0.10566000000E+00 0.  1.
        994    1    1    2    0    0 -0.13194951815E+02 -0.15698570506E+01  0.83140084414E+01  0.17191606656E+03  0.17120000000E+03 0.  0.
        998    1    1    2    0    0  0.38924083345E+01  0.88528521299E+01  0.14861869443E+04  0.14862520504E+04  0.10000000000E+02 0.  1.
</event>
<event>
 5    1  0.1252319E-008  0.3854771E+03  0.7957747E-01  0.3427651E+00
         13   -1    0    0    0    0  0.00000000000E+00  0.00000000000E+00  0.14999999963E+04  0.15000000000E+04  0.10566000000E+00 0.  1.
        994   -1    0    0    0    0 -0.00000000000E+00 -0.00000000000E+00  0.11368683772E-12  0.17120000000E+03  0.17120000000E+03 0.  0.
         13    1    1    2    0    0 -0.37988125728E+01 -0.10819979091E+02  0.46678624662E+02  0.48066704577E+02  0.10566000000E+00 0.  1.
        994    1    1    2    0    0  0.39625586048E+01  0.94610436774E+01  0.17389885748E+01  0.17151582230E+03  0.17120000000E+03 0.  0.
        998    1    1    2    0    0 -0.16374603209E+00  0.13589354132E+01  0.14515823830E+04  0.14516174731E+04  0.10000000000E+02 0.  1.
</event>
<event>
 5    1  0.1252319E-008  0.3829531E+03  0.7957747E-01  0.3438400E+00
         13   -1    0    0    0    0  0.00000000000E+00  0.00000000000E+00  0.14999999963E+04  0.15000000000E+04  0.10566000000E+00 0.  1.
        994   -1    0    0    0    0 -0.00000000000E+00 -0.00000000000E+00  0.11368683772E-12  0.17120000000E+03  0.17120000000E+03 0.  0.
         13    1    1    2    0    0 -0.24356338475E+02  0.13702588972E+01  0.14714410410E+03  0.14915263111E+03  0.10566000000E+00 0.  1.
        994    1    1    2    0    0 -0.15604544449E+02  0.34558797831E+02  0.74244579642E+01  0.17550605372E+03  0.17120000000E+03 0.  0.
        998    1    1    2    0    0  0.39960882924E+02 -0.35929056728E+02  0.13454314342E+04  0.13465413152E+04  0.10000000000E+02 0.  1.
</event>
<event>
 5    1  0.1252319E-008  0.3852458E+03  0.7957747E-01  0.3428630E+00
         13   -1    0    0    0    0  0.00000000000E+00  0.00000000000E+00  0.14999999963E+04  0.15000000000E+04  0.10566000000E+00 0.  1.
        994   -1    0    0    0    0 -0.00000000000E+00 -0.00000000000E+00  0.11368683772E-12  0.17120000000E+03  0.17120000000E+03 0.  0.
         13    1    1    2    0    0 -0.14686976055E+02  0.66434013192E+01  0.90393096855E+02  0.91819198264E+02  0.10566000000E+00 0.  1.
        994    1    1    2    0    0  0.30976811292E+01 -0.43659275241E+01  0.16023124318E+01  0.17129116836E+03  0.17120000000E+03 0.  0.
        998    1    1    2    0    0  0.11589294925E+02 -0.22774737950E+01  0.14080045870E+04  0.14080896334E+04  0.10000000000E+02 0.  1.
</event>
<event>
 5    1  0.1252319E-008  0.3822852E+03  0.7957747E-01  0.3441268E+00
         13   -1    0    0    0    0  0.00000000000E+00  0.00000000000E+00  0.14999999963E+04  0.15000000000E+04  0.10566000000E+00 0.  1.
        994   -1    0    0    0    0 -0.00000000000E+00 -0.00000000000E+00  0.11368683772E-12  0.17120000000E+03  0.17120000000E+03 0.  0.
         13    1    1    2    0    0 -0.31915771918E+02  0.20973131684E+02  0.18038422627E+03  0.18438267001E+03  0.10566000000E+00 0.  1.
        994    1    1    2    0    0  0.48315369347E+02 -0.37868175503E+02  0.15589294426E+02  0.18253996749E+03  0.17120000000E+03 0.  0.
        998    1    1    2    0    0 -0.16399597429E+02  0.16895043818E+02  0.13040264756E+04  0.13042773625E+04  0.10000000000E+02 0.  1.
</event>
<event>
 5    1  0.1252319E-008  0.3859277E+03  0.7957747E-01  0.3425747E+00
         13   -1    0    0    0    0  0.00000000000E+00  0.00000000000E+00  0.14999999963E+04  0.15000000000E+04  0.10566000000E+00 0.  1.
        994   -1    0    0    0    0 -0.00000000000E+00 -0.00000000000E+00  0.11368683772E-12  0.17120000000E+03  0.17120000000E+03 0.  0.
         13    1    1    2    0    0 -0.10038895018E+02 -0.56060964016E+01  0.52689004561E+02  0.53929121036E+02  0.10566000000E+00 0.  1.
        994    1    1    2    0    0  0.13080682494E+02  0.17543806125E+02  0.27419891227E+01  0.17261473834E+03  0.17120000000E+03 0.  0.
        998    1    1    2    0    0 -0.30417874765E+01 -0.11937709723E+02  0.14445690026E+04  0.14446561406E+04  0.10000000000E+02 0.  1.
</event>
<event>
 5    1  0.1252319E-008  0.3843299E+03  0.7957747E-01  0.3432519E+00
         13   -1    0    0    0    0  0.00000000000E+00  0.00000000000E+00  0.14999999963E+04  0.15000000000E+04  0.10566000000E+00 0. -1.
        994   -1    0    0    0    0 -0.00000000000E+00 -0.00000000000E+00  0.11368683772E-12  0.17120000000E+03  0.17120000000E+03 0.  0.
         13    1    1    2    0    0 -0.79216651337E+01 -0.17228770931E+02  0.89897436047E+02  0.91875695906E+02  0.10566000000E+00 0. -1.
        994    1    1    2    0    0  0.82443605256E+01  0.11997691208E+02  0.26619517913E+01  0.17183841265E+03  0.17120000000E+03 0.  0.
        998    1    1    2    0    0 -0.32269539192E+00  0.52310797237E+01  0.14074406084E+04  0.14074858914E+04  0.10000000000E+02 0. -1.
</event>
<event>
 5    1  0.1252319E-008  0.3710060E+03  0.7957747E-01  0.3491280E+00
         13   -1    0    0    0    0  0.00000000000E+00  0.00000000000E+00  0.14999999963E+04  0.15000000000E+04  0.10566000000E+00 0. -1.
        994   -1    0    0    0    0 -0.00000000000E+00 -0.00000000000E+00  0.11368683772E-12  0.17120000000E+03  0.17120000000E+03 0.  0.
         13    1    1    2    0    0  0.12282613902E+01  0.43679181468E+02  0.81972689821E+02  0.92891940234E+02  0.10566000000E+00 0. -1.
        994    1    1    2    0    0  0.17303912351E+02 -0.17988149086E+02  0.13660462953E+02  0.17354839999E+03  0.17120000000E+03 0.  0.
        998    1    1    2    0    0 -0.18532173741E+02 -0.25691032383E+02  0.14043668435E+04  0.14047596598E+04  0.10000000000E+02 0. -1.
</event>
<event>
 5    1  0.1252319E-008  0.3839281E+03  0.7957747E-01  0.3434231E+00
         13   -1    0    0    0    0  0.00000000000E+00  0.00000000000E+00  0.14999999963E+04  0.15000000000E+04  0.10566000000E+00 0. -1.
        994   -1    0    0    0    0 -0.00000000000E+00 -0.00000000000E+00  0.11368683772E-12  0.17120000000E+03  0.17120000000E+03 0.  0.
         13    1    1    2    0    0  0.15925021296E+02  0.55425969639E+01  0.64505612705E+02  0.66673172408E+02  0.10566000000E+00 0. -1.
        994    1    1    2    0    0 -0.14570940436E+02  0.19428996806E+01  0.28766667543E+01  0.17185401472E+03  0.17120000000E+03 0.  0.
        998    1    1    2    0    0 -0.13540808596E+01 -0.74854966446E+01  0.14326177168E+04  0.14326728129E+04  0.10000000000E+02 0. -1.
</event>
<event>
 5    1  0.1252319E-008  0.3823860E+03  0.7957747E-01  0.3440835E+00
         13   -1    0    0    0    0  0.00000000000E+00  0.00000000000E+00  0.14999999963E+04  0.15000000000E+04  0.10566000000E+00 0. -1.
        994   -1    0    0    0    0 -0.00000000000E+00 -0.00000000000E+00  0.11368683772E-12  0.17120000000E+03  0.17120000000E+03 0.  0.
         13    1    1    2    0    0  0.16075135807E+02  0.22043904490E+02  0.13020507242E+03  0.13303276200E+03  0.10566000000E+00 0. -1.
        994    1    1    2    0    0 -0.26385570499E+02  0.39370906064E+01  0.52976561689E+01  0.17334706278E+03  0.17120000000E+03 0.  0.
        998    1    1    2    0    0  0.10310434692E+02 -0.25980995097E+02  0.13644972677E+04  0.13648201752E+04  0.10000000000E+02 0. -1.
</event>
<event>
 5    1  0.1252319E-008  0.3855145E+03  0.7957747E-01  0.3427493E+00
         13   -1    0    0    0    0  0.00000000000E+00  0.00000000000E+00  0.14999999963E+04  0.15000000000E+04  0.10566000000E+00 0. -1.
        994   -1    0    0    0    0 -0.00000000000E+00 -0.00000000000E+00  0.11368683772E-12  0.17120000000E+03  0.17120000000E+03 0.  0.
         13    1    1    2    0    0  0.67696302866E+00 -0.15882424730E+02  0.88947744969E+02  0.90357192261E+02  0.10566000000E+00 0. -1.
        994    1    1    2    0    0  0.50685711837E+01  0.15297304842E+02  0.22279948020E+01  0.17197122408E+03  0.17120000000E+03 0.  0.
        998    1    1    2    0    0 -0.57455342124E+01  0.58511988798E+00  0.14088242565E+04  0.14088715837E+04  0.10000000000E+02 0. -1.
</event>
<event>
 5    1  0.1252319E-008  0.3489095E+03  0.7957747E-01  0.3598813E+00
         13   -1    0    0    0    0  0.00000000000E+00  0.00000000000E+00  0.14999999963E+04  0.15000000000E+04  0.10566000000E+00 0.  1.
        994   -1    0    0    0    0 -0.00000000000E+00 -0.00000000000E+00  0.11368683772E-12  0.17120000000E+03  0.17120000000E+03 0.  0.
         13    1    1    2    0    0  0.23957190894E+03  0.99734179792E+01  0.10068971685E+04  0.10350536642E+04  0.10566000000E+00 0.  1.
        994    1    1    2    0    0 -0.20240032951E+03 -0.36465515943E+02  0.18690259406E+03  0.32640105224E+03  0.17120000000E+03 0.  0.
        998    1    1    2    0    0 -0.37171579428E+02  0.26492097964E+02  0.30620023374E+03  0.30974528360E+03  0.10000000000E+02 0. -1.
</event>
<event>
 5    1  0.1252319E-008  0.3815661E+03  0.7957747E-01  0.3444368E+00
         13   -1    0    0    0    0  0.00000000000E+00  0.00000000000E+00  0.14999999963E+04  0.15000000000E+04  0.10566000000E+00 0. -1.
        994   -1    0    0    0    0 -0.00000000000E+00 -0.00000000000E+00  0.11368683772E-12  0.17120000000E+03  0.17120000000E+03 0.  0.
         13    1    1    2    0    0  0.26182615295E+02  0.66609791796E+01  0.11727567641E+03  0.12034738647E+03  0.10566000000E+00 0. -1.
        994    1    1    2    0    0 -0.51568165994E+01  0.73702450475E+01  0.36138261819E+01  0.17147423424E+03  0.17120000000E+03 0.  0.
        998    1    1    2    0    0 -0.21025798695E+02 -0.14031224227E+02  0.13791104937E+04  0.13793783793E+04  0.10000000000E+02 0. -1.
</event>
<event>
 5    1  0.1252319E-008  0.3750458E+03  0.7957747E-01  0.3473018E+00
         13   -1    0    0    0    0  0.00000000000E+00  0.00000000000E+00  0.14999999963E+04  0.15000000000E+04  0.10566000000E+00 0. -1.
        994   -1    0    0    0    0 -0.00000000000E+00 -0.00000000000E+00  0.11368683772E-12  0.17120000000E+03  0.17120000000E+03 0.  0.
         13    1    1    2    0    0  0.57481281382E+02  0.95919398377E+01  0.28478047640E+03  0.29068201514E+03  0.10566000000E+00 0. -1.
        994    1    1    2    0    0 -0.15540144092E+02 -0.14173106252E+02  0.81601071202E+01  0.17268005203E+03  0.17120000000E+03 0.  0.
        998    1    1    2    0    0 -0.41941137290E+02  0.45811664138E+01  0.12070594128E+04  0.12078379328E+04  0.10000000000E+02 0. -1.
</event>
<event>
 5    1  0.1252319E-008  0.3826711E+03  0.7957747E-01  0.3439610E+00
         13   -1    0    0    0    0  0.00000000000E+00  0.00000000000E+00  0.14999999963E+04  0.15000000000E+04  0.10566000000E+00 0.  1.
        994   -1    0    0    0    0 -0.00000000000E+00 -0.00000000000E+00  0.11368683772E-12  0.17120000000E+03  0.17120000000E+03 0.  0.
         13    1    1    2    0    0 -0.93022129826E+01  0.14458322959E+02  0.55345577580E+02  0.57954451001E+02  0.10566000000E+00 0.  1.
        994    1    1    2    0    0  0.62087447691E+01  0.61327832202E+01  0.30432105176E+01  0.17144929475E+03  0.17120000000E+03 0.  0.
        998    1    1    2    0    0  0.30934682135E+01 -0.20591106179E+02  0.14416112082E+04  0.14417962542E+04  0.10000000000E+02 0.  1.
</event>
<event>
 5    1  0.1252319E-008  0.3807393E+03  0.7957747E-01  0.3447946E+00
         13   -1    0    0    0    0  0.00000000000E+00  0.00000000000E+00  0.14999999963E+04  0.15000000000E+04  0.10566000000E+00 0. -1.
        994   -1    0    0    0    0 -0.00000000000E+00 -0.00000000000E+00  0.11368683772E-12  0.17120000000E+03  0.17120000000E+03 0.  0.
         13    1    1    2    0    0  0.82045880021E+01 -0.23390815173E+02  0.92428711078E+02  0.95694949158E+02  0.10566000000E+00 0. -1.
        994    1    1    2    0    0  0.11942879183E+02 -0.75371847272E+01  0.44257712047E+01  0.17183849676E+03  0.17120000000E+03 0.  0.
        998    1    1    2    0    0 -0.20147467185E+02  0.30927999900E+02  0.14031455140E+04  0.14036665541E+04  0.10000000000E+02 0. -1.
</event>
<event>
 5    1  0.1252319E-008  0.3856277E+03  0.7957747E-01  0.3427015E+00
         13   -1    0    0    0    0  0.00000000000E+00  0.00000000000E+00  0.14999999963E+04  0.15000000000E+04  0.10566000000E+00 0.  1.
        994   -1    0    0    0    0 -0.00000000000E+00 -0.00000000000E+00  0.11368683772E-12  0.17120000000E+03  0.17120000000E+03 0.  0.
         13    1    1    2    0    0 -0.82676003157E+01 -0.69360760097E+01  0.47348503247E+02  0.48562890041E+02  0.10566000000E+00 0.  1.
        994    1    1    2    0    0  0.61661475121E+00 -0.58637339964E+01  0.14329407621E+01  0.17130749227E+03  0.17120000000E+03 0.  0.
        998    1    1    2    0    0  0.76509855645E+01  0.12799810006E+02  0.14512185523E+04  0.14513296177E+04  0.10000000000E+02 0.  1.
</event>
<event>
 5    1  0.1252319E-008  0.3849472E+03  0.7957747E-01  0.3429896E+00
         13   -1    0    0    0    0  0.00000000000E+00  0.00000000000E+00  0.14999999963E+04  0.15000000000E+04  0.10566000000E+00 0. -1.
        994   -1    0    0    0    0 -0.00000000000E+00 -0.00000000000E+00  0.11368683772E-12  0.17120000000E+03  0.17120000000E+03 0.  0.
         13    1    1    2    0    0  0.35126706460E+01 -0.11940052195E+02  0.46539681902E+02  0.48175272257E+02  0.10566000000E+00 0. -1.
        994    1    1    2    0    0 -0.10557923678E+02  0.61539282664E+01  0.21477121283E+01  0.17164904093E+03  0.17120000000E+03 0.  0.
        998    1    1    2    0    0  0.70452530321E+01  0.57861239287E+01  0.14513126022E+04  0.14513756868E+04  0.10000000000E+02 0. -1.
</event>
<event>
 5    1  0.1252319E-008  0.3855118E+03  0.7957747E-01  0.3427504E+00
         13   -1    0    0    0    0  0.00000000000E+00  0.00000000000E+00  0.14999999963E+04  0.15000000000E+04  0.10566000000E+00 0. -1.
        994   -1    0    0    0    0 -0.00000000000E+00 -0.00000000000E+00  0.11368683772E-12  0.17120000000E+03  0.17120000000E+03 0.  0.
         13    1    1    2    0    0 -0.56509574304E+01  0.11898879846E+02  0.56510139857E+02  0.58025199114E+02  0.10566000000E+00 0. -1.
        994    1    1    2    0    0  0.10850138046E+02 -0.24725896995E+02  0.37736746636E+01  0.17335736528E+03  0.17120000000E+03 0.  0.
        998    1    1    2    0    0 -0.51991806157E+01  0.12827017148E+02  0.14397161818E+04  0.14398174356E+04  0.10000000000E+02 0. -1.
</event>
<event>
 5    1  0.1252319E-008  0.3712254E+03  0.7957747E-01  0.3490278E+00
         13   -1    0    0    0    0  0.00000000000E+00  0.00000000000E+00  0.14999999963E+04  0.15000000000E+04  0.10566000000E+00 0. -1.
        994   -1    0    0    0    0 -0.00000000000E+00 -0.00000000000E+00  0.11368683772E-12  0.17120000000E+03  0.17120000000E+03 0.  0.
         13    1    1    2    0    0 -0.10629295981E+02 -0.16801176585E+02  0.11978446425E+02  0.23211113943E+02  0.10566000000E+00 0. -1.
        994    1    1    2    0    0  0.10598745337E+02  0.10785565998E+02  0.12391461276E+02  0.17231265232E+03  0.17120000000E+03 0.  0.
        998    1    1    2    0    0  0.30550644236E-01  0.60156105863E+01  0.14756300886E+04  0.14756762337E+04  0.10000000000E+02 0. -1.
</event>
<event>
 5    1  0.1252319E-008  0.3864996E+03  0.7957747E-01  0.3423337E+00
         13   -1    0    0    0    0  0.00000000000E+00  0.00000000000E+00  0.14999999963E+04  0.15000000000E+04  0.10566000000E+00 0.  1.
        994   -1    0    0    0    0 -0.00000000000E+00 -0.00000000000E+00  0.11368683772E-12  0.17120000000E+03  0.17120000000E+03 0.  0.
         13    1    1    2    0    0 -0.49426183180E+01  0.50164055507E+02  0.56738236582E+02  0.75895326571E+02  0.10566000000E+00 0.  1.
        994    1    1    2    0    0  0.15968271281E+02 -0.34055611055E+02  0.25214136633E+02  0.17708744455E+03  0.17120000000E+03 0.  0.
        998    1    1    2    0    0 -0.11025652963E+02 -0.16108444453E+02  0.14180476231E+04  0.14182172289E+04  0.10000000000E+02 0.  1.
</event>
<event>
 5    1  0.1252319E-008  0.3701545E+03  0.7957747E-01  0.3495181E+00
         13   -1    0    0    0    0  0.00000000000E+00  0.00000000000E+00  0.14999999963E+04  0.15000000000E+04  0.10566000000E+00 0. -1.
        994   -1    0    0    0    0 -0.00000000000E+00 -0.00000000000E+00  0.11368683772E-12  0.17120000000E+03  0.17120000000E+03 0.  0.
         13    1    1    2    0    0 -0.40173255940E+01 -0.95243338022E+02  0.41955022621E+03  0.43024392595E+03  0.10566000000E+00 0. -1.
        994    1    1    2    0    0 -0.25866547251E+01  0.74925291460E+02  0.28870458652E+02  0.18911222453E+03  0.17120000000E+03 0.  0.
        998    1    1    2    0    0  0.66039803191E+01  0.20318046562E+02  0.10515793114E+04  0.10518438495E+04  0.10000000000E+02 0. -1.
</event>
<event>
 5    1  0.1252319E-008  0.3807611E+03  0.7957747E-01  0.3447851E+00
         13   -1    0    0    0    0  0.00000000000E+00  0.00000000000E+00  0.14999999963E+04  0.15000000000E+04  0.10566000000E+00 0. -1.
        994   -1    0    0    0    0 -0.00000000000E+00 -0.00000000000E+00  0.11368683772E-12  0.17120000000E+03  0.17120000000E+03 0.  0.
         13    1    1    2    0    0  0.16448584181E+02 -0.72029758511E+01  0.39028241468E+02  0.42961070503E+02  0.10566000000E+00 0. -1.
        994    1    1    2    0    0  0.81088890863E+01  0.95266623611E+02  0.34858614722E+02  0.19916336680E+03  0.17120000000E+03 0.  0.
        998    1    1    2    0    0 -0.24557473267E+02 -0.88063647760E+02  0.14261131401E+04  0.14290755627E+04  0.10000000000E+02 0. -1.
</event>
<event>
 5    1  0.1252319E-008  0.3753785E+03  0.7957747E-01  0.3471532E+00
         13   -1    0    0    0    0  0.00000000000E+00  0.00000000000E+00  0.14999999963E+04  0.15000000000E+04  0.10566000000E+00 0.  1.
        994   -1    0    0    0    0 -0.00000000000E+00 -0.00000000000E+00  0.11368683772E-12  0.17120000000E+03  0.17120000000E+03 0.  0.
         13    1    1    2    0    0  0.25311383057E+02 -0.29963328437E+02  0.14601042286E+03  0.15118704280E+03  0.10566000000E+00 0.  1.
        994    1    1    2    0    0  0.20235336705E+02 -0.83261388155E+01  0.81116259298E+01  0.17278319338E+03  0.17120000000E+03 0.  0.
        998    1    1    2    0    0 -0.45546719762E+02  0.38289467253E+02  0.13458779475E+04  0.13472297638E+04  0.10000000000E+02 0.  1.
</event>
<event>
 5    1  0.1252319E-008  0.3816417E+03  0.7957747E-01  0.3444041E+00
         13   -1    0    0    0    0  0.00000000000E+00  0.00000000000E+00  0.14999999963E+04  0.15000000000E+04  0.10566000000E+00 0. -1.
        994   -1    0    0    0    0 -0.00000000000E+00 -0.00000000000E+00  0.11368683772E-12  0.17120000000E+03  0.17120000000E+03 0.  0.
         13    1    1    2    0    0 -0.18940329536E+01 -0.10325662560E+02  0.16061726538E+02  0.19188457248E+02  0.10566000000E+00 0. -1.
        994    1    1    2    0    0  0.18478097246E+02 -0.14650752194E+02  0.51578166779E+01  0.17289339979E+03  0.17120000000E+03 0.  0.
        998    1    1    2    0    0 -0.16584064292E+02  0.24976414754E+02  0.14787804531E+04  0.14791181430E+04  0.10000000000E+02 0. -1.
</event>
<event>
 5    1  0.1252319E-008  0.3702723E+03  0.7957747E-01  0.3494641E+00
         13   -1    0    0    0    0  0.00000000000E+00  0.00000000000E+00  0.14999999963E+04  0.15000000000E+04  0.10566000000E+00 0.  1.
        994   -1    0    0    0    0 -0.00000000000E+00 -0.00000000000E+00  0.11368683772E-12  0.17120000000E+03  0.17120000000E+03 0.  0.
         13    1    1    2    0    0  0.12299897991E+02  0.61776636805E+02  0.22743284713E+03  0.23599438863E+03  0.10566000000E+00 0.  1.
        994    1    1    2    0    0 -0.65425002087E+02 -0.17348604762E+02  0.25123528066E+02  0.18580106740E+03  0.17120000000E+03 0.  0.
        998    1    1    2    0    0  0.53125104096E+02 -0.44428032044E+02  0.12474436211E+04  0.12494045440E+04  0.10000000000E+02 0.  1.
</event>
<event>
 5    1  0.1252319E-008  0.3725559E+03  0.7957747E-01  0.3484226E+00
         13   -1    0    0    0    0  0.00000000000E+00  0.00000000000E+00  0.14999999963E+04  0.15000000000E+04  0.10566000000E+00 0.  1.
        994   -1    0    0    0    0 -0.00000000000E+00 -0.00000000000E+00  0.11368683772E-12  0.17120000000E+03  0.17120000000E+03 0.  0.
         13    1    1    2    0    0  0.12700201133E+00  0.42287901198E+02  0.97750429248E+02  0.10650558811E+03  0.10566000000E+00 0.  1.
        994    1    1    2    0    0 -0.97564656486E+01 -0.55819023126E+02  0.19025991793E+02  0.18133499477E+03  0.17120000000E+03 0.  0.
        998    1    1    2    0    0  0.96294636373E+01  0.13531121928E+02  0.13832235752E+04  0.13833594171E+04  0.10000000000E+02 0.  1.
</event>
<event>
 5    1  0.1252319E-008  0.3821614E+03  0.7957747E-01  0.3441801E+00
         13   -1    0    0    0    0  0.00000000000E+00  0.00000000000E+00  0.14999999963E+04  0.15000000000E+04  0.10566000000E+00 0.  1.
        994   -1    0    0    0    0 -0.00000000000E+00 -0.00000000000E+00  0.11368683772E-12  0.17120000000E+03  0.17120000000E+03 0.  0.
         13    1    1    2    0    0  0.28390212727E+02 -0.95346774915E+01  0.16879327356E+03  0.17142956168E+03  0.10566000000E+00 0.  1.
        994    1    1    2    0    0  0.83400082357E+01  0.28344103919E+02  0.59489208812E+01  0.17383260230E+03  0.17120000000E+03 0.  0.
        998    1    1    2    0    0 -0.36730220963E+02 -0.18809426428E+02  0.13252578018E+04  0.13259378360E+04  0.10000000000E+02 0.  1.
</event>
<event>
 5    1  0.1252319E-008  0.3800729E+03  0.7957747E-01  0.3450841E+00
         13   -1    0    0    0    0  0.00000000000E+00  0.00000000000E+00  0.14999999963E+04  0.15000000000E+04  0.10566000000E+00 0. -1.
        994   -1    0    0    0    0 -0.00000000000E+00 -0.00000000000E+00  0.11368683772E-12  0.17120000000E+03  0.17120000000E+03 0.  0.
         13    1    1    2    0    0 -0.14972428968E+02  0.30945177202E+02  0.13681498463E+03  0.14106781633E+03  0.10566000000E+00 0. -1.
        994    1    1    2    0    0  0.13560893589E+01 -0.30078644871E+02  0.71320987204E+01  0.17397376437E+03  0.17120000000E+03 0.  0.
        998    1    1    2    0    0  0.13616339609E+02 -0.86653233037E+00  0.13560529129E+04  0.13561584193E+04  0.10000000000E+02 0. -1.
</event>
<event>
 5    1  0.1252319E-008  0.3970033E+03  0.7957747E-01  0.3380307E+00
         13   -1    0    0    0    0  0.00000000000E+00  0.00000000000E+00  0.14999999963E+04  0.15000000000E+04  0.10566000000E+00 0. -1.
        994   -1    0    0    0    0 -0.00000000000E+00 -0.00000000000E+00  0.11368683772E-12  0.17120000000E+03  0.17120000000E+03 0.  0.
         13    1    1    2    0    0  0.34029946238E+02  0.47474116657E+02  0.58704441349E+02  0.82813353944E+02  0.10566000000E+00 0. -1.
        994    1    1    2    0    0 -0.36431537585E+02 -0.11120503683E+02  0.31630907184E+02  0.17821581530E+03  0.17120000000E+03 0.  0.
        998    1    1    2    0    0  0.24015913464E+01 -0.36353612974E+02  0.14096646477E+04  0.14101708308E+04  0.10000000000E+02 0. -1.
</event>
<event>
 5    1  0.1252319E-008  0.3851634E+03  0.7957747E-01  0.3428980E+00
         13   -1    0    0    0    0  0.00000000000E+00  0.00000000000E+00  0.14999999963E+04  0.15000000000E+04  0.10566000000E+00 0. -1.
        994   -1    0    0    0    0 -0.00000000000E+00 -0.00000000000E+00  0.11368683772E-12  0.17120000000E+03  0.17120000000E+03 0.  0.
         13    1    1    2    0    0  0.20592185762E+01 -0.17610250797E+02  0.92380540178E+02  0.94066660842E+02  0.10566000000E+00 0. -1.
        994    1    1    2    0    0 -0.11494550573E+01  0.23990314090E+02  0.34474184332E+01  0.17291090512E+03  0.17120000000E+03 0.  0.
        998    1    1    2    0    0 -0.90976351886E+00 -0.63800632933E+01  0.14041720377E+04  0.14042224340E+04  0.10000000000E+02 0. -1.
</event>
<event>
 5    1  0.1252319E-008  0.3687758E+03  0.7957747E-01  0.3501536E+00
         13   -1    0    0    0    0  0.00000000000E+00  0.00000000000E+00  0.14999999963E+04  0.15000000000E+04  0.10566000000E+00 0. -1.
        994   -1    0    0    0    0 -0.00000000000E+00 -0.00000000000E+00  0.11368683772E-12  0.17120000000E+03  0.17120000000E+03 0.  0.
         13    1    1    2    0    0 -0.14756112127E+01 -0.20014905966E+02  0.15623687430E+02  0.25433927384E+02  0.10566000000E+00 0. -1.
        994    1    1    2    0    0 -0.72368326019E+01  0.24247821019E+00  0.10475484705E+02  0.17167296328E+03  0.17120000000E+03 0.  0.
        998    1    1    2    0    0  0.87124438146E+01  0.19772427756E+02  0.14739008241E+04  0.14740931093E+04  0.10000000000E+02 0. -1.
</event>
<event>
 5    1  0.1252319E-008  0.3833680E+03  0.7957747E-01  0.3436623E+00
         13   -1    0    0    0    0  0.00000000000E+00  0.00000000000E+00  0.14999999963E+04  0.15000000000E+04  0.10566000000E+00 0. -1.
        994   -1    0    0    0    0 -0.00000000000E+00 -0.00000000000E+00  0.11368683772E-12  0.17120000000E+03  0.17120000000E+03 0.  0.
         13    1    1    2    0    0 -0.12975545620E+02  0.22367540804E+02  0.14487990632E+03  0.14716952838E+03  0.10566000000E+00 0. -1.
        994    1    1    2    0    0  0.96656222307E+01 -0.35791408480E+01  0.27938870518E+01  0.17153273830E+03  0.17120000000E+03 0.  0.
        998    1    1    2    0    0  0.33099233888E+01 -0.18788399956E+02  0.13523262029E+04  0.13524977333E+04  0.10000000000E+02 0. -1.
</event>
<event>
 5    1  0.1252319E-008  0.3857636E+03  0.7957747E-01  0.3426440E+00
         13   -1    0    0    0    0  0.00000000000E+00  0.00000000000E+00  0.14999999963E+04  0.15000000000E+04  0.10566000000E+00 0.  1.
        994   -1    0    0    0    0 -0.00000000000E+00 -0.00000000000E+00  0.11368683772E-12  0.17120000000E+03  0.17120000000E+03 0.  0.
         13    1    1    2    0    0  0.12628477164E+02 -0.26257688763E+01  0.62763670407E+02  0.64075444475E+02  0.10566000000E+00 0.  1.
        994    1    1    2    0    0 -0.18186364459E+02  0.88881595857E+00  0.23398721340E+01  0.17218144165E+03  0.17120000000E+03 0.  0.
        998    1    1    2    0    0  0.55578872944E+01  0.17369529178E+01  0.14348964537E+04  0.14349431139E+04  0.10000000000E+02 0.  1.
</event>
<event>
 5    1  0.1252319E-008  0.3790358E+03  0.7957747E-01  0.3455368E+00
         13   -1    0    0    0    0  0.00000000000E+00  0.00000000000E+00  0.14999999963E+04  0.15000000000E+04  0.10566000000E+00 0. -1.
        994   -1    0    0    0    0 -0.00000000000E+00 -0.00000000000E+00  0.11368683772E-12  0.17120000000E+03  0.17120000000E+03 0.  0.
         13    1    1    2    0    0  0.74801758404E+01 -0.74691141127E+01  0.10080489460E+02  0.14607125933E+02  0.10566000000E+00 0. -1.
        994    1    1    2    0    0 -0.14862519101E+01  0.63262814222E+01  0.47623032736E+01  0.17138946967E+03  0.17120000000E+03 0.  0.
        998    1    1    2    0    0 -0.59939239303E+01  0.11428326905E+01  0.14851572035E+04  0.14852034044E+04  0.10000000000E+02 0. -1.
</event>
<event>
 5    1  0.1252319E-008  0.3838962E+03  0.7957747E-01  0.3434367E+00
         13   -1    0    0    0    0  0.00000000000E+00  0.00000000000E+00  0.14999999963E+04  0.15000000000E+04  0.10566000000E+00 0. -1.
        994   -1    0    0    0    0 -0.00000000000E+00 -0.00000000000E+00  0.11368683772E-12  0.17120000000E+03  0.17120000000E+03 0.  0.
         13    1    1    2    0    0  0.26372473120E+02 -0.15935786416E+02  0.18624105065E+03  0.18877287077E+03  0.10566000000E+00 0. -1.
        994    1    1    2    0    0 -0.30662621375E+02  0.16587931806E+02  0.62007230470E+01  0.17482346753E+03  0.17120000000E+03 0.  0.
        998    1    1    2    0    0  0.42901482550E+01 -0.65214539032E+00  0.13075582226E+04  0.13076036617E+04  0.10000000000E+02 0. -1.
</event>
<event>
 5    1  0.1252319E-008  0.3851231E+03  0.7957747E-01  0.3429150E+00
         13   -1    0    0    0    0  0.00000000000E+00  0.00000000000E+00  0.14999999963E+04  0.15000000000E+04  0.10566000000E+00 0. -1.
        994   -1    0    0    0    0 -0.00000000000E+00 -0.00000000000E+00  0.11368683772E-12  0.17120000000E+03  0.17120000000E+03 0.  0.
         13    1    1    2    0    0 -0.54828527878E+01 -0.17756242129E+02  0.10509902612E+03  0.10672938801E+03  0.10566000000E+00 0. -1.
        994    1    1    2    0    0  0.16861611739E+01  0.17958584632E+02  0.26392861591E+01  0.17216782433E+03  0.17120000000E+03 0.  0.
        998    1    1    2    0    0  0.37966916138E+01 -0.20234250291E+00  0.13922616840E+04  0.13923027877E+04  0.10000000000E+02 0. -1.
</event>
<event>
 5    1  0.1252319E-008  0.3839318E+03  0.7957747E-01  0.3434215E+00
         13   -1    0    0    0    0  0.00000000000E+00  0.00000000000E+00  0.14999999963E+04  0.15000000000E+04  0.10566000000E+00 0.  1.
        994   -1    0    0    0    0 -0.00000000000E+00 -0.00000000000E+00  0.11368683772E-12  0.17120000000E+03  0.17120000000E+03 0.  0.
         13    1    1    2    0    0  0.42447765820E+01 -0.18925297506E+02  0.87115036355E+02  0.89248113353E+02  0.10566000000E+00 0.  1.
        994    1    1    2    0    0 -0.68951013855E+00  0.11490855945E+02  0.25988651927E+01  0.17160626240E+03  0.17120000000E+03 0.  0.
        998    1    1    2    0    0 -0.35552664435E+01  0.74344415608E+01  0.14102860947E+04  0.14103456242E+04  0.10000000000E+02 0.  1.
</event>
<event>
 5    1  0.1252319E-008  0.3821318E+03  0.7957747E-01  0.3441928E+00
         13   -1    0    0    0    0  0.00000000000E+00  0.00000000000E+00  0.14999999963E+04  0.15000000000E+04  0.10566000000E+00 0.  1.
        994   -1    0    0    0    0 -0.00000000000E+00 -0.00000000000E+00  0.11368683772E-12  0.17120000000E+03  0.17120000000E+03 0.  0.
         13    1    1    2    0    0 -0.22774921357E+02  0.27820680187E+01  0.95322057582E+02  0.98044595828E+02  0.10566000000E+00 0.  1.
        994    1    1    2    0    0 -0.84946344625E+01 -0.40292632978E+02  0.87101894982E+01  0.17629793671E+03  0.17120000000E+03 0.  0.
        998    1    1    2    0    0  0.31269555820E+02  0.37510564959E+02  0.13959677492E+04  0.13968574675E+04  0.10000000000E+02 0.  1.
</event>
<event>
 5    1  0.1252319E-008  0.3692797E+03  0.7957747E-01  0.3499208E+00
         13   -1    0    0    0    0  0.00000000000E+00  0.00000000000E+00  0.14999999963E+04  0.15000000000E+04  0.10566000000E+00 0. -1.
        994   -1    0    0    0    0 -0.00000000000E+00 -0.00000000000E+00  0.11368683772E-12  0.17120000000E+03  0.17120000000E+03 0.  0.
         13    1    1    2    0    0  0.36224457881E+02  0.29616058193E+02  0.10377332784E+03  0.11383425226E+03  0.10566000000E+00 0. -1.
        994    1    1    2    0    0 -0.19523682281E+02 -0.67909880148E+01  0.12049857476E+02  0.17286390819E+03  0.17120000000E+03 0.  0.
        998    1    1    2    0    0 -0.16700775600E+02 -0.22825070178E+02  0.13841768110E+04  0.13845018396E+04  0.10000000000E+02 0. -1.
</event>
<event>
 5    1  0.1252319E-008  0.3857853E+03  0.7957747E-01  0.3426348E+00
         13   -1    0    0    0    0  0.00000000000E+00  0.00000000000E+00  0.14999999963E+04  0.15000000000E+04  0.10566000000E+00 0. -1.
        994   -1    0    0    0    0 -0.00000000000E+00 -0.00000000000E+00  0.11368683772E-12  0.17120000000E+03  0.17120000000E+03 0.  0.
         13    1    1    2    0    0 -0.10485923458E+02 -0.97961853425E+01  0.81614999250E+02  0.82866996474E+02  0.10566000000E+00 0. -1.
        994    1    1    2    0    0  0.10132926751E+02  0.74277074353E+01  0.17587038627E+01  0.17166939180E+03  0.17120000000E+03 0.  0.
        998    1    1    2    0    0  0.35299670768E+00  0.23684779072E+01  0.14166262932E+04  0.14166636117E+04  0.10000000000E+02 0. -1.
</event>
<event>
 5    1  0.1252319E-008  0.3774255E+03  0.7957747E-01  0.3462446E+00
         13   -1    0    0    0    0  0.00000000000E+00  0.00000000000E+00  0.14999999963E+04  0.15000000000E+04  0.10566000000E+00 0.  1.
        994   -1    0    0    0    0 -0.00000000000E+00 -0.00000000000E+00  0.11368683772E-12  0.17120000000E+03  0.17120000000E+03 0.  0.
         13    1    1    2    0    0 -0.98756008912E+01  0.10163289592E+02  0.16280627051E+02  0.21584483536E+02  0.10566000000E+00 0.  1.
        994    1    1    2    0    0 -0.17886570858E+01 -0.94287779278E+01  0.57490165585E+01  0.17156512565E+03  0.17120000000E+03 0.  0.
        998    1    1    2    0    0  0.11664257977E+02 -0.73451166428E+00  0.14779703527E+04  0.14780503908E+04  0.10000000000E+02 0.  1.
</event>
<event>
 5    1  0.1252319E-008  0.3748545E+03  0.7957747E-01  0.3473874E+00
         13   -1    0    0    0    0  0.00000000000E+00  0.00000000000E+00  0.14999999963E+04  0.15000000000E+04  0.10566000000E+00 0.  1.
        994   -1    0    0    0    0 -0.00000000000E+00 -0.00000000000E+00  0.11368683772E-12  0.17120000000E+03  0.17120000000E+03 0.  0.
         13    1    1    2    0    0 -0.21593751261E+02  0.54115492079E+02  0.29504675743E+03  0.30074470371E+03  0.10566000000E+00 0.  1.
        994    1    1    2    0    0 -0.89463098612E+01 -0.15957775612E+02  0.78924995377E+01  0.17235550067E+03  0.17120000000E+03 0.  0.
        998    1    1    2    0    0  0.30540061122E+02 -0.38157716466E+02  0.11970607393E+04  0.11980997956E+04  0.10000000000E+02 0.  1.
</event>
<event>
 5    1  0.1252319E-008  0.3750740E+03  0.7957747E-01  0.3472892E+00
         13   -1    0    0    0    0  0.00000000000E+00  0.00000000000E+00  0.14999999963E+04  0.15000000000E+04  0.10566000000E+00 0. -1.
        994   -1    0    0    0    0 -0.00000000000E+00 -0.00000000000E+00  0.11368683772E-12  0.17120000000E+03  0.17120000000E+03 0.  0.
         13    1    1    2    0    0 -0.14241919105E+02 -0.38127836734E+02  0.53798417793E+02  0.67459951933E+02  0.10566000000E+00 0. -1.
        994    1    1    2    0    0  0.20580340615E+02  0.35227556137E+02  0.19595365999E+02  0.17708175937E+03  0.17120000000E+03 0.  0.
        998    1    1    2    0    0 -0.63384215107E+01  0.29002805976E+01  0.14266062125E+04  0.14266582887E+04  0.10000000000E+02 0. -1.
</event>
<event>
 5    1  0.1450584E-008  0.3861773E+03  0.7957747E-01  0.3424694E+00
         13   -1    0    0    0    0  0.00000000000E+00  0.00000000000E+00  0.14999999963E+04  0.15000000000E+04  0.10566000000E+00 0. -1.
        994   -1    0    0    0    0 -0.00000000000E+00 -0.00000000000E+00  0.11368683772E-12  0.17120000000E+03  0.17120000000E+03 0.  0.
         13    1    1    2    0    0  0.87014096044E+01  0.67967049978E+01  0.57207495996E+02  0.58263354607E+02  0.10566000000E+00 0. -1.
        994    1    1    2    0    0 -0.94747980983E+01 -0.71419999534E+01  0.15080847668E+01  0.17161729016E+03  0.17120000000E+03 0.  0.
        998    1    1    2    0    0  0.77338849392E+00  0.34529495554E+00  0.14412844155E+04  0.14413193552E+04  0.10000000000E+02 0. -1.
</event>
<event>
 5    1  0.1252319E-008  0.3833222E+03  0.7957747E-01  0.3436819E+00
         13   -1    0    0    0    0  0.00000000000E+00  0.00000000000E+00  0.14999999963E+04  0.15000000000E+04  0.10566000000E+00 0.  1.
        994   -1    0    0    0    0 -0.00000000000E+00 -0.00000000000E+00  0.11368683772E-12  0.17120000000E+03  0.17120000000E+03 0.  0.
         13    1    1    2    0    0  0.24160523462E+01  0.18175795531E+02  0.67348746162E+02  0.69800154912E+02  0.10566000000E+00 0.  1.
        994    1    1    2    0    0 -0.10790666998E+02 -0.11063267478E+02  0.32555520555E+01  0.17192694088E+03  0.17120000000E+03 0.  0.
        998    1    1    2    0    0  0.83746146518E+01 -0.71125280523E+01  0.14293956981E+04  0.14294729042E+04  0.10000000000E+02 0.  1.
</event>
<event>
 5    1  0.1252319E-008  0.3731162E+03  0.7957747E-01  0.3481691E+00
         13   -1    0    0    0    0  0.00000000000E+00  0.00000000000E+00  0.14999999963E+04  0.15000000000E+04  0.10566000000E+00 0.  1.
        994   -1    0    0    0    0 -0.00000000000E+00 -0.00000000000E+00  0.11368683772E-12  0.17120000000E+03  0.17120000000E+03 0.  0.
         13    1    1    2    0    0 -0.21660673421E+02  0.23392408775E+02  0.67278266686E+02  0.74449754154E+02  0.10566000000E+00 0.  1.
        994    1    1    2    0    0  0.31218428347E+01 -0.22656153606E+01  0.77002239432E+01  0.17141648802E+03  0.17120000000E+03 0.  0.
        998    1    1    2    0    0  0.18538830586E+02 -0.21126793415E+02  0.14250215056E+04  0.14253337578E+04  0.10000000000E+02 0.  1.
</event>
<event>
 5    1  0.1252319E-008  0.3852761E+03  0.7957747E-01  0.3428502E+00
         13   -1    0    0    0    0  0.00000000000E+00  0.00000000000E+00  0.14999999963E+04  0.15000000000E+04  0.10566000000E+00 0.  1.
        994   -1    0    0    0    0 -0.00000000000E+00 -0.00000000000E+00  0.11368683772E-12  0.17120000000E+03  0.17120000000E+03 0.  0.
         13    1    1    2    0    0 -0.10661549039E+02  0.10336362869E+02  0.82461589131E+02  0.83788029403E+02  0.10566000000E+00 0.  1.
        994    1    1    2    0    0 -0.73514000585E+01 -0.12714577140E+01  0.16760169033E+01  0.17137067637E+03  0.17120000000E+03 0.  0.
        998    1    1    2    0    0  0.18012949097E+02 -0.90649051546E+01  0.14158623902E+04  0.14160412942E+04  0.10000000000E+02 0.  1.
</event>
<event>
 5    1  0.1252319E-008  0.3753859E+03  0.7957747E-01  0.3471499E+00
         13   -1    0    0    0    0  0.00000000000E+00  0.00000000000E+00  0.14999999963E+04  0.15000000000E+04  0.10566000000E+00 0. -1.
        994   -1    0    0    0    0 -0.00000000000E+00 -0.00000000000E+00  0.11368683772E-12  0.17120000000E+03  0.17120000000E+03 0.  0.
         13    1    1    2    0    0 -0.18582516486E+03 -0.77724511457E+02  0.10933047463E+04  0.11117047140E+04  0.10566000000E+00 0. -1.
        994    1    1    2    0    0  0.18703419144E+03  0.45689702360E+02  0.14497418115E+03  0.29562863676E+03  0.17120000000E+03 0.  0.
        998    1    1    2    0    0 -0.12090265789E+01  0.32034809097E+02  0.26172106881E+03  0.26386664927E+03  0.10000000000E+02 0.  1.
</event>
<event>
 5    1  0.1252319E-008  0.3789493E+03  0.7957747E-01  0.3455746E+00
         13   -1    0    0    0    0  0.00000000000E+00  0.00000000000E+00  0.14999999963E+04  0.15000000000E+04  0.10566000000E+00 0. -1.
        994   -1    0    0    0    0 -0.00000000000E+00 -0.00000000000E+00  0.11368683772E-12  0.17120000000E+03  0.17120000000E+03 0.  0.
         13    1    1    2    0    0  0.21425096784E+02  0.13768674084E+01  0.44894779822E+02  0.49764273886E+02  0.10566000000E+00 0. -1.
        994    1    1    2    0    0 -0.30661640435E+02 -0.10009651341E+02  0.81622332815E+01  0.17440295687E+03  0.17120000000E+03 0.  0.
        998    1    1    2    0    0  0.92365436518E+01  0.86327839322E+01  0.14469429832E+04  0.14470327692E+04  0.10000000000E+02 0. -1.
</event>
<event>
 5    1  0.1252319E-008  0.3792186E+03  0.7957747E-01  0.3454568E+00
         13   -1    0    0    0    0  0.00000000000E+00  0.00000000000E+00  0.14999999963E+04  0.15000000000E+04  0.10566000000E+00 0. -1.
        994   -1    0    0    0    0 -0.00000000000E+00 -0.00000000000E+00  0.11368683772E-12  0.17120000000E+03  0.17120000000E+03 0.  0.
         13    1    1    2    0    0 -0.10326590124E+02  0.31737955815E+01  0.10794520678E+02  0.15272337172E+02  0.10566000000E+00 0. -1.
        994    1    1    2    0    0  0.10409184670E+02 -0.43569054172E+01  0.49549914293E+01  0.17164301818E+03  0.17120000000E+03 0.  0.
        998    1    1    2    0    0 -0.82594545882E-01  0.11831098356E+01  0.14842504842E+04  0.14842846446E+04  0.10000000000E+02 0. -1.
</event>
<event>
 5    1  0.1252319E-008  0.3827490E+03  0.7957747E-01  0.3439276E+00
         13   -1    0    0    0    0  0.00000000000E+00  0.00000000000E+00  0.14999999963E+04  0.15000000000E+04  0.10566000000E+00 0. -1.
        994   -1    0    0    0    0 -0.00000000000E+00 -0.00000000000E+00  0.11368683772E-12  0.17120000000E+03  0.17120000000E+03 0.  0.
         13    1    1    2    0    0  0.42630551725E+01 -0.13641027979E+02  0.36615799572E+02  0.39306223757E+02  0.10566000000E+00 0. -1.
        994    1    1    2    0    0  0.12038053983E+01  0.73334310240E+01  0.29348607298E+01  0.17138635233E+03  0.17120000000E+03 0.  0.
        998    1    1    2    0    0 -0.54668605708E+01  0.63075969552E+01  0.14604493360E+04  0.14605074239E+04  0.10000000000E+02 0. -1.
</event>
<event>
 5    1  0.1252319E-008  0.3098052E+03  0.7957747E-01  0.3828413E+00
         13   -1    0    0    0    0  0.00000000000E+00  0.00000000000E+00  0.14999999963E+04  0.15000000000E+04  0.10566000000E+00 0. -1.
        994   -1    0    0    0    0 -0.00000000000E+00 -0.00000000000E+00  0.11368683772E-12  0.17120000000E+03  0.17120000000E+03 0.  0.
         13    1    1    2    0    0 -0.12425558260E+03 -0.12174799844E+03  0.85512333673E+03  0.87263850311E+03  0.10566000000E+00 0. -1.
        994    1    1    2    0    0  0.70239388008E+02  0.62790272035E+02  0.54719743379E+02  0.20292826369E+03  0.17120000000E+03 0.  0.
        998    1    1    2    0    0  0.54016194591E+02  0.58957726407E+02  0.59015691617E+03  0.59563323320E+03  0.10000000000E+02 0. -1.
</event>
<event>
 5    1  0.1252319E-008  0.3763403E+03  0.7957747E-01  0.3467250E+00
         13   -1    0    0    0    0  0.00000000000E+00  0.00000000000E+00  0.14999999963E+04  0.15000000000E+04  0.10566000000E+00 0.  1.
        994   -1    0    0    0    0 -0.00000000000E+00 -0.00000000000E+00  0.11368683772E-12  0.17120000000E+03  0.17120000000E+03 0.  0.
         13    1    1    2    0    0  0.22180905479E+02 -0.53690811938E+01  0.11247666897E+02  0.25442892434E+02  0.10566000000E+00 0.  1.
        994    1    1    2    0    0 -0.31303685271E+02  0.37160414762E+02  0.22821051023E+02  0.17941866544E+03  0.17120000000E+03 0.  0.
        998    1    1    2    0    0  0.91227797921E+01 -0.31791333568E+02  0.14659312784E+04  0.14663384421E+04  0.10000000000E+02 0.  1.
</event>
<event>
 5    1  0.1252319E-008  0.3838521E+03  0.7957747E-01  0.3434555E+00
         13   -1    0    0    0    0  0.00000000000E+00  0.00000000000E+00  0.14999999963E+04  0.15000000000E+04  0.10566000000E+00 0. -1.
        994   -1    0    0    0    0 -0.00000000000E+00 -0.00000000000E+00  0.11368683772E-12  0.17120000000E+03  0.17120000000E+03 0.  0.
         13    1    1    2    0    0  0.91374944499E+00  0.17547662483E+02  0.71358754600E+02  0.73490396780E+02  0.10566000000E+00 0. -1.
        994    1    1    2    0    0  0.99108974761E+01 -0.78265634150E+01  0.27277353869E+01  0.17168681232E+03  0.17120000000E+03 0.  0.
        998    1    1    2    0    0 -0.10824646921E+02 -0.97210990682E+01  0.14259135063E+04  0.14260227909E+04  0.10000000000E+02 0. -1.
</event>
<event>
 5    1  0.1252319E-008  0.3792550E+03  0.7957747E-01  0.3454409E+00
         13   -1    0    0    0    0  0.00000000000E+00  0.00000000000E+00  0.14999999963E+04  0.15000000000E+04  0.10566000000E+00 0. -1.
        994   -1    0    0    0    0 -0.00000000000E+00 -0.00000000000E+00  0.11368683772E-12  0.17120000000E+03  0.17120000000E+03 0.  0.
         13    1    1    2    0    0  0.89575747994E+01 -0.14188553373E+02  0.28944467039E+02  0.33456636552E+02  0.10566000000E+00 0. -1.
        994    1    1    2    0    0 -0.11716867910E+02  0.12368867627E+02  0.54830315937E+01  0.17213302273E+03  0.17120000000E+03 0.  0.
        998    1    1    2    0    0  0.27592931107E+01  0.18196857462E+01  0.14655724976E+04  0.14656103407E+04  0.10000000000E+02 0. -1.
</event>
<event>
 5    1  0.1252319E-008  0.3801283E+03  0.7957747E-01  0.3450600E+00
         13   -1    0    0    0    0  0.00000000000E+00  0.00000000000E+00  0.14999999963E+04  0.15000000000E+04  0.10566000000E+00 0.  1.
        994   -1    0    0    0    0 -0.00000000000E+00 -0.00000000000E+00  0.11368683772E-12  0.17120000000E+03  0.17120000000E+03 0.  0.
         13    1    1    2    0    0  0.50751110092E+02 -0.62012359526E+01  0.26800937568E+03  0.27284275163E+03  0.10566000000E+00 0.  1.
        994    1    1    2    0    0 -0.48750084246E+02  0.12616757047E+02  0.12588576359E+02  0.17889568337E+03  0.17120000000E+03 0.  0.
        998    1    1    2    0    0 -0.20010258462E+01 -0.64155210942E+01  0.12194020442E+04  0.12194615650E+04  0.10000000000E+02 0.  1.
</event>
<event>
 5    1  0.1252319E-008  0.3846873E+03  0.7957747E-01  0.3430999E+00
         13   -1    0    0    0    0  0.00000000000E+00  0.00000000000E+00  0.14999999963E+04  0.15000000000E+04  0.10566000000E+00 0.  1.
        994   -1    0    0    0    0 -0.00000000000E+00 -0.00000000000E+00  0.11368683772E-12  0.17120000000E+03  0.17120000000E+03 0.  0.
         13    1    1    2    0    0  0.83269458869E+02 -0.31153144878E+02  0.17326756448E+03  0.19474594035E+03  0.10566000000E+00 0.  1.
        994    1    1    2    0    0 -0.94685560874E+02  0.24310176931E+02  0.55081677878E+02  0.20469433646E+03  0.17120000000E+03 0.  0.
        998    1    1    2    0    0  0.11416102006E+02  0.68429679465E+01  0.12716507539E+04  0.12717597232E+04  0.10000000000E+02 0.  1.
</event>
<event>
 5    1  0.1252319E-008  0.3763134E+03  0.7957747E-01  0.3467369E+00
         13   -1    0    0    0    0  0.00000000000E+00  0.00000000000E+00  0.14999999963E+04  0.15000000000E+04  0.10566000000E+00 0.  1.
        994   -1    0    0    0    0 -0.00000000000E+00 -0.00000000000E+00  0.11368683772E-12  0.17120000000E+03  0.17120000000E+03 0.  0.
         13    1    1    2    0    0 -0.76788981251E+00 -0.15620803182E+02  0.16904194227E+02  0.23029591688E+02  0.10566000000E+00 0.  1.
        994    1    1    2    0    0  0.15775076828E+01  0.31407802285E+02  0.93598596222E+01  0.17431576391E+03  0.17120000000E+03 0.  0.
        998    1    1    2    0    0 -0.80961787032E+00 -0.15786999104E+02  0.14737359424E+04  0.14738546444E+04  0.10000000000E+02 0.  1.
</event>
<event>
 5    1  0.1252319E-008  0.3768331E+03  0.7957747E-01  0.3465065E+00
         13   -1    0    0    0    0  0.00000000000E+00  0.00000000000E+00  0.14999999963E+04  0.15000000000E+04  0.10566000000E+00 0.  1.
        994   -1    0    0    0    0 -0.00000000000E+00 -0.00000000000E+00  0.11368683772E-12  0.17120000000E+03  0.17120000000E+03 0.  0.
         13    1    1    2    0    0  0.42294902983E+02 -0.35908207931E+01  0.16083469114E+03  0.16634170208E+03  0.10566000000E+00 0.  1.
        994    1    1    2    0    0 -0.20212850643E+02 -0.16732305309E+02  0.80699476227E+01  0.17338712013E+03  0.17120000000E+03 0.  0.
        998    1    1    2    0    0 -0.22082052340E+02  0.20323126102E+02  0.13310953575E+04  0.13314711778E+04  0.10000000000E+02 0.  1.
</event>
<event>
 5    1  0.1252319E-008  0.3860111E+03  0.7957747E-01  0.3425395E+00
         13   -1    0    0    0    0  0.00000000000E+00  0.00000000000E+00  0.14999999963E+04  0.15000000000E+04  0.10566000000E+00 0.  1.
        994   -1    0    0    0    0 -0.00000000000E+00 -0.00000000000E+00  0.11368683772E-12  0.17120000000E+03  0.17120000000E+03 0.  0.
         13    1    1    2    0    0  0.10648012731E+02  0.30116445026E+01  0.52452607193E+02  0.53607250844E+02  0.10566000000E+00 0.  1.
        994    1    1    2    0    0 -0.11996480019E+02 -0.97537157642E+01  0.19129641632E+01  0.17190738767E+03  0.17120000000E+03 0.  0.
        998    1    1    2    0    0  0.13484672887E+01  0.67420712616E+01  0.14456344249E+04  0.14456853615E+04  0.10000000000E+02 0.  1.
</event>
<event>
 5    1  0.1252319E-008  0.3842478E+03  0.7957747E-01  0.3432869E+00
         13   -1    0    0    0    0  0.00000000000E+00  0.00000000000E+00  0.14999999963E+04  0.15000000000E+04  0.10566000000E+00 0.  1.
        994   -1    0    0    0    0 -0.00000000000E+00 -0.00000000000E+00  0.11368683772E-12  0.17120000000E+03  0.17120000000E+03 0.  0.
         13    1    1    2    0    0  0.22897134304E+02 -0.75645640946E+01  0.13470631044E+03  0.13684773519E+03  0.10566000000E+00 0.  1.
        994    1    1    2    0    0 -0.23526614103E+02  0.36394668612E+01  0.38746684100E+01  0.17289071793E+03  0.17120000000E+03 0.  0.
        998    1    1    2    0    0  0.62947979904E+00  0.39250972334E+01  0.13614190174E+04  0.13614615469E+04  0.10000000000E+02 0.  0.
</event>
<event>
 5    1  0.1252319E-008  0.3819435E+03  0.7957747E-01  0.3442739E+00
         13   -1    0    0    0    0  0.00000000000E+00  0.00000000000E+00  0.14999999963E+04  0.15000000000E+04  0.10566000000E+00 0. -1.
        994   -1    0    0    0    0 -0.00000000000E+00 -0.00000000000E+00  0.11368683772E-12  0.17120000000E+03  0.17120000000E+03 0.  0.
         13    1    1    2    0    0 -0.10624068026E+02  0.37606729699E+02  0.20435828049E+03  0.20806118069E+03  0.10566000000E+00 0. -1.
        994    1    1    2    0    0  0.59428414705E+01 -0.42668464477E+02  0.93445051158E+01  0.17678426118E+03  0.17120000000E+03 0.  0.
        998    1    1    2    0    0  0.46812265558E+01  0.50617347776E+01  0.12862972107E+04  0.12863545581E+04  0.10000000000E+02 0. -1.
</event>
<event>
 5    1  0.1252319E-008  0.3859424E+03  0.7957747E-01  0.3425685E+00
         13   -1    0    0    0    0  0.00000000000E+00  0.00000000000E+00  0.14999999963E+04  0.15000000000E+04  0.10566000000E+00 0. -1.
        994   -1    0    0    0    0 -0.00000000000E+00 -0.00000000000E+00  0.11368683772E-12  0.17120000000E+03  0.17120000000E+03 0.  0.
         13    1    1    2    0    0  0.13359727315E+02 -0.59221373148E+01  0.84443205095E+02  0.85698425161E+02  0.10566000000E+00 0. -1.
        994    1    1    2    0    0 -0.10584951179E+02  0.29718662614E+02  0.44328277565E+01  0.17413882411E+03  0.17120000000E+03 0.  0.
        998    1    1    2    0    0 -0.27747761358E+01 -0.23796525300E+02  0.14111239634E+04  0.14113627507E+04  0.10000000000E+02 0. -1.
</event>
<event>
 5    1  0.1252319E-008  0.3848513E+03  0.7957747E-01  0.3430303E+00
         13   -1    0    0    0    0  0.00000000000E+00  0.00000000000E+00  0.14999999963E+04  0.15000000000E+04  0.10566000000E+00 0. -1.
        994   -1    0    0    0    0 -0.00000000000E+00 -0.00000000000E+00  0.11368683772E-12  0.17120000000E+03  0.17120000000E+03 0.  0.
         13    1    1    2    0    0  0.70622756536E+01 -0.91934248880E+01  0.38885038085E+02  0.40576497502E+02  0.10566000000E+00 0. -1.
        994    1    1    2    0    0 -0.10615017458E+01  0.11407567571E+02  0.21359632025E+01  0.17159621710E+03  0.17120000000E+03 0.  0.
        998    1    1    2    0    0 -0.60007739077E+01 -0.22141426832E+01  0.14589789950E+04  0.14590272854E+04  0.10000000000E+02 0. -1.
</event>
<event>
 5    1  0.1252319E-008  0.3846830E+03  0.7957747E-01  0.3431018E+00
         13   -1    0    0    0    0  0.00000000000E+00  0.00000000000E+00  0.14999999963E+04  0.15000000000E+04  0.10566000000E+00 0. -1.
        994   -1    0    0    0    0 -0.00000000000E+00 -0.00000000000E+00  0.11368683772E-12  0.17120000000E+03  0.17120000000E+03 0.  0.
         13    1    1    2    0    0  0.14409868863E+02  0.22701618227E+02  0.15822215326E+03  0.16049071231E+03  0.10566000000E+00 0. -1.
        994    1    1    2    0    0 -0.10042252208E+02 -0.45090839936E+02  0.88447541499E+01  0.17754351678E+03  0.17120000000E+03 0.  0.
        998    1    1    2    0    0 -0.43676166546E+01  0.22389221709E+02  0.13329330889E+04  0.13331657709E+04  0.10000000000E+02 0. -1.
</event>
<event>
 5    1  0.1252319E-008  0.3748679E+03  0.7957747E-01  0.3473814E+00
         13   -1    0    0    0    0  0.00000000000E+00  0.00000000000E+00  0.14999999963E+04  0.15000000000E+04  0.10566000000E+00 0.  1.
        994   -1    0    0    0    0 -0.00000000000E+00 -0.00000000000E+00  0.11368683772E-12  0.17120000000E+03  0.17120000000E+03 0.  0.
         13    1    1    2    0    0 -0.34789820147E+02 -0.11342307052E+03  0.44494585869E+03  0.46049099105E+03  0.10566000000E+00 0.  1.
        994    1    1    2    0    0  0.33462514695E+02  0.16230562650E+03  0.10674577794E+03  0.26108802614E+03  0.17120000000E+03 0.  0.
        998    1    1    2    0    0  0.13273054520E+01 -0.48882555977E+02  0.94830835965E+03  0.94962098281E+03  0.10000000000E+02 0.  1.
</event>
<event>
 5    1  0.1569972E-008  0.3841246E+03  0.7957747E-01  0.3433393E+00
         13   -1    0    0    0    0  0.00000000000E+00  0.00000000000E+00  0.14999999963E+04  0.15000000000E+04  0.10566000000E+00 0. -1.
        994   -1    0    0    0    0 -0.00000000000E+00 -0.00000000000E+00  0.11368683772E-12  0.17120000000E+03  0.17120000000E+03 0.  0.
         13    1    1    2    0    0  0.12766404285E+01  0.10934063189E+02  0.28252643529E+02  0.30321717943E+02  0.10566000000E+00 0. -1.
        994    1    1    2    0    0 -0.11412936413E+01 -0.12199226508E+02  0.25606388374E+01  0.17165698515E+03  0.17120000000E+03 0.  0.
        998    1    1    2    0    0 -0.13534678719E+00  0.12651633186E+01  0.14691867139E+04  0.14692212969E+04  0.10000000000E+02 0. -1.
</event>
<event>
 5    1  0.1252319E-008  0.3831518E+03  0.7957747E-01  0.3437549E+00
         13   -1    0    0    0    0  0.00000000000E+00  0.00000000000E+00  0.14999999963E+04  0.15000000000E+04  0.10566000000E+00 0.  1.
        994   -1    0    0    0    0 -0.00000000000E+00 -0.00000000000E+00  0.11368683772E-12  0.17120000000E+03  0.17120000000E+03 0.  0.
         13    1    1    2    0    0  0.15834275179E+02 -0.51455761745E+01  0.53314022629E+02  0.55853356189E+02  0.10566000000E+00 0.  1.
        994    1    1    2    0    0 -0.11607559161E+02  0.34216074836E+01  0.30351788030E+01  0.17165399832E+03  0.17120000000E+03 0.  0.
        998    1    1    2    0    0 -0.42267160177E+01  0.17239686909E+01  0.14436507948E+04  0.14436926455E+04  0.10000000000E+02 0.  1.
</event>
<event>
 5    1  0.1252319E-008  0.3814398E+03  0.7957747E-01  0.3444913E+00
         13   -1    0    0    0    0  0.00000000000E+00  0.00000000000E+00  0.14999999963E+04  0.15000000000E+04  0.10566000000E+00 0. -1.
        994   -1    0    0    0    0 -0.00000000000E+00 -0.00000000000E+00  0.11368683772E-12  0.17120000000E+03  0.17120000000E+03 0.  0.
         13    1    1    2    0    0 -0.17761819606E+02 -0.11192819933E+02  0.58809045437E+02  0.62444186623E+02  0.10566000000E+00 0. -1.
        994    1    1    2    0    0  0.23526539588E+02  0.21166368383E+02  0.67473591259E+01  0.17423111109E+03  0.17120000000E+03 0.  0.
        998    1    1    2    0    0 -0.57647199816E+01 -0.99735484497E+01  0.14344435917E+04  0.14345247023E+04  0.10000000000E+02 0. -1.
</event>
<event>
 5    1  0.1252319E-008  0.3829811E+03  0.7957747E-01  0.3438280E+00
         13   -1    0    0    0    0  0.00000000000E+00  0.00000000000E+00  0.14999999963E+04  0.15000000000E+04  0.10566000000E+00 0.  1.
        994   -1    0    0    0    0 -0.00000000000E+00 -0.00000000000E+00  0.11368683772E-12  0.17120000000E+03  0.17120000000E+03 0.  0.
         13    1    1    2    0    0 -0.43823650715E+01 -0.98855500176E+01  0.20519925327E+02  0.23194993474E+02  0.10566000000E+00 0.  1.
        994    1    1    2    0    0 -0.15072439312E+01  0.20493414172E+02  0.40348416283E+01  0.17247600342E+03  0.17120000000E+03 0.  0.
        998    1    1    2    0    0  0.58896090028E+01 -0.10607864155E+02  0.14754452293E+04  0.14755290031E+04  0.10000000000E+02 0.  1.
</event>
<event>
 5    1  0.1252319E-008  0.3844687E+03  0.7957747E-01  0.3431929E+00
         13   -1    0    0    0    0  0.00000000000E+00  0.00000000000E+00  0.14999999963E+04  0.15000000000E+04  0.10566000000E+00 0.  1.
        994   -1    0    0    0    0 -0.00000000000E+00 -0.00000000000E+00  0.11368683772E-12  0.17120000000E+03  0.17120000000E+03 0.  0.
         13    1    1    2    0    0  0.78736163825E+01  0.17434968501E+02  0.10141825004E+03  0.10320680485E+03  0.10566000000E+00 0.  1.
        994    1    1    2    0    0 -0.24974146453E+01 -0.46604899498E+01  0.19862674940E+01  0.17129314786E+03  0.17120000000E+03 0.  0.
        998    1    1    2    0    0 -0.53762017372E+01 -0.12774478551E+02  0.13965954787E+04  0.13967000473E+04  0.10000000000E+02 0.  1.
</event>
<event>
 5    1  0.1252319E-008  0.3847249E+03  0.7957747E-01  0.3430840E+00
         13   -1    0    0    0    0  0.00000000000E+00  0.00000000000E+00  0.14999999963E+04  0.15000000000E+04  0.10566000000E+00 0.  1.
        994   -1    0    0    0    0 -0.00000000000E+00 -0.00000000000E+00  0.11368683772E-12  0.17120000000E+03  0.17120000000E+03 0.  0.
         13    1    1    2    0    0  0.12451697922E+02 -0.82236330214E+00  0.45006629634E+02  0.46704699310E+02  0.10566000000E+00 0.  1.
        994    1    1    2    0    0 -0.28113762958E+01  0.86252607664E+01  0.20377099044E+01  0.17145230014E+03  0.17120000000E+03 0.  0.
        998    1    1    2    0    0 -0.96403216257E+01 -0.78028974643E+01  0.14529556567E+04  0.14530430006E+04  0.10000000000E+02 0.  1.
</event>
<event>
 5    1  0.1252319E-008  0.3800156E+03  0.7957747E-01  0.3451091E+00
         13   -1    0    0    0    0  0.00000000000E+00  0.00000000000E+00  0.14999999963E+04  0.15000000000E+04  0.10566000000E+00 0. -1.
        994   -1    0    0    0    0 -0.00000000000E+00 -0.00000000000E+00  0.11368683772E-12  0.17120000000E+03  0.17120000000E+03 0.  0.
         13    1    1    2    0    0  0.18327462612E+02 -0.29833235066E+02  0.14351091436E+03  0.14772038283E+03  0.10566000000E+00 0. -1.
        994    1    1    2    0    0 -0.88609905375E+01  0.23627089457E+02  0.62567043522E+01  0.17316276407E+03  0.17120000000E+03 0.  0.
        998    1    1    2    0    0 -0.94664720740E+01  0.62061456085E+01  0.13502323776E+04  0.13503168531E+04  0.10000000000E+02 0. -1.
</event>
<event>
 5    1  0.1252319E-008  0.2581289E+03  0.7957747E-01  0.4249246E+00
         13   -1    0    0    0    0  0.00000000000E+00  0.00000000000E+00  0.14999999963E+04  0.15000000000E+04  0.10566000000E+00 0. -1.
        994   -1    0    0    0    0 -0.00000000000E+00 -0.00000000000E+00  0.11368683772E-12  0.17120000000E+03  0.17120000000E+03 0.  0.
         13    1    1    2    0    0 -0.94150861495E+01  0.15997527550E+03  0.59898151765E+03  0.62004806448E+03  0.10566000000E+00 0. -1.
        994    1    1    2    0    0 -0.13167583611E+03 -0.39457924643E+02  0.12385524197E+03  0.25208136503E+03  0.17120000000E+03 0.  0.
        998    1    1    2    0    0  0.14109092226E+03 -0.12051735085E+03  0.77716323666E+03  0.79907057049E+03  0.10000000000E+02 0. -1.
</event>
<event>
 5    1  0.1252319E-008  0.3802006E+03  0.7957747E-01  0.3450286E+00
         13   -1    0    0    0    0  0.00000000000E+00  0.00000000000E+00  0.14999999963E+04  0.15000000000E+04  0.10566000000E+00 0. -1.
        994   -1    0    0    0    0 -0.00000000000E+00 -0.00000000000E+00  0.11368683772E-12  0.17120000000E+03  0.17120000000E+03 0.  0.
         13    1    1    2    0    0  0.54540269960E+01  0.19652463694E+02  0.49483070079E+02  0.53521501550E+02  0.10566000000E+00 0. -1.
        994    1    1    2    0    0 -0.99093668025E+00 -0.16893942895E+02  0.49892492213E+01  0.17210671071E+03  0.17120000000E+03 0.  0.
        998    1    1    2    0    0 -0.44630903157E+01 -0.27585207991E+01  0.14455276770E+04  0.14455717877E+04  0.10000000000E+02 0. -1.
</event>
<event>
 5    1  0.1252319E-008  0.3784604E+03  0.7957747E-01  0.3457890E+00
         13   -1    0    0    0    0  0.00000000000E+00  0.00000000000E+00  0.14999999963E+04  0.15000000000E+04  0.10566000000E+00 0.  1.
        994   -1    0    0    0    0 -0.00000000000E+00 -0.00000000000E+00  0.11368683772E-12  0.17120000000E+03  0.17120000000E+03 0.  0.
         13    1    1    2    0    0 -0.96374175699E+02  0.49646600740E+02  0.45463759415E+03  0.46738433851E+03  0.10566000000E+00 0.  1.
        994    1    1    2    0    0  0.24125678021E+02 -0.34794202374E+02  0.21971390514E+02  0.17772131797E+03  0.17120000000E+03 0.  0.
        998    1    1    2    0    0  0.72248497678E+02 -0.14852398366E+02  0.10233910116E+04  0.10260943435E+04  0.10000000000E+02 0.  1.
</event>
<event>
 5    1  0.1252319E-008  0.3815568E+03  0.7957747E-01  0.3444408E+00
         13   -1    0    0    0    0  0.00000000000E+00  0.00000000000E+00  0.14999999963E+04  0.15000000000E+04  0.10566000000E+00 0.  1.
        994   -1    0    0    0    0 -0.00000000000E+00 -0.00000000000E+00  0.11368683772E-12  0.17120000000E+03  0.17120000000E+03 0.  0.
         13    1    1    2    0    0  0.17467050192E+02  0.26004773759E+02  0.17687766696E+03  0.17963036028E+03  0.10566000000E+00 0.  1.
        994    1    1    2    0    0  0.38710772798E+02 -0.22166690453E+02  0.99957903360E+01  0.17719831241E+03  0.17120000000E+03 0.  0.
        998    1    1    2    0    0 -0.56177822990E+02 -0.38380833061E+01  0.13131265390E+04  0.13143713273E+04  0.10000000000E+02 0.  1.
</event>
<event>
 5    1  0.1252319E-008  0.3733309E+03  0.7957747E-01  0.3480721E+00
         13   -1    0    0    0    0  0.00000000000E+00  0.00000000000E+00  0.14999999963E+04  0.15000000000E+04  0.10566000000E+00 0. -1.
        994   -1    0    0    0    0 -0.00000000000E+00 -0.00000000000E+00  0.11368683772E-12  0.17120000000E+03  0.17120000000E+03 0.  0.
         13    1    1    2    0    0  0.67867026210E+02 -0.13250845524E+02  0.14667941237E+03  0.16216158401E+03  0.10566000000E+00 0. -1.
        994    1    1    2    0    0 -0.10287576094E+03 -0.11747504503E+02  0.51673432912E+02  0.20664222637E+03  0.17120000000E+03 0.  0.
        998    1    1    2    0    0  0.35008734732E+02  0.24998350027E+02  0.13016471510E+04  0.13023961896E+04  0.10000000000E+02 0. -1.
</event>
<event>
 5    1  0.1252319E-008  0.3783574E+03  0.7957747E-01  0.3458342E+00
         13   -1    0    0    0    0  0.00000000000E+00  0.00000000000E+00  0.14999999963E+04  0.15000000000E+04  0.10566000000E+00 0.  1.
        994   -1    0    0    0    0 -0.00000000000E+00 -0.00000000000E+00  0.11368683772E-12  0.17120000000E+03  0.17120000000E+03 0.  0.
         13    1    1    2    0    0  0.17437289155E+02  0.15889886248E+02  0.55240591024E+02  0.60067308902E+02  0.10566000000E+00 0.  1.
        994    1    1    2    0    0 -0.45933147600E+01 -0.96749076287E+01  0.53502544850E+01  0.17161808646E+03  0.17120000000E+03 0.  0.
        998    1    1    2    0    0 -0.12843974395E+02 -0.62149786190E+01  0.14394091508E+04  0.14395146046E+04  0.10000000000E+02 0.  1.
</event>
<event>
 5    1  0.1252319E-008  0.3784365E+03  0.7957747E-01  0.3457995E+00
         13   -1    0    0    0    0  0.00000000000E+00  0.00000000000E+00  0.14999999963E+04  0.15000000000E+04  0.10566000000E+00 0.  1.
        994   -1    0    0    0    0 -0.00000000000E+00 -0.00000000000E+00  0.11368683772E-12  0.17120000000E+03  0.17120000000E+03 0.  0.
         13    1    1    2    0    0 -0.38880493808E+01  0.14110962313E+02  0.19231498599E+02  0.24168117175E+02  0.10566000000E+00 0.  1.
        994    1    1    2    0    0  0.52471376223E+01 -0.18155605527E+02  0.61255278595E+01  0.17234883393E+03  0.17120000000E+03 0.  0.
        998    1    1    2    0    0 -0.13590882415E+01  0.40446432134E+01  0.14746429698E+04  0.14746830489E+04  0.10000000000E+02 0.  1.
</event>
<event>
 5    1  0.1252319E-008  0.3859541E+03  0.7957747E-01  0.3425636E+00
         13   -1    0    0    0    0  0.00000000000E+00  0.00000000000E+00  0.14999999963E+04  0.15000000000E+04  0.10566000000E+00 0. -1.
        994   -1    0    0    0    0 -0.00000000000E+00 -0.00000000000E+00  0.11368683772E-12  0.17120000000E+03  0.17120000000E+03 0.  0.
         13    1    1    2    0    0  0.11964936871E+02  0.28783508162E+01  0.73698960011E+02  0.74719425108E+02  0.10566000000E+00 0. -1.
        994    1    1    2    0    0  0.33799922193E+01  0.75210632030E+01  0.13801282576E+01  0.17140401248E+03  0.17120000000E+03 0.  0.
        998    1    1    2    0    0 -0.15344929091E+02 -0.10399414019E+02  0.14249209080E+04  0.14250765624E+04  0.10000000000E+02 0. -1.
</event>
<event>
 5    1  0.1252319E-008  0.3941813E+03  0.7957747E-01  0.3391643E+00
         13   -1    0    0    0    0  0.00000000000E+00  0.00000000000E+00  0.14999999963E+04  0.15000000000E+04  0.10566000000E+00 0. -1.
        994   -1    0    0    0    0 -0.00000000000E+00 -0.00000000000E+00  0.11368683772E-12  0.17120000000E+03  0.17120000000E+03 0.  0.
         13    1    1    2    0    0 -0.35449468046E+01  0.35011390374E+02  0.15929848559E+02  0.38628167740E+02  0.10566000000E+00 0. -1.
        994    1    1    2    0    0  0.42434608849E-01 -0.21252383002E+02  0.26075305375E+02  0.17447357145E+03  0.17120000000E+03 0.  0.
        998    1    1    2    0    0  0.35025121957E+01 -0.13759007373E+02  0.14579948423E+04  0.14580982608E+04  0.10000000000E+02 0. -1.
</event>
<event>
 5    1  0.1252319E-008  0.3721026E+03  0.7957747E-01  0.3486283E+00
         13   -1    0    0    0    0  0.00000000000E+00  0.00000000000E+00  0.14999999963E+04  0.15000000000E+04  0.10566000000E+00 0.  1.
        994   -1    0    0    0    0 -0.00000000000E+00 -0.00000000000E+00  0.11368683772E-12  0.17120000000E+03  0.17120000000E+03 0.  0.
         13    1    1    2    0    0  0.60547159954E+00  0.15118410152E+02  0.10284395262E+02  0.18295159779E+02  0.10566000000E+00 0.  1.
        994    1    1    2    0    0  0.17841511327E+01 -0.13776344502E+02  0.88368898274E+01  0.17198982960E+03  0.17120000000E+03 0.  0.
        998    1    1    2    0    0 -0.23896227323E+01 -0.13420656501E+01  0.14808787112E+04  0.14809150106E+04  0.10000000000E+02 0.  1.
</event>
<event>
 5    1  0.1252319E-008  0.3762931E+03  0.7957747E-01  0.3467460E+00
         13   -1    0    0    0    0  0.00000000000E+00  0.00000000000E+00  0.14999999963E+04  0.15000000000E+04  0.10566000000E+00 0.  1.
        994   -1    0    0    0    0 -0.00000000000E+00 -0.00000000000E+00  0.11368683772E-12  0.17120000000E+03  0.17120000000E+03 0.  0.
         13    1    1    2    0    0 -0.29798460492E+02 -0.84092770815E+01  0.75891677338E+02  0.81964760976E+02  0.10566000000E+00 0.  1.
        994    1    1    2    0    0  0.22726878637E+02  0.10406986339E+02  0.81337335791E+01  0.17320627587E+03  0.17120000000E+03 0.  0.
        998    1    1    2    0    0  0.70715818547E+01 -0.19977092578E+01  0.14159745854E+04  0.14160289632E+04  0.10000000000E+02 0.  1.
</event>
<event>
 5    1  0.1252319E-008  0.3832313E+03  0.7957747E-01  0.3437208E+00
         13   -1    0    0    0    0  0.00000000000E+00  0.00000000000E+00  0.14999999963E+04  0.15000000000E+04  0.10566000000E+00 0.  1.
        994   -1    0    0    0    0 -0.00000000000E+00 -0.00000000000E+00  0.11368683772E-12  0.17120000000E+03  0.17120000000E+03 0.  0.
         13    1    1    2    0    0  0.12779568726E+02  0.34914838383E+01  0.33739096385E+02  0.36247008499E+02  0.10566000000E+00 0.  1.
        994    1    1    2    0    0 -0.10821368037E+02 -0.65351257940E+01  0.30395623805E+01  0.17169300747E+03  0.17120000000E+03 0.  0.
        998    1    1    2    0    0 -0.19582006892E+01  0.30436419557E+01  0.14632213375E+04  0.14632599840E+04  0.10000000000E+02 0.  1.
</event>
<event>
 5    1  0.1252319E-008  0.3774079E+03  0.7957747E-01  0.3462523E+00
         13   -1    0    0    0    0  0.00000000000E+00  0.00000000000E+00  0.14999999963E+04  0.15000000000E+04  0.10566000000E+00 0.  1.
        994   -1    0    0    0    0 -0.00000000000E+00 -0.00000000000E+00  0.11368683772E-12  0.17120000000E+03  0.17120000000E+03 0.  0.
         13    1    1    2    0    0  0.19540524721E+02 -0.65211228511E+02  0.36445677772E+03  0.37076015215E+03  0.10566000000E+00 0.  1.
        994    1    1    2    0    0 -0.44892280853E+02  0.46007940421E+02  0.19509049851E+02  0.18390783150E+03  0.17120000000E+03 0.  0.
        998    1    1    2    0    0  0.25351756132E+02  0.19203288090E+02  0.11160341687E+04  0.11165320163E+04  0.10000000000E+02 0.  1.
</event>
<event>
 5    1  0.1252319E-008  0.3802496E+03  0.7957747E-01  0.3450072E+00
         13   -1    0    0    0    0  0.00000000000E+00  0.00000000000E+00  0.14999999963E+04  0.15000000000E+04  0.10566000000E+00 0. -1.
        994   -1    0    0    0    0 -0.00000000000E+00 -0.00000000000E+00  0.11368683772E-12  0.17120000000E+03  0.17120000000E+03 0.  0.
         13    1    1    2    0    0 -0.12781274970E+01 -0.10699283539E+02  0.12684938348E+02  0.16644131190E+02  0.10566000000E+00 0. -1.
        994    1    1    2    0    0 -0.43232866360E+00  0.99253647625E+01  0.43369413968E+01  0.17154284839E+03  0.17120000000E+03 0.  0.
        998    1    1    2    0    0  0.17104561606E+01  0.77391877666E+00  0.14829781165E+04  0.14830130204E+04  0.10000000000E+02 0. -1.
</event>
<event>
 5    1  0.1252319E-008  0.3773434E+03  0.7957747E-01  0.3462808E+00
         13   -1    0    0    0    0  0.00000000000E+00  0.00000000000E+00  0.14999999963E+04  0.15000000000E+04  0.10566000000E+00 0. -1.
        994   -1    0    0    0    0 -0.00000000000E+00 -0.00000000000E+00  0.11368683772E-12  0.17120000000E+03  0.17120000000E+03 0.  0.
         13    1    1    2    0    0 -0.35219536647E+02 -0.71688674838E+02  0.44214800323E+03  0.44930451787E+03  0.10566000000E+00 0. -1.
        994    1    1    2    0    0  0.29717147623E+02  0.66212907441E+02  0.23455591219E+02  0.18742161757E+03  0.17120000000E+03 0.  0.
        998    1    1    2    0    0  0.55023890244E+01  0.54757673962E+01  0.10343964018E+04  0.10344738646E+04  0.10000000000E+02 0. -1.
</event>
<event>
 5    1  0.1252319E-008  0.2826255E+03  0.7957747E-01  0.4028437E+00
         13   -1    0    0    0    0  0.00000000000E+00  0.00000000000E+00  0.14999999963E+04  0.15000000000E+04  0.10566000000E+00 0.  1.
        994   -1    0    0    0    0 -0.00000000000E+00 -0.00000000000E+00  0.11368683772E-12  0.17120000000E+03  0.17120000000E+03 0.  0.
         13    1    1    2    0    0 -0.15660035802E+03 -0.13548106933E+03  0.49759041945E+03  0.53895735358E+03  0.10566000000E+00 0.  1.
        994    1    1    2    0    0  0.61973732397E+02  0.21285485551E+03  0.26799344022E+03  0.38765688053E+03  0.17120000000E+03 0.  0.
        998    1    1    2    0    0  0.94626625624E+02 -0.77373786178E+02  0.73441613661E+03  0.74458576590E+03  0.10000000000E+02 0.  1.
</event>
<event>
 5    1  0.1252319E-008  0.3818832E+03  0.7957747E-01  0.3442999E+00
         13   -1    0    0    0    0  0.00000000000E+00  0.00000000000E+00  0.14999999963E+04  0.15000000000E+04  0.10566000000E+00 0. -1.
        994   -1    0    0    0    0 -0.00000000000E+00 -0.00000000000E+00  0.11368683772E-12  0.17120000000E+03  0.17120000000E+03 0.  0.
         13    1    1    2    0    0 -0.31834499965E+02  0.30841806306E+01  0.14728731125E+03  0.15071997471E+03  0.10566000000E+00 0. -1.
        994    1    1    2    0    0  0.29344600157E+02 -0.13935675549E+02  0.66994229706E+01  0.17438357400E+03  0.17120000000E+03 0.  0.
        998    1    1    2    0    0  0.24898998076E+01  0.10851494919E+02  0.13460132621E+04  0.13460964513E+04  0.10000000000E+02 0. -1.
</event>
<event>
 5    1  0.1252319E-008  0.3773957E+03  0.7957747E-01  0.3462577E+00
         13   -1    0    0    0    0  0.00000000000E+00  0.00000000000E+00  0.14999999963E+04  0.15000000000E+04  0.10566000000E+00 0. -1.
        994   -1    0    0    0    0 -0.00000000000E+00 -0.00000000000E+00  0.11368683772E-12  0.17120000000E+03  0.17120000000E+03 0.  0.
         13    1    1    2    0    0 -0.10700867478E+02  0.44240119038E+02  0.16898153597E+03  0.17500419241E+03  0.10566000000E+00 0. -1.
        994    1    1    2    0    0  0.23342449593E+02 -0.40542060625E+02  0.12869018956E+02  0.17794263200E+03  0.17120000000E+03 0.  0.
        998    1    1    2    0    0 -0.12641582115E+02 -0.36980584130E+01  0.13181494414E+04  0.13182531756E+04  0.10000000000E+02 0. -1.
</event>
<event>
 5    1  0.1252319E-008  0.3828585E+03  0.7957747E-01  0.3438806E+00
         13   -1    0    0    0    0  0.00000000000E+00  0.00000000000E+00  0.14999999963E+04  0.15000000000E+04  0.10566000000E+00 0. -1.
        994   -1    0    0    0    0 -0.00000000000E+00 -0.00000000000E+00  0.11368683772E-12  0.17120000000E+03  0.17120000000E+03 0.  0.
         13    1    1    2    0    0  0.32991994092E+02 -0.74088286200E+01  0.19061183036E+03  0.19358781845E+03  0.10566000000E+00 0. -1.
        994    1    1    2    0    0 -0.30554685339E+02  0.83535608432E+01  0.60270001091E+01  0.17421003273E+03  0.17120000000E+03 0.  0.
        998    1    1    2    0    0 -0.24373087530E+01 -0.94473222318E+00  0.13033611658E+04  0.13034021488E+04  0.10000000000E+02 0. -1.
</event>
<event>
 5    1  0.1252319E-008  0.3770991E+03  0.7957747E-01  0.3463888E+00
         13   -1    0    0    0    0  0.00000000000E+00  0.00000000000E+00  0.14999999963E+04  0.15000000000E+04  0.10566000000E+00 0. -1.
        994   -1    0    0    0    0 -0.00000000000E+00 -0.00000000000E+00  0.11368683772E-12  0.17120000000E+03  0.17120000000E+03 0.  0.
         13    1    1    2    0    0 -0.68423546507E+02  0.34094392816E+02  0.17199656795E+03  0.18822072120E+03  0.10566000000E+00 0. -1.
        994    1    1    2    0    0  0.70953432727E+02 -0.28067375207E+02  0.35925522311E+02  0.19084614306E+03  0.17120000000E+03 0.  0.
        998    1    1    2    0    0 -0.25298862199E+01 -0.60270176087E+01  0.12920779060E+04  0.12921331357E+04  0.10000000000E+02 0. -1.
</event>
<event>
 5    1  0.1252319E-008  0.3857956E+03  0.7957747E-01  0.3426305E+00
         13   -1    0    0    0    0  0.00000000000E+00  0.00000000000E+00  0.14999999963E+04  0.15000000000E+04  0.10566000000E+00 0.  1.
        994   -1    0    0    0    0 -0.00000000000E+00 -0.00000000000E+00  0.11368683772E-12  0.17120000000E+03  0.17120000000E+03 0.  0.
         13    1    1    2    0    0  0.17386034239E+02 -0.86898879064E+00  0.10422586831E+03  0.10566963668E+03  0.10566000000E+00 0.  1.
        994    1    1    2    0    0 -0.29883245529E+02  0.16433088211E+02  0.50599967303E+01  0.17463704738E+03  0.17120000000E+03 0.  0.
        998    1    1    2    0    0  0.12497211289E+02 -0.15564099421E+02  0.13907141312E+04  0.13908933159E+04  0.10000000000E+02 0.  1.
</event>
<event>
 5    1  0.1252319E-008  0.3848243E+03  0.7957747E-01  0.3430418E+00
         13   -1    0    0    0    0  0.00000000000E+00  0.00000000000E+00  0.14999999963E+04  0.15000000000E+04  0.10566000000E+00 0.  1.
        994   -1    0    0    0    0 -0.00000000000E+00 -0.00000000000E+00  0.11368683772E-12  0.17120000000E+03  0.17120000000E+03 0.  0.
         13    1    1    2    0    0 -0.82630295812E+01  0.89470588476E+01  0.42159556936E+02  0.43883560987E+02  0.10566000000E+00 0.  1.
        994    1    1    2    0    0  0.96264417693E+01 -0.76152317356E+01  0.22133151378E+01  0.17165371799E+03  0.17120000000E+03 0.  0.
        998    1    1    2    0    0 -0.13634121881E+01 -0.13318271120E+01  0.14556271242E+04  0.14556627210E+04  0.10000000000E+02 0.  1.
</event>
<event>
 5    1  0.1252319E-008  0.3725535E+03  0.7957747E-01  0.3484237E+00
         13   -1    0    0    0    0  0.00000000000E+00  0.00000000000E+00  0.14999999963E+04  0.15000000000E+04  0.10566000000E+00 0. -1.
        994   -1    0    0    0    0 -0.00000000000E+00 -0.00000000000E+00  0.11368683772E-12  0.17120000000E+03  0.17120000000E+03 0.  0.
         13    1    1    2    0    0  0.50780664578E+01  0.20640639075E+02  0.24813371302E+02  0.32673189311E+02  0.10566000000E+00 0. -1.
        994    1    1    2    0    0 -0.60397560056E+01 -0.18935680104E+02  0.92955969684E+01  0.17260036720E+03  0.17120000000E+03 0.  0.
        998    1    1    2    0    0  0.96168954782E+00 -0.17049589713E+01  0.14658910280E+04  0.14659264435E+04  0.10000000000E+02 0. -1.
</event>
<event>
 5    1  0.1252319E-008  0.3856856E+03  0.7957747E-01  0.3426770E+00
         13   -1    0    0    0    0  0.00000000000E+00  0.00000000000E+00  0.14999999963E+04  0.15000000000E+04  0.10566000000E+00 0. -1.
        994   -1    0    0    0    0 -0.00000000000E+00 -0.00000000000E+00  0.11368683772E-12  0.17120000000E+03  0.17120000000E+03 0.  0.
         13    1    1    2    0    0  0.11765926881E+02  0.10011822882E+02  0.88037488968E+02  0.89382796223E+02  0.10566000000E+00 0. -1.
        994    1    1    2    0    0 -0.11665252259E+02 -0.12403211481E+02  0.22420501996E+01  0.17205924722E+03  0.17120000000E+03 0.  0.
        998    1    1    2    0    0 -0.10067462246E+00  0.23913885988E+01  0.14097204571E+04  0.14097579566E+04  0.10000000000E+02 0. -1.
</event>
<event>
 5    1  0.1252319E-008  0.3797003E+03  0.7957747E-01  0.3452464E+00
         13   -1    0    0    0    0  0.00000000000E+00  0.00000000000E+00  0.14999999963E+04  0.15000000000E+04  0.10566000000E+00 0. -1.
        994   -1    0    0    0    0 -0.00000000000E+00 -0.00000000000E+00  0.11368683772E-12  0.17120000000E+03  0.17120000000E+03 0.  0.
         13    1    1    2    0    0 -0.70829695490E+01  0.87168665994E+01  0.13421802800E+02  0.17501662075E+02  0.10566000000E+00 0. -1.
        994    1    1    2    0    0 -0.69968200177E+01  0.71160773958E+01  0.46178315846E+01  0.17155278609E+03  0.17120000000E+03 0.  0.
        998    1    1    2    0    0  0.14079789567E+02 -0.15832943995E+02  0.14819603619E+04  0.14821455518E+04  0.10000000000E+02 0. -1.
</event>
<event>
 5    1  0.1252319E-008  0.3758952E+03  0.7957747E-01  0.3469229E+00
         13   -1    0    0    0    0  0.00000000000E+00  0.00000000000E+00  0.14999999963E+04  0.15000000000E+04  0.10566000000E+00 0.  1.
        994   -1    0    0    0    0 -0.00000000000E+00 -0.00000000000E+00  0.11368683772E-12  0.17120000000E+03  0.17120000000E+03 0.  0.
         13    1    1    2    0    0 -0.32177380080E+02 -0.11461617807E+02  0.84683689191E+02  0.91313147194E+02  0.10566000000E+00 0.  1.
        994    1    1    2    0    0  0.38054484965E+02  0.13999919931E+02  0.11812053031E+02  0.17633237417E+03  0.17120000000E+03 0.  0.
        998    1    1    2    0    0 -0.58771048858E+01 -0.25383021242E+01  0.14035042541E+04  0.14035544786E+04  0.10000000000E+02 0.  1.
</event>
<event>
 5    1  0.1252319E-008  0.3818199E+03  0.7957747E-01  0.3443272E+00
         13   -1    0    0    0    0  0.00000000000E+00  0.00000000000E+00  0.14999999963E+04  0.15000000000E+04  0.10566000000E+00 0. -1.
        994   -1    0    0    0    0 -0.00000000000E+00 -0.00000000000E+00  0.11368683772E-12  0.17120000000E+03  0.17120000000E+03 0.  0.
         13    1    1    2    0    0 -0.10306450330E+02 -0.36227380268E+02  0.21406902099E+03  0.21735731621E+03  0.10566000000E+00 0. -1.
        994    1    1    2    0    0  0.58097345559E+01  0.23949589062E+02  0.52380376616E+01  0.17304396225E+03  0.17120000000E+03 0.  0.
        998    1    1    2    0    0  0.44967157741E+01  0.12277791205E+02  0.12806929376E+04  0.12807987215E+04  0.10000000000E+02 0. -1.
</event>
<event>
 5    1  0.1252319E-008  0.3266414E+03  0.7957747E-01  0.3722451E+00
         13   -1    0    0    0    0  0.00000000000E+00  0.00000000000E+00  0.14999999963E+04  0.15000000000E+04  0.10566000000E+00 0.  1.
        994   -1    0    0    0    0 -0.00000000000E+00 -0.00000000000E+00  0.11368683772E-12  0.17120000000E+03  0.17120000000E+03 0.  0.
         13    1    1    2    0    0 -0.96295881331E+02  0.16079464044E+03  0.87798436278E+03  0.89776632015E+03  0.10566000000E+00 0.  1.
        994    1    1    2    0    0  0.67913510497E+02 -0.15168896623E+03  0.11398495221E+03  0.26443108122E+03  0.17120000000E+03 0.  0.
        998    1    1    2    0    0  0.28382370834E+02 -0.91056742104E+01  0.50803068129E+03  0.50900259863E+03  0.10000000000E+02 0.  0.
</event>
<event>
 5    1  0.1252319E-008  0.3749181E+03  0.7957747E-01  0.3473589E+00
         13   -1    0    0    0    0  0.00000000000E+00  0.00000000000E+00  0.14999999963E+04  0.15000000000E+04  0.10566000000E+00 0. -1.
        994   -1    0    0    0    0 -0.00000000000E+00 -0.00000000000E+00  0.11368683772E-12  0.17120000000E+03  0.17120000000E+03 0.  0.
         13    1    1    2    0    0 -0.23651407480E+02 -0.26759885249E+02  0.95616531141E+02  0.10206866672E+03  0.10566000000E+00 0. -1.
        994    1    1    2    0    0  0.59784232372E+01  0.13379540138E+02  0.74513283815E+01  0.17198754587E+03  0.17120000000E+03 0.  0.
        998    1    1    2    0    0  0.17672984242E+02  0.13380345111E+02  0.13969321368E+04  0.13971437874E+04  0.10000000000E+02 0. -1.
</event>
<event>
 5    1  0.1252319E-008  0.3743837E+03  0.7957747E-01  0.3475984E+00
         13   -1    0    0    0    0  0.00000000000E+00  0.00000000000E+00  0.14999999963E+04  0.15000000000E+04  0.10566000000E+00 0.  1.
        994   -1    0    0    0    0 -0.00000000000E+00 -0.00000000000E+00  0.11368683772E-12  0.17120000000E+03  0.17120000000E+03 0.  0.
         13    1    1    2    0    0 -0.17541078198E+02  0.18071124249E+01  0.20484621330E+02  0.27029353576E+02  0.10566000000E+00 0.  1.
        994    1    1    2    0    0 -0.12728472012E+02  0.16925521572E+02  0.85247292910E+01  0.17271536784E+03  0.17120000000E+03 0.  0.
        998    1    1    2    0    0  0.30269550211E+02 -0.18732633997E+02  0.14709906457E+04  0.14714552786E+04  0.10000000000E+02 0.  1.
</event>
<event>
 5    1  0.1252319E-008  0.3851022E+03  0.7957747E-01  0.3429239E+00
         13   -1    0    0    0    0  0.00000000000E+00  0.00000000000E+00  0.14999999963E+04  0.15000000000E+04  0.10566000000E+00 0. -1.
        994   -1    0    0    0    0 -0.00000000000E+00 -0.00000000000E+00  0.11368683772E-12  0.17120000000E+03  0.17120000000E+03 0.  0.
         13    1    1    2    0    0  0.60305226787E+01 -0.16393767675E+02  0.88395924846E+02  0.90105346766E+02  0.10566000000E+00 0. -1.
        994    1    1    2    0    0 -0.16198690016E+02  0.19154269366E+02  0.36509667168E+01  0.17306661478E+03  0.17120000000E+03 0.  0.
        998    1    1    2    0    0  0.10168167338E+02 -0.27605016918E+01  0.14079531047E+04  0.14080280385E+04  0.10000000000E+02 0. -1.
</event>
<event>
 5    1  0.1252319E-008  0.2824591E+03  0.7957747E-01  0.4029792E+00
         13   -1    0    0    0    0  0.00000000000E+00  0.00000000000E+00  0.14999999963E+04  0.15000000000E+04  0.10566000000E+00 0.  1.
        994   -1    0    0    0    0 -0.00000000000E+00 -0.00000000000E+00  0.11368683772E-12  0.17120000000E+03  0.17120000000E+03 0.  0.
         13    1    1    2    0    0 -0.11635178101E+03  0.95131831907E+02  0.69865775094E+03  0.71464009578E+03  0.10566000000E+00 0.  1.
        994    1    1    2    0    0  0.11445311711E+02 -0.68655513100E+02  0.42048825026E+02  0.18953131226E+03  0.17120000000E+03 0.  0.
        998    1    1    2    0    0  0.10490646930E+03 -0.26476318807E+02  0.75929342031E+03  0.76702859197E+03  0.10000000000E+02 0.  1.
</event>
<event>
 5    1  0.1252319E-008  0.3790070E+03  0.7957747E-01  0.3455494E+00
         13   -1    0    0    0    0  0.00000000000E+00  0.00000000000E+00  0.14999999963E+04  0.15000000000E+04  0.10566000000E+00 0. -1.
        994   -1    0    0    0    0 -0.00000000000E+00 -0.00000000000E+00  0.11368683772E-12  0.17120000000E+03  0.17120000000E+03 0.  0.
         13    1    1    2    0    0 -0.22299085446E+02 -0.12401385533E+02  0.63380852843E+02  0.68324133701E+02  0.10566000000E+00 0. -1.
        994    1    1    2    0    0  0.45947119829E+02 -0.83135952505E+01  0.11982662116E+02  0.17785746506E+03  0.17120000000E+03 0.  0.
        998    1    1    2    0    0 -0.23648034384E+02  0.20714980783E+02  0.14246364813E+04  0.14250184012E+04  0.10000000000E+02 0. -1.
</event>
<event>
 5    1  0.1252319E-008  0.3701741E+03  0.7957747E-01  0.3495091E+00
         13   -1    0    0    0    0  0.00000000000E+00  0.00000000000E+00  0.14999999963E+04  0.15000000000E+04  0.10566000000E+00 0.  1.
        994   -1    0    0    0    0 -0.00000000000E+00 -0.00000000000E+00  0.11368683772E-12  0.17120000000E+03  0.17120000000E+03 0.  0.
         13    1    1    2    0    0  0.60064918416E+02  0.37949478090E+02  0.41003011853E+03  0.41614020063E+03  0.10566000000E+00 0.  1.
        994    1    1    2    0    0 -0.17602732597E+02  0.35318104296E+02  0.14578415753E+02  0.17629292354E+03  0.17120000000E+03 0.  0.
        998    1    1    2    0    0 -0.42462185819E+02 -0.73267582386E+02  0.10753914620E+04  0.10787668758E+04  0.10000000000E+02 0.  1.
</event>
<event>
 5    1  0.1252319E-008  0.3804873E+03  0.7957747E-01  0.3449039E+00
         13   -1    0    0    0    0  0.00000000000E+00  0.00000000000E+00  0.14999999963E+04  0.15000000000E+04  0.10566000000E+00 0.  1.
        994   -1    0    0    0    0 -0.00000000000E+00 -0.00000000000E+00  0.11368683772E-12  0.17120000000E+03  0.17120000000E+03 0.  0.
         13    1    1    2    0    0 -0.13258385856E+02  0.24156543863E+02  0.10182555520E+03  0.10548828496E+03  0.10566000000E+00 0.  1.
        994    1    1    2    0    0  0.53659064234E+01 -0.44705480643E+01  0.40501715835E+01  0.17139026414E+03  0.17120000000E+03 0.  0.
        998    1    1    2    0    0  0.78924794325E+01 -0.19685995798E+02  0.13941242695E+04  0.13943214509E+04  0.10000000000E+02 0.  1.
</event>
<event>
 5    1  0.1252319E-008  0.3759248E+03  0.7957747E-01  0.3469097E+00
         13   -1    0    0    0    0  0.00000000000E+00  0.00000000000E+00  0.14999999963E+04  0.15000000000E+04  0.10566000000E+00 0.  1.
        994   -1    0    0    0    0 -0.00000000000E+00 -0.00000000000E+00  0.11368683772E-12  0.17120000000E+03  0.17120000000E+03 0.  0.
         13    1    1    2    0    0 -0.99688858808E+01  0.21139582026E+02  0.40239285605E+02  0.46534631018E+02  0.10566000000E+00 0.  1.
        994    1    1    2    0    0  0.25875459275E+01 -0.27840760634E+02  0.88583643055E+01  0.17369431184E+03  0.17120000000E+03 0.  0.
        998    1    1    2    0    0  0.73813399533E+01  0.67011786078E+01  0.14509023464E+04  0.14509710571E+04  0.10000000000E+02 0.  1.
</event>
<event>
 5    1  0.1252319E-008  0.3856940E+03  0.7957747E-01  0.3426734E+00
         13   -1    0    0    0    0  0.00000000000E+00  0.00000000000E+00  0.14999999963E+04  0.15000000000E+04  0.10566000000E+00 0.  1.
        994   -1    0    0    0    0 -0.00000000000E+00 -0.00000000000E+00  0.11368683772E-12  0.17120000000E+03  0.17120000000E+03 0.  0.
         13    1    1    2    0    0  0.11897910872E+02  0.32056147276E+00  0.52887641298E+02  0.54210486153E+02  0.10566000000E+00 0.  1.
        994    1    1    2    0    0 -0.15465968294E+02 -0.13670556333E+01  0.20773808922E+01  0.17191515503E+03  0.17120000000E+03 0.  0.
        998    1    1    2    0    0  0.35680574211E+01  0.10464941605E+01  0.14450349741E+04  0.14450743588E+04  0.10000000000E+02 0.  1.
</event>
<event>
 5    1  0.1252319E-008  0.3813400E+03  0.7957747E-01  0.3445344E+00
         13   -1    0    0    0    0  0.00000000000E+00  0.00000000000E+00  0.14999999963E+04  0.15000000000E+04  0.10566000000E+00 0. -1.
        994   -1    0    0    0    0 -0.00000000000E+00 -0.00000000000E+00  0.11368683772E-12  0.17120000000E+03  0.17120000000E+03 0.  0.
         13    1    1    2    0    0  0.70648708438E+02  0.97892867976E+01  0.13078264916E+03  0.14896705215E+03  0.10566000000E+00 0. -1.
        994    1    1    2    0    0 -0.72198822082E+02 -0.95668040790E+01  0.36644758843E+02  0.18962191857E+03  0.17120000000E+03 0.  0.
        998    1    1    2    0    0  0.15501136439E+01 -0.22248271864E+00  0.13325725883E+04  0.13326110293E+04  0.10000000000E+02 0. -1.
</event>
<event>
 5    1  0.1252319E-008  0.3800760E+03  0.7957747E-01  0.3450828E+00
         13   -1    0    0    0    0  0.00000000000E+00  0.00000000000E+00  0.14999999963E+04  0.15000000000E+04  0.10566000000E+00 0.  1.
        994   -1    0    0    0    0 -0.00000000000E+00 -0.00000000000E+00  0.11368683772E-12  0.17120000000E+03  0.17120000000E+03 0.  0.
         13    1    1    2    0    0 -0.21585224198E+02  0.30526531818E+01  0.51402546723E+02  0.55834340408E+02  0.10566000000E+00 0.  1.
        994    1    1    2    0    0  0.38317064325E+02 -0.80638138545E+01  0.92359798317E+01  0.17586348636E+03  0.17120000000E+03 0.  0.
        998    1    1    2    0    0 -0.16731840127E+02  0.50111606727E+01  0.14393614697E+04  0.14395021732E+04  0.10000000000E+02 0.  1.
</event>
<event>
 5    1  0.1252319E-008  0.3775627E+03  0.7957747E-01  0.3461840E+00
         13   -1    0    0    0    0  0.00000000000E+00  0.00000000000E+00  0.14999999963E+04  0.15000000000E+04  0.10566000000E+00 0. -1.
        994   -1    0    0    0    0 -0.00000000000E+00 -0.00000000000E+00  0.11368683772E-12  0.17120000000E+03  0.17120000000E+03 0.  0.
         13    1    1    2    0    0 -0.29385592898E+01 -0.98298737525E+01  0.72389380426E+01  0.12556868109E+02  0.10566000000E+00 0. -1.
        994    1    1    2    0    0 -0.82862544111E+00  0.15425730798E+02  0.61732267509E+01  0.17200636186E+03  0.17120000000E+03 0.  0.
        998    1    1    2    0    0  0.37671847309E+01 -0.55958570456E+01  0.14865878315E+04  0.14866367700E+04  0.10000000000E+02 0. -1.
</event>
<event>
 5    1  0.1252319E-008  0.3829139E+03  0.7957747E-01  0.3438568E+00
         13   -1    0    0    0    0  0.00000000000E+00  0.00000000000E+00  0.14999999963E+04  0.15000000000E+04  0.10566000000E+00 0. -1.
        994   -1    0    0    0    0 -0.00000000000E+00 -0.00000000000E+00  0.11368683772E-12  0.17120000000E+03  0.17120000000E+03 0.  0.
         13    1    1    2    0    0  0.18621349348E+02 -0.31122893073E+01  0.65727368660E+02  0.68385226118E+02  0.10566000000E+00 0. -1.
        994    1    1    2    0    0 -0.12789276226E+02  0.18288077018E+01  0.32222665087E+01  0.17171701466E+03  0.17120000000E+03 0.  0.
        998    1    1    2    0    0 -0.58320731220E+01  0.12834816055E+01  0.14310503611E+04  0.14310977592E+04  0.10000000000E+02 0. -1.
</event>
<event>
 5    1  0.1252319E-008  0.3845477E+03  0.7957747E-01  0.3431593E+00
         13   -1    0    0    0    0  0.00000000000E+00  0.00000000000E+00  0.14999999963E+04  0.15000000000E+04  0.10566000000E+00 0.  1.
        994   -1    0    0    0    0 -0.00000000000E+00 -0.00000000000E+00  0.11368683772E-12  0.17120000000E+03  0.17120000000E+03 0.  0.
         13    1    1    2    0    0 -0.21742609357E+02 -0.22000718180E+01  0.11653997259E+03  0.11857131927E+03  0.10566000000E+00 0.  1.
        994    1    1    2    0    0  0.26450837677E+02 -0.23234861243E+01  0.41803657600E+01  0.17329731925E+03  0.17120000000E+03 0.  0.
        998    1    1    2    0    0 -0.47082283204E+01  0.45235579423E+01  0.13792796579E+04  0.13793313615E+04  0.10000000000E+02 0.  1.
</event>
<event>
 5    1  0.1252319E-008  0.3838184E+03  0.7957747E-01  0.3434699E+00
         13   -1    0    0    0    0  0.00000000000E+00  0.00000000000E+00  0.14999999963E+04  0.15000000000E+04  0.10566000000E+00 0. -1.
        994   -1    0    0    0    0 -0.00000000000E+00 -0.00000000000E+00  0.11368683772E-12  0.17120000000E+03  0.17120000000E+03 0.  0.
         13    1    1    2    0    0 -0.14630169436E+02  0.14198240884E+02  0.89150188484E+02  0.91451622034E+02  0.10566000000E+00 0. -1.
        994    1    1    2    0    0  0.16721408190E+02 -0.11307659017E+02  0.35642538073E+01  0.17242277271E+03  0.17120000000E+03 0.  0.
        998    1    1    2    0    0 -0.20912387541E+01 -0.28905818670E+01  0.14072855540E+04  0.14073256053E+04  0.10000000000E+02 0. -1.
</event>
<event>
 5    1  0.1252319E-008  0.3774024E+03  0.7957747E-01  0.3462548E+00
         13   -1    0    0    0    0  0.00000000000E+00  0.00000000000E+00  0.14999999963E+04  0.15000000000E+04  0.10566000000E+00 0. -1.
        994   -1    0    0    0    0 -0.00000000000E+00 -0.00000000000E+00  0.11368683772E-12  0.17120000000E+03  0.17120000000E+03 0.  0.
         13    1    1    2    0    0 -0.65256047971E+01 -0.17191242064E+02  0.28829792607E+02  0.34194888909E+02  0.10566000000E+00 0. -1.
        994    1    1    2    0    0  0.17647176238E+01  0.12157531312E+02  0.59592210504E+01  0.17174362320E+03  0.17120000000E+03 0.  0.
        998    1    1    2    0    0  0.47608871733E+01  0.50337107524E+01  0.14652109826E+04  0.14652614879E+04  0.10000000000E+02 0. -1.
</event>
<event>
 5    1  0.1491854E-008  0.3857214E+03  0.7957747E-01  0.3426619E+00
         13   -1    0    0    0    0  0.00000000000E+00  0.00000000000E+00  0.14999999963E+04  0.15000000000E+04  0.10566000000E+00 0.  1.
        994   -1    0    0    0    0 -0.00000000000E+00 -0.00000000000E+00  0.11368683772E-12  0.17120000000E+03  0.17120000000E+03 0.  0.
         13    1    1    2    0    0 -0.72255764057E+00  0.11987978148E+02  0.57725751681E+02  0.58961913816E+02  0.10566000000E+00 0.  1.
        994    1    1    2    0    0  0.91778105227E+00 -0.63955199113E+01  0.14093979635E+01  0.17132767260E+03  0.17120000000E+03 0.  0.
        998    1    1    2    0    0 -0.19522341170E+00 -0.55924582363E+01  0.14408648466E+04  0.14409104136E+04  0.10000000000E+02 0.  1.
</event>
<event>
 5    1  0.1252319E-008  0.3714721E+03  0.7957747E-01  0.3489153E+00
         13   -1    0    0    0    0  0.00000000000E+00  0.00000000000E+00  0.14999999963E+04  0.15000000000E+04  0.10566000000E+00 0. -1.
        994   -1    0    0    0    0 -0.00000000000E+00 -0.00000000000E+00  0.11368683772E-12  0.17120000000E+03  0.17120000000E+03 0.  0.
         13    1    1    2    0    0 -0.21402197796E+02  0.11296360757E+02  0.32900587126E+02  0.40842644798E+02  0.10566000000E+00 0. -1.
        994    1    1    2    0    0 -0.24566527782E+02 -0.30132206569E+02  0.13719287762E+02  0.17609407434E+03  0.17120000000E+03 0.  0.
        998    1    1    2    0    0  0.45968725578E+02  0.18835845812E+02  0.14533801214E+04  0.14542632809E+04  0.10000000000E+02 0. -1.
</event>
<event>
 5    1  0.1252319E-008  0.3754312E+03  0.7957747E-01  0.3471296E+00
         13   -1    0    0    0    0  0.00000000000E+00  0.00000000000E+00  0.14999999963E+04  0.15000000000E+04  0.10566000000E+00 0.  1.
        994   -1    0    0    0    0 -0.00000000000E+00 -0.00000000000E+00  0.11368683772E-12  0.17120000000E+03  0.17120000000E+03 0.  0.
         13    1    1    2    0    0 -0.27686517564E+02 -0.93724150674E+01  0.23496187596E+02  0.37502898749E+02  0.10566000000E+00 0.  1.
        994    1    1    2    0    0  0.53247678898E+02 -0.43463944417E+01  0.24082818757E+02  0.18095200638E+03  0.17120000000E+03 0.  0.
        998    1    1    2    0    0 -0.25561161334E+02  0.13718809509E+02  0.14524209899E+04  0.14527450949E+04  0.10000000000E+02 0.  1.
</event>
<event>
 5    1  0.1252319E-008  0.3816796E+03  0.7957747E-01  0.3443878E+00
         13   -1    0    0    0    0  0.00000000000E+00  0.00000000000E+00  0.14999999963E+04  0.15000000000E+04  0.10566000000E+00 0. -1.
        994   -1    0    0    0    0 -0.00000000000E+00 -0.00000000000E+00  0.11368683772E-12  0.17120000000E+03  0.17120000000E+03 0.  0.
         13    1    1    2    0    0  0.26831599512E+02  0.34782090385E+02  0.26420371525E+03  0.26783081014E+03  0.10566000000E+00 0. -1.
        994    1    1    2    0    0 -0.20654437234E+02 -0.29323606229E+02  0.75763596579E+01  0.17508089812E+03  0.17120000000E+03 0.  0.
        998    1    1    2    0    0 -0.61771622780E+01 -0.54584841565E+01  0.12282199214E+04  0.12282882917E+04  0.10000000000E+02 0. -1.
</event>
<event>
 5    1  0.1252319E-008  0.3694772E+03  0.7957747E-01  0.3498297E+00
         13   -1    0    0    0    0  0.00000000000E+00  0.00000000000E+00  0.14999999963E+04  0.15000000000E+04  0.10566000000E+00 0. -1.
        994   -1    0    0    0    0 -0.00000000000E+00 -0.00000000000E+00  0.11368683772E-12  0.17120000000E+03  0.17120000000E+03 0.  0.
         13    1    1    2    0    0  0.21306429220E+02  0.25859525519E+02  0.57088128700E+02  0.66194747440E+02  0.10566000000E+00 0. -1.
        994    1    1    2    0    0  0.28637894385E+01 -0.16474292835E+02  0.10511709678E+02  0.17233554379E+03  0.17120000000E+03 0.  0.
        998    1    1    2    0    0 -0.24170218658E+02 -0.93852326841E+01  0.14324001579E+04  0.14326697088E+04  0.10000000000E+02 0. -1.
</event>
<event>
 5    1  0.1252319E-008  0.3838086E+03  0.7957747E-01  0.3434741E+00
         13   -1    0    0    0    0  0.00000000000E+00  0.00000000000E+00  0.14999999963E+04  0.15000000000E+04  0.10566000000E+00 0.  1.
        994   -1    0    0    0    0 -0.00000000000E+00 -0.00000000000E+00  0.11368683772E-12  0.17120000000E+03  0.17120000000E+03 0.  0.
         13    1    1    2    0    0  0.21894141174E+01 -0.12029418413E+02  0.32747723449E+02  0.34956043779E+02  0.10566000000E+00 0.  1.
        994    1    1    2    0    0 -0.25278816451E+02  0.60197826775E+01  0.44552533304E+01  0.17321820235E+03  0.17120000000E+03 0.  0.
        998    1    1    2    0    0  0.23089402333E+02  0.60096357357E+01  0.14627970195E+04  0.14630257539E+04  0.10000000000E+02 0.  1.
</event>
<event>
 5    1  0.1252319E-008  0.3685905E+03  0.7957747E-01  0.3502394E+00
         13   -1    0    0    0    0  0.00000000000E+00  0.00000000000E+00  0.14999999963E+04  0.15000000000E+04  0.10566000000E+00 0. -1.
        994   -1    0    0    0    0 -0.00000000000E+00 -0.00000000000E+00  0.11368683772E-12  0.17120000000E+03  0.17120000000E+03 0.  0.
         13    1    1    2    0    0 -0.97070322863E+01 -0.41425751082E+02  0.78623757351E+02  0.89398130364E+02  0.10566000000E+00 0. -1.
        994    1    1    2    0    0  0.62584517608E+01  0.57202111111E+02  0.21602548815E+02  0.18189931239E+03  0.17120000000E+03 0.  0.
        998    1    1    2    0    0  0.34485805255E+01 -0.15776360029E+02  0.13997736901E+04  0.13999025572E+04  0.10000000000E+02 0. -1.
</event>
<event>
 5    1  0.1252319E-008  0.3784810E+03  0.7957747E-01  0.3457799E+00
         13   -1    0    0    0    0  0.00000000000E+00  0.00000000000E+00  0.14999999963E+04  0.15000000000E+04  0.10566000000E+00 0.  1.
        994   -1    0    0    0    0 -0.00000000000E+00 -0.00000000000E+00  0.11368683772E-12  0.17120000000E+03  0.17120000000E+03 0.  0.
         13    1    1    2    0    0  0.10386022062E+02  0.47897746650E+02  0.20440709052E+03  0.21020069793E+03  0.10566000000E+00 0.  1.
        994    1    1    2    0    0  0.10230436795E+02 -0.58121755538E+02  0.16693847698E+02  0.18185413071E+03  0.17120000000E+03 0.  0.
        998    1    1    2    0    0 -0.20616458857E+02  0.10224008888E+02  0.12788990581E+04  0.12791451714E+04  0.10000000000E+02 0.  1.
</event>
<event>
 5    1  0.1252319E-008  0.3837696E+03  0.7957747E-01  0.3434907E+00
         13   -1    0    0    0    0  0.00000000000E+00  0.00000000000E+00  0.14999999963E+04  0.15000000000E+04  0.10566000000E+00 0.  1.
        994   -1    0    0    0    0 -0.00000000000E+00 -0.00000000000E+00  0.11368683772E-12  0.17120000000E+03  0.17120000000E+03 0.  0.
         13    1    1    2    0    0  0.14811970343E+02 -0.20174483813E+02  0.12030595667E+03  0.12288180759E+03  0.10566000000E+00 0.  1.
        994    1    1    2    0    0  0.23840392556E+02  0.67854746343E+02  0.19512620679E+02  0.18671586243E+03  0.17120000000E+03 0.  0.
        998    1    1    2    0    0 -0.38652362899E+02 -0.47680262531E+02  0.13601814189E+04  0.13616023300E+04  0.10000000000E+02 0.  1.
</event>
<event>
 5    1  0.1252319E-008  0.3845517E+03  0.7957747E-01  0.3431576E+00
         13   -1    0    0    0    0  0.00000000000E+00  0.00000000000E+00  0.14999999963E+04  0.15000000000E+04  0.10566000000E+00 0.  1.
        994   -1    0    0    0    0 -0.00000000000E+00 -0.00000000000E+00  0.11368683772E-12  0.17120000000E+03  0.17120000000E+03 0.  0.
         13    1    1    2    0    0 -0.19630979357E+01 -0.13086986889E+02  0.46792913559E+02  0.48628293233E+02  0.10566000000E+00 0.  1.
        994    1    1    2    0    0 -0.60079164460E+01  0.10704814157E+02  0.23492958432E+01  0.17165560666E+03  0.17120000000E+03 0.  0.
        998    1    1    2    0    0  0.79710143817E+01  0.23821727317E+01  0.14508577869E+04  0.14509161001E+04  0.10000000000E+02 0.  1.
</event>
<event>
 5    1  0.1252319E-008  0.3800996E+03  0.7957747E-01  0.3450725E+00
         13   -1    0    0    0    0  0.00000000000E+00  0.00000000000E+00  0.14999999963E+04  0.15000000000E+04  0.10566000000E+00 0.  1.
        994   -1    0    0    0    0 -0.00000000000E+00 -0.00000000000E+00  0.11368683772E-12  0.17120000000E+03  0.17120000000E+03 0.  0.
         13    1    1    2    0    0 -0.12165044911E+02  0.26090572581E+01  0.17751919981E+02  0.21678037838E+02  0.10566000000E+00 0.  1.
        994    1    1    2    0    0 -0.15338496739E+01  0.53131950657E+01  0.41850643566E+01  0.17134041409E+03  0.17120000000E+03 0.  0.
        998    1    1    2    0    0  0.13698894585E+02 -0.79222523238E+01  0.14780630119E+04  0.14781815481E+04  0.10000000000E+02 0.  1.
</event>
<event>
 5    1  0.1252319E-008  0.2993514E+03  0.7957747E-01  0.3900660E+00
         13   -1    0    0    0    0  0.00000000000E+00  0.00000000000E+00  0.14999999963E+04  0.15000000000E+04  0.10566000000E+00 0. -1.
        994   -1    0    0    0    0 -0.00000000000E+00 -0.00000000000E+00  0.11368683772E-12  0.17120000000E+03  0.17120000000E+03 0.  0.
         13    1    1    2    0    0  0.15632013424E+03  0.11932628315E+03  0.56121047395E+03  0.59466961706E+03  0.10566000000E+00 0. -1.
        994    1    1    2    0    0 -0.12377653434E+03 -0.24161883345E+03  0.35278928835E+03  0.47693816487E+03  0.17120000000E+03 0.  0.
        998    1    1    2    0    0 -0.32543599901E+02  0.12229255030E+03  0.58600023397E+03  0.59959221807E+03  0.10000000000E+02 0. -1.
</event>
<event>
 5    1  0.1252319E-008  0.2610976E+03  0.7957747E-01  0.4219973E+00
         13   -1    0    0    0    0  0.00000000000E+00  0.00000000000E+00  0.14999999963E+04  0.15000000000E+04  0.10566000000E+00 0. -1.
        994   -1    0    0    0    0 -0.00000000000E+00 -0.00000000000E+00  0.11368683772E-12  0.17120000000E+03  0.17120000000E+03 0.  0.
         13    1    1    2    0    0 -0.17343938083E+03  0.23280368990E+02  0.34982813398E+03  0.39115588822E+03  0.10566000000E+00 0. -1.
        994    1    1    2    0    0  0.18329960414E+03 -0.17354532888E+02  0.17870000608E+03  0.30845268172E+03  0.17120000000E+03 0.  0.
        998    1    1    2    0    0 -0.98602233118E+01 -0.59258361018E+01  0.97147185622E+03  0.97159143006E+03  0.10000000000E+02 0. -1.
</event>
<event>
 5    1  0.1252319E-008  0.3818243E+03  0.7957747E-01  0.3443253E+00
         13   -1    0    0    0    0  0.00000000000E+00  0.00000000000E+00  0.14999999963E+04  0.15000000000E+04  0.10566000000E+00 0. -1.
        994   -1    0    0    0    0 -0.00000000000E+00 -0.00000000000E+00  0.11368683772E-12  0.17120000000E+03  0.17120000000E+03 0.  0.
         13    1    1    2    0    0  0.96826582037E+01 -0.36086212161E+01  0.15158251276E+02  0.18345565207E+02  0.10566000000E+00 0. -1.
        994    1    1    2    0    0 -0.88275747028E+01  0.58156621775E+01  0.35865039956E+01  0.17156354803E+03  0.17120000000E+03 0.  0.
        998    1    1    2    0    0 -0.85508350087E+00 -0.22070409614E+01  0.14812552410E+04  0.14812908868E+04  0.10000000000E+02 0. -1.
</event>
<event>
 5    1  0.1252319E-008  0.3677969E+03  0.7957747E-01  0.3506077E+00
         13   -1    0    0    0    0  0.00000000000E+00  0.00000000000E+00  0.14999999963E+04  0.15000000000E+04  0.10566000000E+00 0. -1.
        994   -1    0    0    0    0 -0.00000000000E+00 -0.00000000000E+00  0.11368683772E-12  0.17120000000E+03  0.17120000000E+03 0.  0.
         13    1    1    2    0    0 -0.21895197522E+03  0.15932956903E+03  0.10692061810E+04  0.11029631669E+04  0.10566000000E+00 0. -1.
        994    1    1    2    0    0  0.20526516053E+03 -0.14005618031E+03  0.26848105987E+03  0.40390721617E+03  0.17120000000E+03 0.  0.
        998    1    1    2    0    0  0.13686814699E+02 -0.19273388721E+02  0.16231275543E+03  0.16432961688E+03  0.10000000000E+02 0. -1.
</event>
<event>
 5    1  0.1252319E-008  0.3842655E+03  0.7957747E-01  0.3432793E+00
         13   -1    0    0    0    0  0.00000000000E+00  0.00000000000E+00  0.14999999963E+04  0.15000000000E+04  0.10566000000E+00 0. -1.
        994   -1    0    0    0    0 -0.00000000000E+00 -0.00000000000E+00  0.11368683772E-12  0.17120000000E+03  0.17120000000E+03 0.  0.
         13    1    1    2    0    0  0.24236352786E+02 -0.23713843698E+02  0.19247627418E+03  0.19544020688E+03  0.10566000000E+00 0. -1.
        994    1    1    2    0    0 -0.79571639698E+02  0.14724132243E+02  0.23889164166E+02  0.19086272051E+03  0.17120000000E+03 0.  0.
        998    1    1    2    0    0  0.55335286912E+02  0.89897114551E+01  0.12836345579E+04  0.12848970726E+04  0.10000000000E+02 0. -1.
</event>
<event>
 5    1  0.1252319E-008  0.3830504E+03  0.7957747E-01  0.3437983E+00
         13   -1    0    0    0    0  0.00000000000E+00  0.00000000000E+00  0.14999999963E+04  0.15000000000E+04  0.10566000000E+00 0.  1.
        994   -1    0    0    0    0 -0.00000000000E+00 -0.00000000000E+00  0.11368683772E-12  0.17120000000E+03  0.17120000000E+03 0.  0.
         13    1    1    2    0    0 -0.22197105182E+01  0.10885739029E+02  0.23435944135E+02  0.25936095899E+02  0.10566000000E+00 0.  1.
        994    1    1    2    0    0 -0.60478327220E+01 -0.49117529473E+00  0.27230484718E+01  0.17132913508E+03  0.17120000000E+03 0.  0.
        998    1    1    2    0    0  0.82675432402E+01 -0.10394563734E+02  0.14738410037E+04  0.14739347690E+04  0.10000000000E+02 0.  1.
</event>
<event>
 5    1  0.1252319E-008  0.3746573E+03  0.7957747E-01  0.3474757E+00
         13   -1    0    0    0    0  0.00000000000E+00  0.00000000000E+00  0.14999999963E+04  0.15000000000E+04  0.10566000000E+00 0. -1.
        994   -1    0    0    0    0 -0.00000000000E+00 -0.00000000000E+00  0.11368683772E-12  0.17120000000E+03  0.17120000000E+03 0.  0.
         13    1    1    2    0    0 -0.87765855023E+01 -0.69647643538E+01  0.59582405391E+01  0.12690476348E+02  0.10566000000E+00 0. -1.
        994    1    1    2    0    0  0.10026557175E+02  0.63030623358E+01  0.73322552756E+01  0.17176571955E+03  0.17120000000E+03 0.  0.
        998    1    1    2    0    0 -0.12499716728E+01  0.66170201796E+00  0.14867095005E+04  0.14867438041E+04  0.10000000000E+02 0. -1.
</event>
<event>
 5    1  0.1252319E-008  0.3776226E+03  0.7957747E-01  0.3461576E+00
         13   -1    0    0    0    0  0.00000000000E+00  0.00000000000E+00  0.14999999963E+04  0.15000000000E+04  0.10566000000E+00 0.  1.
        994   -1    0    0    0    0 -0.00000000000E+00 -0.00000000000E+00  0.11368683772E-12  0.17120000000E+03  0.17120000000E+03 0.  0.
         13    1    1    2    0    0 -0.72898451316E+01 -0.92783043227E+01  0.10554377439E+02  0.15831450354E+02  0.10566000000E+00 0.  1.
        994    1    1    2    0    0  0.74133774353E+01  0.10398548697E+02  0.58877811456E+01  0.17177658149E+03  0.17120000000E+03 0.  0.
        998    1    1    2    0    0 -0.12353230368E+00 -0.11202443742E+01  0.14835578377E+04  0.14835919682E+04  0.10000000000E+02 0.  1.
</event>
<event>
 5    1  0.1252319E-008  0.3826555E+03  0.7957747E-01  0.3439677E+00
         13   -1    0    0    0    0  0.00000000000E+00  0.00000000000E+00  0.14999999963E+04  0.15000000000E+04  0.10566000000E+00 0. -1.
        994   -1    0    0    0    0 -0.00000000000E+00 -0.00000000000E+00  0.11368683772E-12  0.17120000000E+03  0.17120000000E+03 0.  0.
         13    1    1    2    0    0  0.42937467465E+01  0.16136502117E+02  0.48996966708E+02  0.51764243183E+02  0.10566000000E+00 0. -1.
        994    1    1    2    0    0 -0.23982497630E+01 -0.10399305854E+02  0.31761381138E+01  0.17156172364E+03  0.17120000000E+03 0.  0.
        998    1    1    2    0    0 -0.18954969835E+01 -0.57371962629E+01  0.14478268915E+04  0.14478740332E+04  0.10000000000E+02 0. -1.
</event>
<event>
 5    1  0.1252319E-008  0.3741994E+03  0.7957747E-01  0.3476811E+00
         13   -1    0    0    0    0  0.00000000000E+00  0.00000000000E+00  0.14999999963E+04  0.15000000000E+04  0.10566000000E+00 0.  1.
        994   -1    0    0    0    0 -0.00000000000E+00 -0.00000000000E+00  0.11368683772E-12  0.17120000000E+03  0.17120000000E+03 0.  0.
         13    1    1    2    0    0 -0.24120037092E+02  0.20773455564E+02  0.74162839551E+02  0.80705951328E+02  0.10566000000E+00 0.  1.
        994    1    1    2    0    0  0.37425702451E+01  0.48997013602E+01  0.72200198525E+01  0.17146306480E+03  0.17120000000E+03 0.  0.
        998    1    1    2    0    0  0.20377466847E+02 -0.25673156924E+02  0.14186171369E+04  0.14190309839E+04  0.10000000000E+02 0.  1.
</event>
<event>
 5    1  0.1252319E-008  0.3797048E+03  0.7957747E-01  0.3452445E+00
         13   -1    0    0    0    0  0.00000000000E+00  0.00000000000E+00  0.14999999963E+04  0.15000000000E+04  0.10566000000E+00 0.  1.
        994   -1    0    0    0    0 -0.00000000000E+00 -0.00000000000E+00  0.11368683772E-12  0.17120000000E+03  0.17120000000E+03 0.  0.
         13    1    1    2    0    0  0.10137683655E+02 -0.27273378682E+00  0.10101936024E+02  0.14314583091E+02  0.10566000000E+00 0.  1.
        994    1    1    2    0    0 -0.75949918731E+01  0.73850296490E-01  0.44753224033E+01  0.17142682948E+03  0.17120000000E+03 0.  0.
        998    1    1    2    0    0 -0.25426917817E+01  0.19888349033E+00  0.14854227379E+04  0.14854585874E+04  0.10000000000E+02 0.  1.
</event>
<event>
 5    1  0.1252319E-008  0.3754284E+03  0.7957747E-01  0.3471309E+00
         13   -1    0    0    0    0  0.00000000000E+00  0.00000000000E+00  0.14999999963E+04  0.15000000000E+04  0.10566000000E+00 0.  1.
        994   -1    0    0    0    0 -0.00000000000E+00 -0.00000000000E+00  0.11368683772E-12  0.17120000000E+03  0.17120000000E+03 0.  0.
         13    1    1    2    0    0 -0.87836094562E+02  0.30734470744E+02  0.54958879455E+03  0.55741155483E+03  0.10566000000E+00 0.  1.
        994    1    1    2    0    0  0.64142532662E+02 -0.33703275070E+02  0.24493370639E+02  0.18750877433E+03  0.17120000000E+03 0.  0.
        998    1    1    2    0    0  0.23693561900E+02  0.29688043259E+01  0.92591783109E+03  0.92627967083E+03  0.10000000000E+02 0.  1.
</event>
<event>
 5    1  0.1252319E-008  0.3774634E+03  0.7957747E-01  0.3462278E+00
         13   -1    0    0    0    0  0.00000000000E+00  0.00000000000E+00  0.14999999963E+04  0.15000000000E+04  0.10566000000E+00 0. -1.
        994   -1    0    0    0    0 -0.00000000000E+00 -0.00000000000E+00  0.11368683772E-12  0.17120000000E+03  0.17120000000E+03 0.  0.
         13    1    1    2    0    0  0.17635471345E+02  0.85102220841E+02  0.24786513099E+03  0.26266048840E+03  0.10566000000E+00 0. -1.
        994    1    1    2    0    0 -0.62767330017E+02 -0.19174461189E+03  0.15787245845E+03  0.30812154589E+03  0.17120000000E+03 0.  0.
        998    1    1    2    0    0  0.45131858672E+02  0.10664239105E+03  0.10942624068E+04  0.11004179657E+04  0.10000000000E+02 0. -1.
</event>
<event>
 5    1  0.1252319E-008  0.3809530E+03  0.7957747E-01  0.3447019E+00
         13   -1    0    0    0    0  0.00000000000E+00  0.00000000000E+00  0.14999999963E+04  0.15000000000E+04  0.10566000000E+00 0.  1.
        994   -1    0    0    0    0 -0.00000000000E+00 -0.00000000000E+00  0.11368683772E-12  0.17120000000E+03  0.17120000000E+03 0.  0.
         13    1    1    2    0    0 -0.35163793642E+02 -0.22028518364E+02  0.19993460831E+03  0.20419502141E+03  0.10566000000E+00 0.  1.
        994    1    1    2    0    0  0.31189582341E+02  0.35203096845E+02  0.11059704820E+02  0.17788705727E+03  0.17120000000E+03 0.  0.
        998    1    1    2    0    0  0.39742113013E+01 -0.13174578481E+02  0.12890056832E+04  0.12891179213E+04  0.10000000000E+02 0.  1.
</event>
<event>
 5    1  0.1252319E-008  0.3758441E+03  0.7957747E-01  0.3469456E+00
         13   -1    0    0    0    0  0.00000000000E+00  0.00000000000E+00  0.14999999963E+04  0.15000000000E+04  0.10566000000E+00 0.  1.
        994   -1    0    0    0    0 -0.00000000000E+00 -0.00000000000E+00  0.11368683772E-12  0.17120000000E+03  0.17120000000E+03 0.  0.
         13    1    1    2    0    0  0.18225421208E+02 -0.58881424454E+02  0.24759288995E+03  0.25514983528E+03  0.10566000000E+00 0.  1.
        994    1    1    2    0    0 -0.58537133164E+02  0.51753059927E+02  0.27228219348E+02  0.19014676200E+03  0.17120000000E+03 0.  0.
        998    1    1    2    0    0  0.40311711956E+02  0.71283645269E+01  0.12251788870E+04  0.12259034027E+04  0.10000000000E+02 0.  1.
</event>
<event>
 5    1  0.1252319E-008  0.3805138E+03  0.7957747E-01  0.3448924E+00
         13   -1    0    0    0    0  0.00000000000E+00  0.00000000000E+00  0.14999999963E+04  0.15000000000E+04  0.10566000000E+00 0. -1.
        994   -1    0    0    0    0 -0.00000000000E+00 -0.00000000000E+00  0.11368683772E-12  0.17120000000E+03  0.17120000000E+03 0.  0.
         13    1    1    2    0    0  0.28424156322E+02  0.29000378149E+02  0.20219262940E+03  0.20623002968E+03  0.10566000000E+00 0. -1.
        994    1    1    2    0    0 -0.23349540812E+02 -0.18243818638E+02  0.68097471171E+01  0.17387883894E+03  0.17120000000E+03 0.  0.
        998    1    1    2    0    0 -0.50746155104E+01 -0.10756559511E+02  0.12909976198E+04  0.12910911314E+04  0.10000000000E+02 0. -1.
</event>
<event>
 5    1  0.1252319E-008  0.3741628E+03  0.7957747E-01  0.3476976E+00
         13   -1    0    0    0    0  0.00000000000E+00  0.00000000000E+00  0.14999999963E+04  0.15000000000E+04  0.10566000000E+00 0.  1.
        994   -1    0    0    0    0 -0.00000000000E+00 -0.00000000000E+00  0.11368683772E-12  0.17120000000E+03  0.17120000000E+03 0.  0.
         13    1    1    2    0    0 -0.75266320261E+01 -0.25711821187E+02  0.21574265402E+02  0.34397791064E+02  0.10566000000E+00 0.  1.
        994    1    1    2    0    0  0.43277123317E+01  0.23647779081E+02  0.15210146293E+02  0.17354750099E+03  0.17120000000E+03 0.  0.
        998    1    1    2    0    0  0.31989196944E+01  0.20640421058E+01  0.14632155846E+04  0.14632547079E+04  0.10000000000E+02 0.  1.
</event>
<event>
 5    1  0.1252319E-008  0.3858133E+03  0.7957747E-01  0.3426230E+00
         13   -1    0    0    0    0  0.00000000000E+00  0.00000000000E+00  0.14999999963E+04  0.15000000000E+04  0.10566000000E+00 0.  1.
        994   -1    0    0    0    0 -0.00000000000E+00 -0.00000000000E+00  0.11368683772E-12  0.17120000000E+03  0.17120000000E+03 0.  0.
         13    1    1    2    0    0 -0.48260846182E+01 -0.11187518289E+02  0.58616074557E+02  0.59869082328E+02  0.10566000000E+00 0.  1.
        994    1    1    2    0    0  0.64402936984E+00  0.15079084449E+02  0.19744138040E+01  0.17187533817E+03  0.17120000000E+03 0.  0.
        998    1    1    2    0    0  0.41820552484E+01 -0.38915661600E+01  0.14394095079E+04  0.14394555795E+04  0.10000000000E+02 0.  1.
</event>
<event>
 5    1  0.1252319E-008  0.3767787E+03  0.7957747E-01  0.3465306E+00
         13   -1    0    0    0    0  0.00000000000E+00  0.00000000000E+00  0.14999999963E+04  0.15000000000E+04  0.10566000000E+00 0.  1.
        994   -1    0    0    0    0 -0.00000000000E+00 -0.00000000000E+00  0.11368683772E-12  0.17120000000E+03  0.17120000000E+03 0.  0.
         13    1    1    2    0    0 -0.25936832614E+02 -0.12521263858E+02  0.66443014546E+02  0.72416756905E+02  0.10566000000E+00 0.  1.
        994    1    1    2    0    0  0.32164224501E+02  0.54241802061E+01  0.93715894519E+01  0.17453144633E+03  0.17120000000E+03 0.  0.
        998    1    1    2    0    0 -0.62273918867E+01  0.70970836523E+01  0.14241853923E+04  0.14242517968E+04  0.10000000000E+02 0.  1.
</event>
<event>
 5    1  0.1252319E-008  0.3695702E+03  0.7957747E-01  0.3497869E+00
         13   -1    0    0    0    0  0.00000000000E+00  0.00000000000E+00  0.14999999963E+04  0.15000000000E+04  0.10566000000E+00 0.  1.
        994   -1    0    0    0    0 -0.00000000000E+00 -0.00000000000E+00  0.11368683772E-12  0.17120000000E+03  0.17120000000E+03 0.  0.
         13    1    1    2    0    0  0.46473904381E+02 -0.37719302757E+02  0.16948166356E+03  0.17974041013E+03  0.10566000000E+00 0.  1.
        994    1    1    2    0    0  0.24141642731E+01  0.94627382466E+02  0.41194938817E+02  0.19991656431E+03  0.17120000000E+03 0.  0.
        998    1    1    2    0    0 -0.48888068654E+02 -0.56908079708E+02  0.12893233939E+04  0.12915430256E+04  0.10000000000E+02 0.  1.
</event>
<event>
 5    1  0.1252319E-008  0.3829639E+03  0.7957747E-01  0.3438354E+00
         13   -1    0    0    0    0  0.00000000000E+00  0.00000000000E+00  0.14999999963E+04  0.15000000000E+04  0.10566000000E+00 0. -1.
        994   -1    0    0    0    0 -0.00000000000E+00 -0.00000000000E+00  0.11368683772E-12  0.17120000000E+03  0.17120000000E+03 0.  0.
         13    1    1    2    0    0  0.80116122996E+01  0.80481309386E+01  0.23501372207E+02  0.26101417642E+02  0.10566000000E+00 0. -1.
        994    1    1    2    0    0  0.27425901128E+01 -0.12574416997E+02  0.31929410999E+01  0.17171276201E+03  0.17120000000E+03 0.  0.
        998    1    1    2    0    0 -0.10754202412E+02  0.45262860585E+01  0.14733056830E+04  0.14733858204E+04  0.10000000000E+02 0. -1.
</event>
<event>
 5    1  0.1252319E-008  0.3847293E+03  0.7957747E-01  0.3430821E+00
         13   -1    0    0    0    0  0.00000000000E+00  0.00000000000E+00  0.14999999963E+04  0.15000000000E+04  0.10566000000E+00 0. -1.
        994   -1    0    0    0    0 -0.00000000000E+00 -0.00000000000E+00  0.11368683772E-12  0.17120000000E+03  0.17120000000E+03 0.  0.
         13    1    1    2    0    0  0.63091439999E+01  0.16899775844E+02  0.88945007936E+02  0.90755899656E+02  0.10566000000E+00 0. -1.
        994    1    1    2    0    0  0.10336833689E+02 -0.21922604455E+02  0.37005840473E+01  0.17294676938E+03  0.17120000000E+03 0.  0.
        998    1    1    2    0    0 -0.16645977689E+02  0.50228286113E+01  0.14073544043E+04  0.14074973310E+04  0.10000000000E+02 0. -1.
</event>
<event>
 5    1  0.1252319E-008  0.3812870E+03  0.7957747E-01  0.3445573E+00
         13   -1    0    0    0    0  0.00000000000E+00  0.00000000000E+00  0.14999999963E+04  0.15000000000E+04  0.10566000000E+00 0.  1.
        994   -1    0    0    0    0 -0.00000000000E+00 -0.00000000000E+00  0.11368683772E-12  0.17120000000E+03  0.17120000000E+03 0.  0.
         13    1    1    2    0    0  0.45981906264E+01  0.28304239618E+02  0.10593054875E+03  0.10974318047E+03  0.10566000000E+00 0.  1.
        994    1    1    2    0    0 -0.11317829620E+02 -0.33385027433E+02  0.76324133803E+01  0.17495812944E+03  0.17120000000E+03 0.  0.
        998    1    1    2    0    0  0.67196389937E+01  0.50807878152E+01  0.13864370341E+04  0.13864986901E+04  0.10000000000E+02 0.  1.
</event>
<event>
 5    1  0.1252319E-008  0.3831914E+03  0.7957747E-01  0.3437379E+00
         13   -1    0    0    0    0  0.00000000000E+00  0.00000000000E+00  0.14999999963E+04  0.15000000000E+04  0.10566000000E+00 0.  1.
        994   -1    0    0    0    0 -0.00000000000E+00 -0.00000000000E+00  0.11368683772E-12  0.17120000000E+03  0.17120000000E+03 0.  0.
         13    1    1    2    0    0  0.16209238895E+01  0.11260287133E+02  0.24578667204E+02  0.27084008310E+02  0.10566000000E+00 0.  1.
        994    1    1    2    0    0  0.65548897042E+01 -0.10263457570E+02  0.30215126033E+01  0.17165918175E+03  0.17120000000E+03 0.  0.
        998    1    1    2    0    0 -0.81758135937E+01 -0.99682956236E+00  0.14723998165E+04  0.14724568099E+04  0.10000000000E+02 0.  1.
</event>
<event>
 5    1  0.1252319E-008  0.3753027E+03  0.7957747E-01  0.3471870E+00
         13   -1    0    0    0    0  0.00000000000E+00  0.00000000000E+00  0.14999999963E+04  0.15000000000E+04  0.10566000000E+00 0. -1.
        994   -1    0    0    0    0 -0.00000000000E+00 -0.00000000000E+00  0.11368683772E-12  0.17120000000E+03  0.17120000000E+03 0.  0.
         13    1    1    2    0    0 -0.13982802607E+02 -0.16274067665E+02  0.32113556318E+02  0.38621958916E+02  0.10566000000E+00 0. -1.
        994    1    1    2    0    0  0.14825548267E+02  0.14066512704E+02  0.79429177834E+01  0.17259835922E+03  0.17120000000E+03 0.  0.
        998    1    1    2    0    0 -0.84274565999E+00  0.22075549612E+01  0.14599435222E+04  0.14599796819E+04  0.10000000000E+02 0. -1.
</event>
<event>
 5    1  0.1252319E-008  0.3855849E+03  0.7957747E-01  0.3427196E+00
         13   -1    0    0    0    0  0.00000000000E+00  0.00000000000E+00  0.14999999963E+04  0.15000000000E+04  0.10566000000E+00 0.  1.
        994   -1    0    0    0    0 -0.00000000000E+00 -0.00000000000E+00  0.11368683772E-12  0.17120000000E+03  0.17120000000E+03 0.  0.
         13    1    1    2    0    0  0.80583397405E+01 -0.10399152901E+02  0.67910883580E+02  0.69173538966E+02  0.10566000000E+00 0.  1.
        994    1    1    2    0    0 -0.73632635024E+01 -0.23928825617E+01  0.15368325156E+01  0.17138187008E+03  0.17120000000E+03 0.  0.
        998    1    1    2    0    0 -0.69507623807E+00  0.12792035462E+02  0.14305522802E+04  0.14306445910E+04  0.10000000000E+02 0.  1.
</event>
<event>
 5    1  0.1252319E-008  0.3842676E+03  0.7957747E-01  0.3432784E+00
         13   -1    0    0    0    0  0.00000000000E+00  0.00000000000E+00  0.14999999963E+04  0.15000000000E+04  0.10566000000E+00 0.  1.
        994   -1    0    0    0    0 -0.00000000000E+00 -0.00000000000E+00  0.11368683772E-12  0.17120000000E+03  0.17120000000E+03 0.  0.
         13    1    1    2    0    0  0.11581440041E+02  0.56185812776E+01  0.41063327871E+02  0.43033780555E+02  0.10566000000E+00 0.  1.
        994    1    1    2    0    0 -0.75683964277E+01 -0.50181543763E+01  0.22660679944E+01  0.17145564313E+03  0.17120000000E+03 0.  0.
        998    1    1    2    0    0 -0.40130436134E+01 -0.60042690133E+00  0.14566706004E+04  0.14567105763E+04  0.10000000000E+02 0.  1.
</event>
<event>
 5    1  0.1252319E-008  0.3841984E+03  0.7957747E-01  0.3433079E+00
         13   -1    0    0    0    0  0.00000000000E+00  0.00000000000E+00  0.14999999963E+04  0.15000000000E+04  0.10566000000E+00 0.  1.
        994   -1    0    0    0    0 -0.00000000000E+00 -0.00000000000E+00  0.11368683772E-12  0.17120000000E+03  0.17120000000E+03 0.  0.
         13    1    1    2    0    0  0.15733632471E+02 -0.26256069955E+02  0.17848552657E+03  0.18109120011E+03  0.10566000000E+00 0.  1.
        994    1    1    2    0    0 -0.28862571683E+02  0.36385402950E+02  0.91732248317E+01  0.17762469886E+03  0.17120000000E+03 0.  0.
        998    1    1    2    0    0  0.13128939212E+02 -0.10129332995E+02  0.13123412449E+04  0.13124841010E+04  0.10000000000E+02 0.  1.
</event>
<event>
 5    1  0.1252319E-008  0.3880656E+03  0.7957747E-01  0.3416774E+00
         13   -1    0    0    0    0  0.00000000000E+00  0.00000000000E+00  0.14999999963E+04  0.15000000000E+04  0.10566000000E+00 0. -1.
        994   -1    0    0    0    0 -0.00000000000E+00 -0.00000000000E+00  0.11368683772E-12  0.17120000000E+03  0.17120000000E+03 0.  0.
         13    1    1    2    0    0 -0.14195267039E+01 -0.10285333128E+02 -0.70918848676E+01  0.12574145244E+02  0.10566000000E+00 0. -1.
        994    1    1    2    0    0  0.53643533512E+01  0.20511885968E+02  0.22510499839E+02  0.17397033183E+03  0.17120000000E+03 0.  0.
        998    1    1    2    0    0 -0.39448266473E+01 -0.10226552841E+02  0.14845813813E+04  0.14846555229E+04  0.10000000000E+02 0. -1.
</event>
<event>
 5    1  0.1252319E-008  0.3829789E+03  0.7957747E-01  0.3438289E+00
         13   -1    0    0    0    0  0.00000000000E+00  0.00000000000E+00  0.14999999963E+04  0.15000000000E+04  0.10566000000E+00 0.  1.
        994   -1    0    0    0    0 -0.00000000000E+00 -0.00000000000E+00  0.11368683772E-12  0.17120000000E+03  0.17120000000E+03 0.  0.
         13    1    1    2    0    0 -0.13391513692E+02  0.19558527744E+02  0.12792680018E+03  0.13010436586E+03  0.10566000000E+00 0.  1.
        994    1    1    2    0    0  0.13003088673E+01  0.14325289177E+02  0.33221358492E+01  0.17183533193E+03  0.17120000000E+03 0.  0.
        998    1    1    2    0    0  0.12091204825E+02 -0.33883816921E+02  0.13687510602E+04  0.13692603022E+04  0.10000000000E+02 0.  1.
</event>
<event>
 5    1  0.1252319E-008  0.3840194E+03  0.7957747E-01  0.3433842E+00
         13   -1    0    0    0    0  0.00000000000E+00  0.00000000000E+00  0.14999999963E+04  0.15000000000E+04  0.10566000000E+00 0.  1.
        994   -1    0    0    0    0 -0.00000000000E+00 -0.00000000000E+00  0.11368683772E-12  0.17120000000E+03  0.17120000000E+03 0.  0.
         13    1    1    2    0    0 -0.22040630264E+02  0.37166253266E+01  0.13069450043E+03  0.13259210494E+03  0.10566000000E+00 0.  1.
        994    1    1    2    0    0 -0.97099629455E+00 -0.11666753007E+02  0.25700641744E+01  0.17161905835E+03  0.17120000000E+03 0.  0.
        998    1    1    2    0    0  0.23011626559E+02  0.79501276801E+01  0.13667354317E+04  0.13669888367E+04  0.10000000000E+02 0.  1.
</event>
<event>
 5    1  0.1252319E-008  0.3847400E+03  0.7957747E-01  0.3430776E+00
         13   -1    0    0    0    0  0.00000000000E+00  0.00000000000E+00  0.14999999963E+04  0.15000000000E+04  0.10566000000E+00 0. -1.
        994   -1    0    0    0    0 -0.00000000000E+00 -0.00000000000E+00  0.11368683772E-12  0.17120000000E+03  0.17120000000E+03 0.  0.
         13    1    1    2    0    0 -0.18672930374E+00 -0.12932241357E+02  0.47644985418E+02  0.49369358249E+02  0.10566000000E+00 0. -1.
        994    1    1    2    0    0  0.81604038215E+01  0.74152759400E+01  0.21595626595E+01  0.17156830191E+03  0.17120000000E+03 0.  0.
        998    1    1    2    0    0 -0.79736745177E+01  0.55169654174E+01  0.14501954482E+04  0.14502623398E+04  0.10000000000E+02 0. -1.
</event>
<event>
 5    1  0.1331821E-008  0.3858088E+03  0.7957747E-01  0.3426249E+00
         13   -1    0    0    0    0  0.00000000000E+00  0.00000000000E+00  0.14999999963E+04  0.15000000000E+04  0.10566000000E+00 0. -1.
        994   -1    0    0    0    0 -0.00000000000E+00 -0.00000000000E+00  0.11368683772E-12  0.17120000000E+03  0.17120000000E+03 0.  0.
         13    1    1    2    0    0  0.43589998620E+01 -0.92650911328E+01  0.41965394410E+02  0.43196623543E+02  0.10566000000E+00 0. -1.
        994    1    1    2    0    0 -0.57354016053E+01  0.95188835032E+01  0.16343348073E+01  0.17156810608E+03  0.17120000000E+03 0.  0.
        998    1    1    2    0    0  0.13764017433E+01 -0.25379237036E+00  0.14564002671E+04  0.14564352704E+04  0.10000000000E+02 0. -1.
</event>
<event>
 5    1  0.1252319E-008  0.3818613E+03  0.7957747E-01  0.3443094E+00
         13   -1    0    0    0    0  0.00000000000E+00  0.00000000000E+00  0.14999999963E+04  0.15000000000E+04  0.10566000000E+00 0. -1.
        994   -1    0    0    0    0 -0.00000000000E+00 -0.00000000000E+00  0.11368683772E-12  0.17120000000E+03  0.17120000000E+03 0.  0.
         13    1    1    2    0    0 -0.17395087992E+02 -0.76186520181E+00  0.45659951926E+02  0.48867288637E+02  0.10566000000E+00 0. -1.
        994    1    1    2    0    0  0.14930563781E+02  0.29777825618E+01  0.39669876256E+01  0.17192139458E+03  0.17120000000E+03 0.  0.
        998    1    1    2    0    0  0.24645242108E+01 -0.22159173600E+01  0.14503730567E+04  0.14504113168E+04  0.10000000000E+02 0.  0.
</event>
<event>
 5    1  0.1252319E-008  0.3821783E+03  0.7957747E-01  0.3441728E+00
         13   -1    0    0    0    0  0.00000000000E+00  0.00000000000E+00  0.14999999963E+04  0.15000000000E+04  0.10566000000E+00 0.  1.
        994   -1    0    0    0    0 -0.00000000000E+00 -0.00000000000E+00  0.11368683772E-12  0.17120000000E+03  0.17120000000E+03 0.  0.
         13    1    1    2    0    0 -0.37205597363E+01  0.18043125742E+02  0.56082928687E+02  0.59031373061E+02  0.10566000000E+00 0.  1.
        994    1    1    2    0    0  0.85069270814E+01 -0.55137902329E+01  0.33787482211E+01  0.17153316190E+03  0.17120000000E+03 0.  0.
        998    1    1    2    0    0 -0.47863673450E+01 -0.12529335509E+02  0.14405383194E+04  0.14406354650E+04  0.10000000000E+02 0.  1.
</event>
<event>
 5    1  0.1252319E-008  0.3782149E+03  0.7957747E-01  0.3458968E+00
         13   -1    0    0    0    0  0.00000000000E+00  0.00000000000E+00  0.14999999963E+04  0.15000000000E+04  0.10566000000E+00 0. -1.
        994   -1    0    0    0    0 -0.00000000000E+00 -0.00000000000E+00  0.11368683772E-12  0.17120000000E+03  0.17120000000E+03 0.  0.
         13    1    1    2    0    0 -0.14834832520E+03 -0.46221008756E+02  0.88681094844E+03  0.90032065215E+03  0.10566000000E+00 0. -1.
        994    1    1    2    0    0  0.15186671565E+03  0.33115611049E+02  0.91123735473E+02  0.24854198475E+03  0.17120000000E+03 0.  0.
        998    1    1    2    0    0 -0.35183904438E+01  0.13105397708E+02  0.52206531236E+03  0.52233736310E+03  0.10000000000E+02 0.  0.
</event>
<event>
 5    1  0.1252319E-008  0.3768406E+03  0.7957747E-01  0.3465032E+00
         13   -1    0    0    0    0  0.00000000000E+00  0.00000000000E+00  0.14999999963E+04  0.15000000000E+04  0.10566000000E+00 0. -1.
        994   -1    0    0    0    0 -0.00000000000E+00 -0.00000000000E+00  0.11368683772E-12  0.17120000000E+03  0.17120000000E+03 0.  0.
         13    1    1    2    0    0  0.63559220908E+02 -0.36360130123E+02  0.36761827712E+03  0.37484002249E+03  0.10566000000E+00 0. -1.
        994    1    1    2    0    0 -0.63419104581E+02  0.27142408831E+02  0.21985342668E+02  0.18588030685E+03  0.17120000000E+03 0.  0.
        998    1    1    2    0    0 -0.14011632718E+00  0.92177212920E+01  0.11103963765E+04  0.11104796707E+04  0.10000000000E+02 0. -1.
</event>
<event>
 5    1  0.1252319E-008  0.3815769E+03  0.7957747E-01  0.3444321E+00
         13   -1    0    0    0    0  0.00000000000E+00  0.00000000000E+00  0.14999999963E+04  0.15000000000E+04  0.10566000000E+00 0. -1.
        994   -1    0    0    0    0 -0.00000000000E+00 -0.00000000000E+00  0.11368683772E-12  0.17120000000E+03  0.17120000000E+03 0.  0.
         13    1    1    2    0    0 -0.77333295372E+02  0.84803372871E+01  0.15244760399E+03  0.17115092117E+03  0.10566000000E+00 0. -1.
        994    1    1    2    0    0  0.80137653992E+02  0.12403059220E+00  0.40994962881E+02  0.19342204102E+03  0.17120000000E+03 0.  0.
        998    1    1    2    0    0 -0.28043586199E+01 -0.86043678793E+01  0.13065574294E+04  0.13066270378E+04  0.10000000000E+02 0. -1.
</event>
<event>
 5    1  0.1252319E-008  0.3798290E+03  0.7957747E-01  0.3451903E+00
         13   -1    0    0    0    0  0.00000000000E+00  0.00000000000E+00  0.14999999963E+04  0.15000000000E+04  0.10566000000E+00 0. -1.
        994   -1    0    0    0    0 -0.00000000000E+00 -0.00000000000E+00  0.11368683772E-12  0.17120000000E+03  0.17120000000E+03 0.  0.
         13    1    1    2    0    0  0.17605309739E+02 -0.36615382726E+02  0.23114890255E+03  0.23469226552E+03  0.10566000000E+00 0. -1.
        994    1    1    2    0    0 -0.56803004871E+01 -0.32674787177E+00  0.43277700827E+01  0.17134918200E+03  0.17120000000E+03 0.  0.
        998    1    1    2    0    0 -0.11925009252E+02  0.36942130598E+02  0.12645233236E+04  0.12651585525E+04  0.10000000000E+02 0. -1.
</event>
<event>
 5    1  0.1252319E-008  0.3784758E+03  0.7957747E-01  0.3457822E+00
         13   -1    0    0    0    0  0.00000000000E+00  0.00000000000E+00  0.14999999963E+04  0.15000000000E+04  0.10566000000E+00 0.  1.
        994   -1    0    0    0    0 -0.00000000000E+00 -0.00000000000E+00  0.11368683772E-12  0.17120000000E+03  0.17120000000E+03 0.  0.
         13    1    1    2    0    0  0.11723646262E+03  0.59459209258E+02  0.79456633419E+03  0.80536665955E+03  0.10566000000E+00 0.  1.
        994    1    1    2    0    0 -0.11437263434E+03 -0.61907298958E+02  0.64011781796E+02  0.22432244952E+03  0.17120000000E+03 0.  0.
        998    1    1    2    0    0 -0.28638282763E+01  0.24480897004E+01  0.64142188030E+03  0.64151089093E+03  0.10000000000E+02 0.  0.
</event>
<event>
 5    1  0.1252319E-008  0.2302712E+03  0.7957747E-01  0.4567503E+00
         13   -1    0    0    0    0  0.00000000000E+00  0.00000000000E+00  0.14999999963E+04  0.15000000000E+04  0.10566000000E+00 0.  1.
        994   -1    0    0    0    0 -0.00000000000E+00 -0.00000000000E+00  0.11368683772E-12  0.17120000000E+03  0.17120000000E+03 0.  0.
         13    1    1    2    0    0 -0.50347228997E+02 -0.39373058707E+02 -0.22160767173E+02  0.67647557128E+02  0.10566000000E+00 0.  1.
        994    1    1    2    0    0  0.15325195244E+03 -0.29416802227E+02  0.32027552227E+03  0.39526871790E+03  0.17120000000E+03 0.  0.
        998    1    1    2    0    0 -0.10290472345E+03  0.68789860934E+02  0.12018852412E+04  0.12082837250E+04  0.10000000000E+02 0.  1.
</event>
<event>
 5    1  0.1252319E-008  0.3841699E+03  0.7957747E-01  0.3433200E+00
         13   -1    0    0    0    0  0.00000000000E+00  0.00000000000E+00  0.14999999963E+04  0.15000000000E+04  0.10566000000E+00 0.  1.
        994   -1    0    0    0    0 -0.00000000000E+00 -0.00000000000E+00  0.11368683772E-12  0.17120000000E+03  0.17120000000E+03 0.  0.
         13    1    1    2    0    0 -0.10541840429E+02  0.19059415932E+02  0.11268615947E+03  0.11477183207E+03  0.10566000000E+00 0.  1.
        994    1    1    2    0    0  0.11210449616E+02 -0.13377430503E+02  0.30479919570E+01  0.17211438081E+03  0.17120000000E+03 0.  0.
        998    1    1    2    0    0 -0.66860918695E+00 -0.56819854290E+01  0.13842658448E+04  0.13843137871E+04  0.10000000000E+02 0.  1.
</event>
<event>
 5    1  0.1252319E-008  0.3863003E+03  0.7957747E-01  0.3424176E+00
         13   -1    0    0    0    0  0.00000000000E+00  0.00000000000E+00  0.14999999963E+04  0.15000000000E+04  0.10566000000E+00 0.  1.
        994   -1    0    0    0    0 -0.00000000000E+00 -0.00000000000E+00  0.11368683772E-12  0.17120000000E+03  0.17120000000E+03 0.  0.
         13    1    1    2    0    0 -0.10324252336E+02  0.29930931505E+01  0.60548987249E+02  0.61495852005E+02  0.10566000000E+00 0.  1.
        994    1    1    2    0    0  0.45700185894E+01 -0.30138867595E+01  0.10840652385E+01  0.17129093315E+03  0.17120000000E+03 0.  0.
        998    1    1    2    0    0  0.57542337465E+01  0.20793608907E-01  0.14383669438E+04  0.14384132148E+04  0.10000000000E+02 0.  1.
</event>
<event>
 5    1  0.1252319E-008  0.3809159E+03  0.7957747E-01  0.3447180E+00
         13   -1    0    0    0    0  0.00000000000E+00  0.00000000000E+00  0.14999999963E+04  0.15000000000E+04  0.10566000000E+00 0. -1.
        994   -1    0    0    0    0 -0.00000000000E+00 -0.00000000000E+00  0.11368683772E-12  0.17120000000E+03  0.17120000000E+03 0.  0.
         13    1    1    2    0    0  0.20137945268E+01  0.36137636879E+02  0.21108137392E+03  0.21416195215E+03  0.10566000000E+00 0. -1.
        994    1    1    2    0    0 -0.54908290554E+01  0.36579332356E+00  0.37724425586E+01  0.17132995748E+03  0.17120000000E+03 0.  0.
        998    1    1    2    0    0  0.34770345287E+01 -0.36503430202E+02  0.12851461798E+04  0.12857080904E+04  0.10000000000E+02 0. -1.
</event>
<event>
 5    1  0.1252319E-008  0.3830214E+03  0.7957747E-01  0.3438107E+00
         13   -1    0    0    0    0  0.00000000000E+00  0.00000000000E+00  0.14999999963E+04  0.15000000000E+04  0.10566000000E+00 0. -1.
        994   -1    0    0    0    0 -0.00000000000E+00 -0.00000000000E+00  0.11368683772E-12  0.17120000000E+03  0.17120000000E+03 0.  0.
         13    1    1    2    0    0 -0.18359322937E+01  0.32579337025E+02  0.18409936613E+03  0.18696890549E+03  0.10566000000E+00 0. -1.
        994    1    1    2    0    0  0.56608480739E+01 -0.30155953893E+02  0.57379071244E+01  0.17402238458E+03  0.17120000000E+03 0.  0.
        998    1    1    2    0    0 -0.38249157802E+01 -0.24233831317E+01  0.13101627230E+04  0.13102087099E+04  0.10000000000E+02 0. -1.
</event>
<event>
 5    1  0.1252319E-008  0.3813478E+03  0.7957747E-01  0.3445311E+00
         13   -1    0    0    0    0  0.00000000000E+00  0.00000000000E+00  0.14999999963E+04  0.15000000000E+04  0.10566000000E+00 0.  1.
        994   -1    0    0    0    0 -0.00000000000E+00 -0.00000000000E+00  0.11368683772E-12  0.17120000000E+03  0.17120000000E+03 0.  0.
         13    1    1    2    0    0 -0.42224335445E+02 -0.30635910139E+02  0.31559564817E+03  0.31987822339E+03  0.10566000000E+00 0.  1.
        994    1    1    2    0    0  0.62534572526E+02  0.54149022620E+01  0.16679555559E+02  0.18310527437E+03  0.17120000000E+03 0.  0.
        998    1    1    2    0    0 -0.20310237080E+02  0.25221007877E+02  0.11677247926E+04  0.11682165022E+04  0.10000000000E+02 0.  1.
</event>
<event>
 5    1  0.1252319E-008  0.3824049E+03  0.7957747E-01  0.3440753E+00
         13   -1    0    0    0    0  0.00000000000E+00  0.00000000000E+00  0.14999999963E+04  0.15000000000E+04  0.10566000000E+00 0.  1.
        994   -1    0    0    0    0 -0.00000000000E+00 -0.00000000000E+00  0.11368683772E-12  0.17120000000E+03  0.17120000000E+03 0.  0.
         13    1    1    2    0    0  0.93452206917E+01 -0.14537198342E+02  0.48279155601E+02  0.51279150880E+02  0.10566000000E+00 0.  1.
        994    1    1    2    0    0 -0.10881234936E+02  0.16982196996E+02  0.42743788321E+01  0.17243696414E+03  0.17120000000E+03 0.  0.
        998    1    1    2    0    0  0.15360142441E+01 -0.24449986542E+01  0.14474464618E+04  0.14474838850E+04  0.10000000000E+02 0.  1.
</event>
<event>
 5    1  0.1252319E-008  0.3813069E+03  0.7957747E-01  0.3445488E+00
         13   -1    0    0    0    0  0.00000000000E+00  0.00000000000E+00  0.14999999963E+04  0.15000000000E+04  0.10566000000E+00 0.  1.
        994   -1    0    0    0    0 -0.00000000000E+00 -0.00000000000E+00  0.11368683772E-12  0.17120000000E+03  0.17120000000E+03 0.  0.
         13    1    1    2    0    0 -0.15062894746E+02 -0.26074711526E+02  0.12182756805E+03  0.12549401930E+03  0.10566000000E+00 0.  1.
        994    1    1    2    0    0  0.20081656351E+02  0.20636409788E+02  0.62395928222E+01  0.17371674315E+03  0.17120000000E+03 0.  0.
        998    1    1    2    0    0 -0.50187616050E+01  0.54383017383E+01  0.13719328354E+04  0.13719892376E+04  0.10000000000E+02 0.  1.
</event>
<event>
 5    1  0.1252319E-008  0.3821050E+03  0.7957747E-01  0.3442044E+00
         13   -1    0    0    0    0  0.00000000000E+00  0.00000000000E+00  0.14999999963E+04  0.15000000000E+04  0.10566000000E+00 0. -1.
        994   -1    0    0    0    0 -0.00000000000E+00 -0.00000000000E+00  0.11368683772E-12  0.17120000000E+03  0.17120000000E+03 0.  0.
         13    1    1    2    0    0  0.23510460359E+02  0.24301968489E+02  0.19245716473E+03  0.19540496114E+03  0.10566000000E+00 0. -1.
        994    1    1    2    0    0 -0.23591586219E+02  0.12482054866E+01  0.49293491123E+01  0.17289262402E+03  0.17120000000E+03 0.  0.
        998    1    1    2    0    0  0.81125859943E-01 -0.25550173976E+02  0.13026134824E+04  0.13029024148E+04  0.10000000000E+02 0. -1.
</event>
<event>
 5    1  0.1252319E-008  0.2839661E+03  0.7957747E-01  0.4017582E+00
         13   -1    0    0    0    0  0.00000000000E+00  0.00000000000E+00  0.14999999963E+04  0.15000000000E+04  0.10566000000E+00 0. -1.
        994   -1    0    0    0    0 -0.00000000000E+00 -0.00000000000E+00  0.11368683772E-12  0.17120000000E+03  0.17120000000E+03 0.  0.
         13    1    1    2    0    0  0.14709749295E+03  0.47671567517E+02  0.60801138959E+03  0.62736601105E+03  0.10566000000E+00 0. -1.
        994    1    1    2    0    0 -0.12325579612E+03 -0.26526871983E+02  0.73941617772E+02  0.22510546207E+03  0.17120000000E+03 0.  0.
        998    1    1    2    0    0 -0.23841696828E+02 -0.21144695534E+02  0.81804698891E+03  0.81872852688E+03  0.10000000000E+02 0. -1.
</event>
<event>
 5    1  0.1252319E-008  0.3731662E+03  0.7957747E-01  0.3481465E+00
         13   -1    0    0    0    0  0.00000000000E+00  0.00000000000E+00  0.14999999963E+04  0.15000000000E+04  0.10566000000E+00 0.  1.
        994   -1    0    0    0    0 -0.00000000000E+00 -0.00000000000E+00  0.11368683772E-12  0.17120000000E+03  0.17120000000E+03 0.  0.
         13    1    1    2    0    0  0.17963375678E+02 -0.32880508930E+02  0.10171719710E+03  0.10839838598E+03  0.10566000000E+00 0.  1.
        994    1    1    2    0    0  0.31893511320E+02  0.81051708056E+01  0.11336299554E+02  0.17470215095E+03  0.17120000000E+03 0.  0.
        998    1    1    2    0    0 -0.49856886998E+02  0.24775338124E+02  0.13869464996E+04  0.13880994631E+04  0.10000000000E+02 0.  1.
</event>
<event>
 5    1  0.1252319E-008  0.3753216E+03  0.7957747E-01  0.3471786E+00
         13   -1    0    0    0    0  0.00000000000E+00  0.00000000000E+00  0.14999999963E+04  0.15000000000E+04  0.10566000000E+00 0.  1.
        994   -1    0    0    0    0 -0.00000000000E+00 -0.00000000000E+00  0.11368683772E-12  0.17120000000E+03  0.17120000000E+03 0.  0.
         13    1    1    2    0    0 -0.18765615793E+02 -0.34776360444E+02  0.50410960009E+02  0.64053256239E+02  0.10566000000E+00 0.  1.
        994    1    1    2    0    0  0.34573987847E+02  0.21172999285E+02  0.19659226359E+02  0.17702988933E+03  0.17120000000E+03 0.  0.
        998    1    1    2    0    0 -0.15808372054E+02  0.13603361159E+02  0.14299298099E+04  0.14301168544E+04  0.10000000000E+02 0.  1.
</event>
<event>
 5    1  0.1252319E-008  0.3860650E+03  0.7957747E-01  0.3425168E+00
         13   -1    0    0    0    0  0.00000000000E+00  0.00000000000E+00  0.14999999963E+04  0.15000000000E+04  0.10566000000E+00 0.  1.
        994   -1    0    0    0    0 -0.00000000000E+00 -0.00000000000E+00  0.11368683772E-12  0.17120000000E+03  0.17120000000E+03 0.  0.
         13    1    1    2    0    0 -0.87442523208E+01  0.72621523063E+01  0.55217459107E+02  0.56375347085E+02  0.10566000000E+00 0.  1.
        994    1    1    2    0    0  0.38780235621E+02  0.15515408668E+02  0.68410611361E+01  0.17635440085E+03  0.17120000000E+03 0.  0.
        998    1    1    2    0    0 -0.30035983300E+02 -0.22777560975E+02  0.14379414760E+04  0.14384702521E+04  0.10000000000E+02 0.  1.
</event>
<event>
 5    1  0.1252319E-008  0.3794776E+03  0.7957747E-01  0.3453436E+00
         13   -1    0    0    0    0  0.00000000000E+00  0.00000000000E+00  0.14999999963E+04  0.15000000000E+04  0.10566000000E+00 0. -1.
        994   -1    0    0    0    0 -0.00000000000E+00 -0.00000000000E+00  0.11368683772E-12  0.17120000000E+03  0.17120000000E+03 0.  0.
         13    1    1    2    0    0 -0.88233602886E+01  0.58458797123E+01 -0.39935951225E+01  0.11313088103E+02  0.10566000000E+00 0. -1.
        994    1    1    2    0    0  0.96636412943E+01 -0.63662534332E+01  0.16525182435E+02  0.17238456079E+03  0.17120000000E+03 0.  0.
        998    1    1    2    0    0 -0.84028100567E+00  0.52037372089E+00  0.14874684090E+04  0.14875023511E+04  0.10000000000E+02 0. -1.
</event>
<event>
 5    1  0.1252319E-008  0.3758182E+03  0.7957747E-01  0.3469572E+00
         13   -1    0    0    0    0  0.00000000000E+00  0.00000000000E+00  0.14999999963E+04  0.15000000000E+04  0.10566000000E+00 0. -1.
        994   -1    0    0    0    0 -0.00000000000E+00 -0.00000000000E+00  0.11368683772E-12  0.17120000000E+03  0.17120000000E+03 0.  0.
         13    1    1    2    0    0  0.45889163618E+02  0.59908242119E+02  0.18652325300E+03  0.20121070519E+03  0.10566000000E+00 0. -1.
        994    1    1    2    0    0 -0.61051616315E+02 -0.29559159940E+02  0.30657462147E+02  0.18668252135E+03  0.17120000000E+03 0.  0.
        998    1    1    2    0    0  0.15162452697E+02 -0.30349082179E+02  0.12828192811E+04  0.12833067735E+04  0.10000000000E+02 0. -1.
</event>
<event>
 5    1  0.1252319E-008  0.3747022E+03  0.7957747E-01  0.3474556E+00
         13   -1    0    0    0    0  0.00000000000E+00  0.00000000000E+00  0.14999999963E+04  0.15000000000E+04  0.10566000000E+00 0.  1.
        994   -1    0    0    0    0 -0.00000000000E+00 -0.00000000000E+00  0.11368683772E-12  0.17120000000E+03  0.17120000000E+03 0.  0.
         13    1    1    2    0    0 -0.40985405209E+00 -0.11722149565E+02  0.69545300945E+01  0.13636474018E+02  0.10566000000E+00 0.  1.
        994    1    1    2    0    0  0.98184732827E+00  0.82773677803E+01  0.70681610673E+01  0.17154847053E+03  0.17120000000E+03 0.  0.
        998    1    1    2    0    0 -0.57199327618E+00  0.34447817845E+01  0.14859773051E+04  0.14860150554E+04  0.10000000000E+02 0.  1.
</event>
<event>
 5    1  0.1252319E-008  0.3745337E+03  0.7957747E-01  0.3475311E+00
         13   -1    0    0    0    0  0.00000000000E+00  0.00000000000E+00  0.14999999963E+04  0.15000000000E+04  0.10566000000E+00 0.  1.
        994   -1    0    0    0    0 -0.00000000000E+00 -0.00000000000E+00  0.11368683772E-12  0.17120000000E+03  0.17120000000E+03 0.  0.
         13    1    1    2    0    0 -0.51666456864E+02  0.15769342580E+02  0.17210364493E+03  0.18038229041E+03  0.10566000000E+00 0.  1.
        994    1    1    2    0    0  0.62750440890E+02 -0.25940265235E+02  0.22780921318E+02  0.18557727654E+03  0.17120000000E+03 0.  0.
        998    1    1    2    0    0 -0.11083984026E+02  0.10170922655E+02  0.13051154300E+04  0.13052404331E+04  0.10000000000E+02 0.  1.
</event>
<event>
 5    1  0.1252319E-008  0.3848495E+03  0.7957747E-01  0.3430311E+00
         13   -1    0    0    0    0  0.00000000000E+00  0.00000000000E+00  0.14999999963E+04  0.15000000000E+04  0.10566000000E+00 0. -1.
        994   -1    0    0    0    0 -0.00000000000E+00 -0.00000000000E+00  0.11368683772E-12  0.17120000000E+03  0.17120000000E+03 0.  0.
         13    1    1    2    0    0 -0.16840953516E+02  0.92819196530E+01  0.11186170877E+03  0.11350253213E+03  0.10566000000E+00 0. -1.
        994    1    1    2    0    0  0.89464635594E+00 -0.16327865736E+02  0.25851896711E+01  0.17199861278E+03  0.17120000000E+03 0.  0.
        998    1    1    2    0    0  0.15946307160E+02  0.70459460831E+01  0.13855530978E+04  0.13856988551E+04  0.10000000000E+02 0. -1.
</event>
<event>
 5    1  0.1252319E-008  0.3693927E+03  0.7957747E-01  0.3498686E+00
         13   -1    0    0    0    0  0.00000000000E+00  0.00000000000E+00  0.14999999963E+04  0.15000000000E+04  0.10566000000E+00 0.  1.
        994   -1    0    0    0    0 -0.00000000000E+00 -0.00000000000E+00  0.11368683772E-12  0.17120000000E+03  0.17120000000E+03 0.  0.
         13    1    1    2    0    0  0.94451182277E+01  0.93762412119E+01  0.33935533488E+01  0.13735047359E+02  0.10566000000E+00 0.  1.
        994    1    1    2    0    0 -0.10268435053E+02 -0.11909658122E+02  0.11481167407E+02  0.17230362132E+03  0.17120000000E+03 0.  0.
        998    1    1    2    0    0  0.82331682489E+00  0.25334169099E+01  0.14851252755E+04  0.14851613313E+04  0.10000000000E+02 0.  1.
</event>
<event>
 5    1  0.1252319E-008  0.3939460E+03  0.7957747E-01  0.3392595E+00
         13   -1    0    0    0    0  0.00000000000E+00  0.00000000000E+00  0.14999999963E+04  0.15000000000E+04  0.10566000000E+00 0.  1.
        994   -1    0    0    0    0 -0.00000000000E+00 -0.00000000000E+00  0.11368683772E-12  0.17120000000E+03  0.17120000000E+03 0.  0.
         13    1    1    2    0    0 -0.69533584103E+02  0.45577179086E+02  0.16972563939E+03  0.18899471527E+03  0.10566000000E+00 0.  1.
        994    1    1    2    0    0 -0.31047855313E+02 -0.31409283696E+02  0.31697733216E+02  0.17962376990E+03  0.17120000000E+03 0.  0.
        998    1    1    2    0    0  0.10058143942E+03 -0.14167895390E+02  0.12985766237E+04  0.13025815148E+04  0.10000000000E+02 0.  1.
</event>
<event>
 5    1  0.1252319E-008  0.3787211E+03  0.7957747E-01  0.3456746E+00
         13   -1    0    0    0    0  0.00000000000E+00  0.00000000000E+00  0.14999999963E+04  0.15000000000E+04  0.10566000000E+00 0. -1.
        994   -1    0    0    0    0 -0.00000000000E+00 -0.00000000000E+00  0.11368683772E-12  0.17120000000E+03  0.17120000000E+03 0.  0.
         13    1    1    2    0    0 -0.45334898218E+02  0.23702742292E+02  0.23600647160E+03  0.24148734706E+03  0.10566000000E+00 0. -1.
        994    1    1    2    0    0  0.42480615502E+02 -0.23254940116E+02  0.12694526704E+02  0.17837036172E+03  0.17120000000E+03 0.  0.
        998    1    1    2    0    0  0.28542827169E+01 -0.44780217602E+00  0.12512989980E+04  0.12513422912E+04  0.10000000000E+02 0. -1.
</event>
<event>
 5    1  0.1252319E-008  0.3740618E+03  0.7957747E-01  0.3477429E+00
         13   -1    0    0    0    0  0.00000000000E+00  0.00000000000E+00  0.14999999963E+04  0.15000000000E+04  0.10566000000E+00 0.  1.
        994   -1    0    0    0    0 -0.00000000000E+00 -0.00000000000E+00  0.11368683772E-12  0.17120000000E+03  0.17120000000E+03 0.  0.
         13    1    1    2    0    0 -0.47908903732E+02 -0.79228736035E+02  0.39092787222E+03  0.40174253958E+03  0.10566000000E+00 0.  1.
        994    1    1    2    0    0  0.67265070721E+02  0.81921851213E+02  0.46499048952E+02  0.20665764200E+03  0.17120000000E+03 0.  0.
        998    1    1    2    0    0 -0.19356166990E+02 -0.26931151780E+01  0.10625730751E+04  0.10627998184E+04  0.10000000000E+02 0. -1.
</event>
<event>
 5    1  0.1252319E-008  0.3818611E+03  0.7957747E-01  0.3443095E+00
         13   -1    0    0    0    0  0.00000000000E+00  0.00000000000E+00  0.14999999963E+04  0.15000000000E+04  0.10566000000E+00 0. -1.
        994   -1    0    0    0    0 -0.00000000000E+00 -0.00000000000E+00  0.11368683772E-12  0.17120000000E+03  0.17120000000E+03 0.  0.
         13    1    1    2    0    0  0.15238343016E+01  0.25611092458E+02  0.11299223142E+03  0.11586848430E+03  0.10566000000E+00 0. -1.
        994    1    1    2    0    0 -0.49654643363E+01  0.11603714154E+01  0.32829957553E+01  0.17130738559E+03  0.17120000000E+03 0.  0.
        998    1    1    2    0    0  0.34416300348E+01 -0.26771463874E+02  0.13837247691E+04  0.13840241301E+04  0.10000000000E+02 0. -1.
</event>
<event>
 5    1  0.1252319E-008  0.3855673E+03  0.7957747E-01  0.3427270E+00
         13   -1    0    0    0    0  0.00000000000E+00  0.00000000000E+00  0.14999999963E+04  0.15000000000E+04  0.10566000000E+00 0.  1.
        994   -1    0    0    0    0 -0.00000000000E+00 -0.00000000000E+00  0.11368683772E-12  0.17120000000E+03  0.17120000000E+03 0.  0.
         13    1    1    2    0    0 -0.68780404643E+01  0.91078374186E+01  0.46897915974E+02  0.48266819140E+02  0.10566000000E+00 0.  1.
        994    1    1    2    0    0  0.56140612121E+01 -0.12711839988E+02  0.19828855045E+01  0.17177450449E+03  0.17120000000E+03 0.  0.
        998    1    1    2    0    0  0.12639792522E+01  0.36040025689E+01  0.14511191948E+04  0.14511586764E+04  0.10000000000E+02 0.  1.
</event>
<event>
 5    1  0.1252319E-008  0.3736461E+03  0.7957747E-01  0.3479300E+00
         13   -1    0    0    0    0  0.00000000000E+00  0.00000000000E+00  0.14999999963E+04  0.15000000000E+04  0.10566000000E+00 0.  1.
        994   -1    0    0    0    0 -0.00000000000E+00 -0.00000000000E+00  0.11368683772E-12  0.17120000000E+03  0.17120000000E+03 0.  0.
         13    1    1    2    0    0  0.66607442774E+01 -0.36260869475E+02  0.91622088823E+02  0.98761503096E+02  0.10566000000E+00 0.  1.
        994    1    1    2    0    0 -0.42306342249E+02  0.98902815855E+01  0.13849044450E+02  0.17716907263E+03  0.17120000000E+03 0.  0.
        998    1    1    2    0    0  0.35645597972E+02  0.26370587889E+02  0.13945288630E+04  0.13952694243E+04  0.10000000000E+02 0.  1.
</event>
<event>
 5    1  0.1252319E-008  0.3811168E+03  0.7957747E-01  0.3446310E+00
         13   -1    0    0    0    0  0.00000000000E+00  0.00000000000E+00  0.14999999963E+04  0.15000000000E+04  0.10566000000E+00 0.  1.
        994   -1    0    0    0    0 -0.00000000000E+00 -0.00000000000E+00  0.11368683772E-12  0.17120000000E+03  0.17120000000E+03 0.  0.
         13    1    1    2    0    0 -0.19005772843E+02 -0.11590927161E+02  0.70291694689E+02  0.73732642026E+02  0.10566000000E+00 0.  1.
        994    1    1    2    0    0  0.15150418899E+00  0.14332302727E+02  0.42549679767E+01  0.17185162963E+03  0.17120000000E+03 0.  0.
        998    1    1    2    0    0  0.18854268654E+02 -0.27413755663E+01  0.14254533336E+04  0.14256157283E+04  0.10000000000E+02 0.  1.
</event>
<event>
 5    1  0.1252319E-008  0.3831673E+03  0.7957747E-01  0.3437482E+00
         13   -1    0    0    0    0  0.00000000000E+00  0.00000000000E+00  0.14999999963E+04  0.15000000000E+04  0.10566000000E+00 0.  1.
        994   -1    0    0    0    0 -0.00000000000E+00 -0.00000000000E+00  0.11368683772E-12  0.17120000000E+03  0.17120000000E+03 0.  0.
         13    1    1    2    0    0  0.12813133583E+02 -0.73460031140E+01  0.42404213583E+02  0.44902880170E+02  0.10566000000E+00 0.  1.
        994    1    1    2    0    0 -0.10174586652E+02 -0.99133411915E+00  0.28885828312E+01  0.17152926534E+03  0.17120000000E+03 0.  0.
        998    1    1    2    0    0 -0.26385469312E+01  0.83373372331E+01  0.14547071999E+04  0.14547678545E+04  0.10000000000E+02 0.  1.
</event>
<event>
 5    1  0.1252319E-008  0.3685621E+03  0.7957747E-01  0.3502525E+00
         13   -1    0    0    0    0  0.00000000000E+00  0.00000000000E+00  0.14999999963E+04  0.15000000000E+04  0.10566000000E+00 0. -1.
        994   -1    0    0    0    0 -0.00000000000E+00 -0.00000000000E+00  0.11368683772E-12  0.17120000000E+03  0.17120000000E+03 0.  0.
         13    1    1    2    0    0 -0.21056367036E+02  0.10548363339E+02  0.22675256173E+02  0.32692766301E+02  0.10566000000E+00 0. -1.
        994    1    1    2    0    0  0.29827100773E+02 -0.93954383104E+01  0.13428355780E+02  0.17454996689E+03  0.17120000000E+03 0.  0.
        998    1    1    2    0    0 -0.87707337371E+01 -0.11529250288E+01  0.14638963843E+04  0.14639572668E+04  0.10000000000E+02 0. -1.
</event>
<event>
 5    1  0.1252319E-008  0.3851877E+03  0.7957747E-01  0.3428876E+00
         13   -1    0    0    0    0  0.00000000000E+00  0.00000000000E+00  0.14999999963E+04  0.15000000000E+04  0.10566000000E+00 0.  1.
        994   -1    0    0    0    0 -0.00000000000E+00 -0.00000000000E+00  0.11368683772E-12  0.17120000000E+03  0.17120000000E+03 0.  0.
         13    1    1    2    0    0 -0.35752840761E+01 -0.14130302111E+02  0.65761839711E+02  0.67357841564E+02  0.10566000000E+00 0.  1.
        994    1    1    2    0    0 -0.12476073169E+01  0.18480455997E+02  0.26653657532E+01  0.17221970837E+03  0.17120000000E+03 0.  0.
        998    1    1    2    0    0  0.48228913930E+01 -0.43501538861E+01  0.14315727908E+04  0.14316224501E+04  0.10000000000E+02 0.  1.
</event>
<event>
 5    1  0.1252319E-008  0.3837479E+03  0.7957747E-01  0.3435000E+00
         13   -1    0    0    0    0  0.00000000000E+00  0.00000000000E+00  0.14999999963E+04  0.15000000000E+04  0.10566000000E+00 0.  1.
        994   -1    0    0    0    0 -0.00000000000E+00 -0.00000000000E+00  0.11368683772E-12  0.17120000000E+03  0.17120000000E+03 0.  0.
         13    1    1    2    0    0  0.18347098154E+01  0.22428111183E+02  0.12481064333E+03  0.12682308222E+03  0.10566000000E+00 0.  1.
        994    1    1    2    0    0 -0.10708534026E+02  0.99451011907E+00  0.26350796967E+01  0.17155770282E+03  0.17120000000E+03 0.  0.
        998    1    1    2    0    0  0.88738242109E+01 -0.23422621302E+02  0.13725542732E+04  0.13728192150E+04  0.10000000000E+02 0.  1.
</event>
<event>
 5    1  0.1252319E-008  0.3722535E+03  0.7957747E-01  0.3485598E+00
         13   -1    0    0    0    0  0.00000000000E+00  0.00000000000E+00  0.14999999963E+04  0.15000000000E+04  0.10566000000E+00 0. -1.
        994   -1    0    0    0    0 -0.00000000000E+00 -0.00000000000E+00  0.11368683772E-12  0.17120000000E+03  0.17120000000E+03 0.  0.
         13    1    1    2    0    0 -0.22872055592E+02  0.98883679981E+01  0.34103309430E+02  0.42236922553E+02  0.10566000000E+00 0. -1.
        994    1    1    2    0    0  0.24840385257E+02 -0.11755680213E+02  0.10691506923E+02  0.17372100931E+03  0.17120000000E+03 0.  0.
        998    1    1    2    0    0 -0.19683296648E+01  0.18673122152E+01  0.14552051799E+04  0.14552420681E+04  0.10000000000E+02 0. -1.
</event>
<event>
 5    1  0.1252319E-008  0.3808806E+03  0.7957747E-01  0.3447333E+00
         13   -1    0    0    0    0  0.00000000000E+00  0.00000000000E+00  0.14999999963E+04  0.15000000000E+04  0.10566000000E+00 0. -1.
        994   -1    0    0    0    0 -0.00000000000E+00 -0.00000000000E+00  0.11368683772E-12  0.17120000000E+03  0.17120000000E+03 0.  0.
         13    1    1    2    0    0 -0.30520329057E+02 -0.12803524343E+01  0.11972672770E+03  0.12356225264E+03  0.10566000000E+00 0. -1.
        994    1    1    2    0    0  0.26313721137E+02 -0.68665526687E+01  0.61583308257E+01  0.17345583445E+03  0.17120000000E+03 0.  0.
        998    1    1    2    0    0  0.42066079201E+01  0.81469051030E+01  0.13741149378E+04  0.13741819129E+04  0.10000000000E+02 0. -1.
</event>
<event>
 5    1  0.1339319E-008  0.3861973E+03  0.7957747E-01  0.3424610E+00
         13   -1    0    0    0    0  0.00000000000E+00  0.00000000000E+00  0.14999999963E+04  0.15000000000E+04  0.10566000000E+00 0.  1.
        994   -1    0    0    0    0 -0.00000000000E+00 -0.00000000000E+00  0.11368683772E-12  0.17120000000E+03  0.17120000000E+03 0.  0.
         13    1    1    2    0    0 -0.12627981233E+02 -0.31471881534E+01  0.76838671481E+02  0.77933069376E+02  0.10566000000E+00 0.  1.
        994    1    1    2    0    0  0.17337319988E+02  0.28529402705E+01  0.20488857990E+01  0.17211147511E+03  0.17120000000E+03 0.  0.
        998    1    1    2    0    0 -0.47093387552E+01  0.29424788296E+00  0.14211124390E+04  0.14211554555E+04  0.10000000000E+02 0.  1.
</event>
<event>
 5    1  0.1252319E-008  0.2926328E+03  0.7957747E-01  0.3950059E+00
         13   -1    0    0    0    0  0.00000000000E+00  0.00000000000E+00  0.14999999963E+04  0.15000000000E+04  0.10566000000E+00 0. -1.
        994   -1    0    0    0    0 -0.00000000000E+00 -0.00000000000E+00  0.11368683772E-12  0.17120000000E+03  0.17120000000E+03 0.  0.
         13    1    1    2    0    0  0.11849920721E+03 -0.48996914904E+02  0.73982000865E+03  0.75085046190E+03  0.10566000000E+00 0. -1.
        994    1    1    2    0    0 -0.55411644948E+02  0.22409624568E+02  0.26318880199E+02  0.18323418110E+03  0.17120000000E+03 0.  0.
        998    1    1    2    0    0 -0.63087562258E+02  0.26587290335E+02  0.73386110743E+03  0.73711535699E+03  0.10000000000E+02 0.  1.
</event>
<event>
 5    1  0.1252319E-008  0.3716049E+03  0.7957747E-01  0.3488547E+00
         13   -1    0    0    0    0  0.00000000000E+00  0.00000000000E+00  0.14999999963E+04  0.15000000000E+04  0.10566000000E+00 0.  1.
        994   -1    0    0    0    0 -0.00000000000E+00 -0.00000000000E+00  0.11368683772E-12  0.17120000000E+03  0.17120000000E+03 0.  0.
         13    1    1    2    0    0 -0.53549474301E+02 -0.59264116500E+02  0.22421235958E+03  0.23801465302E+03  0.10566000000E+00 0.  1.
        994    1    1    2    0    0  0.93015978795E+02  0.28209430203E+02  0.45791528918E+02  0.20212384418E+03  0.17120000000E+03 0.  0.
        998    1    1    2    0    0 -0.39466504495E+02  0.31054686297E+02  0.12299961078E+04  0.12310615028E+04  0.10000000000E+02 0.  1.
</event>
<event>
 5    1  0.1252319E-008  0.3780302E+03  0.7957747E-01  0.3459781E+00
         13   -1    0    0    0    0  0.00000000000E+00  0.00000000000E+00  0.14999999963E+04  0.15000000000E+04  0.10566000000E+00 0. -1.
        994   -1    0    0    0    0 -0.00000000000E+00 -0.00000000000E+00  0.11368683772E-12  0.17120000000E+03  0.17120000000E+03 0.  0.
         13    1    1    2    0    0 -0.51167960309E+02  0.34815571897E+02  0.31767602632E+03  0.32364850235E+03  0.10566000000E+00 0. -1.
        994    1    1    2    0    0  0.41297231045E+02 -0.34440746402E+02  0.14923091281E+02  0.18006600167E+03  0.17120000000E+03 0.  0.
        998    1    1    2    0    0  0.98707292647E+01 -0.37482549538E+00  0.11674008787E+04  0.11674854960E+04  0.10000000000E+02 0. -1.
</event>
<event>
 5    1  0.1252319E-008  0.3773574E+03  0.7957747E-01  0.3462746E+00
         13   -1    0    0    0    0  0.00000000000E+00  0.00000000000E+00  0.14999999963E+04  0.15000000000E+04  0.10566000000E+00 0. -1.
        994   -1    0    0    0    0 -0.00000000000E+00 -0.00000000000E+00  0.11368683772E-12  0.17120000000E+03  0.17120000000E+03 0.  0.
         13    1    1    2    0    0  0.17797470682E+02 -0.23246608238E+02  0.71996326898E+02  0.77721535034E+02  0.10566000000E+00 0. -1.
        994    1    1    2    0    0 -0.23380641280E+02  0.23825673743E+02  0.92402026821E+01  0.17466865335E+03  0.17120000000E+03 0.  0.
        998    1    1    2    0    0  0.55831705984E+01 -0.57906550549E+00  0.14187634667E+04  0.14188098116E+04  0.10000000000E+02 0. -1.
</event>
<event>
 5    1  0.1252319E-008  0.3819293E+03  0.7957747E-01  0.3442801E+00
         13   -1    0    0    0    0  0.00000000000E+00  0.00000000000E+00  0.14999999963E+04  0.15000000000E+04  0.10566000000E+00 0. -1.
        994   -1    0    0    0    0 -0.00000000000E+00 -0.00000000000E+00  0.11368683772E-12  0.17120000000E+03  0.17120000000E+03 0.  0.
         13    1    1    2    0    0 -0.20701251887E+02  0.71562242565E+00  0.65604633535E+02  0.68797042454E+02  0.10566000000E+00 0. -1.
        994    1    1    2    0    0  0.16770415773E+02 -0.95953089850E+01  0.44034499985E+01  0.17234310886E+03  0.17120000000E+03 0.  0.
        998    1    1    2    0    0  0.39308361144E+01  0.88796865594E+01  0.14299919127E+04  0.14300598487E+04  0.10000000000E+02 0. -1.
</event>
<event>
 5    1  0.1252319E-008  0.3806214E+03  0.7957747E-01  0.3448457E+00
         13   -1    0    0    0    0  0.00000000000E+00  0.00000000000E+00  0.14999999963E+04  0.15000000000E+04  0.10566000000E+00 0.  1.
        994   -1    0    0    0    0 -0.00000000000E+00 -0.00000000000E+00  0.11368683772E-12  0.17120000000E+03  0.17120000000E+03 0.  0.
         13    1    1    2    0    0 -0.34329574248E+02 -0.15110026644E+02  0.18337671461E+03  0.18717335066E+03  0.10566000000E+00 0.  1.
        994    1    1    2    0    0  0.16735349082E+02  0.15273433585E+02  0.55342380398E+01  0.17278141530E+03  0.17120000000E+03 0.  0.
        998    1    1    2    0    0  0.17594225166E+02 -0.16340694126E+00  0.13110890436E+04  0.13112452340E+04  0.10000000000E+02 0.  1.
</event>
<event>
 5    1  0.1252319E-008  0.3755058E+03  0.7957747E-01  0.3470964E+00
         13   -1    0    0    0    0  0.00000000000E+00  0.00000000000E+00  0.14999999963E+04  0.15000000000E+04  0.10566000000E+00 0.  1.
        994   -1    0    0    0    0 -0.00000000000E+00 -0.00000000000E+00  0.11368683772E-12  0.17120000000E+03  0.17120000000E+03 0.  0.
         13    1    1    2    0    0  0.13598028192E+02 -0.80438320602E+00  0.81148151556E+00  0.13646357365E+02  0.10566000000E+00 0.  1.
        994    1    1    2    0    0  0.52578751589E+02  0.17067022518E+02  0.24855094143E+02  0.18161229056E+03  0.17120000000E+03 0.  0.
        998    1    1    2    0    0 -0.66176779780E+02 -0.16262639312E+02  0.14743334206E+04  0.14759413521E+04  0.10000000000E+02 0.  1.
</event>
<event>
 5    1  0.1252319E-008  0.3858804E+03  0.7957747E-01  0.3425947E+00
         13   -1    0    0    0    0  0.00000000000E+00  0.00000000000E+00  0.14999999963E+04  0.15000000000E+04  0.10566000000E+00 0.  1.
        994   -1    0    0    0    0 -0.00000000000E+00 -0.00000000000E+00  0.11368683772E-12  0.17120000000E+03  0.17120000000E+03 0.  0.
         13    1    1    2    0    0 -0.59933112085E+02  0.19219065834E+03  0.11255453098E+04  0.11434078374E+04  0.10566000000E+00 0.  1.
        994    1    1    2    0    0  0.73695354104E+02 -0.20375891411E+03  0.17424078163E+03  0.32652410367E+03  0.17120000000E+03 0.  0.
        998    1    1    2    0    0 -0.13762242020E+02  0.11568255772E+02  0.20021390486E+03  0.20126805894E+03  0.10000000000E+02 0.  1.
</event>
<event>
 5    1  0.1252319E-008  0.3748691E+03  0.7957747E-01  0.3473809E+00
         13   -1    0    0    0    0  0.00000000000E+00  0.00000000000E+00  0.14999999963E+04  0.15000000000E+04  0.10566000000E+00 0.  1.
        994   -1    0    0    0    0 -0.00000000000E+00 -0.00000000000E+00  0.11368683772E-12  0.17120000000E+03  0.17120000000E+03 0.  0.
         13    1    1    2    0    0  0.19396812639E+02 -0.22773974898E+02  0.62904762449E+02  0.69655657172E+02  0.10566000000E+00 0.  1.
        994    1    1    2    0    0 -0.83177768837E+01  0.23445118688E+02  0.88533930203E+01  0.17322436772E+03  0.17120000000E+03 0.  0.
        998    1    1    2    0    0 -0.11079035756E+02 -0.67114379061E+00  0.14282418408E+04  0.14283199751E+04  0.10000000000E+02 0.  1.
</event>
<event>
 5    1  0.1252319E-008  0.3835099E+03  0.7957747E-01  0.3436017E+00
         13   -1    0    0    0    0  0.00000000000E+00  0.00000000000E+00  0.14999999963E+04  0.15000000000E+04  0.10566000000E+00 0.  1.
        994   -1    0    0    0    0 -0.00000000000E+00 -0.00000000000E+00  0.11368683772E-12  0.17120000000E+03  0.17120000000E+03 0.  0.
         13    1    1    2    0    0 -0.46287027871E+01 -0.13471130022E+02  0.44100069379E+02  0.46343538027E+02  0.10566000000E+00 0.  1.
        994    1    1    2    0    0 -0.10656982413E+02  0.29075909950E+01  0.27751140714E+01  0.17157845616E+03  0.17120000000E+03 0.  0.
        998    1    1    2    0    0  0.15285685200E+02  0.10563539027E+02  0.14531248128E+04  0.14532780058E+04  0.10000000000E+02 0.  1.
</event>
<event>
 5    1  0.1252319E-008  0.3841908E+03  0.7957747E-01  0.3433111E+00
         13   -1    0    0    0    0  0.00000000000E+00  0.00000000000E+00  0.14999999963E+04  0.15000000000E+04  0.10566000000E+00 0. -1.
        994   -1    0    0    0    0 -0.00000000000E+00 -0.00000000000E+00  0.11368683772E-12  0.17120000000E+03  0.17120000000E+03 0.  0.
         13    1    1    2    0    0  0.10086013375E+02 -0.42263632807E+01  0.29105031958E+02  0.31091861663E+02  0.10566000000E+00 0. -1.
        994    1    1    2    0    0 -0.47260888667E+01  0.30722289456E+01  0.21372077205E+01  0.17130610661E+03  0.17120000000E+03 0.  0.
        998    1    1    2    0    0 -0.53599245088E+01  0.11541343351E+01  0.14687577566E+04  0.14688020317E+04  0.10000000000E+02 0. -1.
</event>
<event>
 5    1  0.1252319E-008  0.3766582E+03  0.7957747E-01  0.3465840E+00
         13   -1    0    0    0    0  0.00000000000E+00  0.00000000000E+00  0.14999999963E+04  0.15000000000E+04  0.10566000000E+00 0.  1.
        994   -1    0    0    0    0 -0.00000000000E+00 -0.00000000000E+00  0.11368683772E-12  0.17120000000E+03  0.17120000000E+03 0.  0.
         13    1    1    2    0    0 -0.19355788530E+02 -0.42454735070E+01  0.33123757697E+02  0.38598770485E+02  0.10566000000E+00 0.  1.
        994    1    1    2    0    0 -0.77203215996E+01  0.51968550817E+01  0.61225036487E+01  0.17156204627E+03  0.17120000000E+03 0.  0.
        998    1    1    2    0    0  0.27076110130E+02 -0.95138157470E+00  0.14607537349E+04  0.14610391832E+04  0.10000000000E+02 0.  1.
</event>
<event>
 5    1  0.1252319E-008  0.3849678E+03  0.7957747E-01  0.3429809E+00
         13   -1    0    0    0    0  0.00000000000E+00  0.00000000000E+00  0.14999999963E+04  0.15000000000E+04  0.10566000000E+00 0.  1.
        994   -1    0    0    0    0 -0.00000000000E+00 -0.00000000000E+00  0.11368683772E-12  0.17120000000E+03  0.17120000000E+03 0.  0.
         13    1    1    2    0    0  0.43155397455E+01  0.16386386137E+02  0.87877046983E+02  0.89495944513E+02  0.10566000000E+00 0.  1.
        994    1    1    2    0    0 -0.34608033685E+01 -0.93909485366E+01  0.19756346040E+01  0.17150367403E+03  0.17120000000E+03 0.  0.
        998    1    1    2    0    0 -0.85473637706E+00 -0.69954376006E+01  0.14101473147E+04  0.14102003815E+04  0.10000000000E+02 0.  1.
</event>
<event>
 5    1  0.1252319E-008  0.3844063E+03  0.7957747E-01  0.3432194E+00
         13   -1    0    0    0    0  0.00000000000E+00  0.00000000000E+00  0.14999999963E+04  0.15000000000E+04  0.10566000000E+00 0.  1.
        994   -1    0    0    0    0 -0.00000000000E+00 -0.00000000000E+00  0.11368683772E-12  0.17120000000E+03  0.17120000000E+03 0.  0.
         13    1    1    2    0    0  0.86169481031E+01  0.53888534927E+01  0.25962637362E+02  0.27881198672E+02  0.10566000000E+00 0.  1.
        994    1    1    2    0    0 -0.10551806099E+02 -0.31988203131E+01  0.23258928149E+01  0.17157046028E+03  0.17120000000E+03 0.  0.
        998    1    1    2    0    0  0.19348579962E+01 -0.21900331797E+01  0.14717114661E+04  0.14717483410E+04  0.10000000000E+02 0.  1.
</event>
<event>
 5    1  0.1252319E-008  0.3684381E+03  0.7957747E-01  0.3503100E+00
         13   -1    0    0    0    0  0.00000000000E+00  0.00000000000E+00  0.14999999963E+04  0.15000000000E+04  0.10566000000E+00 0. -1.
        994   -1    0    0    0    0 -0.00000000000E+00 -0.00000000000E+00  0.11368683772E-12  0.17120000000E+03  0.17120000000E+03 0.  0.
         13    1    1    2    0    0  0.11824193463E+02 -0.85222422322E+02  0.38283072232E+03  0.39237997647E+03  0.10566000000E+00 0. -1.
        994    1    1    2    0    0  0.43571802879E+02  0.52469115655E+02  0.26467901104E+02  0.18617599172E+03  0.17120000000E+03 0.  0.
        998    1    1    2    0    0 -0.55395996342E+02  0.32753306667E+02  0.10907013729E+04  0.10926440318E+04  0.10000000000E+02 0. -1.
</event>
<event>
 5    1  0.1252319E-008  0.3827387E+03  0.7957747E-01  0.3439319E+00
         13   -1    0    0    0    0  0.00000000000E+00  0.00000000000E+00  0.14999999963E+04  0.15000000000E+04  0.10566000000E+00 0.  1.
        994   -1    0    0    0    0 -0.00000000000E+00 -0.00000000000E+00  0.11368683772E-12  0.17120000000E+03  0.17120000000E+03 0.  0.
         13    1    1    2    0    0 -0.32609793313E+02  0.10985577603E+02  0.18733347759E+03  0.19046764692E+03  0.10566000000E+00 0.  1.
        994    1    1    2    0    0  0.36647154850E+02 -0.40055917676E+01  0.72725512480E+01  0.17527518000E+03  0.17120000000E+03 0.  0.
        998    1    1    2    0    0 -0.40373615374E+01 -0.69799858351E+01  0.13053939674E+04  0.13054571731E+04  0.10000000000E+02 0.  1.
</event>
<event>
 5    1  0.1252319E-008  0.3774172E+03  0.7957747E-01  0.3462482E+00
         13   -1    0    0    0    0  0.00000000000E+00  0.00000000000E+00  0.14999999963E+04  0.15000000000E+04  0.10566000000E+00 0. -1.
        994   -1    0    0    0    0 -0.00000000000E+00 -0.00000000000E+00  0.11368683772E-12  0.17120000000E+03  0.17120000000E+03 0.  0.
         13    1    1    2    0    0  0.38088206549E+01  0.20322826143E+02  0.36238796621E+02  0.41722726682E+02  0.10566000000E+00 0. -1.
        994    1    1    2    0    0 -0.59117568590E+01 -0.20943847065E+02  0.70410930952E+01  0.17272119323E+03  0.17120000000E+03 0.  0.
        998    1    1    2    0    0  0.21029362041E+01  0.62102092219E+00  0.14567201066E+04  0.14567560801E+04  0.10000000000E+02 0. -1.
</event>
<event>
 5    1  0.1252319E-008  0.3844320E+03  0.7957747E-01  0.3432085E+00
         13   -1    0    0    0    0  0.00000000000E+00  0.00000000000E+00  0.14999999963E+04  0.15000000000E+04  0.10566000000E+00 0. -1.
        994   -1    0    0    0    0 -0.00000000000E+00 -0.00000000000E+00  0.11368683772E-12  0.17120000000E+03  0.17120000000E+03 0.  0.
         13    1    1    2    0    0  0.72249306080E+00  0.11238989556E+02  0.32983780837E+02  0.34853663291E+02  0.10566000000E+00 0. -1.
        994    1    1    2    0    0  0.42919373694E+02 -0.96698121249E+01  0.83157863189E+01  0.17695810297E+03  0.17120000000E+03 0.  0.
        998    1    1    2    0    0 -0.43641866754E+02 -0.15691774312E+01  0.14587004291E+04  0.14593882337E+04  0.10000000000E+02 0. -1.
</event>
<event>
 5    1  0.1252319E-008  0.3706908E+03  0.7957747E-01  0.3492722E+00
         13   -1    0    0    0    0  0.00000000000E+00  0.00000000000E+00  0.14999999963E+04  0.15000000000E+04  0.10566000000E+00 0. -1.
        994   -1    0    0    0    0 -0.00000000000E+00 -0.00000000000E+00  0.11368683772E-12  0.17120000000E+03  0.17120000000E+03 0.  0.
         13    1    1    2    0    0  0.10387657463E+02 -0.40917528426E+02  0.93541708466E+02  0.10262655576E+03  0.10566000000E+00 0. -1.
        994    1    1    2    0    0  0.17445769788E+02  0.41607633644E+02  0.15962839572E+02  0.17776333229E+03  0.17120000000E+03 0.  0.
        998    1    1    2    0    0 -0.27833427251E+02 -0.69010521858E+00  0.13904954482E+04  0.13908101119E+04  0.10000000000E+02 0. -1.
</event>
<event>
 5    1  0.1252319E-008  0.3852921E+03  0.7957747E-01  0.3428434E+00
         13   -1    0    0    0    0  0.00000000000E+00  0.00000000000E+00  0.14999999963E+04  0.15000000000E+04  0.10566000000E+00 0. -1.
        994   -1    0    0    0    0 -0.00000000000E+00 -0.00000000000E+00  0.11368683772E-12  0.17120000000E+03  0.17120000000E+03 0.  0.
         13    1    1    2    0    0 -0.42875537801E+01  0.10929730108E+02  0.43061131167E+02  0.44633107657E+02  0.10566000000E+00 0. -1.
        994    1    1    2    0    0  0.23230647821E+01 -0.22862014971E+02  0.32220825829E+01  0.17276541950E+03  0.17120000000E+03 0.  0.
        998    1    1    2    0    0  0.19644889980E+01  0.11932284862E+02  0.14537167825E+04  0.14538014728E+04  0.10000000000E+02 0. -1.
</event>
<event>
 5    1  0.1252319E-008  0.3716178E+03  0.7957747E-01  0.3488489E+00
         13   -1    0    0    0    0  0.00000000000E+00  0.00000000000E+00  0.14999999963E+04  0.15000000000E+04  0.10566000000E+00 0.  1.
        994   -1    0    0    0    0 -0.00000000000E+00 -0.00000000000E+00  0.11368683772E-12  0.17120000000E+03  0.17120000000E+03 0.  0.
         13    1    1    2    0    0 -0.29453629702E+02  0.47842686731E+01  0.51993646490E+02  0.59947943824E+02  0.10566000000E+00 0.  1.
        994    1    1    2    0    0  0.47156492066E+01  0.51500024300E+01  0.85935736056E+01  0.17155771443E+03  0.17120000000E+03 0.  0.
        998    1    1    2    0    0  0.24737980496E+02 -0.99342711031E+01  0.14394127762E+04  0.14396943417E+04  0.10000000000E+02 0.  1.
</event>
<event>
 5    1  0.1252319E-008  0.3857076E+03  0.7957747E-01  0.3426677E+00
         13   -1    0    0    0    0  0.00000000000E+00  0.00000000000E+00  0.14999999963E+04  0.15000000000E+04  0.10566000000E+00 0. -1.
        994   -1    0    0    0    0 -0.00000000000E+00 -0.00000000000E+00  0.11368683772E-12  0.17120000000E+03  0.17120000000E+03 0.  0.
         13    1    1    2    0    0  0.84273575062E+01 -0.59056611361E+01  0.43801113492E+02  0.44993842858E+02  0.10566000000E+00 0. -1.
        994    1    1    2    0    0  0.54996391393E+01  0.52505465689E+01  0.14689687676E+01  0.17137506277E+03  0.17120000000E+03 0.  0.
        998    1    1    2    0    0 -0.13926996645E+02  0.65511456711E+00  0.14547299140E+04  0.14548310944E+04  0.10000000000E+02 0. -1.
</event>
<event>
 5    1  0.1252319E-008  0.3849707E+03  0.7957747E-01  0.3429796E+00
         13   -1    0    0    0    0  0.00000000000E+00  0.00000000000E+00  0.14999999963E+04  0.15000000000E+04  0.10566000000E+00 0.  1.
        994   -1    0    0    0    0 -0.00000000000E+00 -0.00000000000E+00  0.11368683772E-12  0.17120000000E+03  0.17120000000E+03 0.  0.
         13    1    1    2    0    0 -0.20780725438E+02 -0.13988000285E+01  0.12185457843E+03  0.12362178060E+03  0.10566000000E+00 0.  1.
        994    1    1    2    0    0  0.22046787045E+02  0.46246665835E+01  0.33154331909E+01  0.17270749971E+03  0.17120000000E+03 0.  0.
        998    1    1    2    0    0 -0.12660616065E+01 -0.32258665550E+01  0.13748299847E+04  0.13748707197E+04  0.10000000000E+02 0.  1.
</event>
<event>
 5    1  0.1252319E-008  0.3840616E+03  0.7957747E-01  0.3433662E+00
         13   -1    0    0    0    0  0.00000000000E+00  0.00000000000E+00  0.14999999963E+04  0.15000000000E+04  0.10566000000E+00 0. -1.
        994   -1    0    0    0    0 -0.00000000000E+00 -0.00000000000E+00  0.11368683772E-12  0.17120000000E+03  0.17120000000E+03 0.  0.
         13    1    1    2    0    0 -0.17786626907E+02  0.11302760106E+02  0.11040228406E+03  0.11239569374E+03  0.10566000000E+00 0. -1.
        994    1    1    2    0    0 -0.60390899598E+01 -0.24193218348E+02  0.41504993587E+01  0.17305620205E+03  0.17120000000E+03 0.  0.
        998    1    1    2    0    0  0.23825716866E+02  0.12890458243E+02  0.13854472129E+04  0.13857481042E+04  0.10000000000E+02 0. -1.
</event>
<event>
 5    1  0.1252319E-008  0.3794512E+03  0.7957747E-01  0.3453551E+00
         13   -1    0    0    0    0  0.00000000000E+00  0.00000000000E+00  0.14999999963E+04  0.15000000000E+04  0.10566000000E+00 0.  1.
        994   -1    0    0    0    0 -0.00000000000E+00 -0.00000000000E+00  0.11368683772E-12  0.17120000000E+03  0.17120000000E+03 0.  0.
         13    1    1    2    0    0 -0.15852299445E+02 -0.78043275154E+01  0.32987026522E+02  0.37421357651E+02  0.10566000000E+00 0.  1.
        994    1    1    2    0    0  0.20226471107E+02  0.34307970344E+00  0.57821125177E+01  0.17248797251E+03  0.17120000000E+03 0.  0.
        998    1    1    2    0    0 -0.43741716620E+01  0.74612478120E+01  0.14612308572E+04  0.14612906698E+04  0.10000000000E+02 0.  1.
</event>
<event>
 5    1  0.1252319E-008  0.3737234E+03  0.7957747E-01  0.3478952E+00
         13   -1    0    0    0    0  0.00000000000E+00  0.00000000000E+00  0.14999999963E+04  0.15000000000E+04  0.10566000000E+00 0. -1.
        994   -1    0    0    0    0 -0.00000000000E+00 -0.00000000000E+00  0.11368683772E-12  0.17120000000E+03  0.17120000000E+03 0.  0.
         13    1    1    2    0    0 -0.21457292227E+02  0.72115316177E+02  0.29508032795E+03  0.30452166643E+03  0.10566000000E+00 0. -1.
        994    1    1    2    0    0 -0.18266937378E+02 -0.92206302254E+02  0.38127605513E+02  0.19899456646E+03  0.17120000000E+03 0.  0.
        998    1    1    2    0    0  0.39724229605E+02  0.20090986077E+02  0.11667920628E+04  0.11676837671E+04  0.10000000000E+02 0. -1.
</event>
<event>
 5    1  0.1252319E-008  0.3836571E+03  0.7957747E-01  0.3435388E+00
         13   -1    0    0    0    0  0.00000000000E+00  0.00000000000E+00  0.14999999963E+04  0.15000000000E+04  0.10566000000E+00 0. -1.
        994   -1    0    0    0    0 -0.00000000000E+00 -0.00000000000E+00  0.11368683772E-12  0.17120000000E+03  0.17120000000E+03 0.  0.
         13    1    1    2    0    0 -0.23868289491E+02 -0.17214365991E+02  0.17803491242E+03  0.18045074354E+03  0.10566000000E+00 0. -1.
        994    1    1    2    0    0  0.15406867177E+02  0.18697064912E+02  0.42394672359E+01  0.17295769678E+03  0.17120000000E+03 0.  0.
        998    1    1    2    0    0  0.84614223138E+01 -0.14826989205E+01  0.13177256166E+04  0.13177915597E+04  0.10000000000E+02 0. -1.
</event>
<event>
 5    1  0.1252319E-008  0.3720630E+03  0.7957747E-01  0.3486463E+00
         13   -1    0    0    0    0  0.00000000000E+00  0.00000000000E+00  0.14999999963E+04  0.15000000000E+04  0.10566000000E+00 0. -1.
        994   -1    0    0    0    0 -0.00000000000E+00 -0.00000000000E+00  0.11368683772E-12  0.17120000000E+03  0.17120000000E+03 0.  0.
         13    1    1    2    0    0  0.10768930047E+02  0.15003017222E+02  0.16819901148E+02  0.24979604055E+02  0.10566000000E+00 0. -1.
        994    1    1    2    0    0 -0.72744668350E+01 -0.24468364159E+02  0.10435102136E+02  0.17340689164E+03  0.17120000000E+03 0.  0.
        998    1    1    2    0    0 -0.34944632116E+01  0.94653469377E+01  0.14727449930E+04  0.14728135043E+04  0.10000000000E+02 0. -1.
</event>
<event>
 5    1  0.1252319E-008  0.3829039E+03  0.7957747E-01  0.3438611E+00
         13   -1    0    0    0    0  0.00000000000E+00  0.00000000000E+00  0.14999999963E+04  0.15000000000E+04  0.10566000000E+00 0. -1.
        994   -1    0    0    0    0 -0.00000000000E+00 -0.00000000000E+00  0.11368683772E-12  0.17120000000E+03  0.17120000000E+03 0.  0.
         13    1    1    2    0    0  0.24686991846E+02 -0.46839833074E+01  0.11179321606E+03  0.11458237904E+03  0.10566000000E+00 0. -1.
        994    1    1    2    0    0 -0.22593880997E+02  0.23779517840E+01  0.43852967878E+01  0.17275650188E+03  0.17120000000E+03 0.  0.
        998    1    1    2    0    0 -0.20931108486E+01  0.23060315234E+01  0.13838214834E+04  0.13838611191E+04  0.10000000000E+02 0. -1.
</event>
<event>
 5    1  0.1252319E-008  0.3850438E+03  0.7957747E-01  0.3429486E+00
         13   -1    0    0    0    0  0.00000000000E+00  0.00000000000E+00  0.14999999963E+04  0.15000000000E+04  0.10566000000E+00 0.  1.
        994   -1    0    0    0    0 -0.00000000000E+00 -0.00000000000E+00  0.11368683772E-12  0.17120000000E+03  0.17120000000E+03 0.  0.
         13    1    1    2    0    0  0.10849615330E+02 -0.38598533791E+01  0.42809853540E+02  0.44331787072E+02  0.10566000000E+00 0.  1.
        994    1    1    2    0    0 -0.18514676004E+01 -0.47561769885E+01  0.16940343749E+01  0.17128443859E+03  0.17120000000E+03 0.  0.
        998    1    1    2    0    0 -0.89981477291E+01  0.86160303677E+01  0.14554961084E+04  0.14555837743E+04  0.10000000000E+02 0.  1.
</event>
<event>
 5    1  0.1252319E-008  0.3691010E+03  0.7957747E-01  0.3500033E+00
         13   -1    0    0    0    0  0.00000000000E+00  0.00000000000E+00  0.14999999963E+04  0.15000000000E+04  0.10566000000E+00 0. -1.
        994   -1    0    0    0    0 -0.00000000000E+00 -0.00000000000E+00  0.11368683772E-12  0.17120000000E+03  0.17120000000E+03 0.  0.
         13    1    1    2    0    0 -0.43986982765E+01 -0.11724424566E+02  0.26224235188E+01  0.12794488934E+02  0.10566000000E+00 0. -1.
        994    1    1    2    0    0  0.50954476889E+01  0.12051990562E+02  0.11061132512E+02  0.17205523159E+03  0.17120000000E+03 0.  0.
        998    1    1    2    0    0 -0.69674941239E+00 -0.32756599644E+00  0.14863164402E+04  0.14863502795E+04  0.10000000000E+02 0. -1.
</event>
<event>
 5    1  0.1252319E-008  0.3851612E+03  0.7957747E-01  0.3428989E+00
         13   -1    0    0    0    0  0.00000000000E+00  0.00000000000E+00  0.14999999963E+04  0.15000000000E+04  0.10566000000E+00 0. -1.
        994   -1    0    0    0    0 -0.00000000000E+00 -0.00000000000E+00  0.11368683772E-12  0.17120000000E+03  0.17120000000E+03 0.  0.
         13    1    1    2    0    0  0.10579320256E+02  0.13651417329E+02  0.97675842635E+02  0.99191051061E+02  0.10566000000E+00 0. -1.
        994    1    1    2    0    0 -0.92465824005E+01 -0.47821898808E+01  0.19064265515E+01  0.17152679991E+03  0.17120000000E+03 0.  0.
        998    1    1    2    0    0 -0.13327378557E+01 -0.88692274482E+01  0.14004177271E+04  0.14004821490E+04  0.10000000000E+02 0. -1.
</event>
<event>
 5    1  0.1252319E-008  0.3812752E+03  0.7957747E-01  0.3445625E+00
         13   -1    0    0    0    0  0.00000000000E+00  0.00000000000E+00  0.14999999963E+04  0.15000000000E+04  0.10566000000E+00 0. -1.
        994   -1    0    0    0    0 -0.00000000000E+00 -0.00000000000E+00  0.11368683772E-12  0.17120000000E+03  0.17120000000E+03 0.  0.
         13    1    1    2    0    0  0.18146638739E+02  0.10278784025E+02  0.62525242412E+02  0.65911842648E+02  0.10566000000E+00 0. -1.
        994    1    1    2    0    0 -0.75210521148E+01 -0.32404785211E+01  0.37141138981E+01  0.17143599846E+03  0.17120000000E+03 0.  0.
        998    1    1    2    0    0 -0.10625586624E+02 -0.70383055042E+01  0.14337606400E+04  0.14338521589E+04  0.10000000000E+02 0. -1.
</event>
<event>
 5    1  0.1252319E-008  0.3808749E+03  0.7957747E-01  0.3447358E+00
         13   -1    0    0    0    0  0.00000000000E+00  0.00000000000E+00  0.14999999963E+04  0.15000000000E+04  0.10566000000E+00 0. -1.
        994   -1    0    0    0    0 -0.00000000000E+00 -0.00000000000E+00  0.11368683772E-12  0.17120000000E+03  0.17120000000E+03 0.  0.
         13    1    1    2    0    0  0.98516301425E+01 -0.26232362710E+02  0.10600237826E+03  0.10964354441E+03  0.10566000000E+00 0. -1.
        994    1    1    2    0    0 -0.13424794358E+02  0.11539026030E+02  0.47374257964E+01  0.17217798183E+03  0.17120000000E+03 0.  0.
        998    1    1    2    0    0  0.35731642160E+01  0.14693336680E+02  0.13892601922E+04  0.13893784738E+04  0.10000000000E+02 0. -1.
</event>
<event>
 5    1  0.3491887E-008  0.3865181E+03  0.7957747E-01  0.3423259E+00
         13   -1    0    0    0    0  0.00000000000E+00  0.00000000000E+00  0.14999999963E+04  0.15000000000E+04  0.10566000000E+00 0. -1.
        994   -1    0    0    0    0 -0.00000000000E+00 -0.00000000000E+00  0.11368683772E-12  0.17120000000E+03  0.17120000000E+03 0.  0.
         13    1    1    2    0    0  0.98389594074E+01 -0.29459378843E+01  0.61295906317E+02  0.62150486462E+02  0.10566000000E+00 0. -1.
        994    1    1    2    0    0 -0.66820544162E+01  0.23985546760E+01  0.10432422923E+01  0.17135031739E+03  0.17120000000E+03 0.  0.
        998    1    1    2    0    0 -0.31569049912E+01  0.54738320836E+00  0.14376608477E+04  0.14376991961E+04  0.10000000000E+02 0. -1.
</event>
<event>
 5    1  0.1252319E-008  0.3864918E+03  0.7957747E-01  0.3423370E+00
         13   -1    0    0    0    0  0.00000000000E+00  0.00000000000E+00  0.14999999963E+04  0.15000000000E+04  0.10566000000E+00 0.  1.
        994   -1    0    0    0    0 -0.00000000000E+00 -0.00000000000E+00  0.11368683772E-12  0.17120000000E+03  0.17120000000E+03 0.  0.
         13    1    1    2    0    0  0.31271073621E+01 -0.22019571613E+02  0.35176154121E+01  0.22517218227E+02  0.10566000000E+00 0.  1.
        994    1    1    2    0    0  0.71742601390E+01  0.26864671458E+02  0.22815047209E+02  0.17493755160E+03  0.17120000000E+03 0.  0.
        998    1    1    2    0    0 -0.10301367501E+02 -0.48450998455E+01  0.14736673337E+04  0.14737452302E+04  0.10000000000E+02 0.  1.
</event>
<event>
 5    1  0.1252319E-008  0.3785789E+03  0.7957747E-01  0.3457370E+00
         13   -1    0    0    0    0  0.00000000000E+00  0.00000000000E+00  0.14999999963E+04  0.15000000000E+04  0.10566000000E+00 0.  1.
        994   -1    0    0    0    0 -0.00000000000E+00 -0.00000000000E+00  0.11368683772E-12  0.17120000000E+03  0.17120000000E+03 0.  0.
         13    1    1    2    0    0  0.19040399618E+02 -0.42967546425E+02  0.16861107516E+03  0.17503843205E+03  0.10566000000E+00 0.  1.
        994    1    1    2    0    0 -0.49720379605E+02  0.61225423698E+02  0.26038001073E+02  0.19028422466E+03  0.17120000000E+03 0.  0.
        998    1    1    2    0    0  0.30679979986E+02 -0.18257877273E+02  0.13053509200E+04  0.13058773433E+04  0.10000000000E+02 0.  1.
</event>
<event>
 5    1  0.1252319E-008  0.3855286E+03  0.7957747E-01  0.3427433E+00
         13   -1    0    0    0    0  0.00000000000E+00  0.00000000000E+00  0.14999999963E+04  0.15000000000E+04  0.10566000000E+00 0.  1.
        994   -1    0    0    0    0 -0.00000000000E+00 -0.00000000000E+00  0.11368683772E-12  0.17120000000E+03  0.17120000000E+03 0.  0.
         13    1    1    2    0    0  0.11342884366E+02  0.84990925014E+00  0.45935749134E+02  0.47323224573E+02  0.10566000000E+00 0.  1.
        994    1    1    2    0    0 -0.13181752212E+02 -0.43341491128E+01  0.20003110843E+01  0.17177306158E+03  0.17120000000E+03 0.  0.
        998    1    1    2    0    0  0.18388678457E+01  0.34842398626E+01  0.14520639361E+04  0.14521037138E+04  0.10000000000E+02 0.  1.
</event>
<event>
 5    1  0.1252319E-008  0.3763539E+03  0.7957747E-01  0.3467190E+00
         13   -1    0    0    0    0  0.00000000000E+00  0.00000000000E+00  0.14999999963E+04  0.15000000000E+04  0.10566000000E+00 0.  1.
        994   -1    0    0    0    0 -0.00000000000E+00 -0.00000000000E+00  0.11368683772E-12  0.17120000000E+03  0.17120000000E+03 0.  0.
         13    1    1    2    0    0 -0.52726142332E+02  0.31921938489E+02  0.27004527235E+03  0.27699010186E+03  0.10566000000E+00 0.  1.
        994    1    1    2    0    0  0.34020884548E+02 -0.55349338526E+02  0.20403999081E+02  0.18424639220E+03  0.17120000000E+03 0.  0.
        998    1    1    2    0    0  0.18705257784E+02  0.23427400037E+02  0.12095507248E+04  0.12099635059E+04  0.10000000000E+02 0.  1.
</event>
<event>
 5    1  0.1252319E-008  0.3848517E+03  0.7957747E-01  0.3430301E+00
         13   -1    0    0    0    0  0.00000000000E+00  0.00000000000E+00  0.14999999963E+04  0.15000000000E+04  0.10566000000E+00 0.  1.
        994   -1    0    0    0    0 -0.00000000000E+00 -0.00000000000E+00  0.11368683772E-12  0.17120000000E+03  0.17120000000E+03 0.  0.
         13    1    1    2    0    0  0.24309362272E+01 -0.13036936309E+02  0.50670351148E+02  0.52377159228E+02  0.10566000000E+00 0.  1.
        994    1    1    2    0    0 -0.12337559311E+01  0.11757657171E+02  0.21637611690E+01  0.17162134634E+03  0.17120000000E+03 0.  0.
        998    1    1    2    0    0 -0.11971802961E+01  0.12792791373E+01  0.14471658840E+04  0.14472014944E+04  0.10000000000E+02 0.  1.
</event>
<event>
 5    1  0.1252319E-008  0.3975270E+03  0.7957747E-01  0.3378221E+00
         13   -1    0    0    0    0  0.00000000000E+00  0.00000000000E+00  0.14999999963E+04  0.15000000000E+04  0.10566000000E+00 0. -1.
        994   -1    0    0    0    0 -0.00000000000E+00 -0.00000000000E+00  0.11368683772E-12  0.17120000000E+03  0.17120000000E+03 0.  0.
         13    1    1    2    0    0 -0.44750544523E+02 -0.18259687481E+02  0.36217701540E+02  0.60396692715E+02  0.10566000000E+00 0. -1.
        994    1    1    2    0    0  0.34010665845E+02 -0.35551119311E+02  0.35748949552E+02  0.18168113515E+03  0.17120000000E+03 0.  0.
        998    1    1    2    0    0  0.10739878678E+02  0.53810806793E+02  0.14280333452E+04  0.14291221721E+04  0.10000000000E+02 0. -1.
</event>
<event>
 5    1  0.1252319E-008  0.3780859E+03  0.7957747E-01  0.3459536E+00
         13   -1    0    0    0    0  0.00000000000E+00  0.00000000000E+00  0.14999999963E+04  0.15000000000E+04  0.10566000000E+00 0. -1.
        994   -1    0    0    0    0 -0.00000000000E+00 -0.00000000000E+00  0.11368683772E-12  0.17120000000E+03  0.17120000000E+03 0.  0.
         13    1    1    2    0    0 -0.44725458539E+02  0.23828162911E+02  0.28630098184E+03  0.29075145977E+03  0.10566000000E+00 0. -1.
        994    1    1    2    0    0  0.30094793241E+02  0.24347071954E+02  0.10160292754E+02  0.17581566495E+03  0.17120000000E+03 0.  0.
        998    1    1    2    0    0  0.14630665298E+02 -0.48175234865E+02  0.12035387217E+04  0.12046328753E+04  0.10000000000E+02 0. -1.
</event>
<event>
 5    1  0.1252319E-008  0.3856892E+03  0.7957747E-01  0.3426754E+00
         13   -1    0    0    0    0  0.00000000000E+00  0.00000000000E+00  0.14999999963E+04  0.15000000000E+04  0.10566000000E+00 0. -1.
        994   -1    0    0    0    0 -0.00000000000E+00 -0.00000000000E+00  0.11368683772E-12  0.17120000000E+03  0.17120000000E+03 0.  0.
         13    1    1    2    0    0  0.65299801052E+01 -0.96224784132E+01  0.62235837228E+02  0.63313058136E+02  0.10566000000E+00 0. -1.
        994    1    1    2    0    0 -0.14394241981E+01 -0.18887011139E+02  0.24665302001E+01  0.17226234325E+03  0.17120000000E+03 0.  0.
        998    1    1    2    0    0 -0.50905559071E+01  0.28509489552E+02  0.14352976289E+04  0.14356245986E+04  0.10000000000E+02 0. -1.
</event>
<event>
 5    1  0.1252319E-008  0.3755599E+03  0.7957747E-01  0.3470722E+00
         13   -1    0    0    0    0  0.00000000000E+00  0.00000000000E+00  0.14999999963E+04  0.15000000000E+04  0.10566000000E+00 0.  1.
        994   -1    0    0    0    0 -0.00000000000E+00 -0.00000000000E+00  0.11368683772E-12  0.17120000000E+03  0.17120000000E+03 0.  0.
         13    1    1    2    0    0  0.36227675490E+01 -0.96561432888E+01  0.53168806902E+01  0.11603703385E+02  0.10566000000E+00 0.  1.
        994    1    1    2    0    0 -0.40924903740E+01  0.11145781903E+02  0.68699360988E+01  0.17174869127E+03  0.17120000000E+03 0.  0.
        998    1    1    2    0    0  0.46972282494E+00 -0.14896386142E+01  0.14878131795E+04  0.14878476053E+04  0.10000000000E+02 0.  1.
</event>
<event>
 5    1  0.1252319E-008  0.3697009E+03  0.7957747E-01  0.3497266E+00
         13   -1    0    0    0    0  0.00000000000E+00  0.00000000000E+00  0.14999999963E+04  0.15000000000E+04  0.10566000000E+00 0. -1.
        994   -1    0    0    0    0 -0.00000000000E+00 -0.00000000000E+00  0.11368683772E-12  0.17120000000E+03  0.17120000000E+03 0.  0.
         13    1    1    2    0    0  0.82256488997E+01  0.11422330713E+03  0.50162107143E+03  0.51452729340E+03  0.10566000000E+00 0. -1.
        994    1    1    2    0    0  0.43578520830E+02 -0.96222748750E+02  0.50832775095E+02  0.20748811021E+03  0.17120000000E+03 0.  0.
        998    1    1    2    0    0 -0.51804169729E+02 -0.18000558379E+02  0.94754614976E+03  0.94918459639E+03  0.10000000000E+02 0. -1.
</event>
<event>
 5    1  0.1252319E-008  0.3841779E+03  0.7957747E-01  0.3433166E+00
         13   -1    0    0    0    0  0.00000000000E+00  0.00000000000E+00  0.14999999963E+04  0.15000000000E+04  0.10566000000E+00 0.  1.
        994   -1    0    0    0    0 -0.00000000000E+00 -0.00000000000E+00  0.11368683772E-12  0.17120000000E+03  0.17120000000E+03 0.  0.
         13    1    1    2    0    0  0.81521589192E+01  0.26984827842E+02  0.16674369088E+03  0.16910975206E+03  0.10566000000E+00 0.  1.
        994    1    1    2    0    0 -0.18082128763E+00 -0.35580094403E+02  0.62245378240E+01  0.17496902779E+03  0.17120000000E+03 0.  0.
        998    1    1    2    0    0 -0.79713376316E+01  0.85952665613E+01  0.13270317676E+04  0.13271212201E+04  0.10000000000E+02 0.  1.
</event>
<event>
 5    1  0.1252319E-008  0.3743107E+03  0.7957747E-01  0.3476311E+00
         13   -1    0    0    0    0  0.00000000000E+00  0.00000000000E+00  0.14999999963E+04  0.15000000000E+04  0.10566000000E+00 0.  1.
        994   -1    0    0    0    0 -0.00000000000E+00 -0.00000000000E+00  0.11368683772E-12  0.17120000000E+03  0.17120000000E+03 0.  0.
         13    1    1    2    0    0 -0.87723139052E+01  0.16457927497E+02  0.21477226221E+02  0.28444670484E+02  0.10566000000E+00 0.  1.
        994    1    1    2    0    0  0.90041819755E+01 -0.15570721050E+02  0.81361729151E+01  0.17233444217E+03  0.17120000000E+03 0.  0.
        998    1    1    2    0    0 -0.23186807035E+00 -0.88720644762E+00  0.14703865971E+04  0.14704208873E+04  0.10000000000E+02 0.  1.
</event>
<event>
 5    1  0.1252319E-008  0.3831221E+03  0.7957747E-01  0.3437676E+00
         13   -1    0    0    0    0  0.00000000000E+00  0.00000000000E+00  0.14999999963E+04  0.15000000000E+04  0.10566000000E+00 0.  1.
        994   -1    0    0    0    0 -0.00000000000E+00 -0.00000000000E+00  0.11368683772E-12  0.17120000000E+03  0.17120000000E+03 0.  0.
         13    1    1    2    0    0 -0.15692223070E+02  0.25101353612E+01  0.47381249051E+02  0.49975399649E+02  0.10566000000E+00 0.  1.
        994    1    1    2    0    0  0.15030580845E+02 -0.48345984575E+01  0.33906232570E+01  0.17195996054E+03  0.17120000000E+03 0.  0.
        998    1    1    2    0    0  0.66164222507E+00  0.23244630963E+01  0.14492281240E+04  0.14492646398E+04  0.10000000000E+02 0.  1.
</event>
<event>
 5    1  0.1252319E-008  0.3698442E+03  0.7957747E-01  0.3496607E+00
         13   -1    0    0    0    0  0.00000000000E+00  0.00000000000E+00  0.14999999963E+04  0.15000000000E+04  0.10566000000E+00 0. -1.
        994   -1    0    0    0    0 -0.00000000000E+00 -0.00000000000E+00  0.11368683772E-12  0.17120000000E+03  0.17120000000E+03 0.  0.
         13    1    1    2    0    0 -0.26086907949E+02 -0.18227114329E+03  0.69334990998E+03  0.71738232853E+03  0.10566000000E+00 0. -1.
        994    1    1    2    0    0  0.32867652640E+02  0.19341350660E+03  0.15719065336E+03  0.30415030598E+03  0.17120000000E+03 0.  0.
        998    1    1    2    0    0 -0.67807446909E+01 -0.11142363307E+02  0.64945943293E+03  0.64966736549E+03  0.10000000000E+02 0.  0.
</event>
<event>
 5    1  0.1252319E-008  0.3785663E+03  0.7957747E-01  0.3457425E+00
         13   -1    0    0    0    0  0.00000000000E+00  0.00000000000E+00  0.14999999963E+04  0.15000000000E+04  0.10566000000E+00 0.  1.
        994   -1    0    0    0    0 -0.00000000000E+00 -0.00000000000E+00  0.11368683772E-12  0.17120000000E+03  0.17120000000E+03 0.  0.
         13    1    1    2    0    0  0.78601469028E+01  0.14140019367E+02  0.25732523643E+02  0.30395657487E+02  0.10566000000E+00 0.  1.
        994    1    1    2    0    0  0.11232774988E+02 -0.58214018123E+01  0.53964414202E+01  0.17175163910E+03  0.17120000000E+03 0.  0.
        998    1    1    2    0    0 -0.19092921890E+02 -0.83186175543E+01  0.14688710312E+04  0.14690527034E+04  0.10000000000E+02 0.  1.
</event>
<event>
 5    1  0.1252319E-008  0.3818615E+03  0.7957747E-01  0.3443093E+00
         13   -1    0    0    0    0  0.00000000000E+00  0.00000000000E+00  0.14999999963E+04  0.15000000000E+04  0.10566000000E+00 0. -1.
        994   -1    0    0    0    0 -0.00000000000E+00 -0.00000000000E+00  0.11368683772E-12  0.17120000000E+03  0.17120000000E+03 0.  0.
         13    1    1    2    0    0 -0.50667775952E+01 -0.15230141057E+02  0.38588932758E+02  0.41794094407E+02  0.10566000000E+00 0. -1.
        994    1    1    2    0    0  0.16158207522E+02  0.10142616198E+02  0.44066140625E+01  0.17231604273E+03  0.17120000000E+03 0.  0.
        998    1    1    2    0    0 -0.11091429927E+02  0.50875248593E+01  0.14570044495E+04  0.14570898629E+04  0.10000000000E+02 0. -1.
</event>
<event>
 5    1  0.1252319E-008  0.3694749E+03  0.7957747E-01  0.3498308E+00
         13   -1    0    0    0    0  0.00000000000E+00  0.00000000000E+00  0.14999999963E+04  0.15000000000E+04  0.10566000000E+00 0. -1.
        994   -1    0    0    0    0 -0.00000000000E+00 -0.00000000000E+00  0.11368683772E-12  0.17120000000E+03  0.17120000000E+03 0.  0.
         13    1    1    2    0    0  0.32534401909E+02  0.97596154612E+01  0.50103962653E+02  0.60532269403E+02  0.10566000000E+00 0. -1.
        994    1    1    2    0    0 -0.15472462783E+02 -0.25807091468E+02  0.13827398885E+02  0.17437327787E+03  0.17120000000E+03 0.  0.
        998    1    1    2    0    0 -0.17061939126E+02  0.16047476007E+02  0.14360686347E+04  0.14362944527E+04  0.10000000000E+02 0. -1.
</event>
<event>
 5    1  0.1252319E-008  0.3784551E+03  0.7957747E-01  0.3457913E+00
         13   -1    0    0    0    0  0.00000000000E+00  0.00000000000E+00  0.14999999963E+04  0.15000000000E+04  0.10566000000E+00 0.  1.
        994   -1    0    0    0    0 -0.00000000000E+00 -0.00000000000E+00  0.11368683772E-12  0.17120000000E+03  0.17120000000E+03 0.  0.
         13    1    1    2    0    0 -0.18044083659E+01  0.29680342683E+02  0.85008483731E+02  0.90059047861E+02  0.10566000000E+00 0.  1.
        994    1    1    2    0    0  0.82977302975E+01 -0.26221975538E+02  0.74609185992E+01  0.17355560963E+03  0.17120000000E+03 0.  0.
        998    1    1    2    0    0 -0.64933219316E+01 -0.34583671449E+01  0.14075305939E+04  0.14075853425E+04  0.10000000000E+02 0.  1.
</event>
<event>
 5    1  0.1252319E-008  0.3852596E+03  0.7957747E-01  0.3428572E+00
         13   -1    0    0    0    0  0.00000000000E+00  0.00000000000E+00  0.14999999963E+04  0.15000000000E+04  0.10566000000E+00 0.  1.
        994   -1    0    0    0    0 -0.00000000000E+00 -0.00000000000E+00  0.11368683772E-12  0.17120000000E+03  0.17120000000E+03 0.  0.
         13    1    1    2    0    0 -0.96528716893E+01  0.14323137512E+02  0.99876298833E+02  0.10135884980E+03  0.10566000000E+00 0.  1.
        994    1    1    2    0    0  0.36490461820E+01 -0.10508073479E+02  0.19080057575E+01  0.17157160497E+03  0.17120000000E+03 0.  0.
        998    1    1    2    0    0  0.60038255073E+01 -0.38150640328E+01  0.13982156917E+04  0.13982695452E+04  0.10000000000E+02 0.  1.
</event>
<event>
 5    1  0.1252319E-008  0.3846469E+03  0.7957747E-01  0.3431171E+00
         13   -1    0    0    0    0  0.00000000000E+00  0.00000000000E+00  0.14999999963E+04  0.15000000000E+04  0.10566000000E+00 0.  1.
        994   -1    0    0    0    0 -0.00000000000E+00 -0.00000000000E+00  0.11368683772E-12  0.17120000000E+03  0.17120000000E+03 0.  0.
         13    1    1    2    0    0  0.18783927463E+02  0.85595601778E+01  0.10454648139E+03  0.10656490950E+03  0.10566000000E+00 0.  1.
        994    1    1    2    0    0 -0.36790551959E+02  0.88790416381E+01  0.65358319747E+01  0.17545523416E+03  0.17120000000E+03 0.  0.
        998    1    1    2    0    0  0.18006624496E+02 -0.17438601816E+02  0.13889176829E+04  0.13891798563E+04  0.10000000000E+02 0.  1.
</event>
<event>
 5    1  0.1252319E-008  0.3730302E+03  0.7957747E-01  0.3482080E+00
         13   -1    0    0    0    0  0.00000000000E+00  0.00000000000E+00  0.14999999963E+04  0.15000000000E+04  0.10566000000E+00 0.  1.
        994   -1    0    0    0    0 -0.00000000000E+00 -0.00000000000E+00  0.11368683772E-12  0.17120000000E+03  0.17120000000E+03 0.  0.
         13    1    1    2    0    0 -0.14782959103E+03  0.15548192968E+03  0.90314689058E+03  0.92827934135E+03  0.10566000000E+00 0.  1.
        994    1    1    2    0    0  0.14074567844E+03 -0.15845543161E+03  0.18147943457E+03  0.32735560936E+03  0.17120000000E+03 0.  0.
        998    1    1    2    0    0  0.70839125919E+01  0.29735019255E+01  0.41537367113E+03  0.41556504930E+03  0.10000000000E+02 0.  0.
</event>
<event>
 5    1  0.1252319E-008  0.3823851E+03  0.7957747E-01  0.3440839E+00
         13   -1    0    0    0    0  0.00000000000E+00  0.00000000000E+00  0.14999999963E+04  0.15000000000E+04  0.10566000000E+00 0. -1.
        994   -1    0    0    0    0 -0.00000000000E+00 -0.00000000000E+00  0.11368683772E-12  0.17120000000E+03  0.17120000000E+03 0.  0.
         13    1    1    2    0    0 -0.15132901956E+02  0.19719393632E+01  0.40955691874E+02  0.43706671429E+02  0.10566000000E+00 0. -1.
        994    1    1    2    0    0 -0.35739954920E+01  0.46575954508E+01  0.30483274847E+01  0.17132775298E+03  0.17120000000E+03 0.  0.
        998    1    1    2    0    0  0.18706897448E+02 -0.66295348140E+01  0.14559959769E+04  0.14561655756E+04  0.10000000000E+02 0. -1.
</event>
<event>
 5    1  0.1252319E-008  0.3781691E+03  0.7957747E-01  0.3459169E+00
         13   -1    0    0    0    0  0.00000000000E+00  0.00000000000E+00  0.14999999963E+04  0.15000000000E+04  0.10566000000E+00 0.  1.
        994   -1    0    0    0    0 -0.00000000000E+00 -0.00000000000E+00  0.11368683772E-12  0.17120000000E+03  0.17120000000E+03 0.  0.
         13    1    1    2    0    0  0.16434444578E+02 -0.85352210018E+01  0.31651402138E+02  0.36671015632E+02  0.10566000000E+00 0.  1.
        994    1    1    2    0    0 -0.17291256111E+02 -0.16411338346E+01  0.60755031266E+01  0.17218604065E+03  0.17120000000E+03 0.  0.
        998    1    1    2    0    0  0.85681153286E+00  0.10176354836E+02  0.14622730910E+04  0.14623429437E+04  0.10000000000E+02 0.  1.
</event>
<event>
 5    1  0.1252319E-008  0.3833185E+03  0.7957747E-01  0.3436835E+00
         13   -1    0    0    0    0  0.00000000000E+00  0.00000000000E+00  0.14999999963E+04  0.15000000000E+04  0.10566000000E+00 0.  1.
        994   -1    0    0    0    0 -0.00000000000E+00 -0.00000000000E+00  0.11368683772E-12  0.17120000000E+03  0.17120000000E+03 0.  0.
         13    1    1    2    0    0 -0.96238987414E+01 -0.21783448348E+02  0.11334431919E+03  0.11581918625E+03  0.10566000000E+00 0.  1.
        994    1    1    2    0    0  0.52262178986E+01  0.14973159831E+02  0.32993922970E+01  0.17196463258E+03  0.17120000000E+03 0.  0.
        998    1    1    2    0    0  0.43976808429E+01  0.68102885175E+01  0.13833562848E+04  0.13834161812E+04  0.10000000000E+02 0.  1.
</event>
<event>
 5    1  0.1252319E-008  0.3793480E+03  0.7957747E-01  0.3454002E+00
         13   -1    0    0    0    0  0.00000000000E+00  0.00000000000E+00  0.14999999963E+04  0.15000000000E+04  0.10566000000E+00 0. -1.
        994   -1    0    0    0    0 -0.00000000000E+00 -0.00000000000E+00  0.11368683772E-12  0.17120000000E+03  0.17120000000E+03 0.  0.
         13    1    1    2    0    0 -0.18646010155E+02  0.36208043625E+02  0.18817177651E+03  0.19252876346E+03  0.10566000000E+00 0. -1.
        994    1    1    2    0    0  0.14804478073E+02 -0.15605455942E+02  0.60142827708E+01  0.17265084542E+03  0.17120000000E+03 0.  0.
        998    1    1    2    0    0  0.38415320822E+01 -0.20602587683E+02  0.13058139370E+04  0.13060203911E+04  0.10000000000E+02 0. -1.
</event>
<event>
 5    1  0.1252319E-008  0.3868702E+03  0.7957747E-01  0.3421779E+00
         13   -1    0    0    0    0  0.00000000000E+00  0.00000000000E+00  0.14999999963E+04  0.15000000000E+04  0.10566000000E+00 0. -1.
        994   -1    0    0    0    0 -0.00000000000E+00 -0.00000000000E+00  0.11368683772E-12  0.17120000000E+03  0.17120000000E+03 0.  0.
         13    1    1    2    0    0 -0.10681790049E+03 -0.22944744017E+02  0.24202319657E+03  0.26554051289E+03  0.10566000000E+00 0. -1.
        994    1    1    2    0    0  0.99241401517E+02  0.52878065440E+02  0.68849627936E+02  0.21608946491E+03  0.17120000000E+03 0.  0.
        998    1    1    2    0    0  0.75764989703E+01 -0.29933321423E+02  0.11891271718E+04  0.11895700222E+04  0.10000000000E+02 0. -1.
</event>
<event>
 5    1  0.1252319E-008  0.4307471E+03  0.7957747E-01  0.3256159E+00
         13   -1    0    0    0    0  0.00000000000E+00  0.00000000000E+00  0.14999999963E+04  0.15000000000E+04  0.10566000000E+00 0.  1.
        994   -1    0    0    0    0 -0.00000000000E+00 -0.00000000000E+00  0.11368683772E-12  0.17120000000E+03  0.17120000000E+03 0.  0.
         13    1    1    2    0    0 -0.44021410756E+02  0.11579174095E+03  0.16197941122E+03  0.20391898563E+03  0.10566000000E+00 0.  1.
        994    1    1    2    0    0 -0.17039343823E+02 -0.76988789695E+02  0.76132418213E+02  0.20328108146E+03  0.17120000000E+03 0.  0.
        998    1    1    2    0    0  0.61060754579E+02 -0.38802951251E+02  0.12618881668E+04  0.12639999329E+04  0.10000000000E+02 0.  1.
</event>
<event>
 5    1  0.1252319E-008  0.3797370E+03  0.7957747E-01  0.3452305E+00
         13   -1    0    0    0    0  0.00000000000E+00  0.00000000000E+00  0.14999999963E+04  0.15000000000E+04  0.10566000000E+00 0. -1.
        994   -1    0    0    0    0 -0.00000000000E+00 -0.00000000000E+00  0.11368683772E-12  0.17120000000E+03  0.17120000000E+03 0.  0.
         13    1    1    2    0    0  0.45731305646E+01 -0.33244443121E+02  0.11922273683E+03  0.12385547490E+03  0.10566000000E+00 0. -1.
        994    1    1    2    0    0 -0.33829277069E+01  0.36448025132E+02  0.87621008829E+01  0.17528866805E+03  0.17120000000E+03 0.  0.
        998    1    1    2    0    0 -0.11902028577E+01 -0.32035820110E+01  0.13720151586E+04  0.13720558571E+04  0.10000000000E+02 0. -1.
</event>
<event>
 5    1  0.1252319E-008  0.3731814E+03  0.7957747E-01  0.3481396E+00
         13   -1    0    0    0    0  0.00000000000E+00  0.00000000000E+00  0.14999999963E+04  0.15000000000E+04  0.10566000000E+00 0.  1.
        994   -1    0    0    0    0 -0.00000000000E+00 -0.00000000000E+00  0.11368683772E-12  0.17120000000E+03  0.17120000000E+03 0.  0.
         13    1    1    2    0    0  0.10392866152E+02  0.54397438234E+01  0.55055490402E+01  0.12958576851E+02  0.10566000000E+00 0.  1.
        994    1    1    2    0    0 -0.85993113037E+01 -0.67859536767E+01  0.80261047090E+01  0.17173775263E+03  0.17120000000E+03 0.  0.
        998    1    1    2    0    0 -0.17935548487E+01  0.13462098532E+01  0.14864683425E+04  0.14865036705E+04  0.10000000000E+02 0.  1.
</event>
<event>
 5    1  0.1252319E-008  0.3831657E+03  0.7957747E-01  0.3437489E+00
         13   -1    0    0    0    0  0.00000000000E+00  0.00000000000E+00  0.14999999963E+04  0.15000000000E+04  0.10566000000E+00 0. -1.
        994   -1    0    0    0    0 -0.00000000000E+00 -0.00000000000E+00  0.11368683772E-12  0.17120000000E+03  0.17120000000E+03 0.  0.
         13    1    1    2    0    0 -0.10925940512E+02  0.88958245914E+01  0.38711040911E+02  0.41195481836E+02  0.10566000000E+00 0. -1.
        994    1    1    2    0    0  0.21551205918E+01 -0.75671819774E+01  0.27484373709E+01  0.17140274413E+03  0.17120000000E+03 0.  0.
        998    1    1    2    0    0  0.87708199200E+01 -0.13286426141E+01  0.14585405180E+04  0.14586017740E+04  0.10000000000E+02 0. -1.
</event>
<event>
 5    1  0.1252319E-008  0.3775400E+03  0.7957747E-01  0.3461940E+00
         13   -1    0    0    0    0  0.00000000000E+00  0.00000000000E+00  0.14999999963E+04  0.15000000000E+04  0.10566000000E+00 0. -1.
        994   -1    0    0    0    0 -0.00000000000E+00 -0.00000000000E+00  0.11368683772E-12  0.17120000000E+03  0.17120000000E+03 0.  0.
         13    1    1    2    0    0 -0.18545127160E+02  0.80970814771E+01  0.35346647016E+02  0.40729363966E+02  0.10566000000E+00 0. -1.
        994    1    1    2    0    0  0.16571614949E+02 -0.90218393088E+01  0.65809281380E+01  0.17236229466E+03  0.17120000000E+03 0.  0.
        998    1    1    2    0    0  0.19735122112E+01  0.92475783177E+00  0.14580724211E+04  0.14581083414E+04  0.10000000000E+02 0.  0.
</event>
<event>
 5    1  0.1252319E-008  0.3841018E+03  0.7957747E-01  0.3433491E+00
         13   -1    0    0    0    0  0.00000000000E+00  0.00000000000E+00  0.14999999963E+04  0.15000000000E+04  0.10566000000E+00 0.  1.
        994   -1    0    0    0    0 -0.00000000000E+00 -0.00000000000E+00  0.11368683772E-12  0.17120000000E+03  0.17120000000E+03 0.  0.
         13    1    1    2    0    0  0.60820449826E+01 -0.97117649118E+01  0.31334644998E+02  0.33364364074E+02  0.10566000000E+00 0.  1.
        994    1    1    2    0    0 -0.38183516004E+01  0.43343028309E+01  0.21867939284E+01  0.17131137749E+03  0.17120000000E+03 0.  0.
        998    1    1    2    0    0 -0.22636933822E+01  0.53774620809E+01  0.14664785574E+04  0.14665242584E+04  0.10000000000E+02 0.  1.
</event>
<event>
 5    1  0.1252319E-008  0.3840077E+03  0.7957747E-01  0.3433892E+00
         13   -1    0    0    0    0  0.00000000000E+00  0.00000000000E+00  0.14999999963E+04  0.15000000000E+04  0.10566000000E+00 0. -1.
        994   -1    0    0    0    0 -0.00000000000E+00 -0.00000000000E+00  0.11368683772E-12  0.17120000000E+03  0.17120000000E+03 0.  0.
         13    1    1    2    0    0 -0.82177221343E+01 -0.19201553929E+02  0.10475969858E+03  0.10682151581E+03  0.10566000000E+00 0. -1.
        994    1    1    2    0    0  0.41266223620E+01  0.88141057056E+01  0.24361622594E+01  0.17149370938E+03  0.17120000000E+03 0.  0.
        998    1    1    2    0    0  0.40910997722E+01  0.10387448224E+02  0.13928041354E+04  0.13928847748E+04  0.10000000000E+02 0. -1.
</event>
<event>
 5    1  0.1252319E-008  0.3709869E+03  0.7957747E-01  0.3491367E+00
         13   -1    0    0    0    0  0.00000000000E+00  0.00000000000E+00  0.14999999963E+04  0.15000000000E+04  0.10566000000E+00 0.  1.
        994   -1    0    0    0    0 -0.00000000000E+00 -0.00000000000E+00  0.11368683772E-12  0.17120000000E+03  0.17120000000E+03 0.  0.
         13    1    1    2    0    0  0.47262547186E+00  0.52188776339E+02  0.13324889907E+03  0.14310545768E+03  0.10566000000E+00 0.  1.
        994    1    1    2    0    0 -0.30146418512E+01 -0.62781003097E+02  0.22492920136E+02  0.18375503768E+03  0.17120000000E+03 0.  0.
        998    1    1    2    0    0  0.25420163793E+01  0.10592226758E+02  0.13442581771E+04  0.13443395046E+04  0.10000000000E+02 0.  1.
</event>
<event>
 5    1  0.1252319E-008  0.3818761E+03  0.7957747E-01  0.3443030E+00
         13   -1    0    0    0    0  0.00000000000E+00  0.00000000000E+00  0.14999999963E+04  0.15000000000E+04  0.10566000000E+00 0.  1.
        994   -1    0    0    0    0 -0.00000000000E+00 -0.00000000000E+00  0.11368683772E-12  0.17120000000E+03  0.17120000000E+03 0.  0.
         13    1    1    2    0    0  0.27012919867E+02 -0.95548898302E+00  0.11860080434E+03  0.12164198598E+03  0.10566000000E+00 0.  1.
        994    1    1    2    0    0 -0.92910905870E+01  0.25282270394E+02  0.56032042895E+01  0.17339652090E+03  0.17120000000E+03 0.  0.
        998    1    1    2    0    0 -0.17721829280E+02 -0.24326781411E+02  0.13757959877E+04  0.13761614931E+04  0.10000000000E+02 0.  1.
</event>
<event>
 5    1  0.1252319E-008  0.3841441E+03  0.7957747E-01  0.3433310E+00
         13   -1    0    0    0    0  0.00000000000E+00  0.00000000000E+00  0.14999999963E+04  0.15000000000E+04  0.10566000000E+00 0.  1.
        994   -1    0    0    0    0 -0.00000000000E+00 -0.00000000000E+00  0.11368683772E-12  0.17120000000E+03  0.17120000000E+03 0.  0.
         13    1    1    2    0    0  0.17097410756E+02  0.18483814215E+02  0.14326968339E+03  0.14546541233E+03  0.10566000000E+00 0.  1.
        994    1    1    2    0    0 -0.15475109795E+02 -0.17984602283E+02  0.39143057285E+01  0.17288055626E+03  0.17120000000E+03 0.  0.
        998    1    1    2    0    0 -0.16223009618E+01 -0.49921193212E+00  0.13528160072E+04  0.13528540314E+04  0.10000000000E+02 0.  0.
</event>
<event>
 5    1  0.1252319E-008  0.3835095E+03  0.7957747E-01  0.3436018E+00
         13   -1    0    0    0    0  0.00000000000E+00  0.00000000000E+00  0.14999999963E+04  0.15000000000E+04  0.10566000000E+00 0.  1.
        994   -1    0    0    0    0 -0.00000000000E+00 -0.00000000000E+00  0.11368683772E-12  0.17120000000E+03  0.17120000000E+03 0.  0.
         13    1    1    2    0    0  0.24615754344E+01 -0.16171869993E+02  0.53113293164E+02  0.55575370511E+02  0.10566000000E+00 0.  1.
        994    1    1    2    0    0 -0.18524487597E+01  0.20890759209E+02  0.38268546817E+01  0.17252228900E+03  0.17120000000E+03 0.  0.
        998    1    1    2    0    0 -0.60912667469E+00 -0.47188892163E+01  0.14430598484E+04  0.14431023405E+04  0.10000000000E+02 0.  1.
</event>
<event>
 5    1  0.1252319E-008  0.3848936E+03  0.7957747E-01  0.3430123E+00
         13   -1    0    0    0    0  0.00000000000E+00  0.00000000000E+00  0.14999999963E+04  0.15000000000E+04  0.10566000000E+00 0.  1.
        994   -1    0    0    0    0 -0.00000000000E+00 -0.00000000000E+00  0.11368683772E-12  0.17120000000E+03  0.17120000000E+03 0.  0.
         13    1    1    2    0    0  0.14595353024E+02  0.12617675046E+01  0.81494375473E+02  0.82800729374E+02  0.10566000000E+00 0.  1.
        994    1    1    2    0    0  0.18740110889E+02  0.38204501354E+02  0.76628596464E+01  0.17657557900E+03  0.17120000000E+03 0.  0.
        998    1    1    2    0    0 -0.33335463913E+02 -0.39466268858E+02  0.14108427612E+04  0.14118236916E+04  0.10000000000E+02 0.  1.
</event>
<event>
 5    1  0.1252319E-008  0.3850456E+03  0.7957747E-01  0.3429479E+00
         13   -1    0    0    0    0  0.00000000000E+00  0.00000000000E+00  0.14999999963E+04  0.15000000000E+04  0.10566000000E+00 0. -1.
        994   -1    0    0    0    0 -0.00000000000E+00 -0.00000000000E+00  0.11368683772E-12  0.17120000000E+03  0.17120000000E+03 0.  0.
         13    1    1    2    0    0  0.10632644839E+02  0.37371825289E+00  0.35700662856E+02  0.37252399842E+02  0.10566000000E+00 0. -1.
        994    1    1    2    0    0 -0.32304298568E+01 -0.54660490403E+01  0.17400493244E+01  0.17132653367E+03  0.17120000000E+03 0.  0.
        998    1    1    2    0    0 -0.74022149823E+01  0.50923307874E+01  0.14625592841E+04  0.14626210665E+04  0.10000000000E+02 0. -1.
</event>
<event>
 5    1  0.1252319E-008  0.3842477E+03  0.7957747E-01  0.3432869E+00
         13   -1    0    0    0    0  0.00000000000E+00  0.00000000000E+00  0.14999999963E+04  0.15000000000E+04  0.10566000000E+00 0.  1.
        994   -1    0    0    0    0 -0.00000000000E+00 -0.00000000000E+00  0.11368683772E-12  0.17120000000E+03  0.17120000000E+03 0.  0.
         13    1    1    2    0    0 -0.12437234017E+02  0.87913825423E+01  0.61261709938E+02  0.63126709605E+02  0.10566000000E+00 0.  1.
        994    1    1    2    0    0 -0.11863277438E+02 -0.15500253453E+02  0.32611526725E+01  0.17233998470E+03  0.17120000000E+03 0.  0.
        998    1    1    2    0    0  0.24300511455E+02  0.67088709102E+01  0.14354771337E+04  0.14357333057E+04  0.10000000000E+02 0.  1.
</event>
<event>
 5    1  0.1252319E-008  0.3774319E+03  0.7957747E-01  0.3462417E+00
         13   -1    0    0    0    0  0.00000000000E+00  0.00000000000E+00  0.14999999963E+04  0.15000000000E+04  0.10566000000E+00 0. -1.
        994   -1    0    0    0    0 -0.00000000000E+00 -0.00000000000E+00  0.11368683772E-12  0.17120000000E+03  0.17120000000E+03 0.  0.
         13    1    1    2    0    0 -0.46018985403E+02 -0.45787770517E+01  0.25536143970E+03  0.25951529486E+03  0.10566000000E+00 0. -1.
        994    1    1    2    0    0 -0.79465176491E+01  0.18441744236E+01  0.56595622978E+01  0.17148766360E+03  0.17120000000E+03 0.  0.
        998    1    1    2    0    0  0.53965503052E+02  0.27346026281E+01  0.12389789943E+04  0.12401970415E+04  0.10000000000E+02 0. -1.
</event>
<event>
 5    1  0.1252319E-008  0.3697485E+03  0.7957747E-01  0.3497048E+00
         13   -1    0    0    0    0  0.00000000000E+00  0.00000000000E+00  0.14999999963E+04  0.15000000000E+04  0.10566000000E+00 0.  1.
        994   -1    0    0    0    0 -0.00000000000E+00 -0.00000000000E+00  0.11368683772E-12  0.17120000000E+03  0.17120000000E+03 0.  0.
         13    1    1    2    0    0  0.36028220695E+02  0.19295475396E+02  0.81532889277E+02  0.91202912536E+02  0.10566000000E+00 0.  1.
        994    1    1    2    0    0 -0.30557757852E+02 -0.27219173412E+02  0.15218330534E+02  0.17667964668E+03  0.17120000000E+03 0.  0.
        998    1    1    2    0    0 -0.54704628425E+01  0.79236980163E+01  0.14032487765E+04  0.14033174408E+04  0.10000000000E+02 0.  1.
</event>
<event>
 5    1  0.1252319E-008  0.3818062E+03  0.7957747E-01  0.3443332E+00
         13   -1    0    0    0    0  0.00000000000E+00  0.00000000000E+00  0.14999999963E+04  0.15000000000E+04  0.10566000000E+00 0. -1.
        994   -1    0    0    0    0 -0.00000000000E+00 -0.00000000000E+00  0.11368683772E-12  0.17120000000E+03  0.17120000000E+03 0.  0.
         13    1    1    2    0    0 -0.28002154843E+01 -0.34752623298E+02  0.16817184638E+03  0.17174797557E+03  0.10566000000E+00 0. -1.
        994    1    1    2    0    0  0.51311873915E+01  0.34789682356E+02  0.73445809922E+01  0.17492865389E+03  0.17120000000E+03 0.  0.
        998    1    1    2    0    0 -0.23309719072E+01 -0.37059058724E-01  0.13244835689E+04  0.13245233705E+04  0.10000000000E+02 0.  0.
</event>
<event>
 5    1  0.1252319E-008  0.3821654E+03  0.7957747E-01  0.3441784E+00
         13   -1    0    0    0    0  0.00000000000E+00  0.00000000000E+00  0.14999999963E+04  0.15000000000E+04  0.10566000000E+00 0.  1.
        994   -1    0    0    0    0 -0.00000000000E+00 -0.00000000000E+00  0.11368683772E-12  0.17120000000E+03  0.17120000000E+03 0.  0.
         13    1    1    2    0    0  0.28614778492E+02  0.10542538300E+02  0.15630656689E+03  0.15925358608E+03  0.10566000000E+00 0.  1.
        994    1    1    2    0    0 -0.13226926324E+02 -0.48853163185E+01  0.37042302120E+01  0.17181961243E+03  0.17120000000E+03 0.  0.
        998    1    1    2    0    0 -0.15387852168E+02 -0.56572219811E+01  0.13399891992E+04  0.13401268015E+04  0.10000000000E+02 0.  1.
</event>
<event>
 5    1  0.1252319E-008  0.3779297E+03  0.7957747E-01  0.3460223E+00
         13   -1    0    0    0    0  0.00000000000E+00  0.00000000000E+00  0.14999999963E+04  0.15000000000E+04  0.10566000000E+00 0. -1.
        994   -1    0    0    0    0 -0.00000000000E+00 -0.00000000000E+00  0.11368683772E-12  0.17120000000E+03  0.17120000000E+03 0.  0.
         13    1    1    2    0    0  0.72406278271E+02  0.10246231166E+03  0.71042692733E+03  0.72142056020E+03  0.10566000000E+00 0. -1.
        994    1    1    2    0    0 -0.82324694940E+02 -0.10019217475E+03  0.64048856526E+02  0.22411497786E+03  0.17120000000E+03 0.  0.
        998    1    1    2    0    0  0.99184166693E+01 -0.22701369184E+01  0.72552421242E+03  0.72566446194E+03  0.10000000000E+02 0.  1.
</event>
<event>
 5    1  0.1252319E-008  0.3788917E+03  0.7957747E-01  0.3455999E+00
         13   -1    0    0    0    0  0.00000000000E+00  0.00000000000E+00  0.14999999963E+04  0.15000000000E+04  0.10566000000E+00 0.  1.
        994   -1    0    0    0    0 -0.00000000000E+00 -0.00000000000E+00  0.11368683772E-12  0.17120000000E+03  0.17120000000E+03 0.  0.
         13    1    1    2    0    0 -0.13545514596E+02 -0.12991718721E+00  0.17120350012E+02  0.21831522914E+02  0.10566000000E+00 0.  1.
        994    1    1    2    0    0  0.19202314257E+02 -0.53601745533E+01  0.60283518435E+01  0.17246228970E+03  0.17120000000E+03 0.  0.
        998    1    1    2    0    0 -0.56567996615E+01  0.54900917405E+01  0.14768512944E+04  0.14769061874E+04  0.10000000000E+02 0.  1.
</event>
<event>
 5    1  0.1252319E-008  0.3724697E+03  0.7957747E-01  0.3484617E+00
         13   -1    0    0    0    0  0.00000000000E+00  0.00000000000E+00  0.14999999963E+04  0.15000000000E+04  0.10566000000E+00 0. -1.
        994   -1    0    0    0    0 -0.00000000000E+00 -0.00000000000E+00  0.11368683772E-12  0.17120000000E+03  0.17120000000E+03 0.  0.
         13    1    1    2    0    0  0.45141247108E+02  0.52520753227E+02  0.19710525991E+03  0.20891782202E+03  0.10566000000E+00 0. -1.
        994    1    1    2    0    0 -0.35513929584E+02 -0.17080668028E+02  0.17747276561E+02  0.17657121577E+03  0.17120000000E+03 0.  0.
        998    1    1    2    0    0 -0.96273175237E+01 -0.35440085199E+02  0.12851474598E+04  0.12857109622E+04  0.10000000000E+02 0.  0.
</event>
<event>
 5    1  0.1252319E-008  0.3745947E+03  0.7957747E-01  0.3475038E+00
         13   -1    0    0    0    0  0.00000000000E+00  0.00000000000E+00  0.14999999963E+04  0.15000000000E+04  0.10566000000E+00 0.  1.
        994   -1    0    0    0    0 -0.00000000000E+00 -0.00000000000E+00  0.11368683772E-12  0.17120000000E+03  0.17120000000E+03 0.  0.
         13    1    1    2    0    0 -0.11210990952E+01 -0.15741583236E+02  0.15080154677E+02  0.21828342472E+02  0.10566000000E+00 0.  1.
        994    1    1    2    0    0 -0.37214636001E+01  0.11180497049E+02  0.73597980890E+01  0.17176279991E+03  0.17120000000E+03 0.  0.
        998    1    1    2    0    0  0.48425626952E+01  0.45610861878E+01  0.14775600435E+04  0.14776088576E+04  0.10000000000E+02 0.  1.
</event>
<event>
 5    1  0.1252319E-008  0.2386316E+03  0.7957747E-01  0.4462730E+00
         13   -1    0    0    0    0  0.00000000000E+00  0.00000000000E+00  0.14999999963E+04  0.15000000000E+04  0.10566000000E+00 0.  1.
        994   -1    0    0    0    0 -0.00000000000E+00 -0.00000000000E+00  0.11368683772E-12  0.17120000000E+03  0.17120000000E+03 0.  0.
         13    1    1    2    0    0 -0.58194296552E+02 -0.31688927774E+02 -0.13124486238E+02  0.67550185771E+02  0.10566000000E+00 0.  1.
        994    1    1    2    0    0  0.43836488937E+02 -0.59936251806E+01  0.12894402557E+03  0.21884598017E+03  0.17120000000E+03 0.  0.
        998    1    1    2    0    0  0.14357807615E+02  0.37682552955E+02  0.13841804569E+04  0.13848038341E+04  0.10000000000E+02 0.  1.
</event>
<event>
 5    1  0.1252319E-008  0.3804266E+03  0.7957747E-01  0.3449303E+00
         13   -1    0    0    0    0  0.00000000000E+00  0.00000000000E+00  0.14999999963E+04  0.15000000000E+04  0.10566000000E+00 0.  1.
        994   -1    0    0    0    0 -0.00000000000E+00 -0.00000000000E+00  0.11368683772E-12  0.17120000000E+03  0.17120000000E+03 0.  0.
         13    1    1    2    0    0 -0.42493978286E+01  0.14843623620E+02  0.29570890539E+02  0.33359245725E+02  0.10566000000E+00 0.  1.
        994    1    1    2    0    0  0.29427713002E+01 -0.21802350168E+01  0.39627178238E+01  0.17128501528E+03  0.17120000000E+03 0.  0.
        998    1    1    2    0    0  0.13066265285E+01 -0.12663388603E+02  0.14664663879E+04  0.14665557390E+04  0.10000000000E+02 0.  1.
</event>
<event>
 5    1  0.1252319E-008  0.3860427E+03  0.7957747E-01  0.3425262E+00
         13   -1    0    0    0    0  0.00000000000E+00  0.00000000000E+00  0.14999999963E+04  0.15000000000E+04  0.10566000000E+00 0. -1.
        994   -1    0    0    0    0 -0.00000000000E+00 -0.00000000000E+00  0.11368683772E-12  0.17120000000E+03  0.17120000000E+03 0.  0.
         13    1    1    2    0    0 -0.64190762385E+01 -0.11530796037E+02  0.76743450807E+02  0.77869969839E+02  0.10566000000E+00 0. -1.
        994    1    1    2    0    0  0.98470961985E+01  0.88199851787E+01  0.16863163542E+01  0.17171791143E+03  0.17120000000E+03 0.  0.
        998    1    1    2    0    0 -0.34280199600E+01  0.27108108581E+01  0.14215702291E+04  0.14216121187E+04  0.10000000000E+02 0. -1.
</event>
<event>
 5    1  0.1252319E-008  0.3810105E+03  0.7957747E-01  0.3446770E+00
         13   -1    0    0    0    0  0.00000000000E+00  0.00000000000E+00  0.14999999963E+04  0.15000000000E+04  0.10566000000E+00 0.  1.
        994   -1    0    0    0    0 -0.00000000000E+00 -0.00000000000E+00  0.11368683772E-12  0.17120000000E+03  0.17120000000E+03 0.  0.
         13    1    1    2    0    0 -0.22639426647E+02  0.16374233717E+02  0.12280520891E+03  0.12594359717E+03  0.10566000000E+00 0.  1.
        994    1    1    2    0    0 -0.14542244393E+01  0.84709955552E+01  0.38700984476E+01  0.17145929603E+03  0.17120000000E+03 0.  0.
        998    1    1    2    0    0  0.24093651086E+02 -0.24845229272E+02  0.13733246889E+04  0.13737971068E+04  0.10000000000E+02 0.  1.
</event>
<event>
 5    1  0.1252319E-008  0.3852308E+03  0.7957747E-01  0.3428694E+00
         13   -1    0    0    0    0  0.00000000000E+00  0.00000000000E+00  0.14999999963E+04  0.15000000000E+04  0.10566000000E+00 0.  1.
        994   -1    0    0    0    0 -0.00000000000E+00 -0.00000000000E+00  0.11368683772E-12  0.17120000000E+03  0.17120000000E+03 0.  0.
         13    1    1    2    0    0  0.88303995634E+01  0.72874622129E+01  0.41462540903E+02  0.43014375784E+02  0.10566000000E+00 0.  1.
        994    1    1    2    0    0 -0.14432608894E+02 -0.72865033638E+01  0.23750652938E+01  0.17197812147E+03  0.17120000000E+03 0.  0.
        998    1    1    2    0    0  0.56022093310E+01 -0.95884904081E-03  0.14561623901E+04  0.14562075027E+04  0.10000000000E+02 0.  1.
</event>
<event>
 5    1  0.1252319E-008  0.3713504E+03  0.7957747E-01  0.3489708E+00
         13   -1    0    0    0    0  0.00000000000E+00  0.00000000000E+00  0.14999999963E+04  0.15000000000E+04  0.10566000000E+00 0.  1.
        994   -1    0    0    0    0 -0.00000000000E+00 -0.00000000000E+00  0.11368683772E-12  0.17120000000E+03  0.17120000000E+03 0.  0.
         13    1    1    2    0    0 -0.49321993033E+02 -0.11967778729E+03  0.46749810744E+03  0.48508754199E+03  0.10566000000E+00 0.  1.
        994    1    1    2    0    0 -0.14343935390E+01  0.18377275844E+03  0.13559108537E+03  0.28542751560E+03  0.17120000000E+03 0.  0.
        998    1    1    2    0    0  0.50756386572E+02 -0.64094971146E+02  0.89691080348E+03  0.90068494242E+03  0.10000000000E+02 0.  1.
</event>
<event>
 5    1  0.1252319E-008  0.3817899E+03  0.7957747E-01  0.3443402E+00
         13   -1    0    0    0    0  0.00000000000E+00  0.00000000000E+00  0.14999999963E+04  0.15000000000E+04  0.10566000000E+00 0.  1.
        994   -1    0    0    0    0 -0.00000000000E+00 -0.00000000000E+00  0.11368683772E-12  0.17120000000E+03  0.17120000000E+03 0.  0.
         13    1    1    2    0    0 -0.96915276788E+00  0.15082839199E+02  0.34917349091E+02  0.38048176394E+02  0.10566000000E+00 0.  1.
        994    1    1    2    0    0  0.25066181742E+01 -0.38464586355E+01  0.33024072155E+01  0.17129338654E+03  0.17120000000E+03 0.  0.
        998    1    1    2    0    0 -0.15374654063E+01 -0.11236380563E+02  0.14617802400E+04  0.14618584371E+04  0.10000000000E+02 0.  1.
</event>
<event>
 5    1  0.1252319E-008  0.3858222E+03  0.7957747E-01  0.3426193E+00
         13   -1    0    0    0    0  0.00000000000E+00  0.00000000000E+00  0.14999999963E+04  0.15000000000E+04  0.10566000000E+00 0. -1.
        994   -1    0    0    0    0 -0.00000000000E+00 -0.00000000000E+00  0.11368683772E-12  0.17120000000E+03  0.17120000000E+03 0.  0.
         13    1    1    2    0    0  0.10168027245E+02  0.48901171281E+01  0.51459814530E+02  0.52682309166E+02  0.10566000000E+00 0. -1.
        994    1    1    2    0    0 -0.10851719117E+02 -0.23186101560E+01  0.16264514485E+01  0.17156695808E+03  0.17120000000E+03 0.  0.
        998    1    1    2    0    0  0.68369187143E+00 -0.25715069722E+01  0.14469137303E+04  0.14469507328E+04  0.10000000000E+02 0. -1.
</event>
<event>
 5    1  0.1252319E-008  0.3854477E+03  0.7957747E-01  0.3427776E+00
         13   -1    0    0    0    0  0.00000000000E+00  0.00000000000E+00  0.14999999963E+04  0.15000000000E+04  0.10566000000E+00 0. -1.
        994   -1    0    0    0    0 -0.00000000000E+00 -0.00000000000E+00  0.11368683772E-12  0.17120000000E+03  0.17120000000E+03 0.  0.
         13    1    1    2    0    0 -0.13348608365E+02 -0.68639881149E+01  0.81791671940E+02  0.83157612044E+02  0.10566000000E+00 0. -1.
        994    1    1    2    0    0  0.63026775800E+01  0.41446785724E+01  0.15948902568E+01  0.17137352707E+03  0.17120000000E+03 0.  0.
        998    1    1    2    0    0  0.70459307849E+01  0.27193095425E+01  0.14166134341E+04  0.14166688609E+04  0.10000000000E+02 0. -1.
</event>
<event>
 5    1  0.1252319E-008  0.3695294E+03  0.7957747E-01  0.3498057E+00
         13   -1    0    0    0    0  0.00000000000E+00  0.00000000000E+00  0.14999999963E+04  0.15000000000E+04  0.10566000000E+00 0.  1.
        994   -1    0    0    0    0 -0.00000000000E+00 -0.00000000000E+00  0.11368683772E-12  0.17120000000E+03  0.17120000000E+03 0.  0.
         13    1    1    2    0    0  0.17189441442E+02  0.19476940280E+02  0.30002159041E+02  0.39685876718E+02  0.10566000000E+00 0.  1.
        994    1    1    2    0    0 -0.25665391318E+02 -0.28217945006E+02  0.14571039912E+02  0.17600204526E+03  0.17120000000E+03 0.  0.
        998    1    1    2    0    0  0.84759498764E+01  0.87410047254E+01  0.14554267973E+04  0.14555120780E+04  0.10000000000E+02 0.  1.
</event>
<event>
 5    1  0.1252319E-008  0.3782335E+03  0.7957747E-01  0.3458887E+00
         13   -1    0    0    0    0  0.00000000000E+00  0.00000000000E+00  0.14999999963E+04  0.15000000000E+04  0.10566000000E+00 0.  1.
        994   -1    0    0    0    0 -0.00000000000E+00 -0.00000000000E+00  0.11368683772E-12  0.17120000000E+03  0.17120000000E+03 0.  0.
         13    1    1    2    0    0  0.23436667565E+02  0.30175934899E+02  0.14249421032E+03  0.14752788066E+03  0.10566000000E+00 0.  1.
        994    1    1    2    0    0 -0.30219991735E+02 -0.70413616843E+01  0.82718904843E+01  0.17418579979E+03  0.17120000000E+03 0.  0.
        998    1    1    2    0    0  0.67833241697E+01 -0.23134573214E+02  0.13492338955E+04  0.13494863195E+04  0.10000000000E+02 0.  1.
</event>
<event>
 5    1  0.1252319E-008  0.3845320E+03  0.7957747E-01  0.3431659E+00
         13   -1    0    0    0    0  0.00000000000E+00  0.00000000000E+00  0.14999999963E+04  0.15000000000E+04  0.10566000000E+00 0.  1.
        994   -1    0    0    0    0 -0.00000000000E+00 -0.00000000000E+00  0.11368683772E-12  0.17120000000E+03  0.17120000000E+03 0.  0.
         13    1    1    2    0    0 -0.44092052205E+01 -0.10502669919E+02  0.34092436444E+02  0.35945132533E+02  0.10566000000E+00 0.  1.
        994    1    1    2    0    0  0.51177052864E+01  0.88740142182E+01  0.22083535783E+01  0.17152042404E+03  0.17120000000E+03 0.  0.
        998    1    1    2    0    0 -0.70850006586E+00  0.16286557011E+01  0.14636992063E+04  0.14637344434E+04  0.10000000000E+02 0.  1.
</event>
<event>
 5    1  0.1252319E-008  0.3835468E+03  0.7957747E-01  0.3435859E+00
         13   -1    0    0    0    0  0.00000000000E+00  0.00000000000E+00  0.14999999963E+04  0.15000000000E+04  0.10566000000E+00 0.  1.
        994   -1    0    0    0    0 -0.00000000000E+00 -0.00000000000E+00  0.11368683772E-12  0.17120000000E+03  0.17120000000E+03 0.  0.
         13    1    1    2    0    0 -0.63498221293E+01 -0.20098615933E+02  0.93831239323E+02  0.96169575440E+02  0.10566000000E+00 0.  1.
        994    1    1    2    0    0  0.67248358372E+01  0.11722147882E+02  0.29570318093E+01  0.17175801642E+03  0.17120000000E+03 0.  0.
        998    1    1    2    0    0 -0.37501370791E+00  0.83764680507E+01  0.14032117251E+04  0.14032724081E+04  0.10000000000E+02 0.  1.
</event>
<event>
 5    1  0.1252319E-008  0.3741695E+03  0.7957747E-01  0.3476945E+00
         13   -1    0    0    0    0  0.00000000000E+00  0.00000000000E+00  0.14999999963E+04  0.15000000000E+04  0.10566000000E+00 0. -1.
        994   -1    0    0    0    0 -0.00000000000E+00 -0.00000000000E+00  0.11368683772E-12  0.17120000000E+03  0.17120000000E+03 0.  0.
         13    1    1    2    0    0  0.15819220627E+02 -0.41631361664E+02  0.63368327762E+02  0.77453044760E+02  0.10566000000E+00 0. -1.
        994    1    1    2    0    0 -0.64790190608E+01  0.68860938514E+02  0.30333448193E+02  0.18711858438E+03  0.17120000000E+03 0.  0.
        998    1    1    2    0    0 -0.93402015663E+01 -0.27229576850E+02  0.14062982203E+04  0.14066283709E+04  0.10000000000E+02 0. -1.
</event>
<event>
 5    1  0.1252319E-008  0.3819604E+03  0.7957747E-01  0.3442667E+00
         13   -1    0    0    0    0  0.00000000000E+00  0.00000000000E+00  0.14999999963E+04  0.15000000000E+04  0.10566000000E+00 0.  1.
        994   -1    0    0    0    0 -0.00000000000E+00 -0.00000000000E+00  0.11368683772E-12  0.17120000000E+03  0.17120000000E+03 0.  0.
         13    1    1    2    0    0  0.13656248825E+02  0.15244291617E+02  0.62888912997E+02  0.66135528280E+02  0.10566000000E+00 0.  1.
        994    1    1    2    0    0 -0.13486587071E+02 -0.17417562872E+02  0.47602147027E+01  0.17267703719E+03  0.17120000000E+03 0.  0.
        998    1    1    2    0    0 -0.16966175462E+00  0.21732712542E+01  0.14323508686E+04  0.14323874345E+04  0.10000000000E+02 0.  1.
</event>
<event>
 5    1  0.1252319E-008  0.3832536E+03  0.7957747E-01  0.3437113E+00
         13   -1    0    0    0    0  0.00000000000E+00  0.00000000000E+00  0.14999999963E+04  0.15000000000E+04  0.10566000000E+00 0. -1.
        994   -1    0    0    0    0 -0.00000000000E+00 -0.00000000000E+00  0.11368683772E-12  0.17120000000E+03  0.17120000000E+03 0.  0.
         13    1    1    2    0    0 -0.15647030534E+02  0.20268910153E+01  0.50163694266E+02  0.52586549974E+02  0.10566000000E+00 0. -1.
        994    1    1    2    0    0  0.29198080481E+01 -0.24715496893E+02  0.45508768513E+01  0.17305932955E+03  0.17120000000E+03 0.  0.
        998    1    1    2    0    0  0.12727222486E+02  0.22688605878E+02  0.14452854252E+04  0.14455541205E+04  0.10000000000E+02 0. -1.
</event>
<event>
 5    1  0.1252319E-008  0.3850778E+03  0.7957747E-01  0.3429342E+00
         13   -1    0    0    0    0  0.00000000000E+00  0.00000000000E+00  0.14999999963E+04  0.15000000000E+04  0.10566000000E+00 0.  1.
        994   -1    0    0    0    0 -0.00000000000E+00 -0.00000000000E+00  0.11368683772E-12  0.17120000000E+03  0.17120000000E+03 0.  0.
         13    1    1    2    0    0  0.44062538886E+01 -0.11163824262E+02  0.44887610998E+02  0.46464554562E+02  0.10566000000E+00 0.  1.
        994    1    1    2    0    0 -0.69845542702E+01  0.73357566889E+01  0.19289028681E+01  0.17151022707E+03  0.17120000000E+03 0.  0.
        998    1    1    2    0    0  0.25783003815E+01  0.38280675734E+01  0.14531834824E+04  0.14532252184E+04  0.10000000000E+02 0.  1.
</event>
<event>
 5    1  0.1252319E-008  0.2173821E+03  0.7957747E-01  0.4748428E+00
         13   -1    0    0    0    0  0.00000000000E+00  0.00000000000E+00  0.14999999963E+04  0.15000000000E+04  0.10566000000E+00 0. -1.
        994   -1    0    0    0    0 -0.00000000000E+00 -0.00000000000E+00  0.11368683772E-12  0.17120000000E+03  0.17120000000E+03 0.  0.
         13    1    1    2    0    0 -0.21628266352E+02  0.13184031637E+01 -0.29131334972E+02  0.36306554967E+02  0.10566000000E+00 0. -1.
        994    1    1    2    0    0  0.20200204296E+02  0.34541407511E+01  0.87746683155E+02  0.19346550015E+03  0.17120000000E+03 0.  0.
        998    1    1    2    0    0  0.14280620559E+01 -0.47725439148E+01  0.14413846481E+04  0.14414279449E+04  0.10000000000E+02 0. -1.
</event>
<event>
 5    1  0.1252319E-008  0.3733000E+03  0.7957747E-01  0.3480861E+00
         13   -1    0    0    0    0  0.00000000000E+00  0.00000000000E+00  0.14999999963E+04  0.15000000000E+04  0.10566000000E+00 0.  1.
        994   -1    0    0    0    0 -0.00000000000E+00 -0.00000000000E+00  0.11368683772E-12  0.17120000000E+03  0.17120000000E+03 0.  0.
         13    1    1    2    0    0  0.37986704987E+02  0.64677387600E+02  0.44825270070E+03  0.45448503724E+03  0.10566000000E+00 0.  1.
        994    1    1    2    0    0 -0.42077072420E+02 -0.47274269372E+01  0.13708509956E+02  0.17689033844E+03  0.17120000000E+03 0.  0.
        998    1    1    2    0    0  0.40903674333E+01 -0.59949960663E+02  0.10380387856E+04  0.10398246243E+04  0.10000000000E+02 0.  1.
</event>
<event>
 5    1  0.1252319E-008  0.3819235E+03  0.7957747E-01  0.3442826E+00
         13   -1    0    0    0    0  0.00000000000E+00  0.00000000000E+00  0.14999999963E+04  0.15000000000E+04  0.10566000000E+00 0.  1.
        994   -1    0    0    0    0 -0.00000000000E+00 -0.00000000000E+00  0.11368683772E-12  0.17120000000E+03  0.17120000000E+03 0.  0.
         13    1    1    2    0    0  0.11993759876E+02 -0.94983428873E+00  0.21843068365E+02  0.24937587309E+02  0.10566000000E+00 0.  1.
        994    1    1    2    0    0 -0.46580644030E+01  0.54007118132E+01  0.33343053483E+01  0.17138092906E+03  0.17120000000E+03 0.  0.
        998    1    1    2    0    0 -0.73356954731E+01 -0.44508775245E+01  0.14748226226E+04  0.14748814836E+04  0.10000000000E+02 0.  1.
</event>
<event>
 5    1  0.1252319E-008  0.3752574E+03  0.7957747E-01  0.3472072E+00
         13   -1    0    0    0    0  0.00000000000E+00  0.00000000000E+00  0.14999999963E+04  0.15000000000E+04  0.10566000000E+00 0.  1.
        994   -1    0    0    0    0 -0.00000000000E+00 -0.00000000000E+00  0.11368683772E-12  0.17120000000E+03  0.17120000000E+03 0.  0.
         13    1    1    2    0    0 -0.12783951573E+03  0.87861291195E+02  0.72651575308E+03  0.74289144490E+03  0.10566000000E+00 0.  1.
        994    1    1    2    0    0  0.13214633480E+03 -0.98791899038E+02  0.10545521512E+03  0.26010139468E+03  0.17120000000E+03 0.  0.
        998    1    1    2    0    0 -0.43068190652E+01  0.10930607843E+02  0.66802902808E+03  0.66820716042E+03  0.10000000000E+02 0.  1.
</event>
<event>
 5    1  0.1252319E-008  0.3753558E+03  0.7957747E-01  0.3471633E+00
         13   -1    0    0    0    0  0.00000000000E+00  0.00000000000E+00  0.14999999963E+04  0.15000000000E+04  0.10566000000E+00 0. -1.
        994   -1    0    0    0    0 -0.00000000000E+00 -0.00000000000E+00  0.11368683772E-12  0.17120000000E+03  0.17120000000E+03 0.  0.
         13    1    1    2    0    0  0.28012459005E+02 -0.16346740378E+02  0.76562295075E+02  0.83148722009E+02  0.10566000000E+00 0. -1.
        994    1    1    2    0    0 -0.21659001087E+02  0.16924305068E+02  0.90655626225E+01  0.17362940090E+03  0.17120000000E+03 0.  0.
        998    1    1    2    0    0 -0.63534579185E+01 -0.57756468944E+00  0.14143721386E+04  0.14144218771E+04  0.10000000000E+02 0. -1.
</event>
<event>
 5    1  0.1252319E-008  0.3845780E+03  0.7957747E-01  0.3431464E+00
         13   -1    0    0    0    0  0.00000000000E+00  0.00000000000E+00  0.14999999963E+04  0.15000000000E+04  0.10566000000E+00 0.  1.
        994   -1    0    0    0    0 -0.00000000000E+00 -0.00000000000E+00  0.11368683772E-12  0.17120000000E+03  0.17120000000E+03 0.  0.
         13    1    1    2    0    0 -0.59983514291E+01  0.15522222550E+02  0.76359037812E+02  0.78151349524E+02  0.10566000000E+00 0.  1.
        994    1    1    2    0    0 -0.64937556870E+01 -0.11434290340E+02  0.24094263346E+01  0.17172116117E+03  0.17120000000E+03 0.  0.
        998    1    1    2    0    0  0.12492107116E+02 -0.40879322094E+01  0.14212315321E+04  0.14213274893E+04  0.10000000000E+02 0.  1.
</event>
<event>
 5    1  0.1252319E-008  0.3816025E+03  0.7957747E-01  0.3444210E+00
         13   -1    0    0    0    0  0.00000000000E+00  0.00000000000E+00  0.14999999963E+04  0.15000000000E+04  0.10566000000E+00 0.  1.
        994   -1    0    0    0    0 -0.00000000000E+00 -0.00000000000E+00  0.11368683772E-12  0.17120000000E+03  0.17120000000E+03 0.  0.
         13    1    1    2    0    0 -0.34487441031E+01  0.13186436643E+02  0.26372297329E+02  0.29686447710E+02  0.10566000000E+00 0.  1.
        994    1    1    2    0    0  0.54052452749E+01 -0.11648838491E+02  0.38749569624E+01  0.17172468491E+03  0.17120000000E+03 0.  0.
        998    1    1    2    0    0 -0.19565011718E+01 -0.15375981518E+01  0.14697527420E+04  0.14697888674E+04  0.10000000000E+02 0.  1.
</event>
<event>
 5    1  0.1252319E-008  0.3818586E+03  0.7957747E-01  0.3443106E+00
         13   -1    0    0    0    0  0.00000000000E+00  0.00000000000E+00  0.14999999963E+04  0.15000000000E+04  0.10566000000E+00 0. -1.
        994   -1    0    0    0    0 -0.00000000000E+00 -0.00000000000E+00  0.11368683772E-12  0.17120000000E+03  0.17120000000E+03 0.  0.
         13    1    1    2    0    0  0.96970708556E+01 -0.27679903751E+02  0.11750885285E+03  0.12111379738E+03  0.10566000000E+00 0. -1.
        994    1    1    2    0    0  0.58487564909E+01  0.43176309465E+02  0.95311487011E+01  0.17691434212E+03  0.17120000000E+03 0.  0.
        998    1    1    2    0    0 -0.15545827347E+02 -0.15496405714E+02  0.13729599947E+04  0.13731718605E+04  0.10000000000E+02 0. -1.
</event>
<event>
 5    1  0.1252319E-008  0.3816999E+03  0.7957747E-01  0.3443790E+00
         13   -1    0    0    0    0  0.00000000000E+00  0.00000000000E+00  0.14999999963E+04  0.15000000000E+04  0.10566000000E+00 0.  1.
        994   -1    0    0    0    0 -0.00000000000E+00 -0.00000000000E+00  0.11368683772E-12  0.17120000000E+03  0.17120000000E+03 0.  0.
         13    1    1    2    0    0  0.50378848102E+02  0.67412226870E+02  0.44583692617E+03  0.45371027382E+03  0.10566000000E+00 0.  1.
        994    1    1    2    0    0 -0.33200277673E+02 -0.14442728363E+03  0.80094666880E+02  0.24017929627E+03  0.17120000000E+03 0.  0.
        998    1    1    2    0    0 -0.17178570430E+02  0.77015056756E+02  0.97406840323E+03  0.97731042992E+03  0.10000000000E+02 0.  1.
</event>
<event>
 5    1  0.1252319E-008  0.3829465E+03  0.7957747E-01  0.3438428E+00
         13   -1    0    0    0    0  0.00000000000E+00  0.00000000000E+00  0.14999999963E+04  0.15000000000E+04  0.10566000000E+00 0.  1.
        994   -1    0    0    0    0 -0.00000000000E+00 -0.00000000000E+00  0.11368683772E-12  0.17120000000E+03  0.17120000000E+03 0.  0.
         13    1    1    2    0    0  0.11167463265E+02 -0.10695730270E+02  0.45268539895E+02  0.47836834657E+02  0.10566000000E+00 0.  1.
        994    1    1    2    0    0 -0.39831518079E+01  0.29869261273E+01  0.27351775449E+01  0.17129421596E+03  0.17120000000E+03 0.  0.
        998    1    1    2    0    0 -0.71843114570E+01  0.77088041424E+01  0.14519962788E+04  0.14520689494E+04  0.10000000000E+02 0.  1.
</event>
<event>
 5    1  0.1252319E-008  0.3833944E+03  0.7957747E-01  0.3436510E+00
         13   -1    0    0    0    0  0.00000000000E+00  0.00000000000E+00  0.14999999963E+04  0.15000000000E+04  0.10566000000E+00 0. -1.
        994   -1    0    0    0    0 -0.00000000000E+00 -0.00000000000E+00  0.11368683772E-12  0.17120000000E+03  0.17120000000E+03 0.  0.
         13    1    1    2    0    0 -0.10311230978E+02 -0.27054784701E+02  0.16829488584E+03  0.17076727621E+03  0.10566000000E+00 0. -1.
        994    1    1    2    0    0  0.11131679845E+02  0.16803400306E+02  0.37736071799E+01  0.17242374740E+03  0.17120000000E+03 0.  0.
        998    1    1    2    0    0 -0.82044886677E+00  0.10251384395E+02  0.13279315033E+04  0.13280089764E+04  0.10000000000E+02 0. -1.
</event>
<event>
 5    1  0.1252319E-008  0.3800870E+03  0.7957747E-01  0.3450780E+00
         13   -1    0    0    0    0  0.00000000000E+00  0.00000000000E+00  0.14999999963E+04  0.15000000000E+04  0.10566000000E+00 0.  1.
        994   -1    0    0    0    0 -0.00000000000E+00 -0.00000000000E+00  0.11368683772E-12  0.17120000000E+03  0.17120000000E+03 0.  0.
         13    1    1    2    0    0  0.62576141382E+01  0.25242868107E+03  0.10830077952E+04  0.11120545366E+04  0.10566000000E+00 0.  1.
        994    1    1    2    0    0  0.41201738461E+01 -0.25046426634E+03  0.25453636215E+03  0.39603980128E+03  0.17120000000E+03 0.  0.
        998    1    1    2    0    0 -0.10377787984E+02 -0.19644147369E+01  0.16245583897E+03  0.16310566214E+03  0.10000000000E+02 0.  1.
</event>
<event>
 5    1  0.1252319E-008  0.3719710E+03  0.7957747E-01  0.3486881E+00
         13   -1    0    0    0    0  0.00000000000E+00  0.00000000000E+00  0.14999999963E+04  0.15000000000E+04  0.10566000000E+00 0.  1.
        994   -1    0    0    0    0 -0.00000000000E+00 -0.00000000000E+00  0.11368683772E-12  0.17120000000E+03  0.17120000000E+03 0.  0.
         13    1    1    2    0    0  0.43567296371E+02 -0.78715558831E+02  0.47629779445E+03  0.48472038195E+03  0.10566000000E+00 0.  1.
        994    1    1    2    0    0 -0.94642557073E+02  0.21908072415E+02  0.41384145706E+02  0.20114488500E+03  0.17120000000E+03 0.  0.
        998    1    1    2    0    0  0.51075260703E+02  0.56807486416E+02  0.98231805613E+03  0.98533473305E+03  0.10000000000E+02 0.  1.
</event>
<event>
 5    1  0.1252319E-008  0.3817172E+03  0.7957747E-01  0.3443715E+00
         13   -1    0    0    0    0  0.00000000000E+00  0.00000000000E+00  0.14999999963E+04  0.15000000000E+04  0.10566000000E+00 0.  1.
        994   -1    0    0    0    0 -0.00000000000E+00 -0.00000000000E+00  0.11368683772E-12  0.17120000000E+03  0.17120000000E+03 0.  0.
         13    1    1    2    0    0 -0.43785293024E+01  0.11167167623E+02  0.20247972087E+02  0.23534414997E+02  0.10566000000E+00 0.  1.
        994    1    1    2    0    0  0.90289787680E+01 -0.13762341849E+02  0.41699077555E+01  0.17203997396E+03  0.17120000000E+03 0.  0.
        998    1    1    2    0    0 -0.46504494656E+01  0.25951742266E+01  0.14755821164E+04  0.14756256110E+04  0.10000000000E+02 0.  1.
</event>
<event>
 5    1  0.1252319E-008  0.3757975E+03  0.7957747E-01  0.3469664E+00
         13   -1    0    0    0    0  0.00000000000E+00  0.00000000000E+00  0.14999999963E+04  0.15000000000E+04  0.10566000000E+00 0. -1.
        994   -1    0    0    0    0 -0.00000000000E+00 -0.00000000000E+00  0.11368683772E-12  0.17120000000E+03  0.17120000000E+03 0.  0.
         13    1    1    2    0    0  0.93502645889E+01  0.27957568764E+02  0.69961294894E+02  0.75918687070E+02  0.10566000000E+00 0. -1.
        994    1    1    2    0    0  0.45684028003E+01 -0.88152902002E+01  0.66040387797E+01  0.17161478076E+03  0.17120000000E+03 0.  0.
        998    1    1    2    0    0 -0.13918667389E+02 -0.19142278564E+02  0.14234346626E+04  0.14236665322E+04  0.10000000000E+02 0. -1.
</event>
<event>
 5    1  0.1252319E-008  0.3857891E+03  0.7957747E-01  0.3426332E+00
         13   -1    0    0    0    0  0.00000000000E+00  0.00000000000E+00  0.14999999963E+04  0.15000000000E+04  0.10566000000E+00 0. -1.
        994   -1    0    0    0    0 -0.00000000000E+00 -0.00000000000E+00  0.11368683772E-12  0.17120000000E+03  0.17120000000E+03 0.  0.
         13    1    1    2    0    0  0.95030106030E+01  0.93841097490E+01  0.69555743383E+02  0.70826416879E+02  0.10566000000E+00 0. -1.
        994    1    1    2    0    0 -0.54920128373E+01 -0.15354185965E+02  0.21116086418E+01  0.17198782551E+03  0.17120000000E+03 0.  0.
        998    1    1    2    0    0 -0.40109977657E+01  0.59700762157E+01  0.14283326443E+04  0.14283857576E+04  0.10000000000E+02 0. -1.
</event>
<event>
 5    1  0.1252319E-008  0.3797335E+03  0.7957747E-01  0.3452320E+00
         13   -1    0    0    0    0  0.00000000000E+00  0.00000000000E+00  0.14999999963E+04  0.15000000000E+04  0.10566000000E+00 0. -1.
        994   -1    0    0    0    0 -0.00000000000E+00 -0.00000000000E+00  0.11368683772E-12  0.17120000000E+03  0.17120000000E+03 0.  0.
         13    1    1    2    0    0  0.30366829607E+02 -0.23847198066E+02  0.19518533484E+03  0.19896773431E+03  0.10566000000E+00 0. -1.
        994    1    1    2    0    0 -0.30280273441E+01  0.60340057296E+01  0.44202233131E+01  0.17139007133E+03  0.17120000000E+03 0.  0.
        998    1    1    2    0    0 -0.27338802263E+02  0.17813192337E+02  0.13003944381E+04  0.13008421944E+04  0.10000000000E+02 0. -1.
</event>
<event>
 5    1  0.1252319E-008  0.3816648E+03  0.7957747E-01  0.3443942E+00
         13   -1    0    0    0    0  0.00000000000E+00  0.00000000000E+00  0.14999999963E+04  0.15000000000E+04  0.10566000000E+00 0.  1.
        994   -1    0    0    0    0 -0.00000000000E+00 -0.00000000000E+00  0.11368683772E-12  0.17120000000E+03  0.17120000000E+03 0.  0.
         13    1    1    2    0    0  0.19455234697E+02 -0.12907180485E+02  0.92538042742E+02  0.95437948342E+02  0.10566000000E+00 0.  1.
        994    1    1    2    0    0 -0.26696851707E+02 -0.49212801454E+02  0.13787549554E+02  0.18064926859E+03  0.17120000000E+03 0.  0.
        998    1    1    2    0    0  0.72416170098E+01  0.62119981939E+02  0.13936744040E+04  0.13951127831E+04  0.10000000000E+02 0.  1.
</event>
<event>
 5    1  0.1252319E-008  0.3737890E+03  0.7957747E-01  0.3478657E+00
         13   -1    0    0    0    0  0.00000000000E+00  0.00000000000E+00  0.14999999963E+04  0.15000000000E+04  0.10566000000E+00 0.  1.
        994   -1    0    0    0    0 -0.00000000000E+00 -0.00000000000E+00  0.11368683772E-12  0.17120000000E+03  0.17120000000E+03 0.  0.
         13    1    1    2    0    0 -0.21071272174E+02 -0.45108670610E+02  0.17636453612E+03  0.18325733666E+03  0.10566000000E+00 0.  1.
        994    1    1    2    0    0  0.12205527574E+02  0.15844449000E+02  0.86684467622E+01  0.17258216431E+03  0.17120000000E+03 0.  0.
        998    1    1    2    0    0  0.88657445995E+01  0.29264221610E+02  0.13149670134E+04  0.13153604990E+04  0.10000000000E+02 0.  1.
</event>
<event>
 5    1  0.1252319E-008  0.3753452E+03  0.7957747E-01  0.3471680E+00
         13   -1    0    0    0    0  0.00000000000E+00  0.00000000000E+00  0.14999999963E+04  0.15000000000E+04  0.10566000000E+00 0. -1.
        994   -1    0    0    0    0 -0.00000000000E+00 -0.00000000000E+00  0.11368683772E-12  0.17120000000E+03  0.17120000000E+03 0.  0.
         13    1    1    2    0    0  0.55537870105E+02  0.21761399420E+02  0.13328962809E+03  0.14602790707E+03  0.10566000000E+00 0. -1.
        994    1    1    2    0    0 -0.18044379762E+02 -0.70055480398E+01  0.15129518450E+02  0.17295380792E+03  0.17120000000E+03 0.  0.
        998    1    1    2    0    0 -0.37493490342E+02 -0.14755851380E+02  0.13515808497E+04  0.13522182850E+04  0.10000000000E+02 0. -1.
</event>
<event>
 5    1  0.1252319E-008  0.3795864E+03  0.7957747E-01  0.3452961E+00
         13   -1    0    0    0    0  0.00000000000E+00  0.00000000000E+00  0.14999999963E+04  0.15000000000E+04  0.10566000000E+00 0. -1.
        994   -1    0    0    0    0 -0.00000000000E+00 -0.00000000000E+00  0.11368683772E-12  0.17120000000E+03  0.17120000000E+03 0.  0.
         13    1    1    2    0    0  0.33113684043E+02  0.19885978514E+02  0.14948982871E+03  0.15439944386E+03  0.10566000000E+00 0. -1.
        994    1    1    2    0    0 -0.53944106112E+02  0.22759779035E+01  0.14163010530E+02  0.18006992399E+03  0.17120000000E+03 0.  0.
        998    1    1    2    0    0  0.20830422069E+02 -0.22161956417E+02  0.13363471570E+04  0.13367306321E+04  0.10000000000E+02 0. -1.
</event>
<event>
 5    1  0.1252319E-008  0.3826672E+03  0.7957747E-01  0.3439627E+00
         13   -1    0    0    0    0  0.00000000000E+00  0.00000000000E+00  0.14999999963E+04  0.15000000000E+04  0.10566000000E+00 0. -1.
        994   -1    0    0    0    0 -0.00000000000E+00 -0.00000000000E+00  0.11368683772E-12  0.17120000000E+03  0.17120000000E+03 0.  0.
         13    1    1    2    0    0  0.50010201567E+01 -0.15470098195E+02  0.46434675019E+02  0.49198824670E+02  0.10566000000E+00 0. -1.
        994    1    1    2    0    0  0.27042924449E+01  0.12174540069E+02  0.33083553976E+01  0.17168552018E+03  0.17120000000E+03 0.  0.
        998    1    1    2    0    0 -0.77053126016E+01  0.32955581263E+01  0.14502569659E+04  0.14503156552E+04  0.10000000000E+02 0. -1.
</event>
<event>
 5    1  0.1252319E-008  0.3842053E+03  0.7957747E-01  0.3433050E+00
         13   -1    0    0    0    0  0.00000000000E+00  0.00000000000E+00  0.14999999963E+04  0.15000000000E+04  0.10566000000E+00 0.  1.
        994   -1    0    0    0    0 -0.00000000000E+00 -0.00000000000E+00  0.11368683772E-12  0.17120000000E+03  0.17120000000E+03 0.  0.
         13    1    1    2    0    0 -0.81776361450E+01  0.19219497249E+02  0.10080209161E+03  0.10294336135E+03  0.10566000000E+00 0.  1.
        994    1    1    2    0    0  0.11802664479E+02 -0.18955313812E+02  0.36709192757E+01  0.17268909189E+03  0.17120000000E+03 0.  0.
        998    1    1    2    0    0 -0.36250283343E+01 -0.26418343670E+00  0.13955269854E+04  0.13955675468E+04  0.10000000000E+02 0.  1.
</event>
<event>
 5    1  0.1252319E-008  0.3860161E+03  0.7957747E-01  0.3425374E+00
         13   -1    0    0    0    0  0.00000000000E+00  0.00000000000E+00  0.14999999963E+04  0.15000000000E+04  0.10566000000E+00 0.  1.
        994   -1    0    0    0    0 -0.00000000000E+00 -0.00000000000E+00  0.11368683772E-12  0.17120000000E+03  0.17120000000E+03 0.  0.
         13    1    1    2    0    0  0.30781341785E+01 -0.10102257256E+02  0.49343633423E+02  0.50461231011E+02  0.10566000000E+00 0.  1.
        994    1    1    2    0    0  0.25513676508E+01  0.10657139721E+02  0.15202274375E+01  0.17155709019E+03  0.17120000000E+03 0.  0.
        998    1    1    2    0    0 -0.56295018292E+01 -0.55488246557E+00  0.14491361354E+04  0.14491816788E+04  0.10000000000E+02 0.  1.
</event>
<event>
 5    1  0.1252319E-008  0.3853986E+03  0.7957747E-01  0.3427983E+00
         13   -1    0    0    0    0  0.00000000000E+00  0.00000000000E+00  0.14999999963E+04  0.15000000000E+04  0.10566000000E+00 0.  1.
        994   -1    0    0    0    0 -0.00000000000E+00 -0.00000000000E+00  0.11368683772E-12  0.17120000000E+03  0.17120000000E+03 0.  0.
         13    1    1    2    0    0  0.84049127977E+01  0.11177268220E+02  0.60817057676E+02  0.62404323187E+02  0.10566000000E+00 0.  1.
        994    1    1    2    0    0 -0.12884474888E+02 -0.25374870772E+02  0.40968955925E+01  0.17359757577E+03  0.17120000000E+03 0.  0.
        998    1    1    2    0    0  0.44795620903E+01  0.14197602551E+02  0.14350860430E+04  0.14351981010E+04  0.10000000000E+02 0.  1.
</event>
<event>
 5    1  0.1252319E-008  0.3774928E+03  0.7957747E-01  0.3462149E+00
         13   -1    0    0    0    0  0.00000000000E+00  0.00000000000E+00  0.14999999963E+04  0.15000000000E+04  0.10566000000E+00 0. -1.
        994   -1    0    0    0    0 -0.00000000000E+00 -0.00000000000E+00  0.11368683772E-12  0.17120000000E+03  0.17120000000E+03 0.  0.
         13    1    1    2    0    0 -0.24021940317E+02 -0.22037129208E+02  0.93967391919E+02  0.99461402506E+02  0.10566000000E+00 0. -1.
        994    1    1    2    0    0  0.16324477627E+02  0.20200699276E+02  0.76813190493E+01  0.17332916513E+03  0.17120000000E+03 0.  0.
        998    1    1    2    0    0  0.76974626902E+01  0.18364299324E+01  0.13983512853E+04  0.13984094324E+04  0.10000000000E+02 0. -1.
</event>
<event>
 5    1  0.1252319E-008  0.3745654E+03  0.7957747E-01  0.3475169E+00
         13   -1    0    0    0    0  0.00000000000E+00  0.00000000000E+00  0.14999999963E+04  0.15000000000E+04  0.10566000000E+00 0.  1.
        994   -1    0    0    0    0 -0.00000000000E+00 -0.00000000000E+00  0.11368683772E-12  0.17120000000E+03  0.17120000000E+03 0.  0.
         13    1    1    2    0    0 -0.12231527857E+02  0.11095245527E+03  0.34678551962E+03  0.36430792660E+03  0.10566000000E+00 0.  1.
        994    1    1    2    0    0  0.12581957302E+02 -0.11131036179E+03  0.59411608488E+02  0.21304337942E+03  0.17120000000E+03 0.  0.
        998    1    1    2    0    0 -0.35042944535E+00  0.35790652654E+00  0.10938028682E+04  0.10938486940E+04  0.10000000000E+02 0.  0.
</event>
<event>
 5    1  0.1252319E-008  0.3817690E+03  0.7957747E-01  0.3443492E+00
         13   -1    0    0    0    0  0.00000000000E+00  0.00000000000E+00  0.14999999963E+04  0.15000000000E+04  0.10566000000E+00 0.  1.
        994   -1    0    0    0    0 -0.00000000000E+00 -0.00000000000E+00  0.11368683772E-12  0.17120000000E+03  0.17120000000E+03 0.  0.
         13    1    1    2    0    0  0.20496475298E+02  0.15648061452E+02  0.10064573346E+03  0.10389678606E+03  0.10566000000E+00 0.  1.
        994    1    1    2    0    0 -0.15691146540E+02 -0.78453413544E+01  0.42663465142E+01  0.17214936298E+03  0.17120000000E+03 0.  0.
        998    1    1    2    0    0 -0.48053287584E+01 -0.78027200976E+01  0.13950879163E+04  0.13951538510E+04  0.10000000000E+02 0.  1.
</event>
<event>
 5    1  0.1252319E-008  0.3733782E+03  0.7957747E-01  0.3480508E+00
         13   -1    0    0    0    0  0.00000000000E+00  0.00000000000E+00  0.14999999963E+04  0.15000000000E+04  0.10566000000E+00 0.  1.
        994   -1    0    0    0    0 -0.00000000000E+00 -0.00000000000E+00  0.11368683772E-12  0.17120000000E+03  0.17120000000E+03 0.  0.
         13    1    1    2    0    0  0.23707229499E+02 -0.17331461280E+02  0.53357926286E+02  0.60905596970E+02  0.10566000000E+00 0.  1.
        994    1    1    2    0    0 -0.17680236079E+02  0.19882831907E+02  0.99373065077E+01  0.17353993147E+03  0.17120000000E+03 0.  0.
        998    1    1    2    0    0 -0.60269934198E+01 -0.25513706273E+01  0.14367047635E+04  0.14367544716E+04  0.10000000000E+02 0.  1.
</event>
<event>
 5    1  0.1252319E-008  0.3704002E+03  0.7957747E-01  0.3494054E+00
         13   -1    0    0    0    0  0.00000000000E+00  0.00000000000E+00  0.14999999963E+04  0.15000000000E+04  0.10566000000E+00 0. -1.
        994   -1    0    0    0    0 -0.00000000000E+00 -0.00000000000E+00  0.11368683772E-12  0.17120000000E+03  0.17120000000E+03 0.  0.
         13    1    1    2    0    0  0.27166182752E+00 -0.24009202620E+02  0.21317835484E+02  0.32108828760E+02  0.10566000000E+00 0. -1.
        994    1    1    2    0    0 -0.70967569527E+01  0.13931232724E+02  0.12006793335E+02  0.17233121102E+03  0.17120000000E+03 0.  0.
        998    1    1    2    0    0  0.68250951251E+01  0.10077969896E+02  0.14666753675E+04  0.14667599602E+04  0.10000000000E+02 0. -1.
</event>
<event>
 5    1  0.1252319E-008  0.3753357E+03  0.7957747E-01  0.3471723E+00
         13   -1    0    0    0    0  0.00000000000E+00  0.00000000000E+00  0.14999999963E+04  0.15000000000E+04  0.10566000000E+00 0.  1.
        994   -1    0    0    0    0 -0.00000000000E+00 -0.00000000000E+00  0.11368683772E-12  0.17120000000E+03  0.17120000000E+03 0.  0.
         13    1    1    2    0    0  0.10145563369E+02  0.12159855791E+02  0.16681149136E+02  0.23001444508E+02  0.10566000000E+00 0.  1.
        994    1    1    2    0    0 -0.67471335239E+01 -0.11468929147E+01  0.66654739088E+01  0.17146634573E+03  0.17120000000E+03 0.  0.
        998    1    1    2    0    0 -0.33984298450E+01 -0.11012962877E+02  0.14766533732E+04  0.14767322098E+04  0.10000000000E+02 0.  1.
</event>
<event>
 5    1  0.1252319E-008  0.3856401E+03  0.7957747E-01  0.3426962E+00
         13   -1    0    0    0    0  0.00000000000E+00  0.00000000000E+00  0.14999999963E+04  0.15000000000E+04  0.10566000000E+00 0. -1.
        994   -1    0    0    0    0 -0.00000000000E+00 -0.00000000000E+00  0.11368683772E-12  0.17120000000E+03  0.17120000000E+03 0.  0.
         13    1    1    2    0    0  0.75807926117E+00  0.12396667826E+02  0.60188688844E+02  0.61456826197E+02  0.10566000000E+00 0. -1.
        994    1    1    2    0    0 -0.89920990791E+00 -0.56594757230E+01  0.14204472641E+01  0.17130176857E+03  0.17120000000E+03 0.  0.
        998    1    1    2    0    0  0.14113064674E+00 -0.67371921025E+01  0.14383908602E+04  0.14384414052E+04  0.10000000000E+02 0. -1.
</event>
<event>
 5    1  0.1252319E-008  0.3858324E+03  0.7957747E-01  0.3426150E+00
         13   -1    0    0    0    0  0.00000000000E+00  0.00000000000E+00  0.14999999963E+04  0.15000000000E+04  0.10566000000E+00 0. -1.
        994   -1    0    0    0    0 -0.00000000000E+00 -0.00000000000E+00  0.11368683772E-12  0.17120000000E+03  0.17120000000E+03 0.  0.
         13    1    1    2    0    0 -0.75815860222E+00  0.12540766137E+02  0.63046258785E+02  0.64285982380E+02  0.10566000000E+00 0. -1.
        994    1    1    2    0    0 -0.16733876332E+01 -0.13694395730E+02  0.18419503156E+01  0.17176486684E+03  0.17120000000E+03 0.  0.
        998    1    1    2    0    0  0.24315462355E+01  0.11536295924E+01  0.14351117872E+04  0.14351491508E+04  0.10000000000E+02 0. -1.
</event>
<event>
 5    1  0.1252319E-008  0.3769831E+03  0.7957747E-01  0.3464401E+00
         13   -1    0    0    0    0  0.00000000000E+00  0.00000000000E+00  0.14999999963E+04  0.15000000000E+04  0.10566000000E+00 0.  1.
        994   -1    0    0    0    0 -0.00000000000E+00 -0.00000000000E+00  0.11368683772E-12  0.17120000000E+03  0.17120000000E+03 0.  0.
         13    1    1    2    0    0 -0.39749027773E+01 -0.14588314381E+02  0.17446296482E+02  0.23086861925E+02  0.10566000000E+00 0.  1.
        994    1    1    2    0    0  0.61084233988E+00  0.17972143654E+02  0.67565341499E+01  0.17227437949E+03  0.17120000000E+03 0.  0.
        998    1    1    2    0    0  0.33640604375E+01 -0.33838292731E+01  0.14757971656E+04  0.14758387586E+04  0.10000000000E+02 0.  1.
</event>
<event>
 5    1  0.1252319E-008  0.3774343E+03  0.7957747E-01  0.3462407E+00
         13   -1    0    0    0    0  0.00000000000E+00  0.00000000000E+00  0.14999999963E+04  0.15000000000E+04  0.10566000000E+00 0. -1.
        994   -1    0    0    0    0 -0.00000000000E+00 -0.00000000000E+00  0.11368683772E-12  0.17120000000E+03  0.17120000000E+03 0.  0.
         13    1    1    2    0    0 -0.97454130488E+02  0.15545700479E+02  0.48555091880E+03  0.49547823592E+03  0.10566000000E+00 0. -1.
        994    1    1    2    0    0  0.11567899043E+03 -0.11260573030E+02  0.52423616500E+02  0.21346218611E+03  0.17120000000E+03 0.  0.
        998    1    1    2    0    0 -0.18224859942E+02 -0.42851274487E+01  0.96202546098E+03  0.96225957797E+03  0.10000000000E+02 0. -1.
</event>
<event>
 5    1  0.1252319E-008  0.3188071E+03  0.7957747E-01  0.3770275E+00
         13   -1    0    0    0    0  0.00000000000E+00  0.00000000000E+00  0.14999999963E+04  0.15000000000E+04  0.10566000000E+00 0. -1.
        994   -1    0    0    0    0 -0.00000000000E+00 -0.00000000000E+00  0.11368683772E-12  0.17120000000E+03  0.17120000000E+03 0.  0.
         13    1    1    2    0    0 -0.98304390016E+02 -0.15981099316E+03  0.88276634754E+03  0.90248531409E+03  0.10566000000E+00 0. -1.
        994    1    1    2    0    0  0.12365575009E+03  0.81934234397E+02  0.10464378319E+03  0.24952700186E+03  0.17120000000E+03 0.  0.
        998    1    1    2    0    0 -0.25351360075E+02  0.77876758758E+02  0.51258986554E+03  0.51918768405E+03  0.10000000000E+02 0. -1.
</event>
<event>
 5    1  0.1252319E-008  0.3717633E+03  0.7957747E-01  0.3487826E+00
         13   -1    0    0    0    0  0.00000000000E+00  0.00000000000E+00  0.14999999963E+04  0.15000000000E+04  0.10566000000E+00 0.  1.
        994   -1    0    0    0    0 -0.00000000000E+00 -0.00000000000E+00  0.11368683772E-12  0.17120000000E+03  0.17120000000E+03 0.  0.
         13    1    1    2    0    0 -0.39456862394E+02 -0.55556167790E+01  0.86165675820E+02  0.94932837950E+02  0.10566000000E+00 0.  1.
        994    1    1    2    0    0  0.43045214455E+02  0.41960863190E+01  0.14806247950E+02  0.17719808861E+03  0.17120000000E+03 0.  0.
        998    1    1    2    0    0 -0.35883520613E+01  0.13595304600E+01  0.13990280725E+04  0.13990690734E+04  0.10000000000E+02 0.  1.
</event>
<event>
 5    1  0.1252319E-008  0.3817523E+03  0.7957747E-01  0.3443564E+00
         13   -1    0    0    0    0  0.00000000000E+00  0.00000000000E+00  0.14999999963E+04  0.15000000000E+04  0.10566000000E+00 0. -1.
        994   -1    0    0    0    0 -0.00000000000E+00 -0.00000000000E+00  0.11368683772E-12  0.17120000000E+03  0.17120000000E+03 0.  0.
         13    1    1    2    0    0 -0.29482093524E+01  0.96004851995E+01  0.14255372926E+02  0.17438121337E+02  0.10566000000E+00 0. -1.
        994    1    1    2    0    0  0.47241831026E-02 -0.46456394882E+01  0.33229288419E+01  0.17129525342E+03  0.17120000000E+03 0.  0.
        998    1    1    2    0    0  0.29434851693E+01 -0.49548457113E+01  0.14824216945E+04  0.14824666252E+04  0.10000000000E+02 0. -1.
</event>
<event>
 5    1  0.1252319E-008  0.3845700E+03  0.7957747E-01  0.3431498E+00
         13   -1    0    0    0    0  0.00000000000E+00  0.00000000000E+00  0.14999999963E+04  0.15000000000E+04  0.10566000000E+00 0.  1.
        994   -1    0    0    0    0 -0.00000000000E+00 -0.00000000000E+00  0.11368683772E-12  0.17120000000E+03  0.17120000000E+03 0.  0.
         13    1    1    2    0    0  0.73433825011E+01 -0.19002588019E+02  0.11032511344E+03  0.11219030902E+03  0.10566000000E+00 0.  1.
        994    1    1    2    0    0 -0.13380258184E+02  0.11176045425E+02  0.28453611819E+01  0.17210889396E+03  0.17120000000E+03 0.  0.
        998    1    1    2    0    0  0.60368756825E+01  0.78265425941E+01  0.13868295217E+04  0.13869007970E+04  0.10000000000E+02 0.  1.
</event>
<event>
 5    1  0.1252319E-008  0.3836335E+03  0.7957747E-01  0.3435488E+00
         13   -1    0    0    0    0  0.00000000000E+00  0.00000000000E+00  0.14999999963E+04  0.15000000000E+04  0.10566000000E+00 0.  1.
        994   -1    0    0    0    0 -0.00000000000E+00 -0.00000000000E+00  0.11368683772E-12  0.17120000000E+03  0.17120000000E+03 0.  0.
         13    1    1    2    0    0 -0.46603359227E+01  0.10435944031E+02  0.27756712673E+02  0.30017893350E+02  0.10566000000E+00 0.  1.
        994    1    1    2    0    0  0.44363119513E+01 -0.43853631489E+01  0.24386291806E+01  0.17133096389E+03  0.17120000000E+03 0.  0.
        998    1    1    2    0    0  0.22402397147E+00 -0.60505808824E+01  0.14698046544E+04  0.14698511428E+04  0.10000000000E+02 0.  1.
</event>
<event>
 5    1  0.1252319E-008  0.3755139E+03  0.7957747E-01  0.3470928E+00
         13   -1    0    0    0    0  0.00000000000E+00  0.00000000000E+00  0.14999999963E+04  0.15000000000E+04  0.10566000000E+00 0.  1.
        994   -1    0    0    0    0 -0.00000000000E+00 -0.00000000000E+00  0.11368683772E-12  0.17120000000E+03  0.17120000000E+03 0.  0.
         13    1    1    2    0    0 -0.14389180389E+02 -0.38926564756E+02  0.12790927800E+03  0.13447349374E+03  0.10566000000E+00 0.  1.
        994    1    1    2    0    0  0.14263672353E+02  0.28209743156E+02  0.98133200189E+01  0.17437024748E+03  0.17120000000E+03 0.  0.
        998    1    1    2    0    0  0.12550803513E+00  0.10716821600E+02  0.13622773983E+04  0.13623562588E+04  0.10000000000E+02 0.  1.
</event>
<event>
 5    1  0.1252319E-008  0.3823314E+03  0.7957747E-01  0.3441070E+00
         13   -1    0    0    0    0  0.00000000000E+00  0.00000000000E+00  0.14999999963E+04  0.15000000000E+04  0.10566000000E+00 0.  1.
        994   -1    0    0    0    0 -0.00000000000E+00 -0.00000000000E+00  0.11368683772E-12  0.17120000000E+03  0.17120000000E+03 0.  0.
         13    1    1    2    0    0  0.11056362339E+02  0.28274118341E+02  0.14062186601E+03  0.14386170192E+03  0.10566000000E+00 0.  1.
        994    1    1    2    0    0 -0.16254823857E+02 -0.27715306315E+02  0.63931417026E+01  0.17430625280E+03  0.17120000000E+03 0.  0.
        998    1    1    2    0    0  0.51984615175E+01 -0.55881202604E+00  0.13529849886E+04  0.13530320453E+04  0.10000000000E+02 0.  1.
</event>
<event>
 5    1  0.1252319E-008  0.3849064E+03  0.7957747E-01  0.3430069E+00
         13   -1    0    0    0    0  0.00000000000E+00  0.00000000000E+00  0.14999999963E+04  0.15000000000E+04  0.10566000000E+00 0.  1.
        994   -1    0    0    0    0 -0.00000000000E+00 -0.00000000000E+00  0.11368683772E-12  0.17120000000E+03  0.17120000000E+03 0.  0.
         13    1    1    2    0    0  0.19561488745E+02 -0.14281077698E+02  0.13695389474E+03  0.13907904756E+03  0.10566000000E+00 0.  1.
        994    1    1    2    0    0 -0.28348885423E+02  0.34292322923E+02  0.82161803443E+01  0.17707785953E+03  0.17120000000E+03 0.  0.
        998    1    1    2    0    0  0.87873966778E+01 -0.20011245225E+02  0.13548299212E+04  0.13550430929E+04  0.10000000000E+02 0.  1.
</event>
<event>
 5    1  0.1252319E-008  0.3847052E+03  0.7957747E-01  0.3430923E+00
         13   -1    0    0    0    0  0.00000000000E+00  0.00000000000E+00  0.14999999963E+04  0.15000000000E+04  0.10566000000E+00 0. -1.
        994   -1    0    0    0    0 -0.00000000000E+00 -0.00000000000E+00  0.11368683772E-12  0.17120000000E+03  0.17120000000E+03 0.  0.
         13    1    1    2    0    0 -0.54994666672E+01  0.11177250451E+02  0.42200270037E+02  0.44000557002E+02  0.10566000000E+00 0. -1.
        994    1    1    2    0    0  0.75294412264E+01 -0.12165137577E+02  0.24506167862E+01  0.17181422694E+03  0.17120000000E+03 0.  0.
        998    1    1    2    0    0 -0.20299745592E+01  0.98788712556E+00  0.14553491095E+04  0.14553852161E+04  0.10000000000E+02 0. -1.
</event>
<event>
 5    1  0.1252319E-008  0.3807816E+03  0.7957747E-01  0.3447762E+00
         13   -1    0    0    0    0  0.00000000000E+00  0.00000000000E+00  0.14999999963E+04  0.15000000000E+04  0.10566000000E+00 0.  1.
        994   -1    0    0    0    0 -0.00000000000E+00 -0.00000000000E+00  0.11368683772E-12  0.17120000000E+03  0.17120000000E+03 0.  0.
         13    1    1    2    0    0  0.57395150709E+01  0.13004185137E+02  0.25136805929E+02  0.28877691055E+02  0.10566000000E+00 0.  1.
        994    1    1    2    0    0 -0.46471865427E+01 -0.14334544264E+02  0.44966168980E+01  0.17192072320E+03  0.17120000000E+03 0.  0.
        998    1    1    2    0    0 -0.10923285282E+01  0.13303591270E+01  0.14703665735E+04  0.14704015857E+04  0.10000000000E+02 0.  1.
</event>
<event>
 5    1  0.1252319E-008  0.3740716E+03  0.7957747E-01  0.3477385E+00
         13   -1    0    0    0    0  0.00000000000E+00  0.00000000000E+00  0.14999999963E+04  0.15000000000E+04  0.10566000000E+00 0. -1.
        994   -1    0    0    0    0 -0.00000000000E+00 -0.00000000000E+00  0.11368683772E-12  0.17120000000E+03  0.17120000000E+03 0.  0.
         13    1    1    2    0    0  0.70942239422E+02 -0.89047449475E+02  0.35881939315E+03  0.37644869193E+03  0.10566000000E+00 0. -1.
        994    1    1    2    0    0 -0.66784586214E+02  0.95310681737E+02  0.62841380233E+02  0.21633951576E+03  0.17120000000E+03 0.  0.
        998    1    1    2    0    0 -0.41576532077E+01 -0.62632322622E+01  0.10783392229E+04  0.10784117923E+04  0.10000000000E+02 0. -1.
</event>
<event>
 5    1  0.1252319E-008  0.3784664E+03  0.7957747E-01  0.3457863E+00
         13   -1    0    0    0    0  0.00000000000E+00  0.00000000000E+00  0.14999999963E+04  0.15000000000E+04  0.10566000000E+00 0. -1.
        994   -1    0    0    0    0 -0.00000000000E+00 -0.00000000000E+00  0.11368683772E-12  0.17120000000E+03  0.17120000000E+03 0.  0.
         13    1    1    2    0    0  0.26504058544E+03 -0.64235085266E+02  0.92476529447E+03  0.96413874475E+03  0.10566000000E+00 0. -1.
        994    1    1    2    0    0 -0.27099925572E+03  0.75992859257E+02  0.34789363617E+03  0.47911891357E+03  0.17120000000E+03 0.  0.
        998    1    1    2    0    0  0.59586702807E+01 -0.11757773991E+02  0.22734106564E+03  0.22794234168E+03  0.10000000000E+02 0. -1.
</event>
<event>
 5    1  0.1252319E-008  0.3739367E+03  0.7957747E-01  0.3477992E+00
         13   -1    0    0    0    0  0.00000000000E+00  0.00000000000E+00  0.14999999963E+04  0.15000000000E+04  0.10566000000E+00 0.  1.
        994   -1    0    0    0    0 -0.00000000000E+00 -0.00000000000E+00  0.11368683772E-12  0.17120000000E+03  0.17120000000E+03 0.  0.
         13    1    1    2    0    0 -0.12183426045E+02 -0.51468382549E+01  0.85074261934E+01  0.15726197210E+02  0.10566000000E+00 0.  1.
        994    1    1    2    0    0  0.12763296986E+02  0.33607739940E+02  0.11647409840E+02  0.17532108855E+03  0.17120000000E+03 0.  0.
        998    1    1    2    0    0 -0.57987094138E+00 -0.28460901685E+02  0.14798451602E+04  0.14801527142E+04  0.10000000000E+02 0.  1.
</event>
<event>
 5    1  0.1252319E-008  0.3810679E+03  0.7957747E-01  0.3446522E+00
         13   -1    0    0    0    0  0.00000000000E+00  0.00000000000E+00  0.14999999963E+04  0.15000000000E+04  0.10566000000E+00 0.  1.
        994   -1    0    0    0    0 -0.00000000000E+00 -0.00000000000E+00  0.11368683772E-12  0.17120000000E+03  0.17120000000E+03 0.  0.
         13    1    1    2    0    0 -0.23156928565E+02  0.26196007996E+00  0.75057310425E+02  0.78548857254E+02  0.10566000000E+00 0.  1.
        994    1    1    2    0    0  0.98629719441E+01  0.63469368856E+01  0.40534417457E+01  0.17164915442E+03  0.17120000000E+03 0.  0.
        998    1    1    2    0    0  0.13293956621E+02 -0.66088969656E+01  0.14208892441E+04  0.14210019883E+04  0.10000000000E+02 0.  1.
</event>
<event>
 5    1  0.1252319E-008  0.3829395E+03  0.7957747E-01  0.3438458E+00
         13   -1    0    0    0    0  0.00000000000E+00  0.00000000000E+00  0.14999999963E+04  0.15000000000E+04  0.10566000000E+00 0.  1.
        994   -1    0    0    0    0 -0.00000000000E+00 -0.00000000000E+00  0.11368683772E-12  0.17120000000E+03  0.17120000000E+03 0.  0.
         13    1    1    2    0    0 -0.13632513083E+02  0.53959313510E+01  0.38733607898E+02  0.41415758269E+02  0.10566000000E+00 0.  1.
        994    1    1    2    0    0  0.14196668926E+02 -0.60186018615E+01  0.34442043318E+01  0.17192751822E+03  0.17120000000E+03 0.  0.
        998    1    1    2    0    0 -0.56415584229E+00  0.62267051053E+00  0.14578221840E+04  0.14578567235E+04  0.10000000000E+02 0.  1.
</event>
<event>
 5    1  0.1252319E-008  0.3699718E+03  0.7957747E-01  0.3496020E+00
         13   -1    0    0    0    0  0.00000000000E+00  0.00000000000E+00  0.14999999963E+04  0.15000000000E+04  0.10566000000E+00 0. -1.
        994   -1    0    0    0    0 -0.00000000000E+00 -0.00000000000E+00  0.11368683772E-12  0.17120000000E+03  0.17120000000E+03 0.  0.
         13    1    1    2    0    0  0.55340809460E+01 -0.28139889285E+02  0.37127200598E+02  0.46913959641E+02  0.10566000000E+00 0. -1.
        994    1    1    2    0    0 -0.57528311720E+02  0.40952269390E+02  0.26730650916E+02  0.18711109726E+03  0.17120000000E+03 0.  0.
        998    1    1    2    0    0  0.51994230774E+02 -0.12812380105E+02  0.14361421448E+04  0.14371749431E+04  0.10000000000E+02 0. -1.
</event>
<event>
 5    1  0.1252319E-008  0.3845935E+03  0.7957747E-01  0.3431398E+00
         13   -1    0    0    0    0  0.00000000000E+00  0.00000000000E+00  0.14999999963E+04  0.15000000000E+04  0.10566000000E+00 0. -1.
        994   -1    0    0    0    0 -0.00000000000E+00 -0.00000000000E+00  0.11368683772E-12  0.17120000000E+03  0.17120000000E+03 0.  0.
         13    1    1    2    0    0 -0.23974805747E+01 -0.17436415535E+02  0.83711480851E+02  0.85541800835E+02  0.10566000000E+00 0. -1.
        994    1    1    2    0    0  0.93360010698E+01  0.11403949465E+02  0.25476713358E+01  0.17185209224E+03  0.17120000000E+03 0.  0.
        998    1    1    2    0    0 -0.69385204952E+01  0.60324660700E+01  0.14137408441E+04  0.14138061069E+04  0.10000000000E+02 0. -1.
</event>
<event>
 5    1  0.1252319E-008  0.3856474E+03  0.7957747E-01  0.3426931E+00
         13   -1    0    0    0    0  0.00000000000E+00  0.00000000000E+00  0.14999999963E+04  0.15000000000E+04  0.10566000000E+00 0.  1.
        994   -1    0    0    0    0 -0.00000000000E+00 -0.00000000000E+00  0.11368683772E-12  0.17120000000E+03  0.17120000000E+03 0.  0.
         13    1    1    2    0    0  0.29368337956E+01  0.10354443011E+02  0.44994091838E+02  0.46263581218E+02  0.10566000000E+00 0.  1.
        994    1    1    2    0    0 -0.19078878252E+00 -0.55462151439E+01  0.14101537181E+01  0.17129572510E+03  0.17120000000E+03 0.  0.
        998    1    1    2    0    0 -0.27460450131E+01 -0.48082278670E+01  0.14535957507E+04  0.14536406937E+04  0.10000000000E+02 0.  1.
</event>
<event>
 5    1  0.1252319E-008  0.3799406E+03  0.7957747E-01  0.3451417E+00
         13   -1    0    0    0    0  0.00000000000E+00  0.00000000000E+00  0.14999999963E+04  0.15000000000E+04  0.10566000000E+00 0.  1.
        994   -1    0    0    0    0 -0.00000000000E+00 -0.00000000000E+00  0.11368683772E-12  0.17120000000E+03  0.17120000000E+03 0.  0.
         13    1    1    2    0    0  0.28976912579E+02 -0.17599142482E+02  0.14690732295E+03  0.15076857756E+03  0.10566000000E+00 0.  1.
        994    1    1    2    0    0 -0.10864465494E+02 -0.13904967116E+01  0.45643695581E+01  0.17161073265E+03  0.17120000000E+03 0.  0.
        998    1    1    2    0    0 -0.18112447085E+02  0.18989639194E+02  0.13485283038E+04  0.13488206898E+04  0.10000000000E+02 0.  1.
</event>
<event>
 5    1  0.1252319E-008  0.3814323E+03  0.7957747E-01  0.3444946E+00
         13   -1    0    0    0    0  0.00000000000E+00  0.00000000000E+00  0.14999999963E+04  0.15000000000E+04  0.10566000000E+00 0. -1.
        994   -1    0    0    0    0 -0.00000000000E+00 -0.00000000000E+00  0.11368683772E-12  0.17120000000E+03  0.17120000000E+03 0.  0.
         13    1    1    2    0    0 -0.17509938529E+02 -0.13336067215E+02  0.71442976022E+02  0.74756662733E+02  0.10566000000E+00 0. -1.
        994    1    1    2    0    0  0.67997276201E+01  0.62129543932E+01  0.36942166017E+01  0.17148738827E+03  0.17120000000E+03 0.  0.
        998    1    1    2    0    0  0.10710210909E+02  0.71231128215E+01  0.14248628037E+04  0.14249559490E+04  0.10000000000E+02 0. -1.
</event>
<event>
 5    1  0.1252319E-008  0.3847182E+03  0.7957747E-01  0.3430868E+00
         13   -1    0    0    0    0  0.00000000000E+00  0.00000000000E+00  0.14999999963E+04  0.15000000000E+04  0.10566000000E+00 0.  1.
        994   -1    0    0    0    0 -0.00000000000E+00 -0.00000000000E+00  0.11368683772E-12  0.17120000000E+03  0.17120000000E+03 0.  0.
         13    1    1    2    0    0 -0.38023735897E+01  0.11689264282E+02  0.43852084866E+02  0.45542435766E+02  0.10566000000E+00 0.  1.
        994    1    1    2    0    0  0.68153857724E+01  0.22177540176E+00  0.19231694834E+01  0.17134654140E+03  0.17120000000E+03 0.  0.
        998    1    1    2    0    0 -0.30130121827E+01 -0.11911039683E+02  0.14542247419E+04  0.14543110228E+04  0.10000000000E+02 0.  1.
</event>
<event>
 5    1  0.1252319E-008  0.3829002E+03  0.7957747E-01  0.3438627E+00
         13   -1    0    0    0    0  0.00000000000E+00  0.00000000000E+00  0.14999999963E+04  0.15000000000E+04  0.10566000000E+00 0.  1.
        994   -1    0    0    0    0 -0.00000000000E+00 -0.00000000000E+00  0.11368683772E-12  0.17120000000E+03  0.17120000000E+03 0.  0.
         13    1    1    2    0    0 -0.21609148831E+02  0.76463559338E+00  0.10115256333E+03  0.10343786644E+03  0.10566000000E+00 0.  1.
        994    1    1    2    0    0 -0.10071513334E+02  0.11560752006E+02  0.34550632019E+01  0.17191993436E+03  0.17120000000E+03 0.  0.
        998    1    1    2    0    0  0.31680662165E+02 -0.12325387600E+02  0.13953923697E+04  0.13958421992E+04  0.10000000000E+02 0.  1.
</event>
<event>
 5    1  0.1252319E-008  0.3716880E+03  0.7957747E-01  0.3488169E+00
         13   -1    0    0    0    0  0.00000000000E+00  0.00000000000E+00  0.14999999963E+04  0.15000000000E+04  0.10566000000E+00 0. -1.
        994   -1    0    0    0    0 -0.00000000000E+00 -0.00000000000E+00  0.11368683772E-12  0.17120000000E+03  0.17120000000E+03 0.  0.
         13    1    1    2    0    0  0.12273843071E+01 -0.10817847018E+02  0.31242851206E+01  0.11327162393E+02  0.10566000000E+00 0. -1.
        994    1    1    2    0    0 -0.48949983443E+01  0.11777662536E+02  0.89488278638E+01  0.17190752125E+03  0.17120000000E+03 0.  0.
        998    1    1    2    0    0  0.36676140372E+01 -0.95981551858E+00  0.14879268833E+04  0.14879653164E+04  0.10000000000E+02 0. -1.
</event>
<event>
 5    1  0.1252319E-008  0.3856129E+03  0.7957747E-01  0.3427077E+00
         13   -1    0    0    0    0  0.00000000000E+00  0.00000000000E+00  0.14999999963E+04  0.15000000000E+04  0.10566000000E+00 0. -1.
        994   -1    0    0    0    0 -0.00000000000E+00 -0.00000000000E+00  0.11368683772E-12  0.17120000000E+03  0.17120000000E+03 0.  0.
         13    1    1    2    0    0 -0.28698659867E+02  0.23718330723E+00  0.12928119232E+02  0.31477242017E+02  0.10566000000E+00 0. -1.
        994    1    1    2    0    0  0.25278868438E+02  0.36813018612E+01  0.21863129241E+02  0.17447065539E+03  0.17120000000E+03 0.  0.
        998    1    1    2    0    0  0.34197914293E+01 -0.39184851684E+01  0.14652087478E+04  0.14652521026E+04  0.10000000000E+02 0. -1.
</event>
<event>
 5    1  0.1252319E-008  0.3858992E+03  0.7957747E-01  0.3425868E+00
         13   -1    0    0    0    0  0.00000000000E+00  0.00000000000E+00  0.14999999963E+04  0.15000000000E+04  0.10566000000E+00 0. -1.
        994   -1    0    0    0    0 -0.00000000000E+00 -0.00000000000E+00  0.11368683772E-12  0.17120000000E+03  0.17120000000E+03 0.  0.
         13    1    1    2    0    0  0.97219775931E+01  0.34746956469E+01  0.49085868926E+02  0.50159984554E+02  0.10566000000E+00 0. -1.
        994    1    1    2    0    0  0.37157086124E+01  0.40535021540E+01  0.12835245109E+01  0.17129309620E+03  0.17120000000E+03 0.  0.
        998    1    1    2    0    0 -0.13437686205E+02 -0.75281978009E+01  0.14496306028E+04  0.14497469192E+04  0.10000000000E+02 0. -1.
</event>
<event>
 5    1  0.1252319E-008  0.4393725E+03  0.7957747E-01  0.3227428E+00
         13   -1    0    0    0    0  0.00000000000E+00  0.00000000000E+00  0.14999999963E+04  0.15000000000E+04  0.10566000000E+00 0. -1.
        994   -1    0    0    0    0 -0.00000000000E+00 -0.00000000000E+00  0.11368683772E-12  0.17120000000E+03  0.17120000000E+03 0.  0.
         13    1    1    2    0    0  0.54832565352E+02 -0.24902312099E+02  0.15229400304E+02  0.62118283690E+02  0.10566000000E+00 0. -1.
        994    1    1    2    0    0 -0.47873361722E+02  0.23364795959E+02  0.67227815039E+02  0.19148574769E+03  0.17120000000E+03 0.  0.
        998    1    1    2    0    0 -0.69592036295E+01  0.15375161403E+01  0.14175427809E+04  0.14175959686E+04  0.10000000000E+02 0. -1.
</event>
<event>
 5    1  0.1252319E-008  0.3703266E+03  0.7957747E-01  0.3494391E+00
         13   -1    0    0    0    0  0.00000000000E+00  0.00000000000E+00  0.14999999963E+04  0.15000000000E+04  0.10566000000E+00 0. -1.
        994   -1    0    0    0    0 -0.00000000000E+00 -0.00000000000E+00  0.11368683772E-12  0.17120000000E+03  0.17120000000E+03 0.  0.
         13    1    1    2    0    0 -0.56029742159E+02 -0.43145363593E+02  0.20786188909E+03  0.21956190587E+03  0.10566000000E+00 0. -1.
        994    1    1    2    0    0  0.63304058372E+02  0.69106358311E+02  0.40075125459E+02  0.19924494535E+03  0.17120000000E+03 0.  0.
        998    1    1    2    0    0 -0.72743162131E+01 -0.25960994718E+02  0.12520629817E+04  0.12523931488E+04  0.10000000000E+02 0. -1.
</event>
<event>
 5    1  0.1252319E-008  0.3815619E+03  0.7957747E-01  0.3444386E+00
         13   -1    0    0    0    0  0.00000000000E+00  0.00000000000E+00  0.14999999963E+04  0.15000000000E+04  0.10566000000E+00 0.  1.
        994   -1    0    0    0    0 -0.00000000000E+00 -0.00000000000E+00  0.11368683772E-12  0.17120000000E+03  0.17120000000E+03 0.  0.
         13    1    1    2    0    0 -0.20395203112E+02  0.19568694371E+02  0.11254106382E+03  0.11603620262E+03  0.10566000000E+00 0.  1.
        994    1    1    2    0    0  0.25437641980E+02 -0.10339160002E+02  0.58583318064E+01  0.17348697908E+03  0.17120000000E+03 0.  0.
        998    1    1    2    0    0 -0.50424388676E+01 -0.92295343694E+01  0.13816006007E+04  0.13816768183E+04  0.10000000000E+02 0.  1.
</event>
<event>
 5    1  0.2633996E-008  0.3859610E+03  0.7957747E-01  0.3425607E+00
         13   -1    0    0    0    0  0.00000000000E+00  0.00000000000E+00  0.14999999963E+04  0.15000000000E+04  0.10566000000E+00 0. -1.
        994   -1    0    0    0    0 -0.00000000000E+00 -0.00000000000E+00  0.11368683772E-12  0.17120000000E+03  0.17120000000E+03 0.  0.
         13    1    1    2    0    0  0.18334474683E+01 -0.10489836974E+02  0.49488505253E+02  0.50621354442E+02  0.10566000000E+00 0. -1.
        994    1    1    2    0    0 -0.39760939863E+01  0.72072577275E+01  0.13759379912E+01  0.17140328787E+03  0.17120000000E+03 0.  0.
        998    1    1    2    0    0  0.21426465180E+01  0.32825792461E+01  0.14491355530E+04  0.14491753577E+04  0.10000000000E+02 0. -1.
</event>
<event>
 5    1  0.1252319E-008  0.3758121E+03  0.7957747E-01  0.3469598E+00
         13   -1    0    0    0    0  0.00000000000E+00  0.00000000000E+00  0.14999999963E+04  0.15000000000E+04  0.10566000000E+00 0.  1.
        994   -1    0    0    0    0 -0.00000000000E+00 -0.00000000000E+00  0.11368683772E-12  0.17120000000E+03  0.17120000000E+03 0.  0.
         13    1    1    2    0    0  0.82684259346E+02  0.13562438912E+03  0.50526810947E+03  0.52964755761E+03  0.10566000000E+00 0.  1.
        994    1    1    2    0    0 -0.85516925729E+02 -0.14335817944E+03  0.12147287192E+03  0.26819733558E+03  0.17120000000E+03 0.  0.
        998    1    1    2    0    0  0.28326663829E+01  0.77337903219E+01  0.87325901489E+03  0.87335510681E+03  0.10000000000E+02 0.  1.
</event>
<event>
 5    1  0.1252319E-008  0.3751434E+03  0.7957747E-01  0.3472582E+00
         13   -1    0    0    0    0  0.00000000000E+00  0.00000000000E+00  0.14999999963E+04  0.15000000000E+04  0.10566000000E+00 0.  1.
        994   -1    0    0    0    0 -0.00000000000E+00 -0.00000000000E+00  0.11368683772E-12  0.17120000000E+03  0.17120000000E+03 0.  0.
         13    1    1    2    0    0  0.26605449427E+02  0.10336659393E+01  0.48066773196E+02  0.54948560072E+02  0.10566000000E+00 0.  1.
        994    1    1    2    0    0 -0.36663122844E+02 -0.67202158475E+01  0.11340109385E+02  0.17557728771E+03  0.17120000000E+03 0.  0.
        998    1    1    2    0    0  0.10057673417E+02  0.56865499081E+01  0.14405931137E+04  0.14406741522E+04  0.10000000000E+02 0.  1.
</event>
<event>
 5    1  0.1252319E-008  0.3746910E+03  0.7957747E-01  0.3474606E+00
         13   -1    0    0    0    0  0.00000000000E+00  0.00000000000E+00  0.14999999963E+04  0.15000000000E+04  0.10566000000E+00 0. -1.
        994   -1    0    0    0    0 -0.00000000000E+00 -0.00000000000E+00  0.11368683772E-12  0.17120000000E+03  0.17120000000E+03 0.  0.
         13    1    1    2    0    0  0.26324467820E+02 -0.17284352254E+02  0.75056211031E+02  0.81395162125E+02  0.10566000000E+00 0. -1.
        994    1    1    2    0    0 -0.69070665343E+01 -0.85995443740E+01  0.72515631470E+01  0.17170813871E+03  0.17120000000E+03 0.  0.
        998    1    1    2    0    0 -0.19417401286E+02  0.25883896628E+02  0.14176922221E+04  0.14180966992E+04  0.10000000000E+02 0. -1.
</event>
<event>
 5    1  0.1252319E-008  0.3817807E+03  0.7957747E-01  0.3443441E+00
         13   -1    0    0    0    0  0.00000000000E+00  0.00000000000E+00  0.14999999963E+04  0.15000000000E+04  0.10566000000E+00 0.  1.
        994   -1    0    0    0    0 -0.00000000000E+00 -0.00000000000E+00  0.11368683772E-12  0.17120000000E+03  0.17120000000E+03 0.  0.
         13    1    1    2    0    0 -0.14208744331E+02  0.23042592453E+02  0.10740481391E+03  0.11076395938E+03  0.10566000000E+00 0.  1.
        994    1    1    2    0    0  0.38448068876E+02 -0.53164290489E+01  0.82598805998E+01  0.17573896564E+03  0.17120000000E+03 0.  0.
        998    1    1    2    0    0 -0.24239324545E+02 -0.17726163404E+02  0.13843353018E+04  0.13846970750E+04  0.10000000000E+02 0.  1.
</event>
<event>
 5    1  0.1252319E-008  0.3790668E+03  0.7957747E-01  0.3455232E+00
         13   -1    0    0    0    0  0.00000000000E+00  0.00000000000E+00  0.14999999963E+04  0.15000000000E+04  0.10566000000E+00 0.  1.
        994   -1    0    0    0    0 -0.00000000000E+00 -0.00000000000E+00  0.11368683772E-12  0.17120000000E+03  0.17120000000E+03 0.  0.
         13    1    1    2    0    0  0.24359837523E+02 -0.24888383537E+02  0.13695400318E+03  0.14131257365E+03  0.10566000000E+00 0.  1.
        994    1    1    2    0    0 -0.21102801138E+02 -0.37233530880E+01  0.61462609585E+01  0.17264532458E+03  0.17120000000E+03 0.  0.
        998    1    1    2    0    0 -0.32570363850E+01  0.28611736625E+02  0.13568997321E+04  0.13572421018E+04  0.10000000000E+02 0.  1.
</event>
<event>
 5    1  0.1252319E-008  0.3799660E+03  0.7957747E-01  0.3451306E+00
         13   -1    0    0    0    0  0.00000000000E+00  0.00000000000E+00  0.14999999963E+04  0.15000000000E+04  0.10566000000E+00 0.  1.
        994   -1    0    0    0    0 -0.00000000000E+00 -0.00000000000E+00  0.11368683772E-12  0.17120000000E+03  0.17120000000E+03 0.  0.
         13    1    1    2    0    0 -0.17958454704E+02 -0.44101491887E+01  0.38697067437E+02  0.42888573111E+02  0.10566000000E+00 0.  1.
        994    1    1    2    0    0  0.18718127490E+02  0.41751804176E+01  0.53809121362E+01  0.17235485094E+03  0.17120000000E+03 0.  0.
        998    1    1    2    0    0 -0.75967278607E+00  0.23496877111E+00  0.14559220167E+04  0.14559565759E+04  0.10000000000E+02 0.  1.
</event>
<event>
 5    1  0.1252319E-008  0.3720252E+03  0.7957747E-01  0.3486635E+00
         13   -1    0    0    0    0  0.00000000000E+00  0.00000000000E+00  0.14999999963E+04  0.15000000000E+04  0.10566000000E+00 0.  1.
        994   -1    0    0    0    0 -0.00000000000E+00 -0.00000000000E+00  0.11368683772E-12  0.17120000000E+03  0.17120000000E+03 0.  0.
         13    1    1    2    0    0  0.17939867542E+02  0.36726631648E+02  0.63748757846E+02  0.75727139194E+02  0.10566000000E+00 0.  1.
        994    1    1    2    0    0 -0.86629894748E+02  0.63677129696E+01  0.39078033410E+02  0.19591278449E+03  0.17120000000E+03 0.  0.
        998    1    1    2    0    0  0.68690027206E+02 -0.43094344618E+02  0.13971732050E+04  0.13995600763E+04  0.10000000000E+02 0.  1.
</event>
<event>
 5    1  0.1252319E-008  0.3847130E+03  0.7957747E-01  0.3430890E+00
         13   -1    0    0    0    0  0.00000000000E+00  0.00000000000E+00  0.14999999963E+04  0.15000000000E+04  0.10566000000E+00 0.  1.
        994   -1    0    0    0    0 -0.00000000000E+00 -0.00000000000E+00  0.11368683772E-12  0.17120000000E+03  0.17120000000E+03 0.  0.
         13    1    1    2    0    0 -0.12999301020E+02 -0.18520298213E+02  0.13340253126E+03  0.13530790732E+03  0.10566000000E+00 0.  1.
        994    1    1    2    0    0  0.10368288319E+02  0.20851546803E+02  0.35597826279E+01  0.17281319527E+03  0.17120000000E+03 0.  0.
        998    1    1    2    0    0  0.26310127008E+01 -0.23312485898E+01  0.13630376824E+04  0.13630788974E+04  0.10000000000E+02 0.  1.
</event>
<event>
 5    1  0.1252319E-008  0.3825473E+03  0.7957747E-01  0.3440141E+00
         13   -1    0    0    0    0  0.00000000000E+00  0.00000000000E+00  0.14999999963E+04  0.15000000000E+04  0.10566000000E+00 0.  1.
        994   -1    0    0    0    0 -0.00000000000E+00 -0.00000000000E+00  0.11368683772E-12  0.17120000000E+03  0.17120000000E+03 0.  0.
         13    1    1    2    0    0  0.33078916618E+02 -0.20636459433E+02  0.22160276930E+03  0.22500639260E+03  0.10566000000E+00 0.  1.
        994    1    1    2    0    0 -0.32352002059E+02  0.28859170257E+02  0.91085036025E+01  0.17683865127E+03  0.17120000000E+03 0.  0.
        998    1    1    2    0    0 -0.72691455904E+00 -0.82227108238E+01  0.12692887234E+04  0.12693549561E+04  0.10000000000E+02 0.  0.
</event>
<event>
 5    1  0.1252319E-008  0.3781837E+03  0.7957747E-01  0.3459105E+00
         13   -1    0    0    0    0  0.00000000000E+00  0.00000000000E+00  0.14999999963E+04  0.15000000000E+04  0.10566000000E+00 0. -1.
        994   -1    0    0    0    0 -0.00000000000E+00 -0.00000000000E+00  0.11368683772E-12  0.17120000000E+03  0.17120000000E+03 0.  0.
         13    1    1    2    0    0 -0.24327803890E+02 -0.92738541109E+00  0.57649436857E+02  0.62579316229E+02  0.10566000000E+00 0. -1.
        994    1    1    2    0    0  0.12120038575E+02 -0.17101153460E+02  0.65317628902E+01  0.17260199510E+03  0.17120000000E+03 0.  0.
        998    1    1    2    0    0  0.12207765316E+02  0.18028538871E+02  0.14358187965E+04  0.14360186887E+04  0.10000000000E+02 0. -1.
</event>
<event>
 5    1  0.1252319E-008  0.3834758E+03  0.7957747E-01  0.3436163E+00
         13   -1    0    0    0    0  0.00000000000E+00  0.00000000000E+00  0.14999999963E+04  0.15000000000E+04  0.10566000000E+00 0. -1.
        994   -1    0    0    0    0 -0.00000000000E+00 -0.00000000000E+00  0.11368683772E-12  0.17120000000E+03  0.17120000000E+03 0.  0.
         13    1    1    2    0    0 -0.70551677307E+01 -0.15895878590E+02  0.66635299777E+02  0.68867471917E+02  0.10566000000E+00 0. -1.
        994    1    1    2    0    0  0.58465957924E+01 -0.24955322765E+01  0.25223605005E+01  0.17133654796E+03  0.17120000000E+03 0.  0.
        998    1    1    2    0    0  0.12085719383E+01  0.18391410867E+02  0.14308423360E+04  0.14309959801E+04  0.10000000000E+02 0. -1.
</event>
<event>
 5    1  0.1252319E-008  0.3838805E+03  0.7957747E-01  0.3434434E+00
         13   -1    0    0    0    0  0.00000000000E+00  0.00000000000E+00  0.14999999963E+04  0.15000000000E+04  0.10566000000E+00 0. -1.
        994   -1    0    0    0    0 -0.00000000000E+00 -0.00000000000E+00  0.11368683772E-12  0.17120000000E+03  0.17120000000E+03 0.  0.
         13    1    1    2    0    0 -0.81149794833E+01  0.23678185552E+02  0.13646936884E+03  0.13874584376E+03  0.10566000000E+00 0. -1.
        994    1    1    2    0    0  0.58621099403E+01 -0.20004932489E+02  0.36226005942E+01  0.17250253590E+03  0.17120000000E+03 0.  0.
        998    1    1    2    0    0  0.22528695430E+01 -0.36732530626E+01  0.13599080268E+04  0.13599516203E+04  0.10000000000E+02 0.  0.
</event>
<event>
 5    1  0.1252319E-008  0.3851910E+03  0.7957747E-01  0.3428862E+00
         13   -1    0    0    0    0  0.00000000000E+00  0.00000000000E+00  0.14999999963E+04  0.15000000000E+04  0.10566000000E+00 0.  1.
        994   -1    0    0    0    0 -0.00000000000E+00 -0.00000000000E+00  0.11368683772E-12  0.17120000000E+03  0.17120000000E+03 0.  0.
         13    1    1    2    0    0  0.97732161271E+01 -0.15858727591E+02  0.10430004925E+03  0.10595058486E+03  0.10566000000E+00 0.  1.
        994    1    1    2    0    0 -0.97506559852E+01  0.19743406980E+02  0.31305459021E+01  0.17263869129E+03  0.17120000000E+03 0.  0.
        998    1    1    2    0    0 -0.22560141949E-01 -0.38846793892E+01  0.13925694011E+04  0.13926107239E+04  0.10000000000E+02 0.  1.
</event>
<event>
 5    1  0.1252319E-008  0.3817880E+03  0.7957747E-01  0.3443410E+00
         13   -1    0    0    0    0  0.00000000000E+00  0.00000000000E+00  0.14999999963E+04  0.15000000000E+04  0.10566000000E+00 0. -1.
        994   -1    0    0    0    0 -0.00000000000E+00 -0.00000000000E+00  0.11368683772E-12  0.17120000000E+03  0.17120000000E+03 0.  0.
         13    1    1    2    0    0  0.77275545962E+01  0.94576413886E+01  0.22866472365E+02  0.25923904087E+02  0.10566000000E+00 0. -1.
        994    1    1    2    0    0  0.88956892696E+01  0.22241461806E+01  0.35127781618E+01  0.17148136845E+03  0.17120000000E+03 0.  0.
        998    1    1    2    0    0 -0.16623243866E+02 -0.11681787569E+02  0.14736207458E+04  0.14737947275E+04  0.10000000000E+02 0. -1.
</event>
<event>
 5    1  0.1252319E-008  0.3684890E+03  0.7957747E-01  0.3502864E+00
         13   -1    0    0    0    0  0.00000000000E+00  0.00000000000E+00  0.14999999963E+04  0.15000000000E+04  0.10566000000E+00 0.  1.
        994   -1    0    0    0    0 -0.00000000000E+00 -0.00000000000E+00  0.11368683772E-12  0.17120000000E+03  0.17120000000E+03 0.  0.
         13    1    1    2    0    0  0.33146705671E+01  0.42276011469E+02  0.82096176145E+02  0.92401523193E+02  0.10566000000E+00 0.  1.
        994    1    1    2    0    0 -0.33925770008E+01 -0.40041801077E+02  0.15694823114E+02  0.17655204016E+03  0.17120000000E+03 0.  0.
        998    1    1    2    0    0  0.77906433680E-01 -0.22342103911E+01  0.14022089970E+04  0.14022464366E+04  0.10000000000E+02 0.  1.
</event>
<event>
 5    1  0.1252319E-008  0.3773733E+03  0.7957747E-01  0.3462676E+00
         13   -1    0    0    0    0  0.00000000000E+00  0.00000000000E+00  0.14999999963E+04  0.15000000000E+04  0.10566000000E+00 0.  1.
        994   -1    0    0    0    0 -0.00000000000E+00 -0.00000000000E+00  0.11368683772E-12  0.17120000000E+03  0.17120000000E+03 0.  0.
         13    1    1    2    0    0 -0.35308687230E+01  0.29350855238E+02  0.75217502766E+02  0.80818460908E+02  0.10566000000E+00 0.  1.
        994    1    1    2    0    0  0.38556752691E+01 -0.27149472002E+02  0.80049217493E+01  0.17356692898E+03  0.17120000000E+03 0.  0.
        998    1    1    2    0    0 -0.32480654607E+00 -0.22013832359E+01  0.14167775718E+04  0.14168146101E+04  0.10000000000E+02 0.  1.
</event>
<event>
 5    1  0.1252319E-008  0.3860219E+03  0.7957747E-01  0.3425350E+00
         13   -1    0    0    0    0  0.00000000000E+00  0.00000000000E+00  0.14999999963E+04  0.15000000000E+04  0.10566000000E+00 0.  1.
        994   -1    0    0    0    0 -0.00000000000E+00 -0.00000000000E+00  0.11368683772E-12  0.17120000000E+03  0.17120000000E+03 0.  0.
         13    1    1    2    0    0 -0.26057224975E+01  0.12258143105E+02  0.75505674066E+02  0.76538682001E+02  0.10566000000E+00 0.  1.
        994    1    1    2    0    0  0.63137774966E+01  0.88101425979E+00  0.12568726415E+01  0.17132326083E+03  0.17120000000E+03 0.  0.
        998    1    1    2    0    0 -0.37080549991E+01 -0.13139157364E+02  0.14232374496E+04  0.14233380572E+04  0.10000000000E+02 0.  1.
</event>
<event>
 5    1  0.1252319E-008  0.3816578E+03  0.7957747E-01  0.3443972E+00
         13   -1    0    0    0    0  0.00000000000E+00  0.00000000000E+00  0.14999999963E+04  0.15000000000E+04  0.10566000000E+00 0.  1.
        994   -1    0    0    0    0 -0.00000000000E+00 -0.00000000000E+00  0.11368683772E-12  0.17120000000E+03  0.17120000000E+03 0.  0.
         13    1    1    2    0    0  0.23387512309E+02  0.15770283040E+02  0.12931152089E+03  0.13235240140E+03  0.10566000000E+00 0.  1.
        994    1    1    2    0    0 -0.83471097233E+01  0.33978531188E+01  0.35687195685E+01  0.17147418291E+03  0.17120000000E+03 0.  0.
        998    1    1    2    0    0 -0.15040402585E+02 -0.19168136159E+02  0.13671197558E+04  0.13673734157E+04  0.10000000000E+02 0.  1.
</event>
<event>
 5    1  0.1252319E-008  0.3839108E+03  0.7957747E-01  0.3434305E+00
         13   -1    0    0    0    0  0.00000000000E+00  0.00000000000E+00  0.14999999963E+04  0.15000000000E+04  0.10566000000E+00 0.  1.
        994   -1    0    0    0    0 -0.00000000000E+00 -0.00000000000E+00  0.11368683772E-12  0.17120000000E+03  0.17120000000E+03 0.  0.
         13    1    1    2    0    0 -0.61125865470E+01  0.13172411249E+02  0.51656216125E+02  0.53658661563E+02  0.10566000000E+00 0.  1.
        994    1    1    2    0    0 -0.14181950822E+01  0.46100437643E+01  0.22486423994E+01  0.17128269082E+03  0.17120000000E+03 0.  0.
        998    1    1    2    0    0  0.75307816292E+01 -0.17782455013E+02  0.14460951378E+04  0.14462586476E+04  0.10000000000E+02 0.  1.
</event>
<event>
 5    1  0.1252319E-008  0.3746193E+03  0.7957747E-01  0.3474927E+00
         13   -1    0    0    0    0  0.00000000000E+00  0.00000000000E+00  0.14999999963E+04  0.15000000000E+04  0.10566000000E+00 0.  1.
        994   -1    0    0    0    0 -0.00000000000E+00 -0.00000000000E+00  0.11368683772E-12  0.17120000000E+03  0.17120000000E+03 0.  0.
         13    1    1    2    0    0 -0.11006465351E+03 -0.18737982502E+03  0.91398629111E+03  0.93946600698E+03  0.10566000000E+00 0.  1.
        994    1    1    2    0    0  0.11860849040E+03  0.18357654017E+03  0.19216293277E+03  0.33764530624E+03  0.17120000000E+03 0.  0.
        998    1    1    2    0    0 -0.85438368863E+01  0.38032848429E+01  0.39385077240E+03  0.39408868677E+03  0.10000000000E+02 0.  0.
</event>
<event>
 5    1  0.1252319E-008  0.3774512E+03  0.7957747E-01  0.3462332E+00
         13   -1    0    0    0    0  0.00000000000E+00  0.00000000000E+00  0.14999999963E+04  0.15000000000E+04  0.10566000000E+00 0.  1.
        994   -1    0    0    0    0 -0.00000000000E+00 -0.00000000000E+00  0.11368683772E-12  0.17120000000E+03  0.17120000000E+03 0.  0.
         13    1    1    2    0    0  0.34128434012E+02  0.90321775994E+02  0.25384705679E+03  0.27158997152E+03  0.10566000000E+00 0.  1.
        994    1    1    2    0    0 -0.80944951020E+01 -0.10035286801E+03  0.52287578733E+02  0.20537684840E+03  0.17120000000E+03 0.  0.
        998    1    1    2    0    0 -0.26033938910E+02  0.10031092021E+02  0.11938653608E+04  0.11942331801E+04  0.10000000000E+02 0.  1.
</event>
<event>
 5    1  0.1252319E-008  0.3836503E+03  0.7957747E-01  0.3435416E+00
         13   -1    0    0    0    0  0.00000000000E+00  0.00000000000E+00  0.14999999963E+04  0.15000000000E+04  0.10566000000E+00 0.  1.
        994   -1    0    0    0    0 -0.00000000000E+00 -0.00000000000E+00  0.11368683772E-12  0.17120000000E+03  0.17120000000E+03 0.  0.
         13    1    1    2    0    0  0.83531734422E+00  0.15566352039E+02  0.48507504617E+02  0.50950939531E+02  0.10566000000E+00 0.  1.
        994    1    1    2    0    0 -0.15426896388E+02 -0.25343581007E+02  0.52147998455E+01  0.17383014804E+03  0.17120000000E+03 0.  0.
        998    1    1    2    0    0  0.14591579044E+02  0.97772289677E+01  0.14462776918E+04  0.14464189124E+04  0.10000000000E+02 0.  1.
</event>
<event>
 5    1  0.1252319E-008  0.3838854E+03  0.7957747E-01  0.3434413E+00
         13   -1    0    0    0    0  0.00000000000E+00  0.00000000000E+00  0.14999999963E+04  0.15000000000E+04  0.10566000000E+00 0. -1.
        994   -1    0    0    0    0 -0.00000000000E+00 -0.00000000000E+00  0.11368683772E-12  0.17120000000E+03  0.17120000000E+03 0.  0.
         13    1    1    2    0    0  0.21753427099E+01  0.12063803785E+02  0.33589219870E+02  0.35756318786E+02  0.10566000000E+00 0. -1.
        994    1    1    2    0    0 -0.54126096516E+00 -0.98903685298E+01  0.25084242330E+01  0.17150464876E+03  0.17120000000E+03 0.  0.
        998    1    1    2    0    0 -0.16340817448E+01 -0.21734352549E+01  0.14639023522E+04  0.14639390325E+04  0.10000000000E+02 0. -1.
</event>
<event>
 5    1  0.1252319E-008  0.3835796E+03  0.7957747E-01  0.3435719E+00
         13   -1    0    0    0    0  0.00000000000E+00  0.00000000000E+00  0.14999999963E+04  0.15000000000E+04  0.10566000000E+00 0.  1.
        994   -1    0    0    0    0 -0.00000000000E+00 -0.00000000000E+00  0.11368683772E-12  0.17120000000E+03  0.17120000000E+03 0.  0.
         13    1    1    2    0    0 -0.17433974128E+02 -0.13128360518E+02  0.10090368970E+03  0.10323692684E+03  0.10566000000E+00 0.  1.
        994    1    1    2    0    0  0.12520880583E+02  0.70456416621E+01  0.30192570257E+01  0.17182831382E+03  0.17120000000E+03 0.  0.
        998    1    1    2    0    0  0.49130935451E+01  0.60827188559E+01  0.13960770496E+04  0.13961347593E+04  0.10000000000E+02 0.  1.
</event>
<event>
 5    1  0.1252319E-008  0.3800524E+03  0.7957747E-01  0.3450930E+00
         13   -1    0    0    0    0  0.00000000000E+00  0.00000000000E+00  0.14999999963E+04  0.15000000000E+04  0.10566000000E+00 0.  1.
        994   -1    0    0    0    0 -0.00000000000E+00 -0.00000000000E+00  0.11368683772E-12  0.17120000000E+03  0.17120000000E+03 0.  0.
         13    1    1    2    0    0  0.18449233493E+02 -0.13802807506E+02  0.62125283902E+02  0.66260499360E+02  0.10566000000E+00 0.  1.
        994    1    1    2    0    0 -0.30873579016E+02 -0.96615891810E+01  0.76124331714E+01  0.17439585237E+03  0.17120000000E+03 0.  0.
        998    1    1    2    0    0  0.12424345522E+02  0.23464396687E+02  0.14302622792E+04  0.14305436483E+04  0.10000000000E+02 0.  1.
</event>
<event>
 5    1  0.1252319E-008  0.3843447E+03  0.7957747E-01  0.3432456E+00
         13   -1    0    0    0    0  0.00000000000E+00  0.00000000000E+00  0.14999999963E+04  0.15000000000E+04  0.10566000000E+00 0. -1.
        994   -1    0    0    0    0 -0.00000000000E+00 -0.00000000000E+00  0.11368683772E-12  0.17120000000E+03  0.17120000000E+03 0.  0.
         13    1    1    2    0    0 -0.92187614437E+01  0.11293786970E+02  0.52321749535E+02  0.54314931880E+02  0.10566000000E+00 0. -1.
        994    1    1    2    0    0  0.11234475894E+02 -0.11137751896E+02  0.27810426364E+01  0.17195184548E+03  0.17120000000E+03 0.  0.
        998    1    1    2    0    0 -0.20157144502E+01 -0.15603507383E+00  0.14448972041E+04  0.14449332226E+04  0.10000000000E+02 0. -1.
</event>
<event>
 5    1  0.1252319E-008  0.3818576E+03  0.7957747E-01  0.3443110E+00
         13   -1    0    0    0    0  0.00000000000E+00  0.00000000000E+00  0.14999999963E+04  0.15000000000E+04  0.10566000000E+00 0.  1.
        994   -1    0    0    0    0 -0.00000000000E+00 -0.00000000000E+00  0.11368683772E-12  0.17120000000E+03  0.17120000000E+03 0.  0.
         13    1    1    2    0    0  0.38384264029E+02  0.10562706990E+01  0.20300735506E+03  0.20660702991E+03  0.10566000000E+00 0.  1.
        994    1    1    2    0    0 -0.37164482642E+02  0.61506388021E+00  0.78022910894E+01  0.17536217614E+03  0.17120000000E+03 0.  0.
        998    1    1    2    0    0 -0.12197813868E+01 -0.16713345793E+01  0.12891903501E+04  0.12892307940E+04  0.10000000000E+02 0.  1.
</event>
<event>
 5    1  0.1252319E-008  0.3716092E+03  0.7957747E-01  0.3488528E+00
         13   -1    0    0    0    0  0.00000000000E+00  0.00000000000E+00  0.14999999963E+04  0.15000000000E+04  0.10566000000E+00 0.  1.
        994   -1    0    0    0    0 -0.00000000000E+00 -0.00000000000E+00  0.11368683772E-12  0.17120000000E+03  0.17120000000E+03 0.  0.
         13    1    1    2    0    0  0.18490657095E+02 -0.24661111045E+01  0.16745686956E+02  0.25068212929E+02  0.10566000000E+00 0.  1.
        994    1    1    2    0    0 -0.19657494876E+02 -0.12590278915E+00  0.97602861773E+01  0.17260108963E+03  0.17120000000E+03 0.  0.
        998    1    1    2    0    0  0.11668377809E+01  0.25920138936E+01  0.14734940231E+04  0.14735306974E+04  0.10000000000E+02 0.  1.
</event>
<event>
 5    1  0.1252319E-008  0.3840564E+03  0.7957747E-01  0.3433684E+00
         13   -1    0    0    0    0  0.00000000000E+00  0.00000000000E+00  0.14999999963E+04  0.15000000000E+04  0.10566000000E+00 0.  1.
        994   -1    0    0    0    0 -0.00000000000E+00 -0.00000000000E+00  0.11368683772E-12  0.17120000000E+03  0.17120000000E+03 0.  0.
         13    1    1    2    0    0 -0.14833562196E+02  0.86404286648E+00  0.53042932169E+02  0.55084888623E+02  0.10566000000E+00 0.  1.
        994    1    1    2    0    0  0.66464545855E+01  0.22824316551E+01  0.22622903246E+01  0.17135910484E+03  0.17120000000E+03 0.  0.
        998    1    1    2    0    0  0.81871076107E+01 -0.31464745216E+01  0.14446947738E+04  0.14447560065E+04  0.10000000000E+02 0.  1.
</event>
<event>
 5    1  0.1252319E-008  0.3793371E+03  0.7957747E-01  0.3454050E+00
         13   -1    0    0    0    0  0.00000000000E+00  0.00000000000E+00  0.14999999963E+04  0.15000000000E+04  0.10566000000E+00 0.  1.
        994   -1    0    0    0    0 -0.00000000000E+00 -0.00000000000E+00  0.11368683772E-12  0.17120000000E+03  0.17120000000E+03 0.  0.
         13    1    1    2    0    0 -0.70113228456E+01 -0.93901294929E+01  0.13926169574E+02  0.18201168726E+02  0.10566000000E+00 0.  1.
        994    1    1    2    0    0  0.55174719698E+02 -0.55144634549E+02  0.25132628524E+02  0.18980587301E+03  0.17120000000E+03 0.  0.
        998    1    1    2    0    0 -0.48163396853E+02  0.64534764042E+02  0.14609411982E+04  0.14631929583E+04  0.10000000000E+02 0.  1.
</event>
<event>
 5    1  0.1252319E-008  0.3790177E+03  0.7957747E-01  0.3455447E+00
         13   -1    0    0    0    0  0.00000000000E+00  0.00000000000E+00  0.14999999963E+04  0.15000000000E+04  0.10566000000E+00 0. -1.
        994   -1    0    0    0    0 -0.00000000000E+00 -0.00000000000E+00  0.11368683772E-12  0.17120000000E+03  0.17120000000E+03 0.  0.
         13    1    1    2    0    0  0.52425644027E+02 -0.66129613896E+02  0.50207515750E+03  0.50911791260E+03  0.10566000000E+00 0. -1.
        994    1    1    2    0    0 -0.50719672210E+02  0.68385250439E+02  0.29339053636E+02  0.19344055339E+03  0.17120000000E+03 0.  0.
        998    1    1    2    0    0 -0.17059718173E+01 -0.22556365430E+01  0.96858578515E+03  0.96864153402E+03  0.10000000000E+02 0.  0.
</event>
<event>
 5    1  0.1252319E-008  0.3851105E+03  0.7957747E-01  0.3429204E+00
         13   -1    0    0    0    0  0.00000000000E+00  0.00000000000E+00  0.14999999963E+04  0.15000000000E+04  0.10566000000E+00 0. -1.
        994   -1    0    0    0    0 -0.00000000000E+00 -0.00000000000E+00  0.11368683772E-12  0.17120000000E+03  0.17120000000E+03 0.  0.
         13    1    1    2    0    0  0.10989042653E+02  0.10072586714E+02  0.63202594835E+02  0.64936855633E+02  0.10566000000E+00 0. -1.
        994    1    1    2    0    0 -0.14700865895E+02 -0.24986881503E+02  0.43431823095E+01  0.17369157417E+03  0.17120000000E+03 0.  0.
        998    1    1    2    0    0  0.37118232422E+01  0.14914294789E+02  0.14324542191E+04  0.14325715702E+04  0.10000000000E+02 0. -1.
</event>
<event>
 5    1  0.1252319E-008  0.4256009E+03  0.7957747E-01  0.3273842E+00
         13   -1    0    0    0    0  0.00000000000E+00  0.00000000000E+00  0.14999999963E+04  0.15000000000E+04  0.10566000000E+00 0. -1.
        994   -1    0    0    0    0 -0.00000000000E+00 -0.00000000000E+00  0.11368683772E-12  0.17120000000E+03  0.17120000000E+03 0.  0.
         13    1    1    2    0    0  0.19147363204E+02 -0.95012584809E+02  0.14015461383E+03  0.17040346162E+03  0.10566000000E+00 0. -1.
        994    1    1    2    0    0  0.51969586216E+02 -0.57811674731E+02  0.71069650698E+02  0.20100587772E+03  0.17120000000E+03 0.  0.
        998    1    1    2    0    0 -0.71116949420E+02  0.15282425954E+03  0.12887757318E+04  0.12997906607E+04  0.10000000000E+02 0. -1.
</event>
<event>
 5    1  0.1252319E-008  0.3841798E+03  0.7957747E-01  0.3433158E+00
         13   -1    0    0    0    0  0.00000000000E+00  0.00000000000E+00  0.14999999963E+04  0.15000000000E+04  0.10566000000E+00 0. -1.
        994   -1    0    0    0    0 -0.00000000000E+00 -0.00000000000E+00  0.11368683772E-12  0.17120000000E+03  0.17120000000E+03 0.  0.
         13    1    1    2    0    0  0.19014715164E+01  0.11867169367E+02  0.35761427272E+02  0.37727127472E+02  0.10566000000E+00 0. -1.
        994    1    1    2    0    0  0.47450999160E+01 -0.36786067876E+01  0.21567553048E+01  0.17131882475E+03  0.17120000000E+03 0.  0.
        998    1    1    2    0    0 -0.66465714323E+01 -0.81885625796E+01  0.14620818137E+04  0.14621540478E+04  0.10000000000E+02 0. -1.
</event>
<event>
 5    1  0.1252319E-008  0.3818684E+03  0.7957747E-01  0.3443063E+00
         13   -1    0    0    0    0  0.00000000000E+00  0.00000000000E+00  0.14999999963E+04  0.15000000000E+04  0.10566000000E+00 0. -1.
        994   -1    0    0    0    0 -0.00000000000E+00 -0.00000000000E+00  0.11368683772E-12  0.17120000000E+03  0.17120000000E+03 0.  0.
         13    1    1    2    0    0  0.16632603114E+02 -0.47753145871E+01  0.46300784296E+02  0.49428948059E+02  0.10566000000E+00 0. -1.
        994    1    1    2    0    0 -0.61270337434E+01  0.10032188031E+02  0.36521886569E+01  0.17164196404E+03  0.17120000000E+03 0.  0.
        998    1    1    2    0    0 -0.10505569371E+02 -0.52568734444E+01  0.14500470233E+04  0.14501290879E+04  0.10000000000E+02 0. -1.
</event>
<event>
 5    1  0.1252319E-008  0.3723686E+03  0.7957747E-01  0.3485076E+00
         13   -1    0    0    0    0  0.00000000000E+00  0.00000000000E+00  0.14999999963E+04  0.15000000000E+04  0.10566000000E+00 0. -1.
        994   -1    0    0    0    0 -0.00000000000E+00 -0.00000000000E+00  0.11368683772E-12  0.17120000000E+03  0.17120000000E+03 0.  0.
         13    1    1    2    0    0  0.71784933129E+02  0.59061801247E+01  0.20337321480E+03  0.21575132734E+03  0.10566000000E+00 0. -1.
        994    1    1    2    0    0 -0.54220971895E+02  0.47211179007E+02  0.30648772766E+02  0.18819563355E+03  0.17120000000E+03 0.  0.
        998    1    1    2    0    0 -0.17563961234E+02 -0.53117359132E+02  0.12659780087E+04  0.12672530391E+04  0.10000000000E+02 0. -1.
</event>
<event>
 5    1  0.1252319E-008  0.3829117E+03  0.7957747E-01  0.3438577E+00
         13   -1    0    0    0    0  0.00000000000E+00  0.00000000000E+00  0.14999999963E+04  0.15000000000E+04  0.10566000000E+00 0.  1.
        994   -1    0    0    0    0 -0.00000000000E+00 -0.00000000000E+00  0.11368683772E-12  0.17120000000E+03  0.17120000000E+03 0.  0.
         13    1    1    2    0    0  0.13739317625E+02 -0.58425057033E+01  0.40179430142E+02  0.42863754995E+02  0.10566000000E+00 0.  1.
        994    1    1    2    0    0 -0.97967007409E+01  0.13507805080E+02  0.35929547165E+01  0.17204878804E+03  0.17120000000E+03 0.  0.
        998    1    1    2    0    0 -0.39426168841E+01 -0.76652993769E+01  0.14562276114E+04  0.14562874570E+04  0.10000000000E+02 0.  1.
</event>
<event>
 5    1  0.1252319E-008  0.3770401E+03  0.7957747E-01  0.3464149E+00
         13   -1    0    0    0    0  0.00000000000E+00  0.00000000000E+00  0.14999999963E+04  0.15000000000E+04  0.10566000000E+00 0. -1.
        994   -1    0    0    0    0 -0.00000000000E+00 -0.00000000000E+00  0.11368683772E-12  0.17120000000E+03  0.17120000000E+03 0.  0.
         13    1    1    2    0    0  0.22938351911E+02  0.11164782343E+02  0.56360396498E+02  0.61865384591E+02  0.10566000000E+00 0. -1.
        994    1    1    2    0    0 -0.23831262969E+01 -0.24095855944E+02  0.76166120121E+01  0.17307149489E+03  0.17120000000E+03 0.  0.
        998    1    1    2    0    0 -0.20555225615E+02  0.12931073601E+02  0.14360229878E+04  0.14362631205E+04  0.10000000000E+02 0. -1.
</event>
<event>
 5    1  0.1252319E-008  0.3859535E+03  0.7957747E-01  0.3425638E+00
         13   -1    0    0    0    0  0.00000000000E+00  0.00000000000E+00  0.14999999963E+04  0.15000000000E+04  0.10566000000E+00 0. -1.
        994   -1    0    0    0    0 -0.00000000000E+00 -0.00000000000E+00  0.11368683772E-12  0.17120000000E+03  0.17120000000E+03 0.  0.
         13    1    1    2    0    0  0.41725657440E+01 -0.10919944842E+02  0.56811375197E+02  0.58001715630E+02  0.10566000000E+00 0. -1.
        994    1    1    2    0    0 -0.74606910491E+01  0.13167390390E+02  0.19087590864E+01  0.17187822853E+03  0.17120000000E+03 0.  0.
        998    1    1    2    0    0  0.32881253052E+01 -0.22474455481E+01  0.14412798620E+04  0.14413200558E+04  0.10000000000E+02 0. -1.
</event>
<event>
 5    1  0.1252319E-008  0.3733757E+03  0.7957747E-01  0.3480519E+00
         13   -1    0    0    0    0  0.00000000000E+00  0.00000000000E+00  0.14999999963E+04  0.15000000000E+04  0.10566000000E+00 0. -1.
        994   -1    0    0    0    0 -0.00000000000E+00 -0.00000000000E+00  0.11368683772E-12  0.17120000000E+03  0.17120000000E+03 0.  0.
         13    1    1    2    0    0  0.46455996571E+02  0.36869721154E+02  0.18194372462E+03  0.19136631378E+03  0.10566000000E+00 0. -1.
        994    1    1    2    0    0 -0.63155367977E+02 -0.49224785337E+02  0.29757433347E+02  0.19132857820E+03  0.17120000000E+03 0.  0.
        998    1    1    2    0    0  0.16699371406E+02  0.12355064183E+02  0.12882988383E+04  0.12885051080E+04  0.10000000000E+02 0. -1.
</event>
<event>
 5    1  0.1252319E-008  0.3828705E+03  0.7957747E-01  0.3438754E+00
         13   -1    0    0    0    0  0.00000000000E+00  0.00000000000E+00  0.14999999963E+04  0.15000000000E+04  0.10566000000E+00 0. -1.
        994   -1    0    0    0    0 -0.00000000000E+00 -0.00000000000E+00  0.11368683772E-12  0.17120000000E+03  0.17120000000E+03 0.  0.
         13    1    1    2    0    0  0.32641226359E+01 -0.11658181705E+02  0.25861033125E+02  0.28554717572E+02  0.10566000000E+00 0. -1.
        994    1    1    2    0    0  0.40023844379E+00  0.13695128557E+02  0.33129630472E+01  0.17177931325E+03  0.17120000000E+03 0.  0.
        998    1    1    2    0    0 -0.36643610797E+01 -0.20369468525E+01  0.14708260001E+04  0.14708659692E+04  0.10000000000E+02 0. -1.
</event>
<event>
 5    1  0.1252319E-008  0.3785150E+03  0.7957747E-01  0.3457650E+00
         13   -1    0    0    0    0  0.00000000000E+00  0.00000000000E+00  0.14999999963E+04  0.15000000000E+04  0.10566000000E+00 0. -1.
        994   -1    0    0    0    0 -0.00000000000E+00 -0.00000000000E+00  0.11368683772E-12  0.17120000000E+03  0.17120000000E+03 0.  0.
         13    1    1    2    0    0 -0.22853970496E+02  0.50802136795E+01  0.55713988338E+02  0.60433204441E+02  0.10566000000E+00 0. -1.
        994    1    1    2    0    0  0.86460331667E+01  0.21682567356E+01  0.51516225385E+01  0.17150928383E+03  0.17120000000E+03 0.  0.
        998    1    1    2    0    0  0.14207937330E+02 -0.72484704151E+01  0.14391343854E+04  0.14392575117E+04  0.10000000000E+02 0. -1.
</event>
<event>
 5    1  0.1252319E-008  0.3823513E+03  0.7957747E-01  0.3440984E+00
         13   -1    0    0    0    0  0.00000000000E+00  0.00000000000E+00  0.14999999963E+04  0.15000000000E+04  0.10566000000E+00 0. -1.
        994   -1    0    0    0    0 -0.00000000000E+00 -0.00000000000E+00  0.11368683772E-12  0.17120000000E+03  0.17120000000E+03 0.  0.
         13    1    1    2    0    0  0.20456846895E+02 -0.12403253380E+02  0.95852379887E+02  0.98792778954E+02  0.10566000000E+00 0. -1.
        994    1    1    2    0    0 -0.14085427345E+02  0.60051678262E+01  0.37290477760E+01  0.17192384099E+03  0.17120000000E+03 0.  0.
        998    1    1    2    0    0 -0.63714195495E+01  0.63980855538E+01  0.14004185686E+04  0.14004833801E+04  0.10000000000E+02 0. -1.
</event>
<event>
 5    1  0.1252319E-008  0.3839690E+03  0.7957747E-01  0.3434057E+00
         13   -1    0    0    0    0  0.00000000000E+00  0.00000000000E+00  0.14999999963E+04  0.15000000000E+04  0.10566000000E+00 0. -1.
        994   -1    0    0    0    0 -0.00000000000E+00 -0.00000000000E+00  0.11368683772E-12  0.17120000000E+03  0.17120000000E+03 0.  0.
         13    1    1    2    0    0  0.30781297585E+01 -0.12935416444E+02  0.40822718134E+02  0.42933732207E+02  0.10566000000E+00 0. -1.
        994    1    1    2    0    0 -0.50629960592E+01  0.74619678251E+01  0.24112436909E+01  0.17145427667E+03  0.17120000000E+03 0.  0.
        998    1    1    2    0    0  0.19848663007E+01  0.54734486193E+01  0.14567660345E+04  0.14568119911E+04  0.10000000000E+02 0. -1.
</event>
<event>
 5    1  0.1252319E-008  0.3798117E+03  0.7957747E-01  0.3451979E+00
         13   -1    0    0    0    0  0.00000000000E+00  0.00000000000E+00  0.14999999963E+04  0.15000000000E+04  0.10566000000E+00 0.  1.
        994   -1    0    0    0    0 -0.00000000000E+00 -0.00000000000E+00  0.11368683772E-12  0.17120000000E+03  0.17120000000E+03 0.  0.
         13    1    1    2    0    0 -0.11034098651E+02 -0.58958861230E+02  0.31313458722E+03  0.31882782113E+03  0.10566000000E+00 0.  1.
        994    1    1    2    0    0  0.87263271382E+01  0.67247707460E+02  0.19766479921E+02  0.18519869512E+03  0.17120000000E+03 0.  0.
        998    1    1    2    0    0  0.23077715129E+01 -0.82888462299E+01  0.11670989291E+04  0.11671734838E+04  0.10000000000E+02 0.  1.
</event>
<event>
 5    1  0.1252319E-008  0.3859735E+03  0.7957747E-01  0.3425554E+00
         13   -1    0    0    0    0  0.00000000000E+00  0.00000000000E+00  0.14999999963E+04  0.15000000000E+04  0.10566000000E+00 0.  1.
        994   -1    0    0    0    0 -0.00000000000E+00 -0.00000000000E+00  0.11368683772E-12  0.17120000000E+03  0.17120000000E+03 0.  0.
         13    1    1    2    0    0  0.10315917973E+02  0.70686270233E+01  0.66608453636E+02  0.67772272439E+02  0.10566000000E+00 0.  1.
        994    1    1    2    0    0 -0.12181098715E+02 -0.48908284775E+01  0.17126243209E+01  0.17171101436E+03  0.17120000000E+03 0.  0.
        998    1    1    2    0    0  0.18651807418E+01 -0.21777985458E+01  0.14316789183E+04  0.14317167132E+04  0.10000000000E+02 0.  1.
</event>
<event>
 5    1  0.1252319E-008  0.3714923E+03  0.7957747E-01  0.3489061E+00
         13   -1    0    0    0    0  0.00000000000E+00  0.00000000000E+00  0.14999999963E+04  0.15000000000E+04  0.10566000000E+00 0. -1.
        994   -1    0    0    0    0 -0.00000000000E+00 -0.00000000000E+00  0.11368683772E-12  0.17120000000E+03  0.17120000000E+03 0.  0.
         13    1    1    2    0    0  0.11233024519E+03 -0.73826279061E+02  0.69256771172E+03  0.70549163705E+03  0.10566000000E+00 0. -1.
        994    1    1    2    0    0 -0.87418135311E+02  0.80591188234E+02  0.58811451608E+02  0.21657584547E+03  0.17120000000E+03 0.  0.
        998    1    1    2    0    0 -0.24912109880E+02 -0.67649091733E+01  0.74862083295E+03  0.74913251748E+03  0.10000000000E+02 0. -1.
</event>
<event>
 5    1  0.1252319E-008  0.3847079E+03  0.7957747E-01  0.3430912E+00
         13   -1    0    0    0    0  0.00000000000E+00  0.00000000000E+00  0.14999999963E+04  0.15000000000E+04  0.10566000000E+00 0.  1.
        994   -1    0    0    0    0 -0.00000000000E+00 -0.00000000000E+00  0.11368683772E-12  0.17120000000E+03  0.17120000000E+03 0.  0.
         13    1    1    2    0    0 -0.10815507771E+02 -0.61964869311E+01  0.44282163352E+02  0.46003182648E+02  0.10566000000E+00 0.  1.
        994    1    1    2    0    0  0.56153995046E+01  0.29029182624E+00  0.18793266337E+01  0.17130262359E+03  0.17120000000E+03 0.  0.
        998    1    1    2    0    0  0.52001082669E+01  0.59061951048E+01  0.14538385063E+04  0.14538941938E+04  0.10000000000E+02 0.  1.
</event>
<event>
 5    1  0.1252319E-008  0.3841782E+03  0.7957747E-01  0.3433165E+00
         13   -1    0    0    0    0  0.00000000000E+00  0.00000000000E+00  0.14999999963E+04  0.15000000000E+04  0.10566000000E+00 0.  1.
        994   -1    0    0    0    0 -0.00000000000E+00 -0.00000000000E+00  0.11368683772E-12  0.17120000000E+03  0.17120000000E+03 0.  0.
         13    1    1    2    0    0  0.93328341892E+01 -0.14583349074E+02  0.71752502134E+02  0.73811981349E+02  0.10566000000E+00 0.  1.
        994    1    1    2    0    0 -0.55000437820E+01  0.13675960552E+02  0.27554986376E+01  0.17185550661E+03  0.17120000000E+03 0.  0.
        998    1    1    2    0    0 -0.38327904072E+01  0.90738852281E+00  0.14254919955E+04  0.14255325120E+04  0.10000000000E+02 0.  1.
</event>
<event>
 5    1  0.1252319E-008  0.3774797E+03  0.7957747E-01  0.3462206E+00
         13   -1    0    0    0    0  0.00000000000E+00  0.00000000000E+00  0.14999999963E+04  0.15000000000E+04  0.10566000000E+00 0. -1.
        994   -1    0    0    0    0 -0.00000000000E+00 -0.00000000000E+00  0.11368683772E-12  0.17120000000E+03  0.17120000000E+03 0.  0.
         13    1    1    2    0    0 -0.10229195618E+02 -0.61014728178E+02  0.35490484754E+03  0.36025670774E+03  0.10566000000E+00 0. -1.
        994    1    1    2    0    0  0.13377449102E+02  0.32608174157E+02  0.96098976189E+01  0.17505438954E+03  0.17120000000E+03 0.  0.
        998    1    1    2    0    0 -0.31482534844E+01  0.28406554021E+02  0.11354852511E+04  0.11358889027E+04  0.10000000000E+02 0. -1.
</event>
<event>
 5    1  0.1252319E-008  0.3860623E+03  0.7957747E-01  0.3425179E+00
         13   -1    0    0    0    0  0.00000000000E+00  0.00000000000E+00  0.14999999963E+04  0.15000000000E+04  0.10566000000E+00 0.  1.
        994   -1    0    0    0    0 -0.00000000000E+00 -0.00000000000E+00  0.11368683772E-12  0.17120000000E+03  0.17120000000E+03 0.  0.
         13    1    1    2    0    0 -0.10099327873E+02 -0.46565862429E+01  0.60405720027E+02  0.61421025675E+02  0.10566000000E+00 0.  1.
        994    1    1    2    0    0 -0.51858296402E+01  0.95069305402E+01  0.14880942978E+01  0.17154861988E+03  0.17120000000E+03 0.  0.
        998    1    1    2    0    0  0.15285157513E+02 -0.48503442973E+01  0.14381061820E+04  0.14382303544E+04  0.10000000000E+02 0.  1.
</event>
<event>
 5    1  0.1252319E-008  0.3767934E+03  0.7957747E-01  0.3465241E+00
         13   -1    0    0    0    0  0.00000000000E+00  0.00000000000E+00  0.14999999963E+04  0.15000000000E+04  0.10566000000E+00 0. -1.
        994   -1    0    0    0    0 -0.00000000000E+00 -0.00000000000E+00  0.11368683772E-12  0.17120000000E+03  0.17120000000E+03 0.  0.
         13    1    1    2    0    0 -0.62792691773E+02 -0.72372196685E+02  0.27032701384E+03  0.28680544375E+03  0.10566000000E+00 0. -1.
        994    1    1    2    0    0  0.33570804615E+02  0.82430356792E+02  0.43525113171E+02  0.19780201748E+03  0.17120000000E+03 0.  0.
        998    1    1    2    0    0  0.29221887158E+02 -0.10058160108E+02  0.11861478693E+04  0.11865925388E+04  0.10000000000E+02 0. -1.
</event>
<event>
 5    1  0.1252319E-008  0.3689975E+03  0.7957747E-01  0.3500511E+00
         13   -1    0    0    0    0  0.00000000000E+00  0.00000000000E+00  0.14999999963E+04  0.15000000000E+04  0.10566000000E+00 0. -1.
        994   -1    0    0    0    0 -0.00000000000E+00 -0.00000000000E+00  0.11368683772E-12  0.17120000000E+03  0.17120000000E+03 0.  0.
         13    1    1    2    0    0 -0.12080929247E+02 -0.11055005546E+02  0.92525410311E+01  0.18809111587E+02  0.10566000000E+00 0. -1.
        994    1    1    2    0    0  0.50819457928E+01  0.16099204903E+02  0.10783517514E+02  0.17236802146E+03  0.17120000000E+03 0.  0.
        998    1    1    2    0    0  0.69989834544E+01 -0.50441993567E+01  0.14799639377E+04  0.14800228670E+04  0.10000000000E+02 0. -1.
</event>
<event>
 5    1  0.1252319E-008  0.3858931E+03  0.7957747E-01  0.3425893E+00
         13   -1    0    0    0    0  0.00000000000E+00  0.00000000000E+00  0.14999999963E+04  0.15000000000E+04  0.10566000000E+00 0. -1.
        994   -1    0    0    0    0 -0.00000000000E+00 -0.00000000000E+00  0.11368683772E-12  0.17120000000E+03  0.17120000000E+03 0.  0.
         13    1    1    2    0    0  0.21819460552E+01  0.13011845560E+02  0.69999797126E+02  0.71232378700E+02  0.10566000000E+00 0. -1.
        994    1    1    2    0    0 -0.37246606455E+01 -0.15723603207E+02  0.20440300796E+01  0.17197302944E+03  0.17120000000E+03 0.  0.
        998    1    1    2    0    0  0.15427145903E+01  0.27117576472E+01  0.14279561691E+04  0.14279945919E+04  0.10000000000E+02 0. -1.
</event>
<event>
 5    1  0.1252319E-008  0.3843045E+03  0.7957747E-01  0.3432627E+00
         13   -1    0    0    0    0  0.00000000000E+00  0.00000000000E+00  0.14999999963E+04  0.15000000000E+04  0.10566000000E+00 0.  1.
        994   -1    0    0    0    0 -0.00000000000E+00 -0.00000000000E+00  0.11368683772E-12  0.17120000000E+03  0.17120000000E+03 0.  0.
         13    1    1    2    0    0 -0.15789079521E+02  0.38247466251E+01  0.63838774989E+02  0.65873546094E+02  0.10566000000E+00 0.  1.
        994    1    1    2    0    0  0.17698674181E+02 -0.21784207633E+01  0.30246457177E+01  0.17215277246E+03  0.17120000000E+03 0.  0.
        998    1    1    2    0    0 -0.19095946603E+01 -0.16463258619E+01  0.14331365756E+04  0.14331736814E+04  0.10000000000E+02 0.  1.
</event>
<event>
 5    1  0.1252319E-008  0.3859200E+03  0.7957747E-01  0.3425780E+00
         13   -1    0    0    0    0  0.00000000000E+00  0.00000000000E+00  0.14999999963E+04  0.15000000000E+04  0.10566000000E+00 0.  1.
        994   -1    0    0    0    0 -0.00000000000E+00 -0.00000000000E+00  0.11368683772E-12  0.17120000000E+03  0.17120000000E+03 0.  0.
         13    1    1    2    0    0 -0.42577732314E+01  0.90954818670E+01  0.43229435457E+02  0.44380757962E+02  0.10566000000E+00 0.  1.
        994    1    1    2    0    0  0.61910280472E+01 -0.52253838291E+01  0.13893132787E+01  0.17139721018E+03  0.17120000000E+03 0.  0.
        998    1    1    2    0    0 -0.19332548158E+01 -0.38700980380E+01  0.14553812475E+04  0.14554220319E+04  0.10000000000E+02 0.  1.
</event>
<event>
 5    1  0.1252319E-008  0.3706498E+03  0.7957747E-01  0.3492910E+00
         13   -1    0    0    0    0  0.00000000000E+00  0.00000000000E+00  0.14999999963E+04  0.15000000000E+04  0.10566000000E+00 0. -1.
        994   -1    0    0    0    0 -0.00000000000E+00 -0.00000000000E+00  0.11368683772E-12  0.17120000000E+03  0.17120000000E+03 0.  0.
         13    1    1    2    0    0  0.87088368299E+01  0.20723201343E+02  0.17614290676E+02  0.28558174186E+02  0.10566000000E+00 0. -1.
        994    1    1    2    0    0 -0.30161081537E+01 -0.15308652031E+02  0.12136282553E+02  0.17233740479E+03  0.17120000000E+03 0.  0.
        998    1    1    2    0    0 -0.56927286762E+01 -0.54145493113E+01  0.14702494231E+04  0.14703044210E+04  0.10000000000E+02 0. -1.
</event>
<event>
 5    1  0.1252319E-008  0.3836068E+03  0.7957747E-01  0.3435603E+00
         13   -1    0    0    0    0  0.00000000000E+00  0.00000000000E+00  0.14999999963E+04  0.15000000000E+04  0.10566000000E+00 0. -1.
        994   -1    0    0    0    0 -0.00000000000E+00 -0.00000000000E+00  0.11368683772E-12  0.17120000000E+03  0.17120000000E+03 0.  0.
         13    1    1    2    0    0 -0.22891700299E+02 -0.13880034106E+01  0.11122050535E+03  0.11356041771E+03  0.10566000000E+00 0. -1.
        994    1    1    2    0    0  0.15266003304E+02  0.25519728300E+02  0.52502741153E+01  0.17384278175E+03  0.17120000000E+03 0.  0.
        998    1    1    2    0    0  0.76256969947E+01 -0.24131724890E+02  0.13835292168E+04  0.13837968005E+04  0.10000000000E+02 0. -1.
</event>
<event>
 5    1  0.1252319E-008  0.3849130E+03  0.7957747E-01  0.3430041E+00
         13   -1    0    0    0    0  0.00000000000E+00  0.00000000000E+00  0.14999999963E+04  0.15000000000E+04  0.10566000000E+00 0. -1.
        994   -1    0    0    0    0 -0.00000000000E+00 -0.00000000000E+00  0.11368683772E-12  0.17120000000E+03  0.17120000000E+03 0.  0.
         13    1    1    2    0    0 -0.11601859656E+02  0.16015079350E+02  0.11124358481E+03  0.11298775261E+03  0.10566000000E+00 0. -1.
        994    1    1    2    0    0 -0.11896698276E+02 -0.33326893799E+02  0.58034880926E+01  0.17491521876E+03  0.17120000000E+03 0.  0.
        998    1    1    2    0    0  0.23498557931E+02  0.17311814449E+02  0.13829529234E+04  0.13832970286E+04  0.10000000000E+02 0. -1.
</event>
<event>
 5    1  0.1252319E-008  0.3844860E+03  0.7957747E-01  0.3431855E+00
         13   -1    0    0    0    0  0.00000000000E+00  0.00000000000E+00  0.14999999963E+04  0.15000000000E+04  0.10566000000E+00 0. -1.
        994   -1    0    0    0    0 -0.00000000000E+00 -0.00000000000E+00  0.11368683772E-12  0.17120000000E+03  0.17120000000E+03 0.  0.
         13    1    1    2    0    0  0.10130226314E+02 -0.16994538642E+02  0.10047140692E+03  0.10240093067E+03  0.10566000000E+00 0. -1.
        994    1    1    2    0    0 -0.91282912174E+01  0.13948691765E+02  0.28014950042E+01  0.17203249715E+03  0.17120000000E+03 0.  0.
        998    1    1    2    0    0 -0.10019350961E+01  0.30458468763E+01  0.13967270944E+04  0.13967665722E+04  0.10000000000E+02 0. -1.
</event>
<event>
 5    1  0.1252319E-008  0.3858708E+03  0.7957747E-01  0.3425987E+00
         13   -1    0    0    0    0  0.00000000000E+00  0.00000000000E+00  0.14999999963E+04  0.15000000000E+04  0.10566000000E+00 0. -1.
        994   -1    0    0    0    0 -0.00000000000E+00 -0.00000000000E+00  0.11368683772E-12  0.17120000000E+03  0.17120000000E+03 0.  0.
         13    1    1    2    0    0 -0.35157848583E+01 -0.13360454110E+02  0.77800777330E+02  0.79017938434E+02  0.10566000000E+00 0. -1.
        994    1    1    2    0    0  0.34971459500E+01  0.12697965392E+02  0.17674863177E+01  0.17171497419E+03  0.17120000000E+03 0.  0.
        998    1    1    2    0    0  0.18638908335E-01  0.66248871849E+00  0.14204317326E+04  0.14204670874E+04  0.10000000000E+02 0.  0.
</event>
<event>
 5    1  0.1252319E-008  0.3810241E+03  0.7957747E-01  0.3446711E+00
         13   -1    0    0    0    0  0.00000000000E+00  0.00000000000E+00  0.14999999963E+04  0.15000000000E+04  0.10566000000E+00 0.  1.
        994   -1    0    0    0    0 -0.00000000000E+00 -0.00000000000E+00  0.11368683772E-12  0.17120000000E+03  0.17120000000E+03 0.  0.
         13    1    1    2    0    0 -0.91186820775E+01  0.15268864148E+02  0.44468283622E+02  0.47892880343E+02  0.10566000000E+00 0.  1.
        994    1    1    2    0    0  0.30185748004E+01  0.28378772848E+01  0.36742840164E+01  0.17128953764E+03  0.17120000000E+03 0.  0.
        998    1    1    2    0    0  0.61001072772E+01 -0.18106741433E+02  0.14518574286E+04  0.14520175820E+04  0.10000000000E+02 0.  1.
</event>
<event>
 5    1  0.1252319E-008  0.3813892E+03  0.7957747E-01  0.3445132E+00
         13   -1    0    0    0    0  0.00000000000E+00  0.00000000000E+00  0.14999999963E+04  0.15000000000E+04  0.10566000000E+00 0. -1.
        994   -1    0    0    0    0 -0.00000000000E+00 -0.00000000000E+00  0.11368683772E-12  0.17120000000E+03  0.17120000000E+03 0.  0.
         13    1    1    2    0    0  0.47748867551E+02  0.31359544046E+02  0.32454471475E+03  0.32953400188E+03  0.10566000000E+00 0. -1.
        994    1    1    2    0    0 -0.68627375075E+02 -0.24999841404E+02  0.21393827471E+02  0.18735486258E+03  0.17120000000E+03 0.  0.
        998    1    1    2    0    0  0.20878507524E+02 -0.63597026418E+01  0.11540614541E+04  0.11543111355E+04  0.10000000000E+02 0. -1.
</event>
<event>
 5    1  0.1252319E-008  0.3921795E+03  0.7957747E-01  0.3399782E+00
         13   -1    0    0    0    0  0.00000000000E+00  0.00000000000E+00  0.14999999963E+04  0.15000000000E+04  0.10566000000E+00 0. -1.
        994   -1    0    0    0    0 -0.00000000000E+00 -0.00000000000E+00  0.11368683772E-12  0.17120000000E+03  0.17120000000E+03 0.  0.
         13    1    1    2    0    0  0.39672732204E+02 -0.19836588027E+02  0.33070767621E+02  0.55327233260E+02  0.10566000000E+00 0. -1.
        994    1    1    2    0    0 -0.42392138106E+02  0.74998598163E+01  0.30249625574E+02  0.17910282275E+03  0.17120000000E+03 0.  0.
        998    1    1    2    0    0  0.27194059017E+01  0.12336728211E+02  0.14366796031E+04  0.14367699440E+04  0.10000000000E+02 0. -1.
</event>
<event>
 5    1  0.1252319E-008  0.3747629E+03  0.7957747E-01  0.3474284E+00
         13   -1    0    0    0    0  0.00000000000E+00  0.00000000000E+00  0.14999999963E+04  0.15000000000E+04  0.10566000000E+00 0. -1.
        994   -1    0    0    0    0 -0.00000000000E+00 -0.00000000000E+00  0.11368683772E-12  0.17120000000E+03  0.17120000000E+03 0.  0.
         13    1    1    2    0    0 -0.96053346389E+01 -0.67624735283E+01  0.72470729275E+01  0.13803069651E+02  0.10566000000E+00 0. -1.
        994    1    1    2    0    0 -0.63414007556E+01  0.24193462503E+01  0.69572469597E+01  0.17147568307E+03  0.17120000000E+03 0.  0.
        998    1    1    2    0    0  0.15946735394E+02  0.43431272781E+01  0.14857956764E+04  0.14859212473E+04  0.10000000000E+02 0. -1.
</event>
<event>
 5    1  0.1252319E-008  0.3853873E+03  0.7957747E-01  0.3428031E+00
         13   -1    0    0    0    0  0.00000000000E+00  0.00000000000E+00  0.14999999963E+04  0.15000000000E+04  0.10566000000E+00 0. -1.
        994   -1    0    0    0    0 -0.00000000000E+00 -0.00000000000E+00  0.11368683772E-12  0.17120000000E+03  0.17120000000E+03 0.  0.
         13    1    1    2    0    0  0.11318875998E+02 -0.10720163287E+02  0.85718507551E+02  0.87124695441E+02  0.10566000000E+00 0. -1.
        994    1    1    2    0    0 -0.27694608621E+01  0.99247070638E+01  0.17867806003E+01  0.17151910188E+03  0.17120000000E+03 0.  0.
        998    1    1    2    0    0 -0.85494151357E+01  0.79545622328E+00  0.14124947081E+04  0.14125562027E+04  0.10000000000E+02 0. -1.
</event>
<event>
 5    1  0.1252319E-008  0.3848066E+03  0.7957747E-01  0.3430493E+00
         13   -1    0    0    0    0  0.00000000000E+00  0.00000000000E+00  0.14999999963E+04  0.15000000000E+04  0.10566000000E+00 0.  1.
        994   -1    0    0    0    0 -0.00000000000E+00 -0.00000000000E+00  0.11368683772E-12  0.17120000000E+03  0.17120000000E+03 0.  0.
         13    1    1    2    0    0  0.11033663562E+02  0.69249278234E+01  0.47842784607E+02  0.49584670614E+02  0.10566000000E+00 0.  1.
        994    1    1    2    0    0 -0.10929963607E+02 -0.74425909958E+01  0.23018105973E+01  0.17172534640E+03  0.17120000000E+03 0.  0.
        998    1    1    2    0    0 -0.10369995486E+00  0.51766317248E+00  0.14498554011E+04  0.14498899830E+04  0.10000000000E+02 0.  1.
</event>
<event>
 5    1  0.1252319E-008  0.3784481E+03  0.7957747E-01  0.3457944E+00
         13   -1    0    0    0    0  0.00000000000E+00  0.00000000000E+00  0.14999999963E+04  0.15000000000E+04  0.10566000000E+00 0. -1.
        994   -1    0    0    0    0 -0.00000000000E+00 -0.00000000000E+00  0.11368683772E-12  0.17120000000E+03  0.17120000000E+03 0.  0.
         13    1    1    2    0    0  0.79541231526E+01 -0.12439117835E+02  0.19795037913E+02  0.24695230666E+02  0.10566000000E+00 0. -1.
        994    1    1    2    0    0 -0.46976548737E+01  0.15799660661E+02  0.58320561703E+01  0.17209052884E+03  0.17120000000E+03 0.  0.
        998    1    1    2    0    0 -0.32564682789E+01 -0.33605428260E+01  0.14743729022E+04  0.14744142405E+04  0.10000000000E+02 0. -1.
</event>
<event>
 5    1  0.1252319E-008  0.3820044E+03  0.7957747E-01  0.3442477E+00
         13   -1    0    0    0    0  0.00000000000E+00  0.00000000000E+00  0.14999999963E+04  0.15000000000E+04  0.10566000000E+00 0.  1.
        994   -1    0    0    0    0 -0.00000000000E+00 -0.00000000000E+00  0.11368683772E-12  0.17120000000E+03  0.17120000000E+03 0.  0.
         13    1    1    2    0    0 -0.11676097479E+03  0.18176467069E+02  0.30178219884E+03  0.32409260389E+03  0.10566000000E+00 0.  1.
        994    1    1    2    0    0  0.11901589450E+03 -0.30127723675E+02  0.74763886858E+02  0.22354315390E+03  0.17120000000E+03 0.  0.
        998    1    1    2    0    0 -0.22549197027E+01  0.11951256607E+02  0.11234539106E+04  0.11235642422E+04  0.10000000000E+02 0.  1.
</event>
<event>
 5    1  0.1252319E-008  0.3816777E+03  0.7957747E-01  0.3443886E+00
         13   -1    0    0    0    0  0.00000000000E+00  0.00000000000E+00  0.14999999963E+04  0.15000000000E+04  0.10566000000E+00 0.  1.
        994   -1    0    0    0    0 -0.00000000000E+00 -0.00000000000E+00  0.11368683772E-12  0.17120000000E+03  0.17120000000E+03 0.  0.
         13    1    1    2    0    0  0.14651633484E+02  0.16912916015E+02  0.80738378402E+02  0.83781943180E+02  0.10566000000E+00 0.  1.
        994    1    1    2    0    0 -0.33318926445E+01  0.29805461457E+01  0.33550763023E+01  0.17129121898E+03  0.17120000000E+03 0.  0.
        998    1    1    2    0    0 -0.11319740839E+02 -0.19893462161E+02  0.14159065416E+04  0.14161268378E+04  0.10000000000E+02 0.  1.
</event>
<event>
 5    1  0.1252319E-008  0.3858795E+03  0.7957747E-01  0.3425951E+00
         13   -1    0    0    0    0  0.00000000000E+00  0.00000000000E+00  0.14999999963E+04  0.15000000000E+04  0.10566000000E+00 0. -1.
        994   -1    0    0    0    0 -0.00000000000E+00 -0.00000000000E+00  0.11368683772E-12  0.17120000000E+03  0.17120000000E+03 0.  0.
         13    1    1    2    0    0 -0.12701811500E+02  0.15993450747E+01  0.74459602135E+02  0.75552216607E+02  0.10566000000E+00 0. -1.
        994    1    1    2    0    0 -0.15490138869E+01 -0.93456790251E+01  0.14884450614E+01  0.17146835460E+03  0.17120000000E+03 0.  0.
        998    1    1    2    0    0  0.14250825386E+02  0.77463339505E+01  0.14240519491E+04  0.14241794288E+04  0.10000000000E+02 0. -1.
</event>
<event>
 5    1  0.1252319E-008  0.3823474E+03  0.7957747E-01  0.3441001E+00
         13   -1    0    0    0    0  0.00000000000E+00  0.00000000000E+00  0.14999999963E+04  0.15000000000E+04  0.10566000000E+00 0.  1.
        994   -1    0    0    0    0 -0.00000000000E+00 -0.00000000000E+00  0.11368683772E-12  0.17120000000E+03  0.17120000000E+03 0.  0.
         13    1    1    2    0    0  0.15089713672E+02 -0.66248272496E+01  0.46166968270E+02  0.49020280681E+02  0.10566000000E+00 0.  1.
        994    1    1    2    0    0 -0.41878745170E+01  0.23068841916E+01  0.30286843004E+01  0.17129352859E+03  0.17120000000E+03 0.  0.
        998    1    1    2    0    0 -0.10901839155E+02  0.43179430580E+01  0.14508043437E+04  0.14508861907E+04  0.10000000000E+02 0.  1.
</event>
<event>
 5    1  0.1252319E-008  0.3790727E+03  0.7957747E-01  0.3455206E+00
         13   -1    0    0    0    0  0.00000000000E+00  0.00000000000E+00  0.14999999963E+04  0.15000000000E+04  0.10566000000E+00 0.  1.
        994   -1    0    0    0    0 -0.00000000000E+00 -0.00000000000E+00  0.11368683772E-12  0.17120000000E+03  0.17120000000E+03 0.  0.
         13    1    1    2    0    0  0.37217812561E+02 -0.57226864123E+02  0.40242246968E+03  0.40817145272E+03  0.10566000000E+00 0.  1.
        994    1    1    2    0    0 -0.42512363559E+02  0.45227554946E+02  0.17631588577E+02  0.18295667711E+03  0.17120000000E+03 0.  0.
        998    1    1    2    0    0  0.52945509978E+01  0.11999309177E+02  0.10799459380E+04  0.10800718702E+04  0.10000000000E+02 0. -1.
</event>
<event>
 5    1  0.1252319E-008  0.3724259E+03  0.7957747E-01  0.3484816E+00
         13   -1    0    0    0    0  0.00000000000E+00  0.00000000000E+00  0.14999999963E+04  0.15000000000E+04  0.10566000000E+00 0. -1.
        994   -1    0    0    0    0 -0.00000000000E+00 -0.00000000000E+00  0.11368683772E-12  0.17120000000E+03  0.17120000000E+03 0.  0.
         13    1    1    2    0    0 -0.15557516517E+02 -0.29516602079E+01  0.11821233790E+02  0.19761107016E+02  0.10566000000E+00 0. -1.
        994    1    1    2    0    0  0.22966261232E+02 -0.50560159742E+01  0.99051472599E+01  0.17309120253E+03  0.17120000000E+03 0.  0.
        998    1    1    2    0    0 -0.74087447150E+01  0.80076761821E+01  0.14782736152E+04  0.14783476904E+04  0.10000000000E+02 0. -1.
</event>
<event>
 5    1  0.1252319E-008  0.3845246E+03  0.7957747E-01  0.3431691E+00
         13   -1    0    0    0    0  0.00000000000E+00  0.00000000000E+00  0.14999999963E+04  0.15000000000E+04  0.10566000000E+00 0. -1.
        994   -1    0    0    0    0 -0.00000000000E+00 -0.00000000000E+00  0.11368683772E-12  0.17120000000E+03  0.17120000000E+03 0.  0.
         13    1    1    2    0    0 -0.93739437312E+01  0.56551162709E+01  0.31467427716E+02  0.33317582929E+02  0.10566000000E+00 0. -1.
        994    1    1    2    0    0  0.63844503031E+01 -0.73848523340E+01  0.21802724143E+01  0.17149195561E+03  0.17120000000E+03 0.  0.
        998    1    1    2    0    0  0.29894934282E+01  0.17297360631E+01  0.14663522961E+04  0.14663904615E+04  0.10000000000E+02 0. -1.
</event>
<event>
 5    1  0.1252319E-008  0.3848943E+03  0.7957747E-01  0.3430121E+00
         13   -1    0    0    0    0  0.00000000000E+00  0.00000000000E+00  0.14999999963E+04  0.15000000000E+04  0.10566000000E+00 0.  1.
        994   -1    0    0    0    0 -0.00000000000E+00 -0.00000000000E+00  0.11368683772E-12  0.17120000000E+03  0.17120000000E+03 0.  0.
         13    1    1    2    0    0  0.47163146067E+01 -0.10778003954E+02  0.40399651470E+02  0.42077927654E+02  0.10566000000E+00 0.  1.
        994    1    1    2    0    0 -0.52455654680E+01  0.93835108409E+01  0.20629298972E+01  0.17154959024E+03  0.17120000000E+03 0.  0.
        998    1    1    2    0    0  0.52925086135E+00  0.13944931135E+01  0.14575374149E+04  0.14575724821E+04  0.10000000000E+02 0.  1.
</event>
<event>
 5    1  0.1941212E-008  0.3861801E+03  0.7957747E-01  0.3424683E+00
         13   -1    0    0    0    0  0.00000000000E+00  0.00000000000E+00  0.14999999963E+04  0.15000000000E+04  0.10566000000E+00 0.  1.
        994   -1    0    0    0    0 -0.00000000000E+00 -0.00000000000E+00  0.11368683772E-12  0.17120000000E+03  0.17120000000E+03 0.  0.
         13    1    1    2    0    0  0.71358824635E+01 -0.72766762234E+01  0.48776923860E+02  0.49830415417E+02  0.10566000000E+00 0.  1.
        994    1    1    2    0    0 -0.95481074685E+01  0.71613113782E+01  0.15121823760E+01  0.17162219388E+03  0.17120000000E+03 0.  0.
        998    1    1    2    0    0  0.24122250049E+01  0.11536484520E+00  0.14497108900E+04  0.14497473907E+04  0.10000000000E+02 0.  1.
</event>
<event>
 5    1  0.1252319E-008  0.3689003E+03  0.7957747E-01  0.3500960E+00
         13   -1    0    0    0    0  0.00000000000E+00  0.00000000000E+00  0.14999999963E+04  0.15000000000E+04  0.10566000000E+00 0. -1.
        994   -1    0    0    0    0 -0.00000000000E+00 -0.00000000000E+00  0.11368683772E-12  0.17120000000E+03  0.17120000000E+03 0.  0.
         13    1    1    2    0    0 -0.22163789230E+02 -0.34509889886E+02  0.77471605097E+02  0.87658580945E+02  0.10566000000E+00 0. -1.
        994    1    1    2    0    0  0.24766830840E+02  0.35258856919E+02  0.16316573364E+02  0.17729143653E+03  0.17120000000E+03 0.  0.
        998    1    1    2    0    0 -0.26030416098E+01 -0.74896703298E+00  0.14062118178E+04  0.14062499825E+04  0.10000000000E+02 0. -1.
</event>
<event>
 5    1  0.1252319E-008  0.3723117E+03  0.7957747E-01  0.3485334E+00
         13   -1    0    0    0    0  0.00000000000E+00  0.00000000000E+00  0.14999999963E+04  0.15000000000E+04  0.10566000000E+00 0. -1.
        994   -1    0    0    0    0 -0.00000000000E+00 -0.00000000000E+00  0.11368683772E-12  0.17120000000E+03  0.17120000000E+03 0.  0.
         13    1    1    2    0    0 -0.28123750412E+02 -0.93490135244E+00  0.45263820284E+02  0.53297691963E+02  0.10566000000E+00 0. -1.
        994    1    1    2    0    0  0.24176409888E+02 -0.12919440761E+02  0.10647631570E+02  0.17370729059E+03  0.17120000000E+03 0.  0.
        998    1    1    2    0    0  0.39473405247E+01  0.13854342113E+02  0.14440885444E+04  0.14441950175E+04  0.10000000000E+02 0. -1.
</event>
<event>
 5    1  0.1252319E-008  0.3715936E+03  0.7957747E-01  0.3488599E+00
         13   -1    0    0    0    0  0.00000000000E+00  0.00000000000E+00  0.14999999963E+04  0.15000000000E+04  0.10566000000E+00 0.  1.
        994   -1    0    0    0    0 -0.00000000000E+00 -0.00000000000E+00  0.11368683772E-12  0.17120000000E+03  0.17120000000E+03 0.  0.
         13    1    1    2    0    0  0.59432695640E+02 -0.19328541598E+02  0.25302183575E+03  0.26062597407E+03  0.10566000000E+00 0.  1.
        994    1    1    2    0    0 -0.89373983828E+01  0.42391062560E+02  0.14920315654E+02  0.17722566150E+03  0.17120000000E+03 0.  0.
        998    1    1    2    0    0 -0.50495297258E+02 -0.23062520961E+02  0.12320578449E+04  0.12333483644E+04  0.10000000000E+02 0.  1.
</event>
<event>
 5    1  0.1252319E-008  0.3807816E+03  0.7957747E-01  0.3447762E+00
         13   -1    0    0    0    0  0.00000000000E+00  0.00000000000E+00  0.14999999963E+04  0.15000000000E+04  0.10566000000E+00 0.  1.
        994   -1    0    0    0    0 -0.00000000000E+00 -0.00000000000E+00  0.11368683772E-12  0.17120000000E+03  0.17120000000E+03 0.  0.
         13    1    1    2    0    0 -0.13864551417E+02  0.25547354091E+02  0.10630084163E+03  0.11020332655E+03  0.10566000000E+00 0.  1.
        994    1    1    2    0    0  0.17608139403E+02 -0.20761014054E+02  0.62139793797E+01  0.17346215673E+03  0.17120000000E+03 0.  0.
        998    1    1    2    0    0 -0.37435879859E+01 -0.47863400367E+01  0.13874851753E+04  0.13875345167E+04  0.10000000000E+02 0.  1.
</event>
<event>
 5    1  0.1252319E-008  0.3817097E+03  0.7957747E-01  0.3443748E+00
         13   -1    0    0    0    0  0.00000000000E+00  0.00000000000E+00  0.14999999963E+04  0.15000000000E+04  0.10566000000E+00 0.  1.
        994   -1    0    0    0    0 -0.00000000000E+00 -0.00000000000E+00  0.11368683772E-12  0.17120000000E+03  0.17120000000E+03 0.  0.
         13    1    1    2    0    0  0.97248904571E+01 -0.58577895959E+01  0.18162552479E+02  0.21419072575E+02  0.10566000000E+00 0.  1.
        994    1    1    2    0    0 -0.92429840343E+01  0.79449176309E+01  0.37665337127E+01  0.17167463775E+03  0.17120000000E+03 0.  0.
        998    1    1    2    0    0 -0.48190642277E+00 -0.20871280350E+01  0.14780709101E+04  0.14781062897E+04  0.10000000000E+02 0.  1.
</event>
<event>
 5    1  0.1252319E-008  0.3851989E+03  0.7957747E-01  0.3428829E+00
         13   -1    0    0    0    0  0.00000000000E+00  0.00000000000E+00  0.14999999963E+04  0.15000000000E+04  0.10566000000E+00 0.  1.
        994   -1    0    0    0    0 -0.00000000000E+00 -0.00000000000E+00  0.11368683772E-12  0.17120000000E+03  0.17120000000E+03 0.  0.
         13    1    1    2    0    0  0.84071805221E+01 -0.62708416973E+01  0.36027896451E+02  0.37523654228E+02  0.10566000000E+00 0.  1.
        994    1    1    2    0    0 -0.76669152834E+01 -0.18051494528E+00  0.17247292177E+01  0.17138036313E+03  0.17120000000E+03 0.  0.
        998    1    1    2    0    0 -0.74026523867E+00  0.64513566426E+01  0.14622473706E+04  0.14622959826E+04  0.10000000000E+02 0.  1.
</event>
<event>
 5    1  0.1252319E-008  0.3806223E+03  0.7957747E-01  0.3448453E+00
         13   -1    0    0    0    0  0.00000000000E+00  0.00000000000E+00  0.14999999963E+04  0.15000000000E+04  0.10566000000E+00 0.  1.
        994   -1    0    0    0    0 -0.00000000000E+00 -0.00000000000E+00  0.11368683772E-12  0.17120000000E+03  0.17120000000E+03 0.  0.
         13    1    1    2    0    0  0.13708400922E+02 -0.24872355788E+01  0.23883588236E+02  0.27650380607E+02  0.10566000000E+00 0.  1.
        994    1    1    2    0    0 -0.88694533836E+01  0.42217875028E+01  0.41413063917E+01  0.17153157468E+03  0.17120000000E+03 0.  0.
        998    1    1    2    0    0 -0.48389475388E+01 -0.17345519240E+01  0.14719751017E+04  0.14720180447E+04  0.10000000000E+02 0.  1.
</event>
<event>
 5    1  0.1870731E-008  0.3860180E+03  0.7957747E-01  0.3425366E+00
         13   -1    0    0    0    0  0.00000000000E+00  0.00000000000E+00  0.14999999963E+04  0.15000000000E+04  0.10566000000E+00 0.  1.
        994   -1    0    0    0    0 -0.00000000000E+00 -0.00000000000E+00  0.11368683772E-12  0.17120000000E+03  0.17120000000E+03 0.  0.
         13    1    1    2    0    0 -0.11037561477E+02 -0.45052282547E+01  0.61156949703E+02  0.62308173669E+02  0.10566000000E+00 0.  1.
        994    1    1    2    0    0  0.13040372292E+02  0.50400456432E+01  0.17664756706E+01  0.17177896788E+03  0.17120000000E+03 0.  0.
        998    1    1    2    0    0 -0.20028108149E+01 -0.53481738857E+00  0.14370765709E+04  0.14371128585E+04  0.10000000000E+02 0.  1.
</event>
<event>
 5    1  0.1252319E-008  0.3786893E+03  0.7957747E-01  0.3456885E+00
         13   -1    0    0    0    0  0.00000000000E+00  0.00000000000E+00  0.14999999963E+04  0.15000000000E+04  0.10566000000E+00 0.  1.
        994   -1    0    0    0    0 -0.00000000000E+00 -0.00000000000E+00  0.11368683772E-12  0.17120000000E+03  0.17120000000E+03 0.  0.
         13    1    1    2    0    0 -0.46770383146E+02 -0.27343422053E+02  0.26981215461E+03  0.27519764063E+03  0.10566000000E+00 0.  1.
        994    1    1    2    0    0  0.38594803656E+02  0.24817534050E+02  0.11897982639E+02  0.17764141087E+03  0.17120000000E+03 0.  0.
        998    1    1    2    0    0  0.81755794905E+01  0.25258880031E+01  0.12182898590E+04  0.12183609485E+04  0.10000000000E+02 0.  1.
</event>
<event>
 5    1  0.1252319E-008  0.3840621E+03  0.7957747E-01  0.3433660E+00
         13   -1    0    0    0    0  0.00000000000E+00  0.00000000000E+00  0.14999999963E+04  0.15000000000E+04  0.10566000000E+00 0. -1.
        994   -1    0    0    0    0 -0.00000000000E+00 -0.00000000000E+00  0.11368683772E-12  0.17120000000E+03  0.17120000000E+03 0.  0.
         13    1    1    2    0    0  0.76883331120E+01 -0.16990469495E+02  0.95075809106E+02  0.96887600656E+02  0.10566000000E+00 0. -1.
        994    1    1    2    0    0  0.71608237704E+01 -0.58987688901E+01  0.23805072571E+01  0.17146772200E+03  0.17120000000E+03 0.  0.
        998    1    1    2    0    0 -0.14849156882E+02  0.22889238385E+02  0.14025436799E+04  0.14028446773E+04  0.10000000000E+02 0. -1.
</event>
<event>
 5    1  0.1252319E-008  0.3821253E+03  0.7957747E-01  0.3441956E+00
         13   -1    0    0    0    0  0.00000000000E+00  0.00000000000E+00  0.14999999963E+04  0.15000000000E+04  0.10566000000E+00 0. -1.
        994   -1    0    0    0    0 -0.00000000000E+00 -0.00000000000E+00  0.11368683772E-12  0.17120000000E+03  0.17120000000E+03 0.  0.
         13    1    1    2    0    0  0.25125011218E+02  0.22748045644E+02  0.20347970008E+03  0.20628315316E+03  0.10566000000E+00 0. -1.
        994    1    1    2    0    0 -0.35473507272E+01 -0.10599472143E+02  0.34789515093E+01  0.17159975411E+03  0.17120000000E+03 0.  0.
        998    1    1    2    0    0 -0.21577660490E+02 -0.12148573501E+02  0.12930413447E+04  0.12933170927E+04  0.10000000000E+02 0. -1.
</event>
<event>
 5    1  0.1252319E-008  0.3835423E+03  0.7957747E-01  0.3435878E+00
         13   -1    0    0    0    0  0.00000000000E+00  0.00000000000E+00  0.14999999963E+04  0.15000000000E+04  0.10566000000E+00 0.  1.
        994   -1    0    0    0    0 -0.00000000000E+00 -0.00000000000E+00  0.11368683772E-12  0.17120000000E+03  0.17120000000E+03 0.  0.
         13    1    1    2    0    0 -0.84185640520E+01 -0.77331391237E+01  0.26416536945E+02  0.28783992941E+02  0.10566000000E+00 0.  1.
        994    1    1    2    0    0  0.11439705244E+02  0.78467433776E+01  0.29917202202E+01  0.17178716083E+03  0.17120000000E+03 0.  0.
        998    1    1    2    0    0 -0.30211411924E+01 -0.11360425383E+00  0.14705917391E+04  0.14706288462E+04  0.10000000000E+02 0.  1.
</event>
<event>
 5    1  0.1252319E-008  0.3818543E+03  0.7957747E-01  0.3443124E+00
         13   -1    0    0    0    0  0.00000000000E+00  0.00000000000E+00  0.14999999963E+04  0.15000000000E+04  0.10566000000E+00 0.  1.
        994   -1    0    0    0    0 -0.00000000000E+00 -0.00000000000E+00  0.11368683772E-12  0.17120000000E+03  0.17120000000E+03 0.  0.
         13    1    1    2    0    0 -0.19612066211E+02 -0.26548509391E+02  0.19660187799E+03  0.19935336989E+03  0.10566000000E+00 0.  1.
        994    1    1    2    0    0  0.82830128115E+01 -0.40351448887E+01  0.34821265679E+01  0.17148310675E+03  0.17120000000E+03 0.  0.
        998    1    1    2    0    0  0.11329053400E+02  0.30583654280E+02  0.12999159917E+04  0.13003635234E+04  0.10000000000E+02 0.  1.
</event>
<event>
 5    1  0.1252319E-008  0.3838629E+03  0.7957747E-01  0.3434509E+00
         13   -1    0    0    0    0  0.00000000000E+00  0.00000000000E+00  0.14999999963E+04  0.15000000000E+04  0.10566000000E+00 0. -1.
        994   -1    0    0    0    0 -0.00000000000E+00 -0.00000000000E+00  0.11368683772E-12  0.17120000000E+03  0.17120000000E+03 0.  0.
         13    1    1    2    0    0 -0.51277543647E+01 -0.92853981922E+01  0.25493772549E+02  0.27612607397E+02  0.10566000000E+00 0. -1.
        994    1    1    2    0    0 -0.48593506289E+01  0.41724844181E+01  0.23311745716E+01  0.17133562761E+03  0.17120000000E+03 0.  0.
        998    1    1    2    0    0  0.99871049936E+01  0.51129137742E+01  0.14721750492E+04  0.14722517650E+04  0.10000000000E+02 0. -1.
</event>
<event>
 5    1  0.1252319E-008  0.3840946E+03  0.7957747E-01  0.3433521E+00
         13   -1    0    0    0    0  0.00000000000E+00  0.00000000000E+00  0.14999999963E+04  0.15000000000E+04  0.10566000000E+00 0. -1.
        994   -1    0    0    0    0 -0.00000000000E+00 -0.00000000000E+00  0.11368683772E-12  0.17120000000E+03  0.17120000000E+03 0.  0.
         13    1    1    2    0    0 -0.11980563413E+02 -0.12105165150E+02  0.68107715344E+02  0.70204992532E+02  0.10566000000E+00 0. -1.
        994    1    1    2    0    0  0.12185439024E+02  0.78384747048E+01  0.27730295856E+01  0.17183438626E+03  0.17120000000E+03 0.  0.
        998    1    1    2    0    0 -0.20487561058E+00  0.42666904457E+01  0.14291192513E+04  0.14291606212E+04  0.10000000000E+02 0. -1.
</event>
<event>
 5    1  0.1535288E-008  0.3860374E+03  0.7957747E-01  0.3425284E+00
         13   -1    0    0    0    0  0.00000000000E+00  0.00000000000E+00  0.14999999963E+04  0.15000000000E+04  0.10566000000E+00 0.  1.
        994   -1    0    0    0    0 -0.00000000000E+00 -0.00000000000E+00  0.11368683772E-12  0.17120000000E+03  0.17120000000E+03 0.  0.
         13    1    1    2    0    0 -0.45525925523E+01  0.10825265712E+02  0.60296189027E+02  0.61429260551E+02  0.10566000000E+00 0.  1.
        994    1    1    2    0    0  0.79038051715E+01 -0.10699999500E+02  0.16961700148E+01  0.17172442202E+03  0.17120000000E+03 0.  0.
        998    1    1    2    0    0 -0.33512126192E+01 -0.12526621119E+00  0.14380076372E+04  0.14380463174E+04  0.10000000000E+02 0.  1.
</event>
<event>
 5    1  0.1252319E-008  0.3742171E+03  0.7957747E-01  0.3476732E+00
         13   -1    0    0    0    0  0.00000000000E+00  0.00000000000E+00  0.14999999963E+04  0.15000000000E+04  0.10566000000E+00 0.  1.
        994   -1    0    0    0    0 -0.00000000000E+00 -0.00000000000E+00  0.11368683772E-12  0.17120000000E+03  0.17120000000E+03 0.  0.
         13    1    1    2    0    0  0.13667496439E+03 -0.11436814435E+03  0.77151477437E+03  0.79183027005E+03  0.10566000000E+00 0.  1.
        994    1    1    2    0    0 -0.14060477741E+03  0.12535625867E+03  0.13965541434E+03  0.29033940444E+03  0.17120000000E+03 0.  0.
        998    1    1    2    0    0  0.39298130168E+01 -0.10988114319E+02  0.58882980757E+03  0.58903032551E+03  0.10000000000E+02 0. -1.
</event>
<event>
 5    1  0.1252319E-008  0.3739654E+03  0.7957747E-01  0.3477863E+00
         13   -1    0    0    0    0  0.00000000000E+00  0.00000000000E+00  0.14999999963E+04  0.15000000000E+04  0.10566000000E+00 0.  1.
        994   -1    0    0    0    0 -0.00000000000E+00 -0.00000000000E+00  0.11368683772E-12  0.17120000000E+03  0.17120000000E+03 0.  0.
         13    1    1    2    0    0  0.13146584046E+02 -0.10979373297E+02  0.17583147191E+02  0.24547047465E+02  0.10566000000E+00 0.  1.
        994    1    1    2    0    0  0.51385397929E+01  0.11054913756E+02  0.77180973637E+01  0.17180694030E+03  0.17120000000E+03 0.  0.
        998    1    1    2    0    0 -0.18285123839E+02 -0.75540459631E-01  0.14746987517E+04  0.14748460122E+04  0.10000000000E+02 0.  1.
</event>
<event>
 5    1  0.1252319E-008  0.3762835E+03  0.7957747E-01  0.3467502E+00
         13   -1    0    0    0    0  0.00000000000E+00  0.00000000000E+00  0.14999999963E+04  0.15000000000E+04  0.10566000000E+00 0.  1.
        994   -1    0    0    0    0 -0.00000000000E+00 -0.00000000000E+00  0.11368683772E-12  0.17120000000E+03  0.17120000000E+03 0.  0.
         13    1    1    2    0    0  0.17032995551E+02  0.39496521143E+02  0.13748776017E+03  0.14405899306E+03  0.10566000000E+00 0.  1.
        994    1    1    2    0    0 -0.13327296354E+02 -0.42883751531E+02  0.12877170688E+02  0.17745955736E+03  0.17120000000E+03 0.  0.
        998    1    1    2    0    0 -0.37056991970E+01  0.33872303879E+01  0.13496350654E+04  0.13496814496E+04  0.10000000000E+02 0.  1.
</event>
<event>
 5    1  0.1252319E-008  0.3806369E+03  0.7957747E-01  0.3448390E+00
         13   -1    0    0    0    0  0.00000000000E+00  0.00000000000E+00  0.14999999963E+04  0.15000000000E+04  0.10566000000E+00 0. -1.
        994   -1    0    0    0    0 -0.00000000000E+00 -0.00000000000E+00  0.11368683772E-12  0.17120000000E+03  0.17120000000E+03 0.  0.
         13    1    1    2    0    0 -0.11858539390E+02 -0.52714632128E+02  0.30295067793E+03  0.30773134683E+03  0.10566000000E+00 0. -1.
        994    1    1    2    0    0  0.68022357916E+01  0.55270627507E+02  0.14227099700E+02  0.18059059511E+03  0.17120000000E+03 0.  0.
        998    1    1    2    0    0  0.50563035987E+01 -0.25559953786E+01  0.11828222186E+04  0.11828780581E+04  0.10000000000E+02 0. -1.
</event>
<event>
 5    1  0.1252319E-008  0.3704639E+03  0.7957747E-01  0.3493762E+00
         13   -1    0    0    0    0  0.00000000000E+00  0.00000000000E+00  0.14999999963E+04  0.15000000000E+04  0.10566000000E+00 0. -1.
        994   -1    0    0    0    0 -0.00000000000E+00 -0.00000000000E+00  0.11368683772E-12  0.17120000000E+03  0.17120000000E+03 0.  0.
         13    1    1    2    0    0 -0.22341418481E+02  0.50423864381E+02  0.12317382876E+03  0.13495743156E+03  0.10566000000E+00 0. -1.
        994    1    1    2    0    0  0.34604356195E+02 -0.42352017480E+02  0.21732931201E+02  0.18103291179E+03  0.17120000000E+03 0.  0.
        998    1    1    2    0    0 -0.12262937714E+02 -0.80718469012E+01  0.13550932363E+04  0.13552096566E+04  0.10000000000E+02 0. -1.
</event>
<event>
 5    1  0.1252319E-008  0.3831149E+03  0.7957747E-01  0.3437707E+00
         13   -1    0    0    0    0  0.00000000000E+00  0.00000000000E+00  0.14999999963E+04  0.15000000000E+04  0.10566000000E+00 0. -1.
        994   -1    0    0    0    0 -0.00000000000E+00 -0.00000000000E+00  0.11368683772E-12  0.17120000000E+03  0.17120000000E+03 0.  0.
         13    1    1    2    0    0 -0.19164667783E+01 -0.16988691376E+02  0.55209413541E+02  0.57796011862E+02  0.10566000000E+00 0. -1.
        994    1    1    2    0    0  0.16568326595E+01  0.14631037372E+02  0.32867087701E+01  0.17186347722E+03  0.17120000000E+03 0.  0.
        998    1    1    2    0    0  0.25963411877E+00  0.23576540033E+01  0.14415038740E+04  0.14415405109E+04  0.10000000000E+02 0. -1.
</event>
<event>
 5    1  0.1252319E-008  0.3862354E+03  0.7957747E-01  0.3424450E+00
         13   -1    0    0    0    0  0.00000000000E+00  0.00000000000E+00  0.14999999963E+04  0.15000000000E+04  0.10566000000E+00 0.  1.
        994   -1    0    0    0    0 -0.00000000000E+00 -0.00000000000E+00  0.11368683772E-12  0.17120000000E+03  0.17120000000E+03 0.  0.
         13    1    1    2    0    0 -0.25243891025E+01  0.96895570401E+01  0.51570444276E+02  0.52533626782E+02  0.10566000000E+00 0.  1.
        994    1    1    2    0    0 -0.66033315162E+01 -0.44085365357E+01  0.12245321545E+01  0.17138838543E+03  0.17120000000E+03 0.  0.
        998    1    1    2    0    0  0.91277206187E+01 -0.52810205044E+01  0.14472050198E+04  0.14472779878E+04  0.10000000000E+02 0.  1.
</event>
<event>
 5    1  0.1252319E-008  0.3843968E+03  0.7957747E-01  0.3432234E+00
         13   -1    0    0    0    0  0.00000000000E+00  0.00000000000E+00  0.14999999963E+04  0.15000000000E+04  0.10566000000E+00 0.  1.
        994   -1    0    0    0    0 -0.00000000000E+00 -0.00000000000E+00  0.11368683772E-12  0.17120000000E+03  0.17120000000E+03 0.  0.
         13    1    1    2    0    0 -0.19601368639E+01  0.21003809862E+02  0.10243101151E+03  0.10458071261E+03  0.10566000000E+00 0.  1.
        994    1    1    2    0    0 -0.40955366540E+01 -0.29908170229E+02  0.49384157809E+01  0.17391118428E+03  0.17120000000E+03 0.  0.
        998    1    1    2    0    0  0.60556735179E+01  0.89043603675E+01  0.13926305690E+04  0.13927081031E+04  0.10000000000E+02 0.  1.
</event>
<event>
 5    1  0.1252319E-008  0.3864772E+03  0.7957747E-01  0.3423431E+00
         13   -1    0    0    0    0  0.00000000000E+00  0.00000000000E+00  0.14999999963E+04  0.15000000000E+04  0.10566000000E+00 0. -1.
        994   -1    0    0    0    0 -0.00000000000E+00 -0.00000000000E+00  0.11368683772E-12  0.17120000000E+03  0.17120000000E+03 0.  0.
         13    1    1    2    0    0  0.72705122542E+01 -0.73124313610E+01  0.60159230192E+02  0.61036678663E+02  0.10566000000E+00 0. -1.
        994    1    1    2    0    0  0.37476910500E+01  0.14709986478E+02  0.16530522795E+01  0.17187961331E+03  0.17120000000E+03 0.  0.
        998    1    1    2    0    0 -0.11018203304E+02 -0.73975551168E+01  0.14381877138E+04  0.14382837080E+04  0.10000000000E+02 0. -1.
</event>
<event>
 5    1  0.1252319E-008  0.3801736E+03  0.7957747E-01  0.3450403E+00
         13   -1    0    0    0    0  0.00000000000E+00  0.00000000000E+00  0.14999999963E+04  0.15000000000E+04  0.10566000000E+00 0. -1.
        994   -1    0    0    0    0 -0.00000000000E+00 -0.00000000000E+00  0.11368683772E-12  0.17120000000E+03  0.17120000000E+03 0.  0.
         13    1    1    2    0    0 -0.34529491181E+02 -0.54101539624E+02  0.37390509370E+03  0.37937355286E+03  0.10566000000E+00 0. -1.
        994    1    1    2    0    0  0.38788179967E+02  0.53903024866E+02  0.18922952267E+02  0.18460112978E+03  0.17120000000E+03 0.  0.
        998    1    1    2    0    0 -0.42586887857E+01  0.19851475832E+00  0.11071719503E+04  0.11072253174E+04  0.10000000000E+02 0.  0.
</event>
<event>
 5    1  0.1252319E-008  0.3813716E+03  0.7957747E-01  0.3445208E+00
         13   -1    0    0    0    0  0.00000000000E+00  0.00000000000E+00  0.14999999963E+04  0.15000000000E+04  0.10566000000E+00 0.  1.
        994   -1    0    0    0    0 -0.00000000000E+00 -0.00000000000E+00  0.11368683772E-12  0.17120000000E+03  0.17120000000E+03 0.  0.
         13    1    1    2    0    0 -0.33085306212E+02  0.79870520089E+01  0.17257062887E+03  0.17589503574E+03  0.10566000000E+00 0.  1.
        994    1    1    2    0    0  0.16172184886E+02  0.42963247764E+00  0.43138323998E+01  0.17201678202E+03  0.17120000000E+03 0.  0.
        998    1    1    2    0    0  0.16913121326E+02 -0.84166844866E+01  0.13231155350E+04  0.13232881822E+04  0.10000000000E+02 0.  1.
</event>
<event>
 5    1  0.1252319E-008  0.3834006E+03  0.7957747E-01  0.3436484E+00
         13   -1    0    0    0    0  0.00000000000E+00  0.00000000000E+00  0.14999999963E+04  0.15000000000E+04  0.10566000000E+00 0.  1.
        994   -1    0    0    0    0 -0.00000000000E+00 -0.00000000000E+00  0.11368683772E-12  0.17120000000E+03  0.17120000000E+03 0.  0.
         13    1    1    2    0    0 -0.91429430172E+01 -0.69891809834E+01  0.26294655162E+02  0.28702998309E+02  0.10566000000E+00 0.  1.
        994    1    1    2    0    0  0.56979597473E+01  0.90437852812E+01  0.28040881497E+01  0.17155628729E+03  0.17120000000E+03 0.  0.
        998    1    1    2    0    0  0.34449832699E+01 -0.20546042978E+01  0.14709012530E+04  0.14709407144E+04  0.10000000000E+02 0.  1.
</event>
<event>
 5    1  0.1252319E-008  0.3849420E+03  0.7957747E-01  0.3429918E+00
         13   -1    0    0    0    0  0.00000000000E+00  0.00000000000E+00  0.14999999963E+04  0.15000000000E+04  0.10566000000E+00 0.  1.
        994   -1    0    0    0    0 -0.00000000000E+00 -0.00000000000E+00  0.11368683772E-12  0.17120000000E+03  0.17120000000E+03 0.  0.
         13    1    1    2    0    0 -0.12195421261E+02  0.14935411662E+02  0.11610273726E+03  0.11769303966E+03  0.10566000000E+00 0.  1.
        994    1    1    2    0    0  0.17486704906E+02  0.33625204181E+01  0.27026391093E+01  0.17214481012E+03  0.17120000000E+03 0.  0.
        998    1    1    2    0    0 -0.52912836450E+01 -0.18297932080E+02  0.13811946199E+04  0.13813621502E+04  0.10000000000E+02 0.  1.
</event>
<event>
 5    1  0.1252319E-008  0.3806278E+03  0.7957747E-01  0.3448430E+00
         13   -1    0    0    0    0  0.00000000000E+00  0.00000000000E+00  0.14999999963E+04  0.15000000000E+04  0.10566000000E+00 0.  1.
        994   -1    0    0    0    0 -0.00000000000E+00 -0.00000000000E+00  0.11368683772E-12  0.17120000000E+03  0.17120000000E+03 0.  0.
         13    1    1    2    0    0  0.11667067849E+02 -0.14774672019E+00  0.15705075154E+02  0.19565348218E+02  0.10566000000E+00 0.  1.
        994    1    1    2    0    0 -0.20863941289E+02 -0.33374922734E+01  0.53073390363E+01  0.17258056307E+03  0.17120000000E+03 0.  0.
        998    1    1    2    0    0  0.91968734400E+01  0.34852389936E+01  0.14789875821E+04  0.14790540887E+04  0.10000000000E+02 0.  1.
</event>
<event>
 5    1  0.1252319E-008  0.3796475E+03  0.7957747E-01  0.3452695E+00
         13   -1    0    0    0    0  0.00000000000E+00  0.00000000000E+00  0.14999999963E+04  0.15000000000E+04  0.10566000000E+00 0.  1.
        994   -1    0    0    0    0 -0.00000000000E+00 -0.00000000000E+00  0.11368683772E-12  0.17120000000E+03  0.17120000000E+03 0.  0.
         13    1    1    2    0    0  0.80026471845E+01  0.24869629173E+02  0.69644515319E+02  0.74383536452E+02  0.10566000000E+00 0.  1.
        994    1    1    2    0    0 -0.41676140243E+02 -0.31012851046E+02  0.13396726555E+02  0.17940905740E+03  0.17120000000E+03 0.  0.
        998    1    1    2    0    0  0.33673493058E+02  0.61432218735E+01  0.14169587544E+04  0.14174074061E+04  0.10000000000E+02 0.  1.
</event>
<event>
 5    1  0.1252319E-008  0.3841988E+03  0.7957747E-01  0.3433077E+00
         13   -1    0    0    0    0  0.00000000000E+00  0.00000000000E+00  0.14999999963E+04  0.15000000000E+04  0.10566000000E+00 0.  1.
        994   -1    0    0    0    0 -0.00000000000E+00 -0.00000000000E+00  0.11368683772E-12  0.17120000000E+03  0.17120000000E+03 0.  0.
         13    1    1    2    0    0 -0.40002048688E+01  0.10014745793E+02  0.28564905072E+02  0.30532961502E+02  0.10566000000E+00 0.  1.
        994    1    1    2    0    0 -0.56492212378E+01 -0.59852263969E+01  0.22518036437E+01  0.17141250612E+03  0.17120000000E+03 0.  0.
        998    1    1    2    0    0  0.96494261066E+01 -0.40295193957E+01  0.14691832876E+04  0.14692545324E+04  0.10000000000E+02 0.  1.
</event>
<event>
 5    1  0.1252319E-008  0.3788634E+03  0.7957747E-01  0.3456122E+00
         13   -1    0    0    0    0  0.00000000000E+00  0.00000000000E+00  0.14999999963E+04  0.15000000000E+04  0.10566000000E+00 0. -1.
        994   -1    0    0    0    0 -0.00000000000E+00 -0.00000000000E+00  0.11368683772E-12  0.17120000000E+03  0.17120000000E+03 0.  0.
         13    1    1    2    0    0 -0.25031711827E+02  0.35065704498E+02  0.22142773892E+03  0.22558024061E+03  0.10566000000E+00 0. -1.
        994    1    1    2    0    0  0.46031057160E+00 -0.99109043136E+01  0.50383695801E+01  0.17156125168E+03  0.17120000000E+03 0.  0.
        998    1    1    2    0    0  0.24571401256E+02 -0.25154800185E+02  0.12735338878E+04  0.12740585077E+04  0.10000000000E+02 0. -1.
</event>
<event>
 5    1  0.1252319E-008  0.3685140E+03  0.7957747E-01  0.3502748E+00
         13   -1    0    0    0    0  0.00000000000E+00  0.00000000000E+00  0.14999999963E+04  0.15000000000E+04  0.10566000000E+00 0. -1.
        994   -1    0    0    0    0 -0.00000000000E+00 -0.00000000000E+00  0.11368683772E-12  0.17120000000E+03  0.17120000000E+03 0.  0.
         13    1    1    2    0    0 -0.24357689835E+02  0.10584475538E+02  0.29261208972E+02  0.39516549584E+02  0.10566000000E+00 0. -1.
        994    1    1    2    0    0  0.30315803043E+02 -0.20844516010E+02  0.14877370056E+02  0.17573934648E+03  0.17120000000E+03 0.  0.
        998    1    1    2    0    0 -0.59581132087E+01  0.10260040473E+02  0.14558614173E+04  0.14559441039E+04  0.10000000000E+02 0. -1.
</event>
<event>
 5    1  0.1252319E-008  0.3852907E+03  0.7957747E-01  0.3428440E+00
         13   -1    0    0    0    0  0.00000000000E+00  0.00000000000E+00  0.14999999963E+04  0.15000000000E+04  0.10566000000E+00 0. -1.
        994   -1    0    0    0    0 -0.00000000000E+00 -0.00000000000E+00  0.11368683772E-12  0.17120000000E+03  0.17120000000E+03 0.  0.
         13    1    1    2    0    0  0.12998142321E+02 -0.10041463420E+02  0.94080098935E+02  0.95503187753E+02  0.10566000000E+00 0. -1.
        994    1    1    2    0    0 -0.17321742019E+02 -0.10753350578E+02  0.28528061352E+01  0.17243333726E+03  0.17120000000E+03 0.  0.
        998    1    1    2    0    0  0.43235996981E+01  0.20794813999E+02  0.14030670912E+04  0.14032634750E+04  0.10000000000E+02 0. -1.
</event>
<event>
 5    1  0.1252319E-008  0.3829659E+03  0.7957747E-01  0.3438345E+00
         13   -1    0    0    0    0  0.00000000000E+00  0.00000000000E+00  0.14999999963E+04  0.15000000000E+04  0.10566000000E+00 0. -1.
        994   -1    0    0    0    0 -0.00000000000E+00 -0.00000000000E+00  0.11368683772E-12  0.17120000000E+03  0.17120000000E+03 0.  0.
         13    1    1    2    0    0  0.53361581302E+01  0.19979745506E+02  0.77802848368E+02  0.80504404800E+02  0.10566000000E+00 0. -1.
        994    1    1    2    0    0 -0.83232997343E+01 -0.16890119779E+02  0.38180094918E+01  0.17227469536E+03  0.17120000000E+03 0.  0.
        998    1    1    2    0    0  0.29871416041E+01 -0.30896257262E+01  0.14183791384E+04  0.14184208998E+04  0.10000000000E+02 0. -1.
</event>
<event>
 5    1  0.1252319E-008  0.3766385E+03  0.7957747E-01  0.3465927E+00
         13   -1    0    0    0    0  0.00000000000E+00  0.00000000000E+00  0.14999999963E+04  0.15000000000E+04  0.10566000000E+00 0. -1.
        994   -1    0    0    0    0 -0.00000000000E+00 -0.00000000000E+00  0.11368683772E-12  0.17120000000E+03  0.17120000000E+03 0.  0.
         13    1    1    2    0    0 -0.53355949355E+02  0.76596473598E+02  0.37641853116E+03  0.38782057560E+03  0.10566000000E+00 0. -1.
        994    1    1    2    0    0 -0.35525098236E+00 -0.22524070868E+02  0.16311384222E+02  0.17344440385E+03  0.17120000000E+03 0.  0.
        998    1    1    2    0    0  0.53711200337E+02 -0.54072402730E+02  0.11072700809E+04  0.11099350205E+04  0.10000000000E+02 0. -1.
</event>
<event>
 5    1  0.1252319E-008  0.3836710E+03  0.7957747E-01  0.3435328E+00
         13   -1    0    0    0    0  0.00000000000E+00  0.00000000000E+00  0.14999999963E+04  0.15000000000E+04  0.10566000000E+00 0. -1.
        994   -1    0    0    0    0 -0.00000000000E+00 -0.00000000000E+00  0.11368683772E-12  0.17120000000E+03  0.17120000000E+03 0.  0.
         13    1    1    2    0    0 -0.24345117716E+02  0.36875607295E+01  0.13424724140E+03  0.13648668744E+03  0.10566000000E+00 0. -1.
        994    1    1    2    0    0  0.12300608903E+02 -0.26812126357E+01  0.28150632439E+01  0.17168534725E+03  0.17120000000E+03 0.  0.
        998    1    1    2    0    0  0.12044508813E+02 -0.10063480938E+01  0.13629376916E+04  0.13630279653E+04  0.10000000000E+02 0. -1.
</event>
<event>
 5    1  0.1252319E-008  0.3768933E+03  0.7957747E-01  0.3464798E+00
         13   -1    0    0    0    0  0.00000000000E+00  0.00000000000E+00  0.14999999963E+04  0.15000000000E+04  0.10566000000E+00 0.  1.
        994   -1    0    0    0    0 -0.00000000000E+00 -0.00000000000E+00  0.11368683772E-12  0.17120000000E+03  0.17120000000E+03 0.  0.
         13    1    1    2    0    0 -0.12416756276E+02 -0.57119284926E+02  0.25562548330E+03  0.26222354476E+03  0.10566000000E+00 0.  1.
        994    1    1    2    0    0  0.18318115085E+02  0.51760212060E+02  0.15960770812E+02  0.18049614704E+03  0.17120000000E+03 0.  0.
        998    1    1    2    0    0 -0.59013588087E+01  0.53590728660E+01  0.12284137422E+04  0.12284803082E+04  0.10000000000E+02 0.  1.
</event>
<event>
 5    1  0.1252319E-008  0.3850616E+03  0.7957747E-01  0.3429411E+00
         13   -1    0    0    0    0  0.00000000000E+00  0.00000000000E+00  0.14999999963E+04  0.15000000000E+04  0.10566000000E+00 0.  1.
        994   -1    0    0    0    0 -0.00000000000E+00 -0.00000000000E+00  0.11368683772E-12  0.17120000000E+03  0.17120000000E+03 0.  0.
         13    1    1    2    0    0  0.12630637590E+02  0.12223518170E+02  0.10237359770E+03  0.10387161341E+03  0.10566000000E+00 0.  1.
        994    1    1    2    0    0  0.17818999641E+02 -0.26968967513E+02  0.50425715929E+01  0.17429776099E+03  0.17120000000E+03 0.  0.
        998    1    1    2    0    0 -0.30449637231E+02  0.14745449343E+02  0.13925838270E+04  0.13930306256E+04  0.10000000000E+02 0.  1.
</event>
<event>
 5    1  0.1252319E-008  0.3841700E+03  0.7957747E-01  0.3433200E+00
         13   -1    0    0    0    0  0.00000000000E+00  0.00000000000E+00  0.14999999963E+04  0.15000000000E+04  0.10566000000E+00 0. -1.
        994   -1    0    0    0    0 -0.00000000000E+00 -0.00000000000E+00  0.11368683772E-12  0.17120000000E+03  0.17120000000E+03 0.  0.
         13    1    1    2    0    0 -0.40774681157E+01 -0.12021141824E+02  0.40116985765E+02  0.42077515467E+02  0.10566000000E+00 0. -1.
        994    1    1    2    0    0 -0.45573522884E+01  0.39317669882E+01  0.21622631982E+01  0.17131941990E+03  0.17120000000E+03 0.  0.
        998    1    1    2    0    0  0.86348204041E+01  0.80893748362E+01  0.14577207473E+04  0.14578030646E+04  0.10000000000E+02 0. -1.
</event>
<event>
 5    1  0.1252319E-008  0.3976834E+03  0.7957747E-01  0.3377599E+00
         13   -1    0    0    0    0  0.00000000000E+00  0.00000000000E+00  0.14999999963E+04  0.15000000000E+04  0.10566000000E+00 0. -1.
        994   -1    0    0    0    0 -0.00000000000E+00 -0.00000000000E+00  0.11368683772E-12  0.17120000000E+03  0.17120000000E+03 0.  0.
         13    1    1    2    0    0 -0.11189591913E+03  0.66620771370E+02  0.34352196961E+03  0.36737770572E+03  0.10566000000E+00 0. -1.
        994    1    1    2    0    0  0.97284644273E+02  0.35380905030E+02  0.69300209854E+02  0.21172640255E+03  0.17120000000E+03 0.  0.
        998    1    1    2    0    0  0.14611274857E+02 -0.10200167640E+03  0.10871778168E+04  0.10920958917E+04  0.10000000000E+02 0. -1.
</event>
<event>
 5    1  0.1252319E-008  0.3800755E+03  0.7957747E-01  0.3450830E+00
         13   -1    0    0    0    0  0.00000000000E+00  0.00000000000E+00  0.14999999963E+04  0.15000000000E+04  0.10566000000E+00 0. -1.
        994   -1    0    0    0    0 -0.00000000000E+00 -0.00000000000E+00  0.11368683772E-12  0.17120000000E+03  0.17120000000E+03 0.  0.
         13    1    1    2    0    0  0.10678095169E+02  0.18160797609E+02  0.56611679553E+02  0.60404715976E+02  0.10566000000E+00 0. -1.
        994    1    1    2    0    0  0.74315893912E+01  0.68762174984E+00  0.42812011847E+01  0.17141607284E+03  0.17120000000E+03 0.  0.
        998    1    1    2    0    0 -0.18109684561E+02 -0.18848419359E+02  0.14391071155E+04  0.14393792112E+04  0.10000000000E+02 0. -1.
</event>
<event>
 5    1  0.1252319E-008  0.3770365E+03  0.7957747E-01  0.3464165E+00
         13   -1    0    0    0    0  0.00000000000E+00  0.00000000000E+00  0.14999999963E+04  0.15000000000E+04  0.10566000000E+00 0. -1.
        994   -1    0    0    0    0 -0.00000000000E+00 -0.00000000000E+00  0.11368683772E-12  0.17120000000E+03  0.17120000000E+03 0.  0.
         13    1    1    2    0    0 -0.12488599733E+02 -0.92497630221E+01  0.18800335338E+02  0.24392355608E+02  0.10566000000E+00 0. -1.
        994    1    1    2    0    0  0.13461979734E+02  0.76910940714E+01  0.64485812432E+01  0.17202151617E+03  0.17120000000E+03 0.  0.
        998    1    1    2    0    0 -0.97338000075E+00  0.15586689507E+01  0.14747510797E+04  0.14747861282E+04  0.10000000000E+02 0. -1.
</event>
<event>
 5    1  0.1252319E-008  0.3793446E+03  0.7957747E-01  0.3454017E+00
         13   -1    0    0    0    0  0.00000000000E+00  0.00000000000E+00  0.14999999963E+04  0.15000000000E+04  0.10566000000E+00 0. -1.
        994   -1    0    0    0    0 -0.00000000000E+00 -0.00000000000E+00  0.11368683772E-12  0.17120000000E+03  0.17120000000E+03 0.  0.
         13    1    1    2    0    0 -0.32135132050E+02 -0.22803749702E+02  0.20880794594E+03  0.21249340499E+03  0.10566000000E+00 0. -1.
        994    1    1    2    0    0  0.19830976565E+02 -0.29084931958E+02  0.86270520630E+01  0.17499447684E+03  0.17120000000E+03 0.  0.
        998    1    1    2    0    0  0.12304155485E+02  0.51888681659E+02  0.12825649983E+04  0.12837121182E+04  0.10000000000E+02 0. -1.
</event>
<event>
 5    1  0.1252319E-008  0.3776452E+03  0.7957747E-01  0.3461476E+00
         13   -1    0    0    0    0  0.00000000000E+00  0.00000000000E+00  0.14999999963E+04  0.15000000000E+04  0.10566000000E+00 0.  1.
        994   -1    0    0    0    0 -0.00000000000E+00 -0.00000000000E+00  0.11368683772E-12  0.17120000000E+03  0.17120000000E+03 0.  0.
         13    1    1    2    0    0  0.12639739381E+02 -0.32382543306E+01  0.13691853428E+02  0.18913680685E+02  0.10566000000E+00 0.  1.
        994    1    1    2    0    0 -0.90664303105E+01 -0.40289255861E+01  0.56582977434E+01  0.17158056048E+03  0.17120000000E+03 0.  0.
        998    1    1    2    0    0 -0.35733090707E+01  0.72671799167E+01  0.14806498451E+04  0.14807057588E+04  0.10000000000E+02 0.  1.
</event>
<event>
 5    1  0.1252319E-008  0.3732413E+03  0.7957747E-01  0.3481126E+00
         13   -1    0    0    0    0  0.00000000000E+00  0.00000000000E+00  0.14999999963E+04  0.15000000000E+04  0.10566000000E+00 0. -1.
        994   -1    0    0    0    0 -0.00000000000E+00 -0.00000000000E+00  0.11368683772E-12  0.17120000000E+03  0.17120000000E+03 0.  0.
         13    1    1    2    0    0  0.41543043937E+02  0.94294244943E+02  0.45199980024E+03  0.46359579346E+03  0.10566000000E+00 0. -1.
        994    1    1    2    0    0 -0.46456569949E+02 -0.98170658116E+02  0.49061284785E+02  0.20859563915E+03  0.17120000000E+03 0.  0.
        998    1    1    2    0    0  0.49135260115E+01  0.38764131734E+01  0.99893891125E+03  0.99900856739E+03  0.10000000000E+02 0. -1.
</event>
<event>
 5    1  0.1252319E-008  0.3857938E+03  0.7957747E-01  0.3426313E+00
         13   -1    0    0    0    0  0.00000000000E+00  0.00000000000E+00  0.14999999963E+04  0.15000000000E+04  0.10566000000E+00 0. -1.
        994   -1    0    0    0    0 -0.00000000000E+00 -0.00000000000E+00  0.11368683772E-12  0.17120000000E+03  0.17120000000E+03 0.  0.
         13    1    1    2    0    0 -0.80652164626E+01  0.12384432461E+02  0.83511651354E+02  0.84809368350E+02  0.10566000000E+00 0. -1.
        994    1    1    2    0    0 -0.12901050267E+01 -0.22161082837E+02  0.28546327949E+01  0.17265678930E+03  0.17120000000E+03 0.  0.
        998    1    1    2    0    0  0.93553214893E+01  0.97766503759E+01  0.14136337121E+04  0.14137338423E+04  0.10000000000E+02 0. -1.
</event>
<event>
 5    1  0.1252319E-008  0.3840650E+03  0.7957747E-01  0.3433647E+00
         13   -1    0    0    0    0  0.00000000000E+00  0.00000000000E+00  0.14999999963E+04  0.15000000000E+04  0.10566000000E+00 0. -1.
        994   -1    0    0    0    0 -0.00000000000E+00 -0.00000000000E+00  0.11368683772E-12  0.17120000000E+03  0.17120000000E+03 0.  0.
         13    1    1    2    0    0 -0.10588341845E+02  0.17105518096E+02  0.99780188952E+02  0.10178805924E+03  0.10566000000E+00 0. -1.
        994    1    1    2    0    0  0.27768391853E+01 -0.70493549487E+01  0.22844214308E+01  0.17138279617E+03  0.17120000000E+03 0.  0.
        998    1    1    2    0    0  0.78115026597E+01 -0.10056163148E+02  0.13979353859E+04  0.13980291446E+04  0.10000000000E+02 0. -1.
</event>
<event>
 5    1  0.1252319E-008  0.3834011E+03  0.7957747E-01  0.3436482E+00
         13   -1    0    0    0    0  0.00000000000E+00  0.00000000000E+00  0.14999999963E+04  0.15000000000E+04  0.10566000000E+00 0. -1.
        994   -1    0    0    0    0 -0.00000000000E+00 -0.00000000000E+00  0.11368683772E-12  0.17120000000E+03  0.17120000000E+03 0.  0.
         13    1    1    2    0    0 -0.28303247190E+01 -0.26848055286E+02  0.15914108936E+03  0.16141476481E+03  0.10566000000E+00 0. -1.
        994    1    1    2    0    0  0.13810612366E+02  0.76797851863E+01  0.32519497389E+01  0.17195850456E+03  0.17120000000E+03 0.  0.
        998    1    1    2    0    0 -0.10980287647E+02  0.19168270100E+02  0.13376069572E+04  0.13378267306E+04  0.10000000000E+02 0. -1.
</event>
<event>
 5    1  0.1252319E-008  0.3792019E+03  0.7957747E-01  0.3454641E+00
         13   -1    0    0    0    0  0.00000000000E+00  0.00000000000E+00  0.14999999963E+04  0.15000000000E+04  0.10566000000E+00 0. -1.
        994   -1    0    0    0    0 -0.00000000000E+00 -0.00000000000E+00  0.11368683772E-12  0.17120000000E+03  0.17120000000E+03 0.  0.
         13    1    1    2    0    0  0.16414578267E+02 -0.40324377522E+01  0.30090026269E+02  0.34512603188E+02  0.10566000000E+00 0. -1.
        994    1    1    2    0    0 -0.42099903224E+01  0.11004873420E+02  0.50020054839E+01  0.17167787078E+03  0.17120000000E+03 0.  0.
        998    1    1    2    0    0 -0.12204587945E+02 -0.69724356677E+01  0.14649079645E+04  0.14650095260E+04  0.10000000000E+02 0. -1.
</event>
<event>
 5    1  0.1252319E-008  0.3854907E+03  0.7957747E-01  0.3427594E+00
         13   -1    0    0    0    0  0.00000000000E+00  0.00000000000E+00  0.14999999963E+04  0.15000000000E+04  0.10566000000E+00 0. -1.
        994   -1    0    0    0    0 -0.00000000000E+00 -0.00000000000E+00  0.11368683772E-12  0.17120000000E+03  0.17120000000E+03 0.  0.
         13    1    1    2    0    0 -0.15638248704E+02 -0.22202942291E+01  0.90773040657E+02  0.92137075074E+02  0.10566000000E+00 0. -1.
        994    1    1    2    0    0  0.94128807295E+01  0.27349222485E+01  0.17022471963E+01  0.17148883278E+03  0.17120000000E+03 0.  0.
        998    1    1    2    0    0  0.62253679748E+01 -0.51462801938E+00  0.14075247084E+04  0.14075740921E+04  0.10000000000E+02 0. -1.
</event>
<event>
 5    1  0.1252319E-008  0.3821178E+03  0.7957747E-01  0.3441989E+00
         13   -1    0    0    0    0  0.00000000000E+00  0.00000000000E+00  0.14999999963E+04  0.15000000000E+04  0.10566000000E+00 0.  1.
        994   -1    0    0    0    0 -0.00000000000E+00 -0.00000000000E+00  0.11368683772E-12  0.17120000000E+03  0.17120000000E+03 0.  0.
         13    1    1    2    0    0  0.10562895272E+02 -0.10612465680E+01  0.17678784682E+02  0.20621629244E+02  0.10566000000E+00 0.  1.
        994    1    1    2    0    0  0.43978595171E+01  0.77803195594E+01  0.33330914479E+01  0.17146551851E+03  0.17120000000E+03 0.  0.
        998    1    1    2    0    0 -0.14960754789E+02 -0.67190729913E+01  0.14789881201E+04  0.14791128522E+04  0.10000000000E+02 0.  1.
</event>
<event>
 5    1  0.1252319E-008  0.3828818E+03  0.7957747E-01  0.3438705E+00
         13   -1    0    0    0    0  0.00000000000E+00  0.00000000000E+00  0.14999999963E+04  0.15000000000E+04  0.10566000000E+00 0.  1.
        994   -1    0    0    0    0 -0.00000000000E+00 -0.00000000000E+00  0.11368683772E-12  0.17120000000E+03  0.17120000000E+03 0.  0.
         13    1    1    2    0    0  0.92579650446E+01  0.15755576961E+02  0.59061230763E+02  0.61823848678E+02  0.10566000000E+00 0.  1.
        994    1    1    2    0    0 -0.11474383758E+02 -0.16295458606E+02  0.40018253184E+01  0.17240260456E+03  0.17120000000E+03 0.  0.
        998    1    1    2    0    0  0.22164187132E+01  0.53988164462E+00  0.14369369402E+04  0.14369735468E+04  0.10000000000E+02 0.  1.
</event>
<event>
 5    1  0.1252319E-008  0.3833592E+03  0.7957747E-01  0.3436661E+00
         13   -1    0    0    0    0  0.00000000000E+00  0.00000000000E+00  0.14999999963E+04  0.15000000000E+04  0.10566000000E+00 0.  1.
        994   -1    0    0    0    0 -0.00000000000E+00 -0.00000000000E+00  0.11368683772E-12  0.17120000000E+03  0.17120000000E+03 0.  0.
         13    1    1    2    0    0 -0.16438432900E+02  0.21065634002E+02  0.14400782106E+03  0.14646585507E+03  0.10566000000E+00 0.  1.
        994    1    1    2    0    0 -0.78911445054E+01 -0.29107221714E+02  0.54597885549E+01  0.17392167722E+03  0.17120000000E+03 0.  0.
        998    1    1    2    0    0  0.24329577405E+02  0.80415877118E+01  0.13505323867E+04  0.13508124677E+04  0.10000000000E+02 0.  1.
</event>
<event>
 5    1  0.1252319E-008  0.3820096E+03  0.7957747E-01  0.3442455E+00
         13   -1    0    0    0    0  0.00000000000E+00  0.00000000000E+00  0.14999999963E+04  0.15000000000E+04  0.10566000000E+00 0. -1.
        994   -1    0    0    0    0 -0.00000000000E+00 -0.00000000000E+00  0.11368683772E-12  0.17120000000E+03  0.17120000000E+03 0.  0.
         13    1    1    2    0    0 -0.15326700646E+02  0.92136452196E+01  0.50222271259E+02  0.53311224947E+02  0.10566000000E+00 0. -1.
        994    1    1    2    0    0  0.85801947131E+01 -0.78801491471E+01  0.35729780427E+01  0.17163310480E+03  0.17120000000E+03 0.  0.
        998    1    1    2    0    0  0.67465059327E+01 -0.13334960725E+01  0.14462047470E+04  0.14462556703E+04  0.10000000000E+02 0. -1.
</event>
<event>
 5    1  0.1252319E-008  0.3760289E+03  0.7957747E-01  0.3468634E+00
         13   -1    0    0    0    0  0.00000000000E+00  0.00000000000E+00  0.14999999963E+04  0.15000000000E+04  0.10566000000E+00 0.  1.
        994   -1    0    0    0    0 -0.00000000000E+00 -0.00000000000E+00  0.11368683772E-12  0.17120000000E+03  0.17120000000E+03 0.  0.
         13    1    1    2    0    0 -0.26994861264E+02  0.13167123180E+02  0.73278908199E+02  0.79195361092E+02  0.10566000000E+00 0.  1.
        994    1    1    2    0    0  0.61378581569E+01 -0.12154426079E+02  0.67795814000E+01  0.17187439047E+03  0.17120000000E+03 0.  0.
        998    1    1    2    0    0  0.20857003107E+02 -0.10126971018E+01  0.14199415067E+04  0.14201302484E+04  0.10000000000E+02 0.  1.
</event>
<event>
 5    1  0.1252319E-008  0.3747200E+03  0.7957747E-01  0.3474476E+00
         13   -1    0    0    0    0  0.00000000000E+00  0.00000000000E+00  0.14999999963E+04  0.15000000000E+04  0.10566000000E+00 0.  1.
        994   -1    0    0    0    0 -0.00000000000E+00 -0.00000000000E+00  0.11368683772E-12  0.17120000000E+03  0.17120000000E+03 0.  0.
         13    1    1    2    0    0 -0.93183722995E+01 -0.56284916177E+01  0.55421535053E+01  0.12216325541E+02  0.10566000000E+00 0.  1.
        994    1    1    2    0    0  0.88208952517E+01  0.12281127432E+01  0.70925231772E+01  0.17157814645E+03  0.17120000000E+03 0.  0.
        998    1    1    2    0    0  0.49747704784E+00  0.44003788745E+01  0.14873653196E+04  0.14874055280E+04  0.10000000000E+02 0.  1.
</event>
<event>
 5    1  0.1252319E-008  0.3831330E+03  0.7957747E-01  0.3437629E+00
         13   -1    0    0    0    0  0.00000000000E+00  0.00000000000E+00  0.14999999963E+04  0.15000000000E+04  0.10566000000E+00 0.  1.
        994   -1    0    0    0    0 -0.00000000000E+00 -0.00000000000E+00  0.11368683772E-12  0.17120000000E+03  0.17120000000E+03 0.  0.
         13    1    1    2    0    0 -0.15662185942E+02  0.71437908255E+01  0.56045034542E+02  0.58629300496E+02  0.10566000000E+00 0.  1.
        994    1    1    2    0    0  0.13860994824E+02 -0.65007869143E+01  0.33357843205E+01  0.17191554573E+03  0.17120000000E+03 0.  0.
        998    1    1    2    0    0  0.18011911187E+01 -0.64300391124E+00  0.14406191774E+04  0.14406551538E+04  0.10000000000E+02 0.  1.
</event>
<event>
 5    1  0.1252319E-008  0.3788767E+03  0.7957747E-01  0.3456064E+00
         13   -1    0    0    0    0  0.00000000000E+00  0.00000000000E+00  0.14999999963E+04  0.15000000000E+04  0.10566000000E+00 0.  1.
        994   -1    0    0    0    0 -0.00000000000E+00 -0.00000000000E+00  0.11368683772E-12  0.17120000000E+03  0.17120000000E+03 0.  0.
         13    1    1    2    0    0  0.86913046809E+01 -0.87252416316E+01  0.13884171435E+02  0.18559364188E+02  0.10566000000E+00 0.  1.
        994    1    1    2    0    0 -0.11551756368E+02  0.92159907735E+01  0.54343106783E+01  0.17192250956E+03  0.17120000000E+03 0.  0.
        998    1    1    2    0    0  0.28604516876E+01 -0.49074914197E+00  0.14806815142E+04  0.14807181263E+04  0.10000000000E+02 0.  1.
</event>
<event>
 5    1  0.1252319E-008  0.3691599E+03  0.7957747E-01  0.3499761E+00
         13   -1    0    0    0    0  0.00000000000E+00  0.00000000000E+00  0.14999999963E+04  0.15000000000E+04  0.10566000000E+00 0.  1.
        994   -1    0    0    0    0 -0.00000000000E+00 -0.00000000000E+00  0.11368683772E-12  0.17120000000E+03  0.17120000000E+03 0.  0.
         13    1    1    2    0    0  0.51706944181E+02 -0.19846280166E+02  0.18319032188E+03  0.19137969618E+03  0.10566000000E+00 0.  1.
        994    1    1    2    0    0  0.16413366203E+01  0.20928408544E+01  0.97333950620E+01  0.17149709312E+03  0.17120000000E+03 0.  0.
        998    1    1    2    0    0 -0.53348280802E+02  0.17753439312E+02  0.13070762793E+04  0.13083232107E+04  0.10000000000E+02 0.  1.
</event>
<event>
 5    1  0.1252319E-008  0.3830095E+03  0.7957747E-01  0.3438158E+00
         13   -1    0    0    0    0  0.00000000000E+00  0.00000000000E+00  0.14999999963E+04  0.15000000000E+04  0.10566000000E+00 0. -1.
        994   -1    0    0    0    0 -0.00000000000E+00 -0.00000000000E+00  0.11368683772E-12  0.17120000000E+03  0.17120000000E+03 0.  0.
         13    1    1    2    0    0 -0.42624789154E+00  0.17585295460E+02  0.61310241303E+02  0.63783862821E+02  0.10566000000E+00 0. -1.
        994    1    1    2    0    0 -0.55054404908E+01 -0.13496831480E+01  0.27280036621E+01  0.17131553789E+03  0.17120000000E+03 0.  0.
        998    1    1    2    0    0  0.59316883824E+01 -0.16235612312E+02  0.14359617513E+04  0.14361005993E+04  0.10000000000E+02 0. -1.
</event>
<event>
 5    1  0.1252319E-008  0.3825969E+03  0.7957747E-01  0.3439928E+00
         13   -1    0    0    0    0  0.00000000000E+00  0.00000000000E+00  0.14999999963E+04  0.15000000000E+04  0.10566000000E+00 0. -1.
        994   -1    0    0    0    0 -0.00000000000E+00 -0.00000000000E+00  0.11368683772E-12  0.17120000000E+03  0.17120000000E+03 0.  0.
         13    1    1    2    0    0 -0.21059824481E+01 -0.11880390645E+02  0.24224490895E+02  0.27063184718E+02  0.10566000000E+00 0. -1.
        994    1    1    2    0    0 -0.20876133931E+01  0.14926243160E+02  0.35812115384E+01  0.17189943554E+03  0.17120000000E+03 0.  0.
        998    1    1    2    0    0  0.41935958412E+01 -0.30458525150E+01  0.14721942938E+04  0.14722373797E+04  0.10000000000E+02 0. -1.
</event>
<event>
 5    1  0.1252319E-008  0.3777755E+03  0.7957747E-01  0.3460902E+00
         13   -1    0    0    0    0  0.00000000000E+00  0.00000000000E+00  0.14999999963E+04  0.15000000000E+04  0.10566000000E+00 0. -1.
        994   -1    0    0    0    0 -0.00000000000E+00 -0.00000000000E+00  0.11368683772E-12  0.17120000000E+03  0.17120000000E+03 0.  0.
         13    1    1    2    0    0 -0.64955673689E+01  0.17302715398E+02  0.31562377254E+02  0.36575554371E+02  0.10566000000E+00 0. -1.
        994    1    1    2    0    0  0.10204464206E+02  0.51678708249E+01  0.57010199657E+01  0.17167638046E+03  0.17120000000E+03 0.  0.
        998    1    1    2    0    0 -0.37088968367E+01 -0.22470586223E+02  0.14627365991E+04  0.14629480652E+04  0.10000000000E+02 0. -1.
</event>
<event>
 5    1  0.1252319E-008  0.3768939E+03  0.7957747E-01  0.3464796E+00
         13   -1    0    0    0    0  0.00000000000E+00  0.00000000000E+00  0.14999999963E+04  0.15000000000E+04  0.10566000000E+00 0. -1.
        994   -1    0    0    0    0 -0.00000000000E+00 -0.00000000000E+00  0.11368683772E-12  0.17120000000E+03  0.17120000000E+03 0.  0.
         13    1    1    2    0    0  0.52458547283E+02 -0.92781287064E+01  0.21463076581E+03  0.22114330117E+03  0.10566000000E+00 0. -1.
        994    1    1    2    0    0 -0.50162169606E+02  0.14723396470E+02  0.14996830814E+02  0.17963119606E+03  0.17120000000E+03 0.  0.
        998    1    1    2    0    0 -0.22963776770E+01 -0.54452677633E+01  0.12703723997E+04  0.12704255028E+04  0.10000000000E+02 0. -1.
</event>
<event>
 5    1  0.1252319E-008  0.3781696E+03  0.7957747E-01  0.3459167E+00
         13   -1    0    0    0    0  0.00000000000E+00  0.00000000000E+00  0.14999999963E+04  0.15000000000E+04  0.10566000000E+00 0. -1.
        994   -1    0    0    0    0 -0.00000000000E+00 -0.00000000000E+00  0.11368683772E-12  0.17120000000E+03  0.17120000000E+03 0.  0.
         13    1    1    2    0    0  0.78933331334E+02 -0.46963803061E+02  0.48336059061E+03  0.49200969636E+03  0.10566000000E+00 0. -1.
        994    1    1    2    0    0 -0.10333887697E+03  0.31889841778E+02  0.45462438834E+02  0.20753833103E+03  0.17120000000E+03 0.  0.
        998    1    1    2    0    0  0.24405545636E+02  0.15073961283E+02  0.97117696683E+03  0.97165197261E+03  0.10000000000E+02 0. -1.
</event>
<event>
 5    1  0.1252319E-008  0.3814118E+03  0.7957747E-01  0.3445034E+00
         13   -1    0    0    0    0  0.00000000000E+00  0.00000000000E+00  0.14999999963E+04  0.15000000000E+04  0.10566000000E+00 0. -1.
        994   -1    0    0    0    0 -0.00000000000E+00 -0.00000000000E+00  0.11368683772E-12  0.17120000000E+03  0.17120000000E+03 0.  0.
         13    1    1    2    0    0  0.12205916882E+02 -0.14681426201E+02  0.50962598067E+02  0.54421744257E+02  0.10566000000E+00 0. -1.
        994    1    1    2    0    0 -0.82552186132E+01  0.16123689561E+02  0.45146986915E+01  0.17221482080E+03  0.17120000000E+03 0.  0.
        998    1    1    2    0    0 -0.39506982692E+01 -0.14422633605E+01  0.14445226995E+04  0.14445634349E+04  0.10000000000E+02 0. -1.
</event>
<event>
 5    1  0.1252319E-008  0.3857549E+03  0.7957747E-01  0.3426477E+00
         13   -1    0    0    0    0  0.00000000000E+00  0.00000000000E+00  0.14999999963E+04  0.15000000000E+04  0.10566000000E+00 0. -1.
        994   -1    0    0    0    0 -0.00000000000E+00 -0.00000000000E+00  0.11368683772E-12  0.17120000000E+03  0.17120000000E+03 0.  0.
         13    1    1    2    0    0  0.13172258518E+02  0.63980590203E+01  0.84044786775E+02  0.85311083112E+02  0.10566000000E+00 0. -1.
        994    1    1    2    0    0 -0.10318196132E+02 -0.72807433471E+01  0.17791460050E+01  0.17167434216E+03  0.17120000000E+03 0.  0.
        998    1    1    2    0    0 -0.28540623855E+01  0.88268432683E+00  0.14141760635E+04  0.14142145747E+04  0.10000000000E+02 0. -1.
</event>
<event>
 5    1  0.1252319E-008  0.3787530E+03  0.7957747E-01  0.3456606E+00
         13   -1    0    0    0    0  0.00000000000E+00  0.00000000000E+00  0.14999999963E+04  0.15000000000E+04  0.10566000000E+00 0.  1.
        994   -1    0    0    0    0 -0.00000000000E+00 -0.00000000000E+00  0.11368683772E-12  0.17120000000E+03  0.17120000000E+03 0.  0.
         13    1    1    2    0    0  0.20781716438E+02  0.17429361879E+02  0.71835040142E+02  0.76785067232E+02  0.10566000000E+00 0.  1.
        994    1    1    2    0    0 -0.20282339901E+02 -0.20872298156E+02  0.76124222756E+01  0.17382294185E+03  0.17120000000E+03 0.  0.
        998    1    1    2    0    0 -0.49937653629E+00  0.34429362774E+01  0.14205525339E+04  0.14205919909E+04  0.10000000000E+02 0.  1.
</event>
<event>
 5    1  0.1252319E-008  0.3733759E+03  0.7957747E-01  0.3480518E+00
         13   -1    0    0    0    0  0.00000000000E+00  0.00000000000E+00  0.14999999963E+04  0.15000000000E+04  0.10566000000E+00 0. -1.
        994   -1    0    0    0    0 -0.00000000000E+00 -0.00000000000E+00  0.11368683772E-12  0.17120000000E+03  0.17120000000E+03 0.  0.
         13    1    1    2    0    0  0.19218182203E+02  0.13256782892E+02  0.35312710367E+02  0.42332959941E+02  0.10566000000E+00 0. -1.
        994    1    1    2    0    0  0.90673637447E+01 -0.11394987281E+01  0.78006040975E+01  0.17162110875E+03  0.17120000000E+03 0.  0.
        998    1    1    2    0    0 -0.28285545948E+02 -0.12117284163E+02  0.14568866818E+04  0.14572459313E+04  0.10000000000E+02 0. -1.
</event>
<event>
 5    1  0.1252319E-008  0.3690071E+03  0.7957747E-01  0.3500467E+00
         13   -1    0    0    0    0  0.00000000000E+00  0.00000000000E+00  0.14999999963E+04  0.15000000000E+04  0.10566000000E+00 0.  1.
        994   -1    0    0    0    0 -0.00000000000E+00 -0.00000000000E+00  0.11368683772E-12  0.17120000000E+03  0.17120000000E+03 0.  0.
         13    1    1    2    0    0  0.14705847831E+02  0.28192526079E+02  0.46912481444E+02  0.56673384992E+02  0.10566000000E+00 0.  1.
        994    1    1    2    0    0 -0.12029926999E+02 -0.25907896438E+02  0.12625111815E+02  0.17402520418E+03  0.17120000000E+03 0.  0.
        998    1    1    2    0    0 -0.26759208326E+01 -0.22846296415E+01  0.14404624030E+04  0.14405014108E+04  0.10000000000E+02 0.  1.
</event>
<event>
 5    1  0.1252319E-008  0.3805055E+03  0.7957747E-01  0.3448961E+00
         13   -1    0    0    0    0  0.00000000000E+00  0.00000000000E+00  0.14999999963E+04  0.15000000000E+04  0.10566000000E+00 0.  1.
        994   -1    0    0    0    0 -0.00000000000E+00 -0.00000000000E+00  0.11368683772E-12  0.17120000000E+03  0.17120000000E+03 0.  0.
         13    1    1    2    0    0 -0.12351706523E+02 -0.10012873726E+01  0.18015481026E+02  0.21866320017E+02  0.10566000000E+00 0.  1.
        994    1    1    2    0    0  0.11871021503E+02  0.37603740119E+01  0.43958754329E+01  0.17170854750E+03  0.17120000000E+03 0.  0.
        998    1    1    2    0    0  0.48068502020E+00 -0.27590866393E+01  0.14775886398E+04  0.14776251325E+04  0.10000000000E+02 0.  1.
</event>
<event>
 5    1  0.1588851E-008  0.3859192E+03  0.7957747E-01  0.3425783E+00
         13   -1    0    0    0    0  0.00000000000E+00  0.00000000000E+00  0.14999999963E+04  0.15000000000E+04  0.10566000000E+00 0. -1.
        994   -1    0    0    0    0 -0.00000000000E+00 -0.00000000000E+00  0.11368683772E-12  0.17120000000E+03  0.17120000000E+03 0.  0.
         13    1    1    2    0    0 -0.10122758738E+02 -0.26001497696E+01  0.47514286910E+02  0.48650279011E+02  0.10566000000E+00 0. -1.
        994    1    1    2    0    0  0.59082855179E+01 -0.17993581615E+01  0.12995298512E+01  0.17131629901E+03  0.17120000000E+03 0.  0.
        998    1    1    2    0    0  0.42144732197E+01  0.43995079311E+01  0.14511861795E+04  0.14512334220E+04  0.10000000000E+02 0. -1.
</event>
<event>
 5    1  0.1252319E-008  0.3857049E+03  0.7957747E-01  0.3426688E+00
         13   -1    0    0    0    0  0.00000000000E+00  0.00000000000E+00  0.14999999963E+04  0.15000000000E+04  0.10566000000E+00 0. -1.
        994   -1    0    0    0    0 -0.00000000000E+00 -0.00000000000E+00  0.11368683772E-12  0.17120000000E+03  0.17120000000E+03 0.  0.
         13    1    1    2    0    0  0.52529717334E+01  0.12380563805E+02  0.65679771515E+02  0.67042640330E+02  0.10566000000E+00 0. -1.
        994    1    1    2    0    0 -0.79877587079E+01 -0.18631672909E+02  0.26301163855E+01  0.17241606954E+03  0.17120000000E+03 0.  0.
        998    1    1    2    0    0  0.27347869746E+01  0.62511091040E+01  0.14316901084E+04  0.14317412901E+04  0.10000000000E+02 0. -1.
</event>
<event>
 5    1  0.1252319E-008  0.3793237E+03  0.7957747E-01  0.3454108E+00
         13   -1    0    0    0    0  0.00000000000E+00  0.00000000000E+00  0.14999999963E+04  0.15000000000E+04  0.10566000000E+00 0. -1.
        994   -1    0    0    0    0 -0.00000000000E+00 -0.00000000000E+00  0.11368683772E-12  0.17120000000E+03  0.17120000000E+03 0.  0.
         13    1    1    2    0    0  0.28419662929E+02 -0.43511562301E+02  0.26681995644E+03  0.27183420244E+03  0.10566000000E+00 0. -1.
        994    1    1    2    0    0 -0.12183473696E+02  0.44934416174E+02  0.11771526135E+02  0.17780761405E+03  0.17120000000E+03 0.  0.
        998    1    1    2    0    0 -0.16236189233E+02 -0.14228538729E+01  0.12214085137E+04  0.12215581835E+04  0.10000000000E+02 0. -1.
</event>
<event>
 5    1  0.1252319E-008  0.3793151E+03  0.7957747E-01  0.3454146E+00
         13   -1    0    0    0    0  0.00000000000E+00  0.00000000000E+00  0.14999999963E+04  0.15000000000E+04  0.10566000000E+00 0.  1.
        994   -1    0    0    0    0 -0.00000000000E+00 -0.00000000000E+00  0.11368683772E-12  0.17120000000E+03  0.17120000000E+03 0.  0.
         13    1    1    2    0    0 -0.12894406998E+02 -0.19560978065E+02  0.10261102125E+02  0.25577313689E+02  0.10566000000E+00 0.  1.
        994    1    1    2    0    0  0.10357613356E+02  0.16826263727E+02  0.17363860089E+02  0.17320896900E+03  0.17120000000E+03 0.  0.
        998    1    1    2    0    0  0.25367936412E+01  0.27347143379E+01  0.14723750341E+04  0.14724137173E+04  0.10000000000E+02 0.  1.
</event>
<event>
 5    1  0.1252319E-008  0.3812856E+03  0.7957747E-01  0.3445580E+00
         13   -1    0    0    0    0  0.00000000000E+00  0.00000000000E+00  0.14999999963E+04  0.15000000000E+04  0.10566000000E+00 0. -1.
        994   -1    0    0    0    0 -0.00000000000E+00 -0.00000000000E+00  0.11368683772E-12  0.17120000000E+03  0.17120000000E+03 0.  0.
         13    1    1    2    0    0 -0.20987940599E+02  0.16702298022E+02  0.11460208262E+03  0.11769923073E+03  0.10566000000E+00 0. -1.
        994    1    1    2    0    0 -0.48781262135E+00  0.40359511908E+01  0.35406347171E+01  0.17128485910E+03  0.17120000000E+03 0.  0.
        998    1    1    2    0    0  0.21475753220E+02 -0.20738249213E+02  0.13818572789E+04  0.13822159102E+04  0.10000000000E+02 0. -1.
</event>
<event>
 5    1  0.1252319E-008  0.3805365E+03  0.7957747E-01  0.3448826E+00
         13   -1    0    0    0    0  0.00000000000E+00  0.00000000000E+00  0.14999999963E+04  0.15000000000E+04  0.10566000000E+00 0. -1.
        994   -1    0    0    0    0 -0.00000000000E+00 -0.00000000000E+00  0.11368683772E-12  0.17120000000E+03  0.17120000000E+03 0.  0.
         13    1    1    2    0    0  0.17026650671E+02 -0.19270738273E+02  0.91953531293E+02  0.95481575542E+02  0.10566000000E+00 0. -1.
        994    1    1    2    0    0  0.66805567811E+01  0.45220899940E+01  0.40797570721E+01  0.17143851246E+03  0.17120000000E+03 0.  0.
        998    1    1    2    0    0 -0.23707207452E+02  0.14748648279E+02  0.14039667079E+04  0.14042799120E+04  0.10000000000E+02 0. -1.
</event>
<event>
 5    1  0.1252319E-008  0.2288240E+03  0.7957747E-01  0.4586579E+00
         13   -1    0    0    0    0  0.00000000000E+00  0.00000000000E+00  0.14999999963E+04  0.15000000000E+04  0.10566000000E+00 0. -1.
        994   -1    0    0    0    0 -0.00000000000E+00 -0.00000000000E+00  0.11368683772E-12  0.17120000000E+03  0.17120000000E+03 0.  0.
         13    1    1    2    0    0 -0.45560926950E+02 -0.55469837158E+02 -0.52879704534E+01  0.71976903896E+02  0.10566000000E+00 0. -1.
        994    1    1    2    0    0  0.46951389470E+02  0.65590650402E+02  0.14386464214E+03  0.23772471822E+03  0.17120000000E+03 0.  0.
        998    1    1    2    0    0 -0.13904625201E+01 -0.10120813244E+02  0.13614233246E+04  0.13614983779E+04  0.10000000000E+02 0. -1.
</event>
<event>
 5    1  0.1252319E-008  0.3721257E+03  0.7957747E-01  0.3486178E+00
         13   -1    0    0    0    0  0.00000000000E+00  0.00000000000E+00  0.14999999963E+04  0.15000000000E+04  0.10566000000E+00 0.  1.
        994   -1    0    0    0    0 -0.00000000000E+00 -0.00000000000E+00  0.11368683772E-12  0.17120000000E+03  0.17120000000E+03 0.  0.
         13    1    1    2    0    0 -0.77302777733E+02  0.15873772469E+02  0.30418751842E+03  0.31425746392E+03  0.10566000000E+00 0.  1.
        994    1    1    2    0    0  0.79165031944E+02 -0.13678449856E+01  0.29997372130E+02  0.19099281562E+03  0.17120000000E+03 0.  0.
        998    1    1    2    0    0 -0.18622542102E+01 -0.14505927483E+02  0.11658151057E+04  0.11659497205E+04  0.10000000000E+02 0.  1.
</event>
<event>
 5    1  0.1252319E-008  0.3801096E+03  0.7957747E-01  0.3450681E+00
         13   -1    0    0    0    0  0.00000000000E+00  0.00000000000E+00  0.14999999963E+04  0.15000000000E+04  0.10566000000E+00 0. -1.
        994   -1    0    0    0    0 -0.00000000000E+00 -0.00000000000E+00  0.11368683772E-12  0.17120000000E+03  0.17120000000E+03 0.  0.
         13    1    1    2    0    0 -0.31173662340E+02 -0.11850148776E+02  0.13136977832E+03  0.13553690667E+03  0.10566000000E+00 0. -1.
        994    1    1    2    0    0  0.27528028860E+02 -0.32862150150E+01  0.66504755565E+01  0.17355765730E+03  0.17120000000E+03 0.  0.
        998    1    1    2    0    0  0.36456334801E+01  0.15136363791E+02  0.13619797424E+04  0.13621054360E+04  0.10000000000E+02 0. -1.
</event>
<event>
 5    1  0.1252319E-008  0.4094125E+03  0.7957747E-01  0.3332305E+00
         13   -1    0    0    0    0  0.00000000000E+00  0.00000000000E+00  0.14999999963E+04  0.15000000000E+04  0.10566000000E+00 0.  1.
        994   -1    0    0    0    0 -0.00000000000E+00 -0.00000000000E+00  0.11368683772E-12  0.17120000000E+03  0.17120000000E+03 0.  0.
         13    1    1    2    0    0  0.10058161045E+03  0.83550824393E+02  0.20260444162E+03  0.24113475806E+03  0.10566000000E+00 0.  1.
        994    1    1    2    0    0 -0.10435629543E+03 -0.88242425628E+02  0.11462166500E+03  0.24723375207E+03  0.17120000000E+03 0.  0.
        998    1    1    2    0    0  0.37746849832E+01  0.46916012344E+01  0.11827738897E+04  0.11828314899E+04  0.10000000000E+02 0.  0.
</event>
<event>
 5    1  0.1252319E-008  0.3788618E+03  0.7957747E-01  0.3456129E+00
         13   -1    0    0    0    0  0.00000000000E+00  0.00000000000E+00  0.14999999963E+04  0.15000000000E+04  0.10566000000E+00 0.  1.
        994   -1    0    0    0    0 -0.00000000000E+00 -0.00000000000E+00  0.11368683772E-12  0.17120000000E+03  0.17120000000E+03 0.  0.
         13    1    1    2    0    0  0.17441780045E+02  0.25121639245E+02  0.12990943888E+03  0.13346080295E+03  0.10566000000E+00 0.  1.
        994    1    1    2    0    0  0.45711339712E+01  0.34034949058E+02  0.86760618207E+01  0.17482559044E+03  0.17120000000E+03 0.  0.
        998    1    1    2    0    0 -0.22012914017E+02 -0.59156588304E+02  0.13614144956E+04  0.13629136066E+04  0.10000000000E+02 0.  1.
</event>
<event>
 5    1  0.1252319E-008  0.3799527E+03  0.7957747E-01  0.3451364E+00
         13   -1    0    0    0    0  0.00000000000E+00  0.00000000000E+00  0.14999999963E+04  0.15000000000E+04  0.10566000000E+00 0. -1.
        994   -1    0    0    0    0 -0.00000000000E+00 -0.00000000000E+00  0.11368683772E-12  0.17120000000E+03  0.17120000000E+03 0.  0.
         13    1    1    2    0    0  0.27107895893E+02 -0.30650162476E+02  0.21940735195E+03  0.22319020528E+03  0.10566000000E+00 0. -1.
        994    1    1    2    0    0  0.61394700827E+01  0.21976693528E+02  0.58997590562E+01  0.17281468487E+03  0.17120000000E+03 0.  0.
        998    1    1    2    0    0 -0.33247365976E+02  0.86734689480E+01  0.12746928853E+04  0.12751951098E+04  0.10000000000E+02 0. -1.
</event>
<event>
 5    1  0.1252319E-008  0.3031479E+03  0.7957747E-01  0.3873799E+00
         13   -1    0    0    0    0  0.00000000000E+00  0.00000000000E+00  0.14999999963E+04  0.15000000000E+04  0.10566000000E+00 0. -1.
        994   -1    0    0    0    0 -0.00000000000E+00 -0.00000000000E+00  0.11368683772E-12  0.17120000000E+03  0.17120000000E+03 0.  0.
         13    1    1    2    0    0 -0.11558181149E+03  0.16683682373E+03  0.63097969855E+03  0.66281903416E+03  0.10566000000E+00 0. -1.
        994    1    1    2    0    0  0.10051900895E+03 -0.17315877338E+03  0.17991425980E+03  0.31900879743E+03  0.17120000000E+03 0.  0.
        998    1    1    2    0    0  0.15062802542E+02  0.63219496464E+01  0.68910603793E+03  0.68937216841E+03  0.10000000000E+02 0. -1.
</event>
<event>
 5    1  0.1252319E-008  0.4100063E+03  0.7957747E-01  0.3330081E+00
         13   -1    0    0    0    0  0.00000000000E+00  0.00000000000E+00  0.14999999963E+04  0.15000000000E+04  0.10566000000E+00 0. -1.
        994   -1    0    0    0    0 -0.00000000000E+00 -0.00000000000E+00  0.11368683772E-12  0.17120000000E+03  0.17120000000E+03 0.  0.
         13    1    1    2    0    0  0.50305009278E+01 -0.66591196694E+02  0.10039314110E+03  0.12057564995E+03  0.10566000000E+00 0. -1.
        994    1    1    2    0    0  0.18793497398E+02 -0.20175259279E+03  0.23233974707E+03  0.35263083006E+03  0.17120000000E+03 0.  0.
        998    1    1    2    0    0 -0.23823998326E+02  0.26834378949E+03  0.11672671081E+04  0.11979935200E+04  0.10000000000E+02 0. -1.
</event>
<event>
 5    1  0.1252319E-008  0.3844159E+03  0.7957747E-01  0.3432153E+00
         13   -1    0    0    0    0  0.00000000000E+00  0.00000000000E+00  0.14999999963E+04  0.15000000000E+04  0.10566000000E+00 0.  1.
        994   -1    0    0    0    0 -0.00000000000E+00 -0.00000000000E+00  0.11368683772E-12  0.17120000000E+03  0.17120000000E+03 0.  0.
         13    1    1    2    0    0  0.10810733552E+02  0.98197989570E+01  0.53883468586E+02  0.55827768739E+02  0.10566000000E+00 0.  1.
        994    1    1    2    0    0 -0.62076949974E+01 -0.14530836829E+02  0.27435140735E+01  0.17194954948E+03  0.17120000000E+03 0.  0.
        998    1    1    2    0    0 -0.46030385550E+01  0.47110378724E+01  0.14433730136E+04  0.14434226818E+04  0.10000000000E+02 0.  1.
</event>
<event>
 5    1  0.1252319E-008  0.3742686E+03  0.7957747E-01  0.3476500E+00
         13   -1    0    0    0    0  0.00000000000E+00  0.00000000000E+00  0.14999999963E+04  0.15000000000E+04  0.10566000000E+00 0. -1.
        994   -1    0    0    0    0 -0.00000000000E+00 -0.00000000000E+00  0.11368683772E-12  0.17120000000E+03  0.17120000000E+03 0.  0.
         13    1    1    2    0    0 -0.25654723822E+02  0.11448317175E+02  0.51472326048E+02  0.58639920987E+02  0.10566000000E+00 0. -1.
        994    1    1    2    0    0  0.14887450203E+02 -0.37406035614E+02  0.12598100034E+02  0.17632072992E+03  0.17120000000E+03 0.  0.
        998    1    1    2    0    0  0.10767273619E+02  0.25957718439E+02  0.14359295702E+04  0.14362393491E+04  0.10000000000E+02 0. -1.
</event>
<event>
 5    1  0.1252319E-008  0.3828115E+03  0.7957747E-01  0.3439007E+00
         13   -1    0    0    0    0  0.00000000000E+00  0.00000000000E+00  0.14999999963E+04  0.15000000000E+04  0.10566000000E+00 0. -1.
        994   -1    0    0    0    0 -0.00000000000E+00 -0.00000000000E+00  0.11368683772E-12  0.17120000000E+03  0.17120000000E+03 0.  0.
         13    1    1    2    0    0 -0.10798776232E+02  0.21036783938E+01  0.20409278815E+02  0.23185962492E+02  0.10566000000E+00 0. -1.
        994    1    1    2    0    0  0.19927612825E+02 -0.45068688722E+01  0.41044046961E+01  0.17246364184E+03  0.17120000000E+03 0.  0.
        998    1    1    2    0    0 -0.91288365924E+01  0.24031904784E+01  0.14754863128E+04  0.14755503957E+04  0.10000000000E+02 0. -1.
</event>
<event>
 5    1  0.1252319E-008  0.3838527E+03  0.7957747E-01  0.3434553E+00
         13   -1    0    0    0    0  0.00000000000E+00  0.00000000000E+00  0.14999999963E+04  0.15000000000E+04  0.10566000000E+00 0.  1.
        994   -1    0    0    0    0 -0.00000000000E+00 -0.00000000000E+00  0.11368683772E-12  0.17120000000E+03  0.17120000000E+03 0.  0.
         13    1    1    2    0    0 -0.12152674239E+02  0.43452818173E+00  0.37814749048E+02  0.39722068369E+02  0.10566000000E+00 0.  1.
        994    1    1    2    0    0 -0.23205837405E+02 -0.46310451549E+01  0.40514087233E+01  0.17287513234E+03  0.17120000000E+03 0.  0.
        998    1    1    2    0    0  0.35358511644E+02  0.41965169731E+01  0.14581338385E+04  0.14586027993E+04  0.10000000000E+02 0.  1.
</event>
<event>
 5    1  0.1252319E-008  0.3853738E+03  0.7957747E-01  0.3428088E+00
         13   -1    0    0    0    0  0.00000000000E+00  0.00000000000E+00  0.14999999963E+04  0.15000000000E+04  0.10566000000E+00 0.  1.
        994   -1    0    0    0    0 -0.00000000000E+00 -0.00000000000E+00  0.11368683772E-12  0.17120000000E+03  0.17120000000E+03 0.  0.
         13    1    1    2    0    0  0.84517748790E+01 -0.69417606189E+01  0.41732545541E+02  0.43142056748E+02  0.10566000000E+00 0.  1.
        994    1    1    2    0    0 -0.19894210981E+02 -0.13669942181E+02  0.33607990258E+01  0.17292594346E+03  0.17120000000E+03 0.  0.
        998    1    1    2    0    0  0.11442436102E+02  0.20611702800E+02  0.14549066517E+04  0.14551319998E+04  0.10000000000E+02 0.  1.
</event>
<event>
 5    1  0.1252319E-008  0.2673413E+03  0.7957747E-01  0.4160827E+00
         13   -1    0    0    0    0  0.00000000000E+00  0.00000000000E+00  0.14999999963E+04  0.15000000000E+04  0.10566000000E+00 0.  1.
        994   -1    0    0    0    0 -0.00000000000E+00 -0.00000000000E+00  0.11368683772E-12  0.17120000000E+03  0.17120000000E+03 0.  0.
         13    1    1    2    0    0  0.16557631370E+03  0.30075752186E+02  0.68619563982E+03  0.70652992421E+03  0.10566000000E+00 0.  1.
        994    1    1    2    0    0 -0.23877047836E+02  0.58238570044E+02  0.59231090101E+02  0.19178009930E+03  0.17120000000E+03 0.  0.
        998    1    1    2    0    0 -0.14169926586E+03 -0.88314322230E+02  0.75457326635E+03  0.77288997649E+03  0.10000000000E+02 0.  1.
</event>
<event>
 5    1  0.1252319E-008  0.3687544E+03  0.7957747E-01  0.3501635E+00
         13   -1    0    0    0    0  0.00000000000E+00  0.00000000000E+00  0.14999999963E+04  0.15000000000E+04  0.10566000000E+00 0. -1.
        994   -1    0    0    0    0 -0.00000000000E+00 -0.00000000000E+00  0.11368683772E-12  0.17120000000E+03  0.17120000000E+03 0.  0.
         13    1    1    2    0    0  0.23665858463E+02 -0.41956591726E-01  0.23585003293E+02  0.33411647094E+02  0.10566000000E+00 0. -1.
        994    1    1    2    0    0 -0.25202239658E+02 -0.89465538840E+01  0.12409139351E+02  0.17371994834E+03  0.17120000000E+03 0.  0.
        998    1    1    2    0    0  0.15363811950E+01  0.89885104758E+01  0.14640058536E+04  0.14640684046E+04  0.10000000000E+02 0. -1.
</event>
<event>
 5    1  0.1252319E-008  0.3922067E+03  0.7957747E-01  0.3399671E+00
         13   -1    0    0    0    0  0.00000000000E+00  0.00000000000E+00  0.14999999963E+04  0.15000000000E+04  0.10566000000E+00 0.  1.
        994   -1    0    0    0    0 -0.00000000000E+00 -0.00000000000E+00  0.11368683772E-12  0.17120000000E+03  0.17120000000E+03 0.  0.
         13    1    1    2    0    0 -0.41626073438E+02 -0.76907603983E+01  0.28773320580E+02  0.51183912772E+02  0.10566000000E+00 0.  1.
        994    1    1    2    0    0  0.45529461631E+02  0.44034298380E+01  0.31182404914E+02  0.17992805353E+03  0.17120000000E+03 0.  0.
        998    1    1    2    0    0 -0.39033881928E+01  0.32873305602E+01  0.14400442708E+04  0.14400880337E+04  0.10000000000E+02 0.  1.
</event>
<event>
 5    1  0.1252319E-008  0.3898950E+03  0.7957747E-01  0.3409174E+00
         13   -1    0    0    0    0  0.00000000000E+00  0.00000000000E+00  0.14999999963E+04  0.15000000000E+04  0.10566000000E+00 0. -1.
        994   -1    0    0    0    0 -0.00000000000E+00 -0.00000000000E+00  0.11368683772E-12  0.17120000000E+03  0.17120000000E+03 0.  0.
         13    1    1    2    0    0  0.14123473395E+02  0.72785063896E+02  0.11073597529E+03  0.13326516955E+03  0.10566000000E+00 0. -1.
        994    1    1    2    0    0 -0.14760718480E+02 -0.71544099030E+02  0.42231940625E+02  0.19086490962E+03  0.17120000000E+03 0.  0.
        998    1    1    2    0    0  0.63724508502E+00 -0.12409648659E+01  0.13470320804E+04  0.13470699208E+04  0.10000000000E+02 0.  0.
</event>
<event>
 5    1  0.1252319E-008  0.3849209E+03  0.7957747E-01  0.3430008E+00
         13   -1    0    0    0    0  0.00000000000E+00  0.00000000000E+00  0.14999999963E+04  0.15000000000E+04  0.10566000000E+00 0.  1.
        994   -1    0    0    0    0 -0.00000000000E+00 -0.00000000000E+00  0.11368683772E-12  0.17120000000E+03  0.17120000000E+03 0.  0.
         13    1    1    2    0    0 -0.61879714964E+01 -0.16045929768E+02  0.93141381538E+02  0.94715843301E+02  0.10566000000E+00 0.  1.
        994    1    1    2    0    0 -0.15242416241E+01  0.53673370863E+01  0.17718448373E+01  0.17130006145E+03  0.17120000000E+03 0.  0.
        998    1    1    2    0    0  0.77122131205E+01  0.10678592682E+02  0.14050867699E+04  0.14051840952E+04  0.10000000000E+02 0.  1.
</event>
<event>
 5    1  0.1252319E-008  0.3815896E+03  0.7957747E-01  0.3444266E+00
         13   -1    0    0    0    0  0.00000000000E+00  0.00000000000E+00  0.14999999963E+04  0.15000000000E+04  0.10566000000E+00 0. -1.
        994   -1    0    0    0    0 -0.00000000000E+00 -0.00000000000E+00  0.11368683772E-12  0.17120000000E+03  0.17120000000E+03 0.  0.
         13    1    1    2    0    0 -0.84265198145E+01 -0.23816687139E+02  0.61858032488E+02  0.66818172451E+02  0.10566000000E+00 0. -1.
        994    1    1    2    0    0  0.21801488814E+02  0.11119264459E+03  0.47276139184E+02  0.21067411436E+03  0.17120000000E+03 0.  0.
        998    1    1    2    0    0 -0.13374968999E+02 -0.87375957453E+02  0.13908658246E+04  0.13937077132E+04  0.10000000000E+02 0. -1.
</event>
<event>
 5    1  0.1252319E-008  0.3711658E+03  0.7957747E-01  0.3490550E+00
         13   -1    0    0    0    0  0.00000000000E+00  0.00000000000E+00  0.14999999963E+04  0.15000000000E+04  0.10566000000E+00 0. -1.
        994   -1    0    0    0    0 -0.00000000000E+00 -0.00000000000E+00  0.11368683772E-12  0.17120000000E+03  0.17120000000E+03 0.  0.
         13    1    1    2    0    0 -0.14615502916E+02 -0.80428862514E+02  0.43149293108E+03  0.43916804937E+03  0.10566000000E+00 0. -1.
        994    1    1    2    0    0  0.10533964749E+02  0.31952674860E+02  0.12569168397E+02  0.17492673277E+03  0.17120000000E+03 0.  0.
        998    1    1    2    0    0  0.40815381664E+01  0.48476187654E+02  0.10559378968E+04  0.10571052179E+04  0.10000000000E+02 0. -1.
</event>
<event>
 5    1  0.1252319E-008  0.3820006E+03  0.7957747E-01  0.3442493E+00
         13   -1    0    0    0    0  0.00000000000E+00  0.00000000000E+00  0.14999999963E+04  0.15000000000E+04  0.10566000000E+00 0.  1.
        994   -1    0    0    0    0 -0.00000000000E+00 -0.00000000000E+00  0.11368683772E-12  0.17120000000E+03  0.17120000000E+03 0.  0.
         13    1    1    2    0    0  0.35929321371E+02  0.66901601675E+01  0.14749223289E+03  0.15195276998E+03  0.10566000000E+00 0.  1.
        994    1    1    2    0    0 -0.74201548802E+02 -0.15544471574E+02  0.22454754905E+02  0.18857665937E+03  0.17120000000E+03 0.  0.
        998    1    1    2    0    0  0.38272227431E+02  0.88543114068E+01  0.13300530085E+04  0.13306705707E+04  0.10000000000E+02 0.  1.
</event>
<event>
 5    1  0.1252319E-008  0.3801974E+03  0.7957747E-01  0.3450299E+00
         13   -1    0    0    0    0  0.00000000000E+00  0.00000000000E+00  0.14999999963E+04  0.15000000000E+04  0.10566000000E+00 0. -1.
        994   -1    0    0    0    0 -0.00000000000E+00 -0.00000000000E+00  0.11368683772E-12  0.17120000000E+03  0.17120000000E+03 0.  0.
         13    1    1    2    0    0  0.35110703789E+01 -0.11633543625E+02  0.16480712390E+02  0.20476620752E+02  0.10566000000E+00 0. -1.
        994    1    1    2    0    0 -0.61554844826E+01  0.99700742448E+01  0.44923035062E+01  0.17165929384E+03  0.17120000000E+03 0.  0.
        998    1    1    2    0    0  0.26444141037E+01  0.16634693805E+01  0.14790269804E+04  0.14790640854E+04  0.10000000000E+02 0. -1.
</event>
<event>
 5    1  0.1252319E-008  0.3824371E+03  0.7957747E-01  0.3440615E+00
         13   -1    0    0    0    0  0.00000000000E+00  0.00000000000E+00  0.14999999963E+04  0.15000000000E+04  0.10566000000E+00 0. -1.
        994   -1    0    0    0    0 -0.00000000000E+00 -0.00000000000E+00  0.11368683772E-12  0.17120000000E+03  0.17120000000E+03 0.  0.
         13    1    1    2    0    0 -0.20198453349E+02  0.52035224762E+01  0.72429003639E+02  0.75372580532E+02  0.10566000000E+00 0. -1.
        994    1    1    2    0    0  0.15969426940E+02 -0.68611121083E+01  0.39103963533E+01  0.17212445688E+03  0.17120000000E+03 0.  0.
        998    1    1    2    0    0  0.42290264091E+01  0.16575896321E+01  0.14236605963E+04  0.14237029626E+04  0.10000000000E+02 0. -1.
</event>
<event>
 5    1  0.1252319E-008  0.3809635E+03  0.7957747E-01  0.3446974E+00
         13   -1    0    0    0    0  0.00000000000E+00  0.00000000000E+00  0.14999999963E+04  0.15000000000E+04  0.10566000000E+00 0. -1.
        994   -1    0    0    0    0 -0.00000000000E+00 -0.00000000000E+00  0.11368683772E-12  0.17120000000E+03  0.17120000000E+03 0.  0.
         13    1    1    2    0    0 -0.62598663436E+02  0.13823705753E+02  0.36955150806E+03  0.37507068104E+03  0.10566000000E+00 0. -1.
        994    1    1    2    0    0  0.72043558949E+02 -0.31143029453E+02  0.24455159016E+02  0.18991486901E+03  0.17120000000E+03 0.  0.
        998    1    1    2    0    0 -0.94448955135E+01  0.17319323700E+02  0.11059933292E+04  0.11062144499E+04  0.10000000000E+02 0. -1.
</event>
<event>
 5    1  0.1252319E-008  0.3846552E+03  0.7957747E-01  0.3431136E+00
         13   -1    0    0    0    0  0.00000000000E+00  0.00000000000E+00  0.14999999963E+04  0.15000000000E+04  0.10566000000E+00 0.  1.
        994   -1    0    0    0    0 -0.00000000000E+00 -0.00000000000E+00  0.11368683772E-12  0.17120000000E+03  0.17120000000E+03 0.  0.
         13    1    1    2    0    0 -0.10212888867E+02  0.29229985826E+01  0.32229388295E+02  0.33935109454E+02  0.10566000000E+00 0.  1.
        994    1    1    2    0    0 -0.36855584631E+01 -0.61420705542E+01  0.19703628167E+01  0.17136111199E+03  0.17120000000E+03 0.  0.
        998    1    1    2    0    0  0.13898447330E+02  0.32190719717E+01  0.14658002452E+04  0.14659037786E+04  0.10000000000E+02 0.  1.
</event>
<event>
 5    1  0.1252319E-008  0.3834044E+03  0.7957747E-01  0.3436468E+00
         13   -1    0    0    0    0  0.00000000000E+00  0.00000000000E+00  0.14999999963E+04  0.15000000000E+04  0.10566000000E+00 0. -1.
        994   -1    0    0    0    0 -0.00000000000E+00 -0.00000000000E+00  0.11368683772E-12  0.17120000000E+03  0.17120000000E+03 0.  0.
         13    1    1    2    0    0 -0.65987811989E+01 -0.19867306820E+02  0.93865759537E+02  0.96171959381E+02  0.10566000000E+00 0. -1.
        994    1    1    2    0    0  0.11028094171E+01  0.60886402062E+01  0.25509831552E+01  0.17133077728E+03  0.17120000000E+03 0.  0.
        998    1    1    2    0    0  0.54959717817E+01  0.13778666614E+02  0.14035832536E+04  0.14036972633E+04  0.10000000000E+02 0. -1.
</event>
<event>
 5    1  0.1252319E-008  0.3829031E+03  0.7957747E-01  0.3438614E+00
         13   -1    0    0    0    0  0.00000000000E+00  0.00000000000E+00  0.14999999963E+04  0.15000000000E+04  0.10566000000E+00 0.  1.
        994   -1    0    0    0    0 -0.00000000000E+00 -0.00000000000E+00  0.11368683772E-12  0.17120000000E+03  0.17120000000E+03 0.  0.
         13    1    1    2    0    0 -0.18037544285E+03 -0.12830616254E+02  0.10824117011E+04  0.10974128790E+04  0.10566000000E+00 0.  1.
        994    1    1    2    0    0  0.18470165569E+03  0.25367040840E+02  0.12784848010E+03  0.28357161748E+03  0.17120000000E+03 0.  0.
        998    1    1    2    0    0 -0.43262128406E+01 -0.12536424585E+02  0.28973981507E+03  0.29021550354E+03  0.10000000000E+02 0. -1.
</event>
<event>
 5    1  0.1252319E-008  0.3709635E+03  0.7957747E-01  0.3491475E+00
         13   -1    0    0    0    0  0.00000000000E+00  0.00000000000E+00  0.14999999963E+04  0.15000000000E+04  0.10566000000E+00 0.  1.
        994   -1    0    0    0    0 -0.00000000000E+00 -0.00000000000E+00  0.11368683772E-12  0.17120000000E+03  0.17120000000E+03 0.  0.
         13    1    1    2    0    0 -0.17030724006E+02  0.20118094947E+02  0.38958510921E+02  0.47037857537E+02  0.10566000000E+00 0.  1.
        994    1    1    2    0    0  0.24140045954E+01  0.15842037771E+02  0.96518003712E+01  0.17221903155E+03  0.17120000000E+03 0.  0.
        998    1    1    2    0    0  0.14616719410E+02 -0.35960132718E+02  0.14513896850E+04  0.14519431109E+04  0.10000000000E+02 0.  1.
</event>
<event>
 5    1  0.1252319E-008  0.3785659E+03  0.7957747E-01  0.3457427E+00
         13   -1    0    0    0    0  0.00000000000E+00  0.00000000000E+00  0.14999999963E+04  0.15000000000E+04  0.10566000000E+00 0. -1.
        994   -1    0    0    0    0 -0.00000000000E+00 -0.00000000000E+00  0.11368683772E-12  0.17120000000E+03  0.17120000000E+03 0.  0.
         13    1    1    2    0    0  0.55630750234E+01  0.30693877409E+02  0.10490382161E+03  0.10944352364E+03  0.10566000000E+00 0. -1.
        994    1    1    2    0    0  0.71191872074E+01 -0.75158207655E+01  0.52188612113E+01  0.17159209452E+03  0.17120000000E+03 0.  0.
        998    1    1    2    0    0 -0.12682262231E+02 -0.23178056643E+02  0.13898773135E+04  0.13901643818E+04  0.10000000000E+02 0. -1.
</event>
<event>
 5    1  0.1252319E-008  0.3843195E+03  0.7957747E-01  0.3432563E+00
         13   -1    0    0    0    0  0.00000000000E+00  0.00000000000E+00  0.14999999963E+04  0.15000000000E+04  0.10566000000E+00 0.  1.
        994   -1    0    0    0    0 -0.00000000000E+00 -0.00000000000E+00  0.11368683772E-12  0.17120000000E+03  0.17120000000E+03 0.  0.
         13    1    1    2    0    0  0.74275543121E+01  0.19553291844E+02  0.10258613644E+03  0.10469683060E+03  0.10566000000E+00 0.  1.
        994    1    1    2    0    0 -0.88962349713E+01 -0.22158410269E+02  0.38497453057E+01  0.17289996727E+03  0.17120000000E+03 0.  0.
        998    1    1    2    0    0  0.14686806592E+01  0.26051184247E+01  0.13935641145E+04  0.13936032021E+04  0.10000000000E+02 0.  1.
</event>
<event>
 5    1  0.1252319E-008  0.3819274E+03  0.7957747E-01  0.3442809E+00
         13   -1    0    0    0    0  0.00000000000E+00  0.00000000000E+00  0.14999999963E+04  0.15000000000E+04  0.10566000000E+00 0. -1.
        994   -1    0    0    0    0 -0.00000000000E+00 -0.00000000000E+00  0.11368683772E-12  0.17120000000E+03  0.17120000000E+03 0.  0.
         13    1    1    2    0    0 -0.17118779508E+02  0.11848369143E+02  0.70323173378E+02  0.73340277755E+02  0.10566000000E+00 0. -1.
        994    1    1    2    0    0  0.23979044743E-01 -0.84765937957E+01  0.34020626846E+01  0.17144348121E+03  0.17120000000E+03 0.  0.
        998    1    1    2    0    0  0.17094800463E+02 -0.33717753477E+01  0.14262747602E+04  0.14264162410E+04  0.10000000000E+02 0. -1.
</event>
<event>
 5    1  0.1252319E-008  0.3815758E+03  0.7957747E-01  0.3444326E+00
         13   -1    0    0    0    0  0.00000000000E+00  0.00000000000E+00  0.14999999963E+04  0.15000000000E+04  0.10566000000E+00 0.  1.
        994   -1    0    0    0    0 -0.00000000000E+00 -0.00000000000E+00  0.11368683772E-12  0.17120000000E+03  0.17120000000E+03 0.  0.
         13    1    1    2    0    0  0.42776115472E+01 -0.20638635559E+02  0.75829898052E+02  0.78704738363E+02  0.10566000000E+00 0.  1.
        994    1    1    2    0    0  0.13203654269E+02 -0.13550552930E+02  0.45311115904E+01  0.17230184254E+03  0.17120000000E+03 0.  0.
        998    1    1    2    0    0 -0.17481265816E+02  0.34189188489E+02  0.14196389866E+04  0.14201934191E+04  0.10000000000E+02 0.  1.
</event>
<event>
 5    1  0.1252319E-008  0.3832247E+03  0.7957747E-01  0.3437237E+00
         13   -1    0    0    0    0  0.00000000000E+00  0.00000000000E+00  0.14999999963E+04  0.15000000000E+04  0.10566000000E+00 0. -1.
        994   -1    0    0    0    0 -0.00000000000E+00 -0.00000000000E+00  0.11368683772E-12  0.17120000000E+03  0.17120000000E+03 0.  0.
         13    1    1    2    0    0  0.13376960189E+02 -0.15978240938E+02  0.86008065214E+02  0.88496585771E+02  0.10566000000E+00 0. -1.
        994    1    1    2    0    0 -0.33047664615E+01  0.13585044715E+02  0.31609682944E+01  0.17179902980E+03  0.17120000000E+03 0.  0.
        998    1    1    2    0    0 -0.10072193727E+02  0.23931962233E+01  0.14108309628E+04  0.14109043844E+04  0.10000000000E+02 0. -1.
</event>
<event>
 5    1  0.1252319E-008  0.3761896E+03  0.7957747E-01  0.3467919E+00
         13   -1    0    0    0    0  0.00000000000E+00  0.00000000000E+00  0.14999999963E+04  0.15000000000E+04  0.10566000000E+00 0.  1.
        994   -1    0    0    0    0 -0.00000000000E+00 -0.00000000000E+00  0.11368683772E-12  0.17120000000E+03  0.17120000000E+03 0.  0.
         13    1    1    2    0    0  0.70931848100E+02 -0.11421748612E+02  0.32064820530E+03  0.32859863990E+03  0.10566000000E+00 0.  1.
        994    1    1    2    0    0 -0.73794795423E+02  0.21987210656E+02  0.26414401263E+02  0.18956864155E+03  0.17120000000E+03 0.  0.
        998    1    1    2    0    0  0.28629473229E+01 -0.10565462044E+02  0.11529373897E+04  0.11530327186E+04  0.10000000000E+02 0.  1.
</event>
<event>
 5    1  0.1252319E-008  0.3684962E+03  0.7957747E-01  0.3502831E+00
         13   -1    0    0    0    0  0.00000000000E+00  0.00000000000E+00  0.14999999963E+04  0.15000000000E+04  0.10566000000E+00 0.  1.
        994   -1    0    0    0    0 -0.00000000000E+00 -0.00000000000E+00  0.11368683772E-12  0.17120000000E+03  0.17120000000E+03 0.  0.
         13    1    1    2    0    0  0.32861182028E+02 -0.41007255675E+02  0.12381446723E+03  0.13450459383E+03  0.10566000000E+00 0.  1.
        994    1    1    2    0    0 -0.16261459509E+02  0.50735882993E+02  0.20083395579E+02  0.18041992037E+03  0.17120000000E+03 0.  0.
        998    1    1    2    0    0 -0.16599722519E+02 -0.97286273181E+01  0.13561021335E+04  0.13562754858E+04  0.10000000000E+02 0.  1.
</event>
<event>
 5    1  0.1252319E-008  0.3809980E+03  0.7957747E-01  0.3446825E+00
         13   -1    0    0    0    0  0.00000000000E+00  0.00000000000E+00  0.14999999963E+04  0.15000000000E+04  0.10566000000E+00 0. -1.
        994   -1    0    0    0    0 -0.00000000000E+00 -0.00000000000E+00  0.11368683772E-12  0.17120000000E+03  0.17120000000E+03 0.  0.
         13    1    1    2    0    0  0.10501620659E+02 -0.40449859473E+01  0.18343316725E+02  0.21520557156E+02  0.10566000000E+00 0. -1.
        994    1    1    2    0    0  0.52787387154E+02  0.11233802840E+02  0.13396733917E+02  0.18000449730E+03  0.17120000000E+03 0.  0.
        998    1    1    2    0    0 -0.63289007814E+02 -0.71888168924E+01  0.14682599456E+04  0.14696749455E+04  0.10000000000E+02 0. -1.
</event>
<event>
 5    1  0.1252319E-008  0.3820310E+03  0.7957747E-01  0.3442363E+00
         13   -1    0    0    0    0  0.00000000000E+00  0.00000000000E+00  0.14999999963E+04  0.15000000000E+04  0.10566000000E+00 0.  1.
        994   -1    0    0    0    0 -0.00000000000E+00 -0.00000000000E+00  0.11368683772E-12  0.17120000000E+03  0.17120000000E+03 0.  0.
         13    1    1    2    0    0 -0.90595485389E+01 -0.82224437030E+01  0.21007365664E+02  0.24310585685E+02  0.10566000000E+00 0.  1.
        994    1    1    2    0    0  0.24454628778E+02  0.27292357608E+02  0.75835586103E+01  0.17524226663E+03  0.17120000000E+03 0.  0.
        998    1    1    2    0    0 -0.15395080239E+02 -0.19069913905E+02  0.14714090720E+04  0.14716471477E+04  0.10000000000E+02 0.  1.
</event>
<event>
 5    1  0.1252319E-008  0.3744964E+03  0.7957747E-01  0.3475478E+00
         13   -1    0    0    0    0  0.00000000000E+00  0.00000000000E+00  0.14999999963E+04  0.15000000000E+04  0.10566000000E+00 0. -1.
        994   -1    0    0    0    0 -0.00000000000E+00 -0.00000000000E+00  0.11368683772E-12  0.17120000000E+03  0.17120000000E+03 0.  0.
         13    1    1    2    0    0 -0.18944933516E+02  0.46255078993E+01  0.24165780335E+02  0.31053211307E+02  0.10566000000E+00 0. -1.
        994    1    1    2    0    0  0.20395642821E+02  0.41055082929E+01  0.84127555025E+01  0.17266456469E+03  0.17120000000E+03 0.  0.
        998    1    1    2    0    0 -0.14507093049E+01 -0.87310161922E+01  0.14674214604E+04  0.14674822240E+04  0.10000000000E+02 0. -1.
</event>
<event>
 5    1  0.1252319E-008  0.3708427E+03  0.7957747E-01  0.3492027E+00
         13   -1    0    0    0    0  0.00000000000E+00  0.00000000000E+00  0.14999999963E+04  0.15000000000E+04  0.10566000000E+00 0. -1.
        994   -1    0    0    0    0 -0.00000000000E+00 -0.00000000000E+00  0.11368683772E-12  0.17120000000E+03  0.17120000000E+03 0.  0.
         13    1    1    2    0    0  0.94771548604E+01 -0.67378366272E+02  0.28426677344E+03  0.29229654522E+03  0.10566000000E+00 0. -1.
        994    1    1    2    0    0 -0.46474293172E+02 -0.21702038068E+02  0.20667337641E+02  0.17990946953E+03  0.17120000000E+03 0.  0.
        998    1    1    2    0    0  0.36997138312E+02  0.89080404340E+02  0.11950658852E+04  0.11989939852E+04  0.10000000000E+02 0. -1.
</event>
<event>
 5    1  0.1252319E-008  0.3823070E+03  0.7957747E-01  0.3441175E+00
         13   -1    0    0    0    0  0.00000000000E+00  0.00000000000E+00  0.14999999963E+04  0.15000000000E+04  0.10566000000E+00 0. -1.
        994   -1    0    0    0    0 -0.00000000000E+00 -0.00000000000E+00  0.11368683772E-12  0.17120000000E+03  0.17120000000E+03 0.  0.
         13    1    1    2    0    0 -0.14261048680E+02 -0.12014959405E+02  0.67305113203E+02  0.69840720116E+02  0.10566000000E+00 0. -1.
        994    1    1    2    0    0 -0.30108213368E+02  0.65852069302E+01  0.61308237860E+01  0.17406003695E+03  0.17120000000E+03 0.  0.
        998    1    1    2    0    0  0.44369262047E+02  0.54297524743E+01  0.14265640593E+04  0.14272992429E+04  0.10000000000E+02 0. -1.
</event>
<event>
 5    1  0.1252319E-008  0.3859028E+03  0.7957747E-01  0.3425852E+00
         13   -1    0    0    0    0  0.00000000000E+00  0.00000000000E+00  0.14999999963E+04  0.15000000000E+04  0.10566000000E+00 0.  1.
        994   -1    0    0    0    0 -0.00000000000E+00 -0.00000000000E+00  0.11368683772E-12  0.17120000000E+03  0.17120000000E+03 0.  0.
         13    1    1    2    0    0  0.55890940799E+01 -0.10170291518E+02  0.58527667424E+02  0.59667175401E+02  0.10566000000E+00 0.  1.
        994    1    1    2    0    0 -0.10917597840E+01  0.54647775287E+01  0.12844219364E+01  0.17129549169E+03  0.17120000000E+03 0.  0.
        998    1    1    2    0    0 -0.44973342959E+01  0.47055139892E+01  0.14401879069E+04  0.14402373329E+04  0.10000000000E+02 0.  1.
</event>
<event>
 5    1  0.1252319E-008  0.3857859E+03  0.7957747E-01  0.3426346E+00
         13   -1    0    0    0    0  0.00000000000E+00  0.00000000000E+00  0.14999999963E+04  0.15000000000E+04  0.10566000000E+00 0. -1.
        994   -1    0    0    0    0 -0.00000000000E+00 -0.00000000000E+00  0.11368683772E-12  0.17120000000E+03  0.17120000000E+03 0.  0.
         13    1    1    2    0    0  0.28597505955E+01  0.14937427580E+02  0.85265383382E+02  0.86611209918E+02  0.10566000000E+00 0. -1.
        994    1    1    2    0    0  0.49956475456E+01 -0.23386095414E+02  0.31186110062E+01  0.17289023017E+03  0.17120000000E+03 0.  0.
        998    1    1    2    0    0 -0.78553981411E+01  0.84486678343E+01  0.14116160019E+04  0.14116985599E+04  0.10000000000E+02 0. -1.
</event>
<event>
 5    1  0.1252319E-008  0.3807085E+03  0.7957747E-01  0.3448079E+00
         13   -1    0    0    0    0  0.00000000000E+00  0.00000000000E+00  0.14999999963E+04  0.15000000000E+04  0.10566000000E+00 0. -1.
        994   -1    0    0    0    0 -0.00000000000E+00 -0.00000000000E+00  0.11368683772E-12  0.17120000000E+03  0.17120000000E+03 0.  0.
         13    1    1    2    0    0 -0.10926507883E+02  0.12836779831E+02  0.38718210921E+02  0.42228929798E+02  0.10566000000E+00 0. -1.
        994    1    1    2    0    0 -0.69569157892E+01  0.44860544083E+01  0.40044774808E+01  0.17144678242E+03  0.17120000000E+03 0.  0.
        998    1    1    2    0    0  0.17883423672E+02 -0.17322834239E+02  0.14572773079E+04  0.14575242878E+04  0.10000000000E+02 0. -1.
</event>
<event>
 5    1  0.1252319E-008  0.3821440E+03  0.7957747E-01  0.3441876E+00
         13   -1    0    0    0    0  0.00000000000E+00  0.00000000000E+00  0.14999999963E+04  0.15000000000E+04  0.10566000000E+00 0.  1.
        994   -1    0    0    0    0 -0.00000000000E+00 -0.00000000000E+00  0.11368683772E-12  0.17120000000E+03  0.17120000000E+03 0.  0.
         13    1    1    2    0    0  0.42478134773E+01  0.92035620246E+01  0.15399110095E+02  0.18436193453E+02  0.10566000000E+00 0.  1.
        994    1    1    2    0    0 -0.62935746163E+01 -0.95922326937E+01  0.34918012643E+01  0.17161949972E+03  0.17120000000E+03 0.  0.
        998    1    1    2    0    0  0.20457611390E+01  0.38867066916E+00  0.14811090849E+04  0.14811443068E+04  0.10000000000E+02 0.  1.
</event>
<event>
 5    1  0.1252319E-008  0.3792665E+03  0.7957747E-01  0.3454358E+00
         13   -1    0    0    0    0  0.00000000000E+00  0.00000000000E+00  0.14999999963E+04  0.15000000000E+04  0.10566000000E+00 0. -1.
        994   -1    0    0    0    0 -0.00000000000E+00 -0.00000000000E+00  0.11368683772E-12  0.17120000000E+03  0.17120000000E+03 0.  0.
         13    1    1    2    0    0  0.43515571822E+02  0.10474958630E+01  0.18043492147E+03  0.18561108342E+03  0.10566000000E+00 0. -1.
        994    1    1    2    0    0 -0.47430000291E+02  0.20402557835E-01  0.12079564658E+02  0.17805887011E+03  0.17120000000E+03 0.  0.
        998    1    1    2    0    0  0.39144284681E+01 -0.10678984208E+01  0.13074855101E+04  0.13075300465E+04  0.10000000000E+02 0. -1.
</event>
<event>
 5    1  0.1252319E-008  0.3800107E+03  0.7957747E-01  0.3451112E+00
         13   -1    0    0    0    0  0.00000000000E+00  0.00000000000E+00  0.14999999963E+04  0.15000000000E+04  0.10566000000E+00 0. -1.
        994   -1    0    0    0    0 -0.00000000000E+00 -0.00000000000E+00  0.11368683772E-12  0.17120000000E+03  0.17120000000E+03 0.  0.
         13    1    1    2    0    0 -0.24973847709E+02 -0.17113291754E+02  0.10600688635E+03  0.11024531256E+03  0.10566000000E+00 0. -1.
        994    1    1    2    0    0  0.22970622423E+02  0.10077388828E+02  0.62338614923E+01  0.17314012906E+03  0.17120000000E+03 0.  0.
        998    1    1    2    0    0  0.20032252855E+01  0.70359029267E+01  0.13877592484E+04  0.13878145584E+04  0.10000000000E+02 0. -1.
</event>
<event>
 5    1  0.1252319E-008  0.3790083E+03  0.7957747E-01  0.3455488E+00
         13   -1    0    0    0    0  0.00000000000E+00  0.00000000000E+00  0.14999999963E+04  0.15000000000E+04  0.10566000000E+00 0.  1.
        994   -1    0    0    0    0 -0.00000000000E+00 -0.00000000000E+00  0.11368683772E-12  0.17120000000E+03  0.17120000000E+03 0.  0.
         13    1    1    2    0    0  0.13528254996E+02  0.16419621886E+02  0.50755117458E+02  0.55033724009E+02  0.10566000000E+00 0.  1.
        994    1    1    2    0    0  0.15987190735E+02 -0.42699878884E+01  0.55535121876E+01  0.17208749101E+03  0.17120000000E+03 0.  0.
        998    1    1    2    0    0 -0.29515445732E+02 -0.12149633998E+02  0.14436913666E+04  0.14440787850E+04  0.10000000000E+02 0.  1.
</event>
<event>
 5    1  0.1252319E-008  0.3828572E+03  0.7957747E-01  0.3438811E+00
         13   -1    0    0    0    0  0.00000000000E+00  0.00000000000E+00  0.14999999963E+04  0.15000000000E+04  0.10566000000E+00 0. -1.
        994   -1    0    0    0    0 -0.00000000000E+00 -0.00000000000E+00  0.11368683772E-12  0.17120000000E+03  0.17120000000E+03 0.  0.
         13    1    1    2    0    0 -0.10811295305E+02  0.17570381642E+02  0.72427320424E+02  0.75308235439E+02  0.10566000000E+00 0. -1.
        994    1    1    2    0    0  0.12775011910E+02 -0.24364638812E+02  0.52081433644E+01  0.17347449758E+03  0.17120000000E+03 0.  0.
        998    1    1    2    0    0 -0.19637166053E+01  0.67942571697E+01  0.14223645325E+04  0.14224172670E+04  0.10000000000E+02 0. -1.
</event>
<event>
 5    1  0.1252319E-008  0.3873536E+03  0.7957747E-01  0.3419751E+00
         13   -1    0    0    0    0  0.00000000000E+00  0.00000000000E+00  0.14999999963E+04  0.15000000000E+04  0.10566000000E+00 0.  1.
        994   -1    0    0    0    0 -0.00000000000E+00 -0.00000000000E+00  0.11368683772E-12  0.17120000000E+03  0.17120000000E+03 0.  0.
         13    1    1    2    0    0 -0.50910046729E+01  0.18926792518E+02  0.21277581081E+00  0.19600975516E+02  0.10566000000E+00 0.  1.
        994    1    1    2    0    0 -0.11887769486E+01 -0.24718236021E+02  0.22710534917E+02  0.17446378644E+03  0.17120000000E+03 0.  0.
        998    1    1    2    0    0  0.62797816215E+01  0.57914435031E+01  0.14770766856E+04  0.14771352380E+04  0.10000000000E+02 0.  1.
</event>
<event>
 5    1  0.1252319E-008  0.3836052E+03  0.7957747E-01  0.3435609E+00
         13   -1    0    0    0    0  0.00000000000E+00  0.00000000000E+00  0.14999999963E+04  0.15000000000E+04  0.10566000000E+00 0.  1.
        994   -1    0    0    0    0 -0.00000000000E+00 -0.00000000000E+00  0.11368683772E-12  0.17120000000E+03  0.17120000000E+03 0.  0.
         13    1    1    2    0    0 -0.68925636720E+01 -0.15884084522E+02  0.64108467921E+02  0.66405710584E+02  0.10566000000E+00 0.  1.
        994    1    1    2    0    0  0.15961829702E+02  0.49094871434E+01  0.32460688088E+01  0.17204319235E+03  0.17120000000E+03 0.  0.
        998    1    1    2    0    0 -0.90692660300E+01  0.10974597378E+02  0.14326454595E+04  0.14327510971E+04  0.10000000000E+02 0.  1.
</event>
<event>
 5    1  0.1252319E-008  0.3859522E+03  0.7957747E-01  0.3425644E+00
         13   -1    0    0    0    0  0.00000000000E+00  0.00000000000E+00  0.14999999963E+04  0.15000000000E+04  0.10566000000E+00 0.  1.
        994   -1    0    0    0    0 -0.00000000000E+00 -0.00000000000E+00  0.11368683772E-12  0.17120000000E+03  0.17120000000E+03 0.  0.
         13    1    1    2    0    0 -0.16802819640E+03 -0.14834599089E+03  0.12358537857E+04  0.12560153656E+04  0.10566000000E+00 0.  1.
        994    1    1    2    0    0  0.16853469996E+03  0.15359755025E+03  0.19576504101E+03  0.34587504075E+03  0.17120000000E+03 0.  0.
        998    1    1    2    0    0 -0.50650355927E+00 -0.52515593612E+01  0.68381169594E+02  0.69309593684E+02  0.10000000000E+02 0.  1.
</event>
<event>
 5    1  0.1252319E-008  0.3850456E+03  0.7957747E-01  0.3429479E+00
         13   -1    0    0    0    0  0.00000000000E+00  0.00000000000E+00  0.14999999963E+04  0.15000000000E+04  0.10566000000E+00 0.  1.
        994   -1    0    0    0    0 -0.00000000000E+00 -0.00000000000E+00  0.11368683772E-12  0.17120000000E+03  0.17120000000E+03 0.  0.
         13    1    1    2    0    0 -0.49854117709E+01 -0.97782717416E+01  0.37161215181E+02  0.38748367792E+02  0.10566000000E+00 0.  1.
        994    1    1    2    0    0  0.23495841774E+01  0.82225035975E+01  0.18479868438E+01  0.17142340904E+03  0.17120000000E+03 0.  0.
        998    1    1    2    0    0  0.26358275935E+01  0.15557681442E+01  0.14609907943E+04  0.14610282232E+04  0.10000000000E+02 0.  1.
</event>
<event>
 5    1  0.1252319E-008  0.3819405E+03  0.7957747E-01  0.3442752E+00
         13   -1    0    0    0    0  0.00000000000E+00  0.00000000000E+00  0.14999999963E+04  0.15000000000E+04  0.10566000000E+00 0. -1.
        994   -1    0    0    0    0 -0.00000000000E+00 -0.00000000000E+00  0.11368683772E-12  0.17120000000E+03  0.17120000000E+03 0.  0.
         13    1    1    2    0    0 -0.18676198564E+02 -0.27279577266E+01  0.57354790423E+02  0.60380669876E+02  0.10566000000E+00 0. -1.
        994    1    1    2    0    0  0.49710696686E+01 -0.39752003375E+01  0.32913614903E+01  0.17134989586E+03  0.17120000000E+03 0.  0.
        998    1    1    2    0    0  0.13705128896E+02  0.67031580641E+01  0.14393538444E+04  0.14394694343E+04  0.10000000000E+02 0. -1.
</event>
<event>
 5    1  0.1252319E-008  0.3823783E+03  0.7957747E-01  0.3440868E+00
         13   -1    0    0    0    0  0.00000000000E+00  0.00000000000E+00  0.14999999963E+04  0.15000000000E+04  0.10566000000E+00 0.  1.
        994   -1    0    0    0    0 -0.00000000000E+00 -0.00000000000E+00  0.11368683772E-12  0.17120000000E+03  0.17120000000E+03 0.  0.
         13    1    1    2    0    0 -0.93990539466E+01 -0.16440660755E+02  0.57464106276E+02  0.60504315675E+02  0.10566000000E+00 0.  1.
        994    1    1    2    0    0  0.20595615533E+02  0.13776522205E+02  0.49764725543E+01  0.17305541662E+03  0.17120000000E+03 0.  0.
        998    1    1    2    0    0 -0.11196561586E+02  0.26641385502E+01  0.14375594174E+04  0.14376402677E+04  0.10000000000E+02 0.  1.
</event>
<event>
 5    1  0.1252319E-008  0.3784717E+03  0.7957747E-01  0.3457840E+00
         13   -1    0    0    0    0  0.00000000000E+00  0.00000000000E+00  0.14999999963E+04  0.15000000000E+04  0.10566000000E+00 0. -1.
        994   -1    0    0    0    0 -0.00000000000E+00 -0.00000000000E+00  0.11368683772E-12  0.17120000000E+03  0.17120000000E+03 0.  0.
         13    1    1    2    0    0  0.48590067711E+02 -0.59339186113E+02  0.40642105247E+03  0.41359426585E+03  0.10566000000E+00 0. -1.
        994    1    1    2    0    0 -0.68832776761E+02  0.51937428483E+02  0.30309686575E+02  0.19407103013E+03  0.17120000000E+03 0.  0.
        998    1    1    2    0    0  0.20242709050E+02  0.74017576309E+01  0.10632692572E+04  0.10635347040E+04  0.10000000000E+02 0. -1.
</event>
<event>
 5    1  0.1252319E-008  0.3838073E+03  0.7957747E-01  0.3434746E+00
         13   -1    0    0    0    0  0.00000000000E+00  0.00000000000E+00  0.14999999963E+04  0.15000000000E+04  0.10566000000E+00 0. -1.
        994   -1    0    0    0    0 -0.00000000000E+00 -0.00000000000E+00  0.11368683772E-12  0.17120000000E+03  0.17120000000E+03 0.  0.
         13    1    1    2    0    0  0.12599368263E+02 -0.72103327395E+01  0.48624364414E+02  0.50745176692E+02  0.10566000000E+00 0. -1.
        994    1    1    2    0    0 -0.40682172481E+01 -0.32465960828E+01  0.23128709187E+01  0.17129471723E+03  0.17120000000E+03 0.  0.
        998    1    1    2    0    0 -0.85311510145E+01  0.10456928822E+02  0.14490627609E+04  0.14491601061E+04  0.10000000000E+02 0. -1.
</event>
<event>
 5    1  0.1252319E-008  0.3810143E+03  0.7957747E-01  0.3446754E+00
         13   -1    0    0    0    0  0.00000000000E+00  0.00000000000E+00  0.14999999963E+04  0.15000000000E+04  0.10566000000E+00 0.  1.
        994   -1    0    0    0    0 -0.00000000000E+00 -0.00000000000E+00  0.11368683772E-12  0.17120000000E+03  0.17120000000E+03 0.  0.
         13    1    1    2    0    0  0.45769966495E+00  0.19808222218E+02  0.52030351510E+02  0.55675342825E+02  0.10566000000E+00 0.  1.
        994    1    1    2    0    0 -0.15451521925E+01 -0.16968605275E+02  0.45898552593E+01  0.17210702435E+03  0.17120000000E+03 0.  0.
        998    1    1    2    0    0  0.10874525276E+01 -0.28396169431E+01  0.14433797895E+04  0.14434176328E+04  0.10000000000E+02 0.  1.
</event>
<event>
 5    1  0.1252319E-008  0.3816086E+03  0.7957747E-01  0.3444184E+00
         13   -1    0    0    0    0  0.00000000000E+00  0.00000000000E+00  0.14999999963E+04  0.15000000000E+04  0.10566000000E+00 0. -1.
        994   -1    0    0    0    0 -0.00000000000E+00 -0.00000000000E+00  0.11368683772E-12  0.17120000000E+03  0.17120000000E+03 0.  0.
         13    1    1    2    0    0  0.57945201331E+01 -0.95843278555E+01  0.16707727363E+02  0.20114549999E+02  0.10566000000E+00 0. -1.
        994    1    1    2    0    0 -0.10119338785E+02  0.23216148070E+02  0.54590072515E+01  0.17314915913E+03  0.17120000000E+03 0.  0.
        998    1    1    2    0    0  0.43248186517E+01 -0.13631820215E+02  0.14778332617E+04  0.14779362909E+04  0.10000000000E+02 0. -1.
</event>
<event>
 5    1  0.1252319E-008  0.3823723E+03  0.7957747E-01  0.3440894E+00
         13   -1    0    0    0    0  0.00000000000E+00  0.00000000000E+00  0.14999999963E+04  0.15000000000E+04  0.10566000000E+00 0. -1.
        994   -1    0    0    0    0 -0.00000000000E+00 -0.00000000000E+00  0.11368683772E-12  0.17120000000E+03  0.17120000000E+03 0.  0.
         13    1    1    2    0    0  0.14739763701E+02 -0.18081863050E+00  0.35603925968E+02  0.38534971620E+02  0.10566000000E+00 0. -1.
        994    1    1    2    0    0 -0.12356293434E+02  0.15440636546E+01  0.34548822944E+01  0.17168703600E+03  0.17120000000E+03 0.  0.
        998    1    1    2    0    0 -0.23834702672E+01 -0.13632450241E+01  0.14609411880E+04  0.14609779924E+04  0.10000000000E+02 0. -1.
</event>
<event>
 5    1  0.1252319E-008  0.3865194E+03  0.7957747E-01  0.3423254E+00
         13   -1    0    0    0    0  0.00000000000E+00  0.00000000000E+00  0.14999999963E+04  0.15000000000E+04  0.10566000000E+00 0.  1.
        994   -1    0    0    0    0 -0.00000000000E+00 -0.00000000000E+00  0.11368683772E-12  0.17120000000E+03  0.17120000000E+03 0.  0.
         13    1    1    2    0    0  0.21476617578E+02  0.50429219746E+02  0.67469139667E+02  0.86927827985E+02  0.10566000000E+00 0.  1.
        994    1    1    2    0    0 -0.19286814480E+02 -0.39587671346E+02  0.27189296059E+02  0.17885151035E+03  0.17120000000E+03 0.  0.
        998    1    1    2    0    0 -0.21898030983E+01 -0.10841548400E+02  0.14053415606E+04  0.14054206617E+04  0.10000000000E+02 0.  1.
</event>
<event>
 5    1  0.1252319E-008  0.3763457E+03  0.7957747E-01  0.3467226E+00
         13   -1    0    0    0    0  0.00000000000E+00  0.00000000000E+00  0.14999999963E+04  0.15000000000E+04  0.10566000000E+00 0.  1.
        994   -1    0    0    0    0 -0.00000000000E+00 -0.00000000000E+00  0.11368683772E-12  0.17120000000E+03  0.17120000000E+03 0.  0.
         13    1    1    2    0    0  0.68051662055E+02 -0.22756103654E+02  0.24456913975E+03  0.25487829300E+03  0.10566000000E+00 0.  1.
        994    1    1    2    0    0 -0.12166613585E+03  0.32705846163E+02  0.61741121333E+02  0.22134526661E+03  0.17120000000E+03 0.  0.
        998    1    1    2    0    0  0.53614473795E+02 -0.99497425087E+01  0.11936897352E+04  0.11949764404E+04  0.10000000000E+02 0.  1.
</event>
<event>
 5    1  0.2817242E-008  0.3864332E+03  0.7957747E-01  0.3423616E+00
         13   -1    0    0    0    0  0.00000000000E+00  0.00000000000E+00  0.14999999963E+04  0.15000000000E+04  0.10566000000E+00 0. -1.
        994   -1    0    0    0    0 -0.00000000000E+00 -0.00000000000E+00  0.11368683772E-12  0.17120000000E+03  0.17120000000E+03 0.  0.
         13    1    1    2    0    0  0.27804615970E+01 -0.10276765621E+02  0.64144061487E+02  0.65021647675E+02  0.10566000000E+00 0. -1.
        994    1    1    2    0    0 -0.60171032046E+01  0.32288098427E+01  0.10728839392E+01  0.17133949289E+03  0.17120000000E+03 0.  0.
        998    1    1    2    0    0  0.32366416075E+01  0.70479557781E+01  0.14347830509E+04  0.14348388594E+04  0.10000000000E+02 0. -1.
</event>
<event>
 5    1  0.1252319E-008  0.3697117E+03  0.7957747E-01  0.3497217E+00
         13   -1    0    0    0    0  0.00000000000E+00  0.00000000000E+00  0.14999999963E+04  0.15000000000E+04  0.10566000000E+00 0. -1.
        994   -1    0    0    0    0 -0.00000000000E+00 -0.00000000000E+00  0.11368683772E-12  0.17120000000E+03  0.17120000000E+03 0.  0.
         13    1    1    2    0    0  0.31833433566E+02 -0.12381341611E+03  0.51161137365E+03  0.52734176614E+03  0.10566000000E+00 0. -1.
        994    1    1    2    0    0 -0.34017546156E+02  0.12948533212E+03  0.74280420201E+02  0.22967513036E+03  0.17120000000E+03 0.  0.
        998    1    1    2    0    0  0.21841125893E+01 -0.56719160113E+01  0.91410820243E+03  0.91418310350E+03  0.10000000000E+02 0. -1.
</event>
<event>
 5    1  0.1252319E-008  0.3820863E+03  0.7957747E-01  0.3442124E+00
         13   -1    0    0    0    0  0.00000000000E+00  0.00000000000E+00  0.14999999963E+04  0.15000000000E+04  0.10566000000E+00 0.  1.
        994   -1    0    0    0    0 -0.00000000000E+00 -0.00000000000E+00  0.11368683772E-12  0.17120000000E+03  0.17120000000E+03 0.  0.
         13    1    1    2    0    0  0.15483870017E+02 -0.43960193467E+02  0.27397746656E+03  0.27791349767E+03  0.10566000000E+00 0.  1.
        994    1    1    2    0    0 -0.14594326935E+02  0.50289362797E+02  0.12241261772E+02  0.17944721474E+03  0.17120000000E+03 0.  0.
        998    1    1    2    0    0 -0.88954308202E+00 -0.63291693303E+01  0.12137812679E+04  0.12138392876E+04  0.10000000000E+02 0.  1.
</event>
<event>
 5    1  0.1252319E-008  0.3786612E+03  0.7957747E-01  0.3457009E+00
         13   -1    0    0    0    0  0.00000000000E+00  0.00000000000E+00  0.14999999963E+04  0.15000000000E+04  0.10566000000E+00 0.  1.
        994   -1    0    0    0    0 -0.00000000000E+00 -0.00000000000E+00  0.11368683772E-12  0.17120000000E+03  0.17120000000E+03 0.  0.
         13    1    1    2    0    0  0.95256518785E+02  0.30234228596E+02  0.32163391794E+03  0.33680306008E+03  0.10566000000E+00 0.  1.
        994    1    1    2    0    0 -0.44873234415E+02 -0.45983601042E+02  0.30633454161E+02  0.18540751669E+03  0.17120000000E+03 0.  0.
        998    1    1    2    0    0 -0.50383284369E+02  0.15749372447E+02  0.11477326242E+04  0.11489894232E+04  0.10000000000E+02 0.  1.
</event>
<event>
 5    1  0.1252319E-008  0.3728263E+03  0.7957747E-01  0.3483002E+00
         13   -1    0    0    0    0  0.00000000000E+00  0.00000000000E+00  0.14999999963E+04  0.15000000000E+04  0.10566000000E+00 0.  1.
        994   -1    0    0    0    0 -0.00000000000E+00 -0.00000000000E+00  0.11368683772E-12  0.17120000000E+03  0.17120000000E+03 0.  0.
         13    1    1    2    0    0 -0.82216793850E+01 -0.75062722366E+02  0.22046006952E+03  0.23303360641E+03  0.10566000000E+00 0.  1.
        994    1    1    2    0    0 -0.40656351245E+02  0.55498093765E+02  0.29346745608E+02  0.18682518242E+03  0.17120000000E+03 0.  0.
        998    1    1    2    0    0  0.48878030630E+02  0.19564628601E+02  0.12501931812E+04  0.12513412112E+04  0.10000000000E+02 0.  1.
</event>
<event>
 5    1  0.1252319E-008  0.3690555E+03  0.7957747E-01  0.3500243E+00
         13   -1    0    0    0    0  0.00000000000E+00  0.00000000000E+00  0.14999999963E+04  0.15000000000E+04  0.10566000000E+00 0.  1.
        994   -1    0    0    0    0 -0.00000000000E+00 -0.00000000000E+00  0.11368683772E-12  0.17120000000E+03  0.17120000000E+03 0.  0.
         13    1    1    2    0    0  0.44040822649E+02 -0.12278361786E+02  0.82789698377E+02  0.94575353814E+02  0.10566000000E+00 0.  1.
        994    1    1    2    0    0 -0.86039454104E+02  0.38654933848E+02  0.41294539096E+02  0.19977905429E+03  0.17120000000E+03 0.  0.
        998    1    1    2    0    0  0.41998631455E+02 -0.26376572062E+02  0.13759157588E+04  0.13768455919E+04  0.10000000000E+02 0.  1.
</event>
<event>
 5    1  0.1579160E-008  0.3861480E+03  0.7957747E-01  0.3424818E+00
         13   -1    0    0    0    0  0.00000000000E+00  0.00000000000E+00  0.14999999963E+04  0.15000000000E+04  0.10566000000E+00 0.  1.
        994   -1    0    0    0    0 -0.00000000000E+00 -0.00000000000E+00  0.11368683772E-12  0.17120000000E+03  0.17120000000E+03 0.  0.
         13    1    1    2    0    0 -0.12611084345E+02 -0.88800163442E+00  0.71391853105E+02  0.72502660979E+02  0.10566000000E+00 0.  1.
        994    1    1    2    0    0  0.16655578008E+02  0.12503372554E+01  0.19758012233E+01  0.17202417101E+03  0.17120000000E+03 0.  0.
        998    1    1    2    0    0 -0.40444936629E+01 -0.36233562095E+00  0.14266323420E+04  0.14266731680E+04  0.10000000000E+02 0.  1.
</event>
<event>
 5    1  0.1252319E-008  0.3851756E+03  0.7957747E-01  0.3428928E+00
         13   -1    0    0    0    0  0.00000000000E+00  0.00000000000E+00  0.14999999963E+04  0.15000000000E+04  0.10566000000E+00 0. -1.
        994   -1    0    0    0    0 -0.00000000000E+00 -0.00000000000E+00  0.11368683772E-12  0.17120000000E+03  0.17120000000E+03 0.  0.
         13    1    1    2    0    0 -0.43174532942E+01 -0.13789834858E+02  0.87124505828E+02  0.88314724866E+02  0.10566000000E+00 0. -1.
        994    1    1    2    0    0 -0.54044417446E+01 -0.21578905762E+02  0.31711383541E+01  0.17266833318E+03  0.17120000000E+03 0.  0.
        998    1    1    2    0    0  0.97218950388E+01  0.35368740620E+02  0.14097043521E+04  0.14102169420E+04  0.10000000000E+02 0. -1.
</event>
<event>
 5    1  0.1252319E-008  0.3774186E+03  0.7957747E-01  0.3462476E+00
         13   -1    0    0    0    0  0.00000000000E+00  0.00000000000E+00  0.14999999963E+04  0.15000000000E+04  0.10566000000E+00 0.  1.
        994   -1    0    0    0    0 -0.00000000000E+00 -0.00000000000E+00  0.11368683772E-12  0.17120000000E+03  0.17120000000E+03 0.  0.
         13    1    1    2    0    0 -0.11108042758E+03  0.35456593875E+02  0.33551340371E+03  0.35519753190E+03  0.10566000000E+00 0.  1.
        994    1    1    2    0    0  0.11422934922E+03 -0.35595412288E+02  0.68276001118E+02  0.21974173460E+03  0.17120000000E+03 0.  0.
        998    1    1    2    0    0 -0.31489216380E+01  0.13881841315E+00  0.10962105915E+04  0.10962607335E+04  0.10000000000E+02 0.  1.
</event>
<event>
 5    1  0.1252319E-008  0.3832364E+03  0.7957747E-01  0.3437186E+00
         13   -1    0    0    0    0  0.00000000000E+00  0.00000000000E+00  0.14999999963E+04  0.15000000000E+04  0.10566000000E+00 0. -1.
        994   -1    0    0    0    0 -0.00000000000E+00 -0.00000000000E+00  0.11368683772E-12  0.17120000000E+03  0.17120000000E+03 0.  0.
         13    1    1    2    0    0  0.22945663231E+02 -0.15054636819E+02  0.13952350940E+03  0.14219692820E+03  0.10566000000E+00 0. -1.
        994    1    1    2    0    0 -0.20782862271E+02  0.14925935022E+02  0.46767519878E+01  0.17316472767E+03  0.17120000000E+03 0.  0.
        998    1    1    2    0    0 -0.21628009596E+01  0.12870179697E+00  0.13557997349E+04  0.13558383441E+04  0.10000000000E+02 0.  0.
</event>
<event>
 5    1  0.1252319E-008  0.3805117E+03  0.7957747E-01  0.3448933E+00
         13   -1    0    0    0    0  0.00000000000E+00  0.00000000000E+00  0.14999999963E+04  0.15000000000E+04  0.10566000000E+00 0. -1.
        994   -1    0    0    0    0 -0.00000000000E+00 -0.00000000000E+00  0.11368683772E-12  0.17120000000E+03  0.17120000000E+03 0.  0.
         13    1    1    2    0    0 -0.30342284018E+02  0.20449049873E+02  0.16290240864E+03  0.16696114442E+03  0.10566000000E+00 0. -1.
        994    1    1    2    0    0  0.26040003449E+02 -0.13192661258E+02  0.67240405687E+01  0.17380098047E+03  0.17120000000E+03 0.  0.
        998    1    1    2    0    0  0.43022805686E+01 -0.72563886148E+01  0.13303735471E+04  0.13304378751E+04  0.10000000000E+02 0. -1.
</event>
<event>
 5    1  0.1252319E-008  0.3789715E+03  0.7957747E-01  0.3455649E+00
         13   -1    0    0    0    0  0.00000000000E+00  0.00000000000E+00  0.14999999963E+04  0.15000000000E+04  0.10566000000E+00 0.  1.
        994   -1    0    0    0    0 -0.00000000000E+00 -0.00000000000E+00  0.11368683772E-12  0.17120000000E+03  0.17120000000E+03 0.  0.
         13    1    1    2    0    0 -0.31465671306E+02  0.20635052947E+02  0.15324013293E+03  0.15779240598E+03  0.10566000000E+00 0.  1.
        994    1    1    2    0    0  0.25916151804E+02  0.39425442257E+01  0.69616945158E+01  0.17333521215E+03  0.17120000000E+03 0.  0.
        998    1    1    2    0    0  0.55495195023E+01 -0.24577597173E+02  0.13397981688E+04  0.13400723819E+04  0.10000000000E+02 0.  1.
</event>
<event>
 5    1  0.1252319E-008  0.3842132E+03  0.7957747E-01  0.3433016E+00
         13   -1    0    0    0    0  0.00000000000E+00  0.00000000000E+00  0.14999999963E+04  0.15000000000E+04  0.10566000000E+00 0.  1.
        994   -1    0    0    0    0 -0.00000000000E+00 -0.00000000000E+00  0.11368683772E-12  0.17120000000E+03  0.17120000000E+03 0.  0.
         13    1    1    2    0    0  0.10852276640E+02 -0.37329830009E+01  0.32408366833E+02  0.34380524650E+02  0.10566000000E+00 0.  1.
        994    1    1    2    0    0 -0.53965173858E+01  0.77813165262E+00  0.21193171797E+01  0.17129991067E+03  0.17120000000E+03 0.  0.
        998    1    1    2    0    0 -0.54557592546E+01  0.29548513483E+01  0.14654723123E+04  0.14655195647E+04  0.10000000000E+02 0.  1.
</event>
<event>
 5    1  0.1252319E-008  0.3837928E+03  0.7957747E-01  0.3434808E+00
         13   -1    0    0    0    0  0.00000000000E+00  0.00000000000E+00  0.14999999963E+04  0.15000000000E+04  0.10566000000E+00 0.  1.
        994   -1    0    0    0    0 -0.00000000000E+00 -0.00000000000E+00  0.11368683772E-12  0.17120000000E+03  0.17120000000E+03 0.  0.
         13    1    1    2    0    0  0.29914492716E+01  0.13733190258E+02  0.44912487450E+02  0.47060513984E+02  0.10566000000E+00 0.  1.
        994    1    1    2    0    0  0.25208693386E+01 -0.41911408377E+01  0.23096516809E+01  0.17128541950E+03  0.17120000000E+03 0.  0.
        998    1    1    2    0    0 -0.55123186103E+01 -0.95420494203E+01  0.14527778571E+04  0.14528540665E+04  0.10000000000E+02 0.  1.
</event>
<event>
 5    1  0.1252319E-008  0.3824492E+03  0.7957747E-01  0.3440563E+00
         13   -1    0    0    0    0  0.00000000000E+00  0.00000000000E+00  0.14999999963E+04  0.15000000000E+04  0.10566000000E+00 0. -1.
        994   -1    0    0    0    0 -0.00000000000E+00 -0.00000000000E+00  0.11368683772E-12  0.17120000000E+03  0.17120000000E+03 0.  0.
         13    1    1    2    0    0 -0.54871121457E+00  0.26950409048E+02  0.12672266457E+03  0.12955798127E+03  0.10566000000E+00 0. -1.
        994    1    1    2    0    0 -0.25523370893E+01 -0.13496770193E+02  0.35277789443E+01  0.17178638612E+03  0.17120000000E+03 0.  0.
        998    1    1    2    0    0  0.31010483038E+01 -0.13453638855E+02  0.13697495528E+04  0.13698556326E+04  0.10000000000E+02 0. -1.
</event>
<event>
 5    1  0.1252319E-008  0.3816444E+03  0.7957747E-01  0.3444030E+00
         13   -1    0    0    0    0  0.00000000000E+00  0.00000000000E+00  0.14999999963E+04  0.15000000000E+04  0.10566000000E+00 0.  1.
        994   -1    0    0    0    0 -0.00000000000E+00 -0.00000000000E+00  0.11368683772E-12  0.17120000000E+03  0.17120000000E+03 0.  0.
         13    1    1    2    0    0 -0.26924409808E+02  0.12430529784E+02  0.15158156253E+03  0.15445524652E+03  0.10566000000E+00 0.  1.
        994    1    1    2    0    0 -0.94106766896E+01 -0.17934854884E+02  0.46704703259E+01  0.17245716323E+03  0.17120000000E+03 0.  0.
        998    1    1    2    0    0  0.36335086498E+02  0.55043251008E+01  0.13437479634E+04  0.13442875903E+04  0.10000000000E+02 0.  1.
</event>
<event>
 5    1  0.1252319E-008  0.3722631E+03  0.7957747E-01  0.3485554E+00
         13   -1    0    0    0    0  0.00000000000E+00  0.00000000000E+00  0.14999999963E+04  0.15000000000E+04  0.10566000000E+00 0. -1.
        994   -1    0    0    0    0 -0.00000000000E+00 -0.00000000000E+00  0.11368683772E-12  0.17120000000E+03  0.17120000000E+03 0.  0.
         13    1    1    2    0    0  0.24197654694E+02  0.12087243752E+01  0.18789922982E+02  0.30660395904E+02  0.10566000000E+00 0. -1.
        994    1    1    2    0    0 -0.23079838295E+02 -0.26280239221E+01  0.14044249258E+02  0.17333858884E+03  0.17120000000E+03 0.  0.
        998    1    1    2    0    0 -0.11178163994E+01  0.14192995469E+01  0.14671658240E+04  0.14672010153E+04  0.10000000000E+02 0. -1.
</event>
<event>
 5    1  0.1252319E-008  0.3846630E+03  0.7957747E-01  0.3431103E+00
         13   -1    0    0    0    0  0.00000000000E+00  0.00000000000E+00  0.14999999963E+04  0.15000000000E+04  0.10566000000E+00 0. -1.
        994   -1    0    0    0    0 -0.00000000000E+00 -0.00000000000E+00  0.11368683772E-12  0.17120000000E+03  0.17120000000E+03 0.  0.
         13    1    1    2    0    0  0.89068687084E+01  0.93034378652E+01  0.45609477613E+02  0.47393268282E+02  0.10566000000E+00 0. -1.
        994    1    1    2    0    0  0.20960261937E+00 -0.14030560191E+02  0.24460494858E+01  0.17179151234E+03  0.17120000000E+03 0.  0.
        998    1    1    2    0    0 -0.91164713278E+01  0.47271223261E+01  0.14519444692E+04  0.14520152194E+04  0.10000000000E+02 0. -1.
</event>
<event>
 5    1  0.2100338E-008  0.3860849E+03  0.7957747E-01  0.3425084E+00
         13   -1    0    0    0    0  0.00000000000E+00  0.00000000000E+00  0.14999999963E+04  0.15000000000E+04  0.10566000000E+00 0. -1.
        994   -1    0    0    0    0 -0.00000000000E+00 -0.00000000000E+00  0.11368683772E-12  0.17120000000E+03  0.17120000000E+03 0.  0.
         13    1    1    2    0    0  0.26006485458E+01  0.10570180059E+02  0.54413056213E+02  0.55491295983E+02  0.10566000000E+00 0. -1.
        994    1    1    2    0    0 -0.39033266183E+01 -0.80218486576E+01  0.13533115002E+01  0.17143761975E+03  0.17120000000E+03 0.  0.
        998    1    1    2    0    0  0.13026780725E+01 -0.25483314018E+01  0.14442336286E+04  0.14442710843E+04  0.10000000000E+02 0. -1.
</event>
<event>
 5    1  0.1252319E-008  0.3743287E+03  0.7957747E-01  0.3476230E+00
         13   -1    0    0    0    0  0.00000000000E+00  0.00000000000E+00  0.14999999963E+04  0.15000000000E+04  0.10566000000E+00 0.  1.
        994   -1    0    0    0    0 -0.00000000000E+00 -0.00000000000E+00  0.11368683772E-12  0.17120000000E+03  0.17120000000E+03 0.  0.
         13    1    1    2    0    0  0.43048584201E+01  0.48810024056E+02  0.15441065569E+03  0.16199880249E+03  0.10566000000E+00 0.  1.
        994    1    1    2    0    0 -0.83335373911E+00 -0.46321195264E+02  0.14371681712E+02  0.17793912679E+03  0.17120000000E+03 0.  0.
        998    1    1    2    0    0 -0.34715046810E+01 -0.24888287919E+01  0.13312176589E+04  0.13312620707E+04  0.10000000000E+02 0.  1.
</event>
<event>
 5    1  0.1252319E-008  0.3827034E+03  0.7957747E-01  0.3439471E+00
         13   -1    0    0    0    0  0.00000000000E+00  0.00000000000E+00  0.14999999963E+04  0.15000000000E+04  0.10566000000E+00 0.  1.
        994   -1    0    0    0    0 -0.00000000000E+00 -0.00000000000E+00  0.11368683772E-12  0.17120000000E+03  0.17120000000E+03 0.  0.
         13    1    1    2    0    0  0.14692969264E+02 -0.52576769402E+02  0.30415258350E+03  0.30901295319E+03  0.10566000000E+00 0.  1.
        994    1    1    2    0    0 -0.32644828473E+02  0.81084607565E+02  0.28516306746E+02  0.19432709065E+03  0.17120000000E+03 0.  0.
        998    1    1    2    0    0  0.17951859210E+02 -0.28507838163E+02  0.11673311060E+04  0.11678599562E+04  0.10000000000E+02 0.  1.
</event>
<event>
 5    1  0.1252319E-008  0.3691855E+03  0.7957747E-01  0.3499643E+00
         13   -1    0    0    0    0  0.00000000000E+00  0.00000000000E+00  0.14999999963E+04  0.15000000000E+04  0.10566000000E+00 0. -1.
        994   -1    0    0    0    0 -0.00000000000E+00 -0.00000000000E+00  0.11368683772E-12  0.17120000000E+03  0.17120000000E+03 0.  0.
         13    1    1    2    0    0  0.17390692647E+02  0.13223297201E+02  0.20789824372E+02  0.30158244993E+02  0.10566000000E+00 0. -1.
        994    1    1    2    0    0 -0.11058216372E+02 -0.12227409694E+01  0.10124732517E+02  0.17185962136E+03  0.17120000000E+03 0.  0.
        998    1    1    2    0    0 -0.63324762753E+01 -0.12000556232E+02  0.14690854394E+04  0.14691821336E+04  0.10000000000E+02 0. -1.
</event>
<event>
 5    1  0.1252319E-008  0.3753536E+03  0.7957747E-01  0.3471643E+00
         13   -1    0    0    0    0  0.00000000000E+00  0.00000000000E+00  0.14999999963E+04  0.15000000000E+04  0.10566000000E+00 0.  1.
        994   -1    0    0    0    0 -0.00000000000E+00 -0.00000000000E+00  0.11368683772E-12  0.17120000000E+03  0.17120000000E+03 0.  0.
         13    1    1    2    0    0 -0.20869433036E+01 -0.43746896471E+02  0.13171444179E+03  0.13880508501E+03  0.10566000000E+00 0.  1.
        994    1    1    2    0    0 -0.37158537398E+01  0.46768916989E+02  0.14007353808E+02  0.17806399166E+03  0.17120000000E+03 0.  0.
        998    1    1    2    0    0  0.58027970434E+01 -0.30220205182E+01  0.13542782007E+04  0.13543309233E+04  0.10000000000E+02 0.  1.
</event>
<event>
 5    1  0.1252319E-008  0.3847193E+03  0.7957747E-01  0.3430864E+00
         13   -1    0    0    0    0  0.00000000000E+00  0.00000000000E+00  0.14999999963E+04  0.15000000000E+04  0.10566000000E+00 0. -1.
        994   -1    0    0    0    0 -0.00000000000E+00 -0.00000000000E+00  0.11368683772E-12  0.17120000000E+03  0.17120000000E+03 0.  0.
         13    1    1    2    0    0  0.22065568451E+01 -0.97667440069E+01  0.28097994764E+02  0.29828956660E+02  0.10566000000E+00 0. -1.
        994    1    1    2    0    0  0.39516374935E+01  0.67365024865E+01  0.19703717961E+01  0.17138937619E+03  0.17120000000E+03 0.  0.
        998    1    1    2    0    0 -0.61581943386E+01  0.30302415204E+01  0.14699316297E+04  0.14699816672E+04  0.10000000000E+02 0. -1.
</event>
<event>
 5    1  0.1252319E-008  0.3797183E+03  0.7957747E-01  0.3452386E+00
         13   -1    0    0    0    0  0.00000000000E+00  0.00000000000E+00  0.14999999963E+04  0.15000000000E+04  0.10566000000E+00 0. -1.
        994   -1    0    0    0    0 -0.00000000000E+00 -0.00000000000E+00  0.11368683772E-12  0.17120000000E+03  0.17120000000E+03 0.  0.
         13    1    1    2    0    0 -0.52184875658E+01  0.12591651468E+02  0.19460673678E+02  0.23759446189E+02  0.10566000000E+00 0. -1.
        994    1    1    2    0    0 -0.62686310511E+01 -0.22668822606E+02  0.61285177633E+01  0.17291665618E+03  0.17120000000E+03 0.  0.
        998    1    1    2    0    0  0.11487118617E+02  0.10077171139E+02  0.14744108048E+04  0.14745238976E+04  0.10000000000E+02 0. -1.
</event>
<event>
 5    1  0.1252319E-008  0.3786220E+03  0.7957747E-01  0.3457181E+00
         13   -1    0    0    0    0  0.00000000000E+00  0.00000000000E+00  0.14999999963E+04  0.15000000000E+04  0.10566000000E+00 0. -1.
        994   -1    0    0    0    0 -0.00000000000E+00 -0.00000000000E+00  0.11368683772E-12  0.17120000000E+03  0.17120000000E+03 0.  0.
         13    1    1    2    0    0 -0.79324427128E+01  0.66464028330E+01  0.83422958742E+01  0.13292982453E+02  0.10566000000E+00 0. -1.
        994    1    1    2    0    0  0.49708801539E+01 -0.47621656056E+02  0.12568050487E+02  0.17821315234E+03  0.17120000000E+03 0.  0.
        998    1    1    2    0    0  0.29615625590E+01  0.40975253223E+02  0.14790896499E+04  0.14796938652E+04  0.10000000000E+02 0. -1.
</event>
<event>
 5    1  0.1252319E-008  0.3830284E+03  0.7957747E-01  0.3438077E+00
         13   -1    0    0    0    0  0.00000000000E+00  0.00000000000E+00  0.14999999963E+04  0.15000000000E+04  0.10566000000E+00 0. -1.
        994   -1    0    0    0    0 -0.00000000000E+00 -0.00000000000E+00  0.11368683772E-12  0.17120000000E+03  0.17120000000E+03 0.  0.
         13    1    1    2    0    0  0.11072437404E+02 -0.80730447354E+01  0.34890121996E+02  0.37484726200E+02  0.10566000000E+00 0. -1.
        994    1    1    2    0    0 -0.94948065467E+01  0.52851722785E+01  0.30031170284E+01  0.17157081077E+03  0.17120000000E+03 0.  0.
        998    1    1    2    0    0 -0.15776308575E+01  0.27878724568E+01  0.14621067573E+04  0.14621444630E+04  0.10000000000E+02 0. -1.
</event>
<event>
 5    1  0.1252319E-008  0.3807122E+03  0.7957747E-01  0.3448063E+00
         13   -1    0    0    0    0  0.00000000000E+00  0.00000000000E+00  0.14999999963E+04  0.15000000000E+04  0.10566000000E+00 0. -1.
        994   -1    0    0    0    0 -0.00000000000E+00 -0.00000000000E+00  0.11368683772E-12  0.17120000000E+03  0.17120000000E+03 0.  0.
         13    1    1    2    0    0 -0.46622435254E+01 -0.96410919301E+01  0.13732416626E+02  0.17414867175E+02  0.10566000000E+00 0. -1.
        994    1    1    2    0    0  0.60189199412E+01  0.50663242324E+00  0.38957521290E+01  0.17135081254E+03  0.17120000000E+03 0.  0.
        998    1    1    2    0    0 -0.13566764158E+01  0.91344595068E+01  0.14823718275E+04  0.14824343203E+04  0.10000000000E+02 0. -1.
</event>
<event>
 5    1  0.1252319E-008  0.3822188E+03  0.7957747E-01  0.3441554E+00
         13   -1    0    0    0    0  0.00000000000E+00  0.00000000000E+00  0.14999999963E+04  0.15000000000E+04  0.10566000000E+00 0.  1.
        994   -1    0    0    0    0 -0.00000000000E+00 -0.00000000000E+00  0.11368683772E-12  0.17120000000E+03  0.17120000000E+03 0.  0.
         13    1    1    2    0    0  0.20977032416E+02 -0.12443028687E+02  0.10654956388E+03  0.10930546912E+03  0.10566000000E+00 0.  1.
        994    1    1    2    0    0  0.10131702288E+02  0.19882712881E+02  0.46716205172E+01  0.17271142898E+03  0.17120000000E+03 0.  0.
        998    1    1    2    0    0 -0.31108734704E+02 -0.74396841940E+01  0.13887788119E+04  0.13891831019E+04  0.10000000000E+02 0.  1.
</event>
<event>
 5    1  0.1252319E-008  0.3706127E+03  0.7957747E-01  0.3493080E+00
         13   -1    0    0    0    0  0.00000000000E+00  0.00000000000E+00  0.14999999963E+04  0.15000000000E+04  0.10566000000E+00 0. -1.
        994   -1    0    0    0    0 -0.00000000000E+00 -0.00000000000E+00  0.11368683772E-12  0.17120000000E+03  0.17120000000E+03 0.  0.
         13    1    1    2    0    0 -0.54979563651E+02 -0.54776224969E+02  0.32346860471E+03  0.33264866848E+03  0.10566000000E+00 0. -1.
        994    1    1    2    0    0  0.18304511140E+02  0.52265273944E+02  0.19605882715E+02  0.18099874206E+03  0.17120000000E+03 0.  0.
        998    1    1    2    0    0  0.36675052512E+02  0.25109510246E+01  0.11569255089E+04  0.11575525895E+04  0.10000000000E+02 0. -1.
</event>
<event>
 5    1  0.1252319E-008  0.3819620E+03  0.7957747E-01  0.3442660E+00
         13   -1    0    0    0    0  0.00000000000E+00  0.00000000000E+00  0.14999999963E+04  0.15000000000E+04  0.10566000000E+00 0.  1.
        994   -1    0    0    0    0 -0.00000000000E+00 -0.00000000000E+00  0.11368683772E-12  0.17120000000E+03  0.17120000000E+03 0.  0.
         13    1    1    2    0    0 -0.70575447756E+01  0.20407318790E+02  0.83625635902E+02  0.86368546025E+02  0.10566000000E+00 0.  1.
        994    1    1    2    0    0  0.14674453351E+02  0.16628427730E+02  0.47813095634E+01  0.17269668529E+03  0.17120000000E+03 0.  0.
        998    1    1    2    0    0 -0.76169085753E+01 -0.37035746520E+02  0.14115930508E+04  0.14121347687E+04  0.10000000000E+02 0.  1.
</event>
<event>
 5    1  0.1252319E-008  0.3766803E+03  0.7957747E-01  0.3465742E+00
         13   -1    0    0    0    0  0.00000000000E+00  0.00000000000E+00  0.14999999963E+04  0.15000000000E+04  0.10566000000E+00 0.  1.
        994   -1    0    0    0    0 -0.00000000000E+00 -0.00000000000E+00  0.11368683772E-12  0.17120000000E+03  0.17120000000E+03 0.  0.
         13    1    1    2    0    0  0.97975451766E+02  0.13283889810E+03  0.55167415187E+03  0.57583829588E+03  0.10566000000E+00 0.  1.
        994    1    1    2    0    0 -0.15675415457E+03 -0.17319261184E+03  0.22054628400E+03  0.36402973664E+03  0.17120000000E+03 0.  0.
        998    1    1    2    0    0  0.58778702803E+02  0.40353713732E+02  0.72777956040E+03  0.73133196748E+03  0.10000000000E+02 0. -1.
</event>
<event>
 5    1  0.1252319E-008  0.3844649E+03  0.7957747E-01  0.3431945E+00
         13   -1    0    0    0    0  0.00000000000E+00  0.00000000000E+00  0.14999999963E+04  0.15000000000E+04  0.10566000000E+00 0. -1.
        994   -1    0    0    0    0 -0.00000000000E+00 -0.00000000000E+00  0.11368683772E-12  0.17120000000E+03  0.17120000000E+03 0.  0.
         13    1    1    2    0    0 -0.21990365156E+01 -0.12223511146E+02  0.39495658929E+02  0.41402514713E+02  0.10566000000E+00 0. -1.
        994    1    1    2    0    0  0.22609145540E+01  0.12639733522E+02  0.24393849335E+01  0.17169818053E+03  0.17120000000E+03 0.  0.
        998    1    1    2    0    0 -0.61878038406E-01 -0.41622237619E+00  0.14580649524E+04  0.14580993048E+04  0.10000000000E+02 0.  0.
</event>
<event>
 5    1  0.1252319E-008  0.3787708E+03  0.7957747E-01  0.3456528E+00
         13   -1    0    0    0    0  0.00000000000E+00  0.00000000000E+00  0.14999999963E+04  0.15000000000E+04  0.10566000000E+00 0.  1.
        994   -1    0    0    0    0 -0.00000000000E+00 -0.00000000000E+00  0.11368683772E-12  0.17120000000E+03  0.17120000000E+03 0.  0.
         13    1    1    2    0    0  0.14776686653E+02  0.64176699474E+01  0.25386483180E+02  0.30066952760E+02  0.10566000000E+00 0.  1.
        994    1    1    2    0    0 -0.12067914786E+02  0.18349595412E+01  0.52552169202E+01  0.17171505161E+03  0.17120000000E+03 0.  0.
        998    1    1    2    0    0 -0.27087718670E+01 -0.82526294886E+01  0.14693582962E+04  0.14694179956E+04  0.10000000000E+02 0.  1.
</event>
<event>
 5    1  0.1252319E-008  0.3780639E+03  0.7957747E-01  0.3459632E+00
         13   -1    0    0    0    0  0.00000000000E+00  0.00000000000E+00  0.14999999963E+04  0.15000000000E+04  0.10566000000E+00 0.  1.
        994   -1    0    0    0    0 -0.00000000000E+00 -0.00000000000E+00  0.11368683772E-12  0.17120000000E+03  0.17120000000E+03 0.  0.
         13    1    1    2    0    0 -0.39119920706E+02  0.72010100684E+01  0.15258707100E+03  0.15768655029E+03  0.10566000000E+00 0.  1.
        994    1    1    2    0    0  0.24689719491E+02  0.25571222678E+01  0.71893732858E+01  0.17313938954E+03  0.17120000000E+03 0.  0.
        998    1    1    2    0    0  0.14430201215E+02 -0.97581323362E+01  0.13402235520E+04  0.13403740602E+04  0.10000000000E+02 0.  1.
</event>
<event>
 5    1  0.1252319E-008  0.3828399E+03  0.7957747E-01  0.3438885E+00
         13   -1    0    0    0    0  0.00000000000E+00  0.00000000000E+00  0.14999999963E+04  0.15000000000E+04  0.10566000000E+00 0. -1.
        994   -1    0    0    0    0 -0.00000000000E+00 -0.00000000000E+00  0.11368683772E-12  0.17120000000E+03  0.17120000000E+03 0.  0.
         13    1    1    2    0    0  0.19749049604E+02 -0.53803699107E+01  0.80317188745E+02  0.82884469671E+02  0.10566000000E+00 0. -1.
        994    1    1    2    0    0 -0.30761137468E+01  0.61006326577E+01  0.28610097977E+01  0.17136016332E+03  0.17120000000E+03 0.  0.
        998    1    1    2    0    0 -0.16672935857E+02 -0.72026274697E+00  0.14168217977E+04  0.14169553670E+04  0.10000000000E+02 0. -1.
</event>
<event>
 5    1  0.1252319E-008  0.3809218E+03  0.7957747E-01  0.3447154E+00
         13   -1    0    0    0    0  0.00000000000E+00  0.00000000000E+00  0.14999999963E+04  0.15000000000E+04  0.10566000000E+00 0. -1.
        994   -1    0    0    0    0 -0.00000000000E+00 -0.00000000000E+00  0.11368683772E-12  0.17120000000E+03  0.17120000000E+03 0.  0.
         13    1    1    2    0    0 -0.27871416618E+01  0.52720927723E+02  0.28160294887E+03  0.28650915580E+03  0.10566000000E+00 0. -1.
        994    1    1    2    0    0 -0.24811380470E+02 -0.65832698458E+02  0.20344009264E+02  0.18620651841E+03  0.17120000000E+03 0.  0.
        998    1    1    2    0    0  0.27598522132E+02  0.13111770735E+02  0.11980530381E+04  0.11984843258E+04  0.10000000000E+02 0. -1.
</event>
<event>
 5    1  0.1252319E-008  0.3794318E+03  0.7957747E-01  0.3453636E+00
         13   -1    0    0    0    0  0.00000000000E+00  0.00000000000E+00  0.14999999963E+04  0.15000000000E+04  0.10566000000E+00 0. -1.
        994   -1    0    0    0    0 -0.00000000000E+00 -0.00000000000E+00  0.11368683772E-12  0.17120000000E+03  0.17120000000E+03 0.  0.
         13    1    1    2    0    0  0.31793932151E+02  0.28807273026E+02  0.19142814255E+03  0.19617710882E+03  0.10566000000E+00 0. -1.
        994    1    1    2    0    0 -0.30678904731E+02 -0.19663431600E+02  0.88802968132E+01  0.17526022198E+03  0.17120000000E+03 0.  0.
        998    1    1    2    0    0 -0.11150274199E+01 -0.91438414261E+01  0.12996915569E+04  0.12997626692E+04  0.10000000000E+02 0. -1.
</event>
<event>
 5    1  0.1252319E-008  0.3853901E+03  0.7957747E-01  0.3428020E+00
         13   -1    0    0    0    0  0.00000000000E+00  0.00000000000E+00  0.14999999963E+04  0.15000000000E+04  0.10566000000E+00 0.  1.
        994   -1    0    0    0    0 -0.00000000000E+00 -0.00000000000E+00  0.11368683772E-12  0.17120000000E+03  0.17120000000E+03 0.  0.
         13    1    1    2    0    0 -0.53419017775E+01  0.14944182828E+02  0.87351515372E+02  0.88781546037E+02  0.10566000000E+00 0.  1.
        994    1    1    2    0    0 -0.93368793578E+01 -0.15616896751E+02  0.25247316481E+01  0.17218269091E+03  0.17120000000E+03 0.  0.
        998    1    1    2    0    0  0.14678781135E+02  0.67271392248E+00  0.14101237493E+04  0.14102357630E+04  0.10000000000E+02 0.  1.
</event>
<event>
 5    1  0.1252319E-008  0.3833548E+03  0.7957747E-01  0.3436680E+00
         13   -1    0    0    0    0  0.00000000000E+00  0.00000000000E+00  0.14999999963E+04  0.15000000000E+04  0.10566000000E+00 0. -1.
        994   -1    0    0    0    0 -0.00000000000E+00 -0.00000000000E+00  0.11368683772E-12  0.17120000000E+03  0.17120000000E+03 0.  0.
         13    1    1    2    0    0 -0.11247403886E+02 -0.17946426356E+02  0.98755147738E+02  0.10100083506E+03  0.10566000000E+00 0. -1.
        994    1    1    2    0    0 -0.96516432656E+01  0.70493584338E+01  0.29216129012E+01  0.17164155527E+03  0.17120000000E+03 0.  0.
        998    1    1    2    0    0  0.20899047152E+02  0.10897067922E+02  0.13983232356E+04  0.13985576097E+04  0.10000000000E+02 0. -1.
</event>
<event>
 5    1  0.1252319E-008  0.3784558E+03  0.7957747E-01  0.3457910E+00
         13   -1    0    0    0    0  0.00000000000E+00  0.00000000000E+00  0.14999999963E+04  0.15000000000E+04  0.10566000000E+00 0.  1.
        994   -1    0    0    0    0 -0.00000000000E+00 -0.00000000000E+00  0.11368683772E-12  0.17120000000E+03  0.17120000000E+03 0.  0.
         13    1    1    2    0    0  0.11596249644E+02 -0.57268116608E+01  0.15044670102E+02  0.19839925406E+02  0.10566000000E+00 0.  1.
        994    1    1    2    0    0 -0.78124015410E+01 -0.52714444290E+01  0.52131975864E+01  0.17153844809E+03  0.17120000000E+03 0.  0.
        998    1    1    2    0    0 -0.37838481026E+01  0.10998256090E+02  0.14797421286E+04  0.14798216265E+04  0.10000000000E+02 0.  1.
</event>
<event>
 5    1  0.1252319E-008  0.3698753E+03  0.7957747E-01  0.3496464E+00
         13   -1    0    0    0    0  0.00000000000E+00  0.00000000000E+00  0.14999999963E+04  0.15000000000E+04  0.10566000000E+00 0. -1.
        994   -1    0    0    0    0 -0.00000000000E+00 -0.00000000000E+00  0.11368683772E-12  0.17120000000E+03  0.17120000000E+03 0.  0.
         13    1    1    2    0    0  0.45352511275E+02 -0.19484120537E+02  0.14029586404E+03  0.14872599592E+03  0.10566000000E+00 0. -1.
        994    1    1    2    0    0  0.13332557648E+02 -0.46363139682E+02  0.19050152541E+02  0.17888444909E+03  0.17120000000E+03 0.  0.
        998    1    1    2    0    0 -0.58685068924E+02  0.65847260219E+02  0.13406539797E+04  0.13435895550E+04  0.10000000000E+02 0. -1.
</event>
<event>
 5    1  0.1252319E-008  0.3785723E+03  0.7957747E-01  0.3457399E+00
         13   -1    0    0    0    0  0.00000000000E+00  0.00000000000E+00  0.14999999963E+04  0.15000000000E+04  0.10566000000E+00 0.  1.
        994   -1    0    0    0    0 -0.00000000000E+00 -0.00000000000E+00  0.11368683772E-12  0.17120000000E+03  0.17120000000E+03 0.  0.
         13    1    1    2    0    0  0.10768588314E+02  0.29063036716E+02  0.96878120039E+02  0.10171530811E+03  0.10566000000E+00 0.  1.
        994    1    1    2    0    0 -0.57471186295E+01 -0.18793870896E+02  0.61539330953E+01  0.17243418991E+03  0.17120000000E+03 0.  0.
        998    1    1    2    0    0 -0.50214696847E+01 -0.10269165820E+02  0.13969679431E+04  0.13970505020E+04  0.10000000000E+02 0.  1.
</event>
<event>
 5    1  0.1252319E-008  0.3693974E+03  0.7957747E-01  0.3498665E+00
         13   -1    0    0    0    0  0.00000000000E+00  0.00000000000E+00  0.14999999963E+04  0.15000000000E+04  0.10566000000E+00 0. -1.
        994   -1    0    0    0    0 -0.00000000000E+00 -0.00000000000E+00  0.11368683772E-12  0.17120000000E+03  0.17120000000E+03 0.  0.
         13    1    1    2    0    0  0.37493060468E+02 -0.45463779625E+02  0.16084648111E+03  0.17130174106E+03  0.10566000000E+00 0. -1.
        994    1    1    2    0    0 -0.64964742966E+02  0.21570158096E+02  0.25999779725E+02  0.18620182087E+03  0.17120000000E+03 0.  0.
        998    1    1    2    0    0  0.27471682499E+02  0.23893621529E+02  0.13131537354E+04  0.13136964381E+04  0.10000000000E+02 0. -1.
</event>
<event>
 5    1  0.1252319E-008  0.4029214E+03  0.7957747E-01  0.3357049E+00
         13   -1    0    0    0    0  0.00000000000E+00  0.00000000000E+00  0.14999999963E+04  0.15000000000E+04  0.10566000000E+00 0.  1.
        994   -1    0    0    0    0 -0.00000000000E+00 -0.00000000000E+00  0.11368683772E-12  0.17120000000E+03  0.17120000000E+03 0.  0.
         13    1    1    2    0    0 -0.26616392405E+02 -0.55000945910E+02  0.55508782025E+02  0.82551635003E+02  0.10566000000E+00 0.  1.
        994    1    1    2    0    0 -0.62664964536E+02  0.56313649909E+02  0.58253587612E+02  0.19950199351E+03  0.17120000000E+03 0.  0.
        998    1    1    2    0    0  0.89281356941E+02 -0.13127039984E+01  0.13862376266E+04  0.13891463715E+04  0.10000000000E+02 0.  1.
</event>
<event>
 5    1  0.1252319E-008  0.3828203E+03  0.7957747E-01  0.3438969E+00
         13   -1    0    0    0    0  0.00000000000E+00  0.00000000000E+00  0.14999999963E+04  0.15000000000E+04  0.10566000000E+00 0. -1.
        994   -1    0    0    0    0 -0.00000000000E+00 -0.00000000000E+00  0.11368683772E-12  0.17120000000E+03  0.17120000000E+03 0.  0.
         13    1    1    2    0    0 -0.36662060635E+01 -0.17306633518E+02  0.57083236413E+02  0.59761757621E+02  0.10566000000E+00 0. -1.
        994    1    1    2    0    0 -0.12177440872E+01  0.10926299212E+02  0.31166071918E+01  0.17158094345E+03  0.17120000000E+03 0.  0.
        998    1    1    2    0    0  0.48839501507E+01  0.63803343059E+01  0.14398001527E+04  0.14398572989E+04  0.10000000000E+02 0. -1.
</event>
<event>
 5    1  0.1252319E-008  0.3754329E+03  0.7957747E-01  0.3471289E+00
         13   -1    0    0    0    0  0.00000000000E+00  0.00000000000E+00  0.14999999963E+04  0.15000000000E+04  0.10566000000E+00 0. -1.
        994   -1    0    0    0    0 -0.00000000000E+00 -0.00000000000E+00  0.11368683772E-12  0.17120000000E+03  0.17120000000E+03 0.  0.
         13    1    1    2    0    0 -0.12089430136E+01  0.29871136622E+02  0.63881257168E+02  0.70530649563E+02  0.10566000000E+00 0. -1.
        994    1    1    2    0    0  0.73700140156E+01 -0.31454100914E+02  0.10007268216E+02  0.17450863299E+03  0.17120000000E+03 0.  0.
        998    1    1    2    0    0 -0.61610710020E+01  0.15829642920E+01  0.14261114709E+04  0.14261607174E+04  0.10000000000E+02 0. -1.
</event>
<event>
 5    1  0.1252319E-008  0.3763641E+03  0.7957747E-01  0.3467144E+00
         13   -1    0    0    0    0  0.00000000000E+00  0.00000000000E+00  0.14999999963E+04  0.15000000000E+04  0.10566000000E+00 0. -1.
        994   -1    0    0    0    0 -0.00000000000E+00 -0.00000000000E+00  0.11368683772E-12  0.17120000000E+03  0.17120000000E+03 0.  0.
         13    1    1    2    0    0 -0.32895703822E+02  0.11446870628E+02  0.94118520844E+02  0.10035669039E+03  0.10566000000E+00 0. -1.
        994    1    1    2    0    0  0.32335111177E+02 -0.10158705731E+02  0.98767144838E+01  0.17480202575E+03  0.17120000000E+03 0.  0.
        998    1    1    2    0    0  0.56059264521E+00 -0.12881648970E+01  0.13960047610E+04  0.13960412839E+04  0.10000000000E+02 0. -1.
</event>
<event>
 5    1  0.1252319E-008  0.3809719E+03  0.7957747E-01  0.3446938E+00
         13   -1    0    0    0    0  0.00000000000E+00  0.00000000000E+00  0.14999999963E+04  0.15000000000E+04  0.10566000000E+00 0.  1.
        994   -1    0    0    0    0 -0.00000000000E+00 -0.00000000000E+00  0.11368683772E-12  0.17120000000E+03  0.17120000000E+03 0.  0.
         13    1    1    2    0    0 -0.25164940650E+02 -0.35790962641E+02  0.22683169147E+03  0.23101275866E+03  0.10566000000E+00 0.  1.
        994    1    1    2    0    0  0.19065456908E+02  0.38545175998E+02  0.98300282941E+01  0.17679166184E+03  0.17120000000E+03 0.  0.
        998    1    1    2    0    0  0.60994837424E+01 -0.27542133570E+01  0.12633382765E+04  0.12633955795E+04  0.10000000000E+02 0.  0.
</event>
<event>
 5    1  0.1252319E-008  0.3798244E+03  0.7957747E-01  0.3451923E+00
         13   -1    0    0    0    0  0.00000000000E+00  0.00000000000E+00  0.14999999963E+04  0.15000000000E+04  0.10566000000E+00 0.  1.
        994   -1    0    0    0    0 -0.00000000000E+00 -0.00000000000E+00  0.11368683772E-12  0.17120000000E+03  0.17120000000E+03 0.  0.
         13    1    1    2    0    0 -0.28842056264E+02  0.16504863257E+02  0.14655011359E+03  0.15027049503E+03  0.10566000000E+00 0.  1.
        994    1    1    2    0    0  0.54039984647E+01  0.94236974609E+01  0.46166232011E+01  0.17160641737E+03  0.17120000000E+03 0.  0.
        998    1    1    2    0    0  0.23438057799E+02 -0.25928560718E+02  0.13488332595E+04  0.13493230876E+04  0.10000000000E+02 0.  1.
</event>
<event>
 5    1  0.1252319E-008  0.3820450E+03  0.7957747E-01  0.3442302E+00
         13   -1    0    0    0    0  0.00000000000E+00  0.00000000000E+00  0.14999999963E+04  0.15000000000E+04  0.10566000000E+00 0.  1.
        994   -1    0    0    0    0 -0.00000000000E+00 -0.00000000000E+00  0.11368683772E-12  0.17120000000E+03  0.17120000000E+03 0.  0.
         13    1    1    2    0    0 -0.23084393220E+02  0.36365130804E+02  0.24483834665E+03  0.24859834896E+03  0.10566000000E+00 0.  1.
        994    1    1    2    0    0  0.29853916272E+02 -0.35794978413E+02  0.10352045787E+02  0.17773334422E+03  0.17120000000E+03 0.  0.
        998    1    1    2    0    0 -0.67695230520E+01 -0.57015239141E+00  0.12448096038E+04  0.12448683068E+04  0.10000000000E+02 0.  1.
</event>
<event>
 5    1  0.1252319E-008  0.3758434E+03  0.7957747E-01  0.3469459E+00
         13   -1    0    0    0    0  0.00000000000E+00  0.00000000000E+00  0.14999999963E+04  0.15000000000E+04  0.10566000000E+00 0. -1.
        994   -1    0    0    0    0 -0.00000000000E+00 -0.00000000000E+00  0.11368683772E-12  0.17120000000E+03  0.17120000000E+03 0.  0.
         13    1    1    2    0    0 -0.79306438106E+02 -0.15661360586E+02  0.24088055432E+03  0.25408313984E+03  0.10566000000E+00 0. -1.
        994    1    1    2    0    0  0.27377345046E+02  0.65603589346E+02  0.32326683725E+02  0.18816961614E+03  0.17120000000E+03 0.  0.
        998    1    1    2    0    0  0.51929093060E+02 -0.49942228760E+02  0.12267927582E+04  0.12289472440E+04  0.10000000000E+02 0. -1.
</event>
<event>
 5    1  0.1252319E-008  0.3737464E+03  0.7957747E-01  0.3478848E+00
         13   -1    0    0    0    0  0.00000000000E+00  0.00000000000E+00  0.14999999963E+04  0.15000000000E+04  0.10566000000E+00 0. -1.
        994   -1    0    0    0    0 -0.00000000000E+00 -0.00000000000E+00  0.11368683772E-12  0.17120000000E+03  0.17120000000E+03 0.  0.
         13    1    1    2    0    0  0.44527058935E+02 -0.42373832189E+02  0.20734913062E+03  0.21626805997E+03  0.10566000000E+00 0. -1.
        994    1    1    2    0    0 -0.43866769806E+02  0.58537126767E+02  0.25815890463E+02  0.18795422023E+03  0.17120000000E+03 0.  0.
        998    1    1    2    0    0 -0.66028912945E+00 -0.16163294578E+02  0.12668349752E+04  0.12669777198E+04  0.10000000000E+02 0. -1.
</event>
<event>
 5    1  0.1252319E-008  0.3756141E+03  0.7957747E-01  0.3470481E+00
         13   -1    0    0    0    0  0.00000000000E+00  0.00000000000E+00  0.14999999963E+04  0.15000000000E+04  0.10566000000E+00 0. -1.
        994   -1    0    0    0    0 -0.00000000000E+00 -0.00000000000E+00  0.11368683772E-12  0.17120000000E+03  0.17120000000E+03 0.  0.
         13    1    1    2    0    0  0.12115467119E+01  0.16649056510E+02  0.18842443118E+02  0.25173552686E+02  0.10566000000E+00 0. -1.
        994    1    1    2    0    0  0.19674938014E+01 -0.18825440404E+02  0.75799442265E+01  0.17240987151E+03  0.17120000000E+03 0.  0.
        998    1    1    2    0    0 -0.31790405133E+01  0.21763838940E+01  0.14735776089E+04  0.14736165758E+04  0.10000000000E+02 0. -1.
</event>
<event>
 5    1  0.1252319E-008  0.3837775E+03  0.7957747E-01  0.3434874E+00
         13   -1    0    0    0    0  0.00000000000E+00  0.00000000000E+00  0.14999999963E+04  0.15000000000E+04  0.10566000000E+00 0.  1.
        994   -1    0    0    0    0 -0.00000000000E+00 -0.00000000000E+00  0.11368683772E-12  0.17120000000E+03  0.17120000000E+03 0.  0.
         13    1    1    2    0    0  0.52796875712E+01 -0.17233601828E+02  0.75461649110E+02  0.77584430032E+02  0.10566000000E+00 0.  1.
        994    1    1    2    0    0  0.31579478264E+01  0.50052084239E+01  0.23539656299E+01  0.17131843421E+03  0.17120000000E+03 0.  0.
        998    1    1    2    0    0 -0.84376353975E+01  0.12228393404E+02  0.14221843815E+04  0.14222971358E+04  0.10000000000E+02 0.  1.
</event>
<event>
 5    1  0.1252319E-008  0.3718871E+03  0.7957747E-01  0.3487263E+00
         13   -1    0    0    0    0  0.00000000000E+00  0.00000000000E+00  0.14999999963E+04  0.15000000000E+04  0.10566000000E+00 0. -1.
        994   -1    0    0    0    0 -0.00000000000E+00 -0.00000000000E+00  0.11368683772E-12  0.17120000000E+03  0.17120000000E+03 0.  0.
         13    1    1    2    0    0  0.81680554842E+02 -0.17272680606E+02  0.44073288572E+03  0.44857055883E+03  0.10566000000E+00 0. -1.
        994    1    1    2    0    0 -0.42626270601E+02  0.18516453196E+01  0.14565753789E+02  0.17703680047E+03  0.17120000000E+03 0.  0.
        998    1    1    2    0    0 -0.39054284241E+02  0.15421035286E+02  0.10447013568E+04  0.10455926407E+04  0.10000000000E+02 0. -1.
</event>
<event>
 5    1  0.1252319E-008  0.3837610E+03  0.7957747E-01  0.3434944E+00
         13   -1    0    0    0    0  0.00000000000E+00  0.00000000000E+00  0.14999999963E+04  0.15000000000E+04  0.10566000000E+00 0.  1.
        994   -1    0    0    0    0 -0.00000000000E+00 -0.00000000000E+00  0.11368683772E-12  0.17120000000E+03  0.17120000000E+03 0.  0.
         13    1    1    2    0    0 -0.17739001326E+02 -0.60325408493E+01  0.71490540760E+02  0.73905157461E+02  0.10566000000E+00 0.  1.
        994    1    1    2    0    0  0.24221681725E+02  0.11402782991E+02  0.46166625741E+01  0.17334205173E+03  0.17120000000E+03 0.  0.
        998    1    1    2    0    0 -0.64826803988E+01 -0.53702421419E+01  0.14238927929E+04  0.14239527908E+04  0.10000000000E+02 0.  1.
</event>
<event>
 5    1  0.1252319E-008  0.3833500E+03  0.7957747E-01  0.3436700E+00
         13   -1    0    0    0    0  0.00000000000E+00  0.00000000000E+00  0.14999999963E+04  0.15000000000E+04  0.10566000000E+00 0.  1.
        994   -1    0    0    0    0 -0.00000000000E+00 -0.00000000000E+00  0.11368683772E-12  0.17120000000E+03  0.17120000000E+03 0.  0.
         13    1    1    2    0    0  0.29694348919E+01  0.35253641363E+02  0.19615185296E+03  0.19931682657E+03  0.10566000000E+00 0.  1.
        994    1    1    2    0    0  0.13086729610E+02 -0.51916033808E+02  0.11987636506E+02  0.17977675180E+03  0.17120000000E+03 0.  0.
        998    1    1    2    0    0 -0.16056164502E+02  0.16662392445E+02  0.12918605068E+04  0.12921064216E+04  0.10000000000E+02 0. -1.
</event>
<event>
 5    1  0.1252319E-008  0.3820133E+03  0.7957747E-01  0.3442439E+00
         13   -1    0    0    0    0  0.00000000000E+00  0.00000000000E+00  0.14999999963E+04  0.15000000000E+04  0.10566000000E+00 0. -1.
        994   -1    0    0    0    0 -0.00000000000E+00 -0.00000000000E+00  0.11368683772E-12  0.17120000000E+03  0.17120000000E+03 0.  0.
         13    1    1    2    0    0 -0.23097784090E+02 -0.14269652118E+02  0.11315795899E+03  0.11636952113E+03  0.10566000000E+00 0. -1.
        994    1    1    2    0    0  0.19534550957E+02  0.10308024569E+02  0.47420555329E+01  0.17268405005E+03  0.17120000000E+03 0.  0.
        998    1    1    2    0    0  0.35632331330E+01  0.39616275489E+01  0.13820999818E+04  0.13821464288E+04  0.10000000000E+02 0. -1.
</event>
<event>
 5    1  0.1252319E-008  0.3716851E+03  0.7957747E-01  0.3488182E+00
         13   -1    0    0    0    0  0.00000000000E+00  0.00000000000E+00  0.14999999963E+04  0.15000000000E+04  0.10566000000E+00 0. -1.
        994   -1    0    0    0    0 -0.00000000000E+00 -0.00000000000E+00  0.11368683772E-12  0.17120000000E+03  0.17120000000E+03 0.  0.
         13    1    1    2    0    0 -0.10536981374E+03  0.20415957175E+02  0.35683663671E+03  0.37262850859E+03  0.10566000000E+00 0. -1.
        994    1    1    2    0    0  0.10496416134E+03 -0.32323605843E+02  0.55553593442E+02  0.21085049776E+03  0.17120000000E+03 0.  0.
        998    1    1    2    0    0  0.40565240425E+00  0.11907648669E+02  0.10876097661E+04  0.10877209937E+04  0.10000000000E+02 0. -1.
</event>
<event>
 5    1  0.1252319E-008  0.2870885E+03  0.7957747E-01  0.3992738E+00
         13   -1    0    0    0    0  0.00000000000E+00  0.00000000000E+00  0.14999999963E+04  0.15000000000E+04  0.10566000000E+00 0.  1.
        994   -1    0    0    0    0 -0.00000000000E+00 -0.00000000000E+00  0.11368683772E-12  0.17120000000E+03  0.17120000000E+03 0.  0.
         13    1    1    2    0    0 -0.41971509864E+02  0.16871906699E+03  0.58690701667E+03  0.61211729969E+03  0.10566000000E+00 0.  1.
        994    1    1    2    0    0  0.39916167564E+02 -0.15152370694E+03  0.11191824825E+03  0.25765843376E+03  0.17120000000E+03 0.  0.
        998    1    1    2    0    0  0.20553422992E+01 -0.17195360049E+02  0.80117473136E+03  0.80142426654E+03  0.10000000000E+02 0.  1.
</event>
<event>
 5    1  0.1252319E-008  0.3757422E+03  0.7957747E-01  0.3469910E+00
         13   -1    0    0    0    0  0.00000000000E+00  0.00000000000E+00  0.14999999963E+04  0.15000000000E+04  0.10566000000E+00 0.  1.
        994   -1    0    0    0    0 -0.00000000000E+00 -0.00000000000E+00  0.11368683772E-12  0.17120000000E+03  0.17120000000E+03 0.  0.
         13    1    1    2    0    0 -0.57718769273E+01  0.22186962758E+02  0.39065652997E+02  0.45295830800E+02  0.10566000000E+00 0.  1.
        994    1    1    2    0    0  0.96281722926E+01 -0.14658783781E+02  0.73416743517E+01  0.17225249440E+03  0.17120000000E+03 0.  0.
        998    1    1    2    0    0 -0.38562953653E+01 -0.75281789773E+01  0.14535926689E+04  0.14536516748E+04  0.10000000000E+02 0.  1.
</event>
<event>
 5    1  0.1252319E-008  0.3834094E+03  0.7957747E-01  0.3436446E+00
         13   -1    0    0    0    0  0.00000000000E+00  0.00000000000E+00  0.14999999963E+04  0.15000000000E+04  0.10566000000E+00 0.  1.
        994   -1    0    0    0    0 -0.00000000000E+00 -0.00000000000E+00  0.11368683772E-12  0.17120000000E+03  0.17120000000E+03 0.  0.
         13    1    1    2    0    0  0.92962721207E+01  0.32203747363E+02  0.18539639306E+03  0.18840205875E+03  0.10566000000E+00 0.  1.
        994    1    1    2    0    0  0.39911133114E+01 -0.48627817811E+02  0.10331576821E+02  0.17831650269E+03  0.17120000000E+03 0.  0.
        998    1    1    2    0    0 -0.13287385432E+02  0.16424070449E+02  0.13042720264E+04  0.13044814386E+04  0.10000000000E+02 0.  1.
</event>
<event>
 5    1  0.1252319E-008  0.3845667E+03  0.7957747E-01  0.3431512E+00
         13   -1    0    0    0    0  0.00000000000E+00  0.00000000000E+00  0.14999999963E+04  0.15000000000E+04  0.10566000000E+00 0. -1.
        994   -1    0    0    0    0 -0.00000000000E+00 -0.00000000000E+00  0.11368683772E-12  0.17120000000E+03  0.17120000000E+03 0.  0.
         13    1    1    2    0    0 -0.63907944003E+00 -0.11694215012E+02  0.36033664375E+02  0.37889302179E+02  0.10566000000E+00 0. -1.
        994    1    1    2    0    0 -0.49663787820E+00  0.12779186013E+02  0.23842481052E+01  0.17169356098E+03  0.17120000000E+03 0.  0.
        998    1    1    2    0    0  0.11357173182E+01 -0.10849710012E+01  0.14615820838E+04  0.14616171368E+04  0.10000000000E+02 0. -1.
</event>
<event>
 5    1  0.1252319E-008  0.3835712E+03  0.7957747E-01  0.3435755E+00
         13   -1    0    0    0    0  0.00000000000E+00  0.00000000000E+00  0.14999999963E+04  0.15000000000E+04  0.10566000000E+00 0.  1.
        994   -1    0    0    0    0 -0.00000000000E+00 -0.00000000000E+00  0.11368683772E-12  0.17120000000E+03  0.17120000000E+03 0.  0.
         13    1    1    2    0    0  0.24778433635E+02 -0.10047311261E+02  0.13249877253E+03  0.13516972710E+03  0.10566000000E+00 0.  1.
        994    1    1    2    0    0 -0.31375253007E+02  0.14561949110E+02  0.63042657323E+01  0.17477311186E+03  0.17120000000E+03 0.  0.
        998    1    1    2    0    0  0.65968193720E+01 -0.45146378485E+01  0.13611969580E+04  0.13612571610E+04  0.10000000000E+02 0.  1.
</event>
<event>
 5    1  0.1252319E-008  0.3818657E+03  0.7957747E-01  0.3443075E+00
         13   -1    0    0    0    0  0.00000000000E+00  0.00000000000E+00  0.14999999963E+04  0.15000000000E+04  0.10566000000E+00 0.  1.
        994   -1    0    0    0    0 -0.00000000000E+00 -0.00000000000E+00  0.11368683772E-12  0.17120000000E+03  0.17120000000E+03 0.  0.
         13    1    1    2    0    0 -0.56176935263E+02  0.17089494317E+02  0.31052744997E+03  0.31603038971E+03  0.10566000000E+00 0.  1.
        994    1    1    2    0    0  0.94133271307E+02 -0.38154581573E+01  0.33266596204E+02  0.19822143403E+03  0.17120000000E+03 0.  0.
        998    1    1    2    0    0 -0.37956336043E+02 -0.13274036159E+02  0.11562059501E+04  0.11569481763E+04  0.10000000000E+02 0.  1.
</event>
<event>
 5    1  0.1252319E-008  0.3831219E+03  0.7957747E-01  0.3437677E+00
         13   -1    0    0    0    0  0.00000000000E+00  0.00000000000E+00  0.14999999963E+04  0.15000000000E+04  0.10566000000E+00 0. -1.
        994   -1    0    0    0    0 -0.00000000000E+00 -0.00000000000E+00  0.11368683772E-12  0.17120000000E+03  0.17120000000E+03 0.  0.
         13    1    1    2    0    0 -0.76529785634E+02  0.41461818165E+02  0.17752984845E+03  0.19771886281E+03  0.10566000000E+00 0. -1.
        994    1    1    2    0    0  0.77659824078E+02 -0.46215726902E+02  0.48643731363E+02  0.19960609783E+03  0.17120000000E+03 0.  0.
        998    1    1    2    0    0 -0.11300384433E+01  0.47539087378E+01  0.12738264165E+04  0.12738750394E+04  0.10000000000E+02 0. -1.
</event>
<event>
 5    1  0.1252319E-008  0.3713974E+03  0.7957747E-01  0.3489493E+00
         13   -1    0    0    0    0  0.00000000000E+00  0.00000000000E+00  0.14999999963E+04  0.15000000000E+04  0.10566000000E+00 0.  1.
        994   -1    0    0    0    0 -0.00000000000E+00 -0.00000000000E+00  0.11368683772E-12  0.17120000000E+03  0.17120000000E+03 0.  0.
         13    1    1    2    0    0 -0.30764621416E+01 -0.37524997683E+02  0.54812921038E+02  0.66498552971E+02  0.10566000000E+00 0.  1.
        994    1    1    2    0    0 -0.15354613285E+01  0.35205534865E+02  0.16054820656E+02  0.17552488312E+03  0.17120000000E+03 0.  0.
        998    1    1    2    0    0  0.46119234700E+01  0.23194628177E+01  0.14291322546E+04  0.14291765639E+04  0.10000000000E+02 0.  1.
</event>
<event>
 5    1  0.1252319E-008  0.3800733E+03  0.7957747E-01  0.3450839E+00
         13   -1    0    0    0    0  0.00000000000E+00  0.00000000000E+00  0.14999999963E+04  0.15000000000E+04  0.10566000000E+00 0.  1.
        994   -1    0    0    0    0 -0.00000000000E+00 -0.00000000000E+00  0.11368683772E-12  0.17120000000E+03  0.17120000000E+03 0.  0.
         13    1    1    2    0    0  0.85841242962E+00  0.37349452164E+02  0.19444419694E+03  0.19800069530E+03  0.10566000000E+00 0.  1.
        994    1    1    2    0    0 -0.11454430381E+02 -0.28684117387E+01  0.45622720418E+01  0.17166737048E+03  0.17120000000E+03 0.  0.
        998    1    1    2    0    0  0.10596017952E+02 -0.34481040425E+02  0.13009935273E+04  0.13015319342E+04  0.10000000000E+02 0.  1.
</event>
<event>
 5    1  0.1252319E-008  0.3841144E+03  0.7957747E-01  0.3433437E+00
         13   -1    0    0    0    0  0.00000000000E+00  0.00000000000E+00  0.14999999963E+04  0.15000000000E+04  0.10566000000E+00 0.  1.
        994   -1    0    0    0    0 -0.00000000000E+00 -0.00000000000E+00  0.11368683772E-12  0.17120000000E+03  0.17120000000E+03 0.  0.
         13    1    1    2    0    0 -0.54620882544E+01  0.85621577357E+01  0.23910944791E+02  0.25978633491E+02  0.10566000000E+00 0.  1.
        994    1    1    2    0    0  0.50062329873E+01 -0.10376284922E+02  0.25083429535E+01  0.17160554024E+03  0.17120000000E+03 0.  0.
        998    1    1    2    0    0  0.45585526704E+00  0.18141271866E+01  0.14735807085E+04  0.14736158263E+04  0.10000000000E+02 0.  1.
</event>
<event>
 5    1  0.1252319E-008  0.3827195E+03  0.7957747E-01  0.3439402E+00
         13   -1    0    0    0    0  0.00000000000E+00  0.00000000000E+00  0.14999999963E+04  0.15000000000E+04  0.10566000000E+00 0.  1.
        994   -1    0    0    0    0 -0.00000000000E+00 -0.00000000000E+00  0.11368683772E-12  0.17120000000E+03  0.17120000000E+03 0.  0.
         13    1    1    2    0    0 -0.12066325454E+02  0.66728742488E+01  0.32804275848E+02  0.35584478901E+02  0.10566000000E+00 0.  1.
        994    1    1    2    0    0  0.11406205411E+02 -0.90884319527E+01  0.34716530023E+01  0.17185515265E+03  0.17120000000E+03 0.  0.
        998    1    1    2    0    0  0.66012004341E+00  0.24155577038E+01  0.14637240674E+04  0.14637603685E+04  0.10000000000E+02 0.  1.
</event>
<event>
 5    1  0.1252319E-008  0.3801156E+03  0.7957747E-01  0.3450655E+00
         13   -1    0    0    0    0  0.00000000000E+00  0.00000000000E+00  0.14999999963E+04  0.15000000000E+04  0.10566000000E+00 0. -1.
        994   -1    0    0    0    0 -0.00000000000E+00 -0.00000000000E+00  0.11368683772E-12  0.17120000000E+03  0.17120000000E+03 0.  0.
         13    1    1    2    0    0 -0.22459222090E+02 -0.19088113364E+02  0.98381715622E+02  0.10270221936E+03  0.10566000000E+00 0. -1.
        994    1    1    2    0    0  0.24019827877E+02  0.19700204712E+02  0.73063642262E+01  0.17414899700E+03  0.17120000000E+03 0.  0.
        998    1    1    2    0    0 -0.15606057873E+01 -0.61209134788E+00  0.13943119164E+04  0.13943487836E+04  0.10000000000E+02 0. -1.
</event>
<event>
 5    1  0.1394520E-008  0.3841929E+03  0.7957747E-01  0.3433102E+00
         13   -1    0    0    0    0  0.00000000000E+00  0.00000000000E+00  0.14999999963E+04  0.15000000000E+04  0.10566000000E+00 0. -1.
        994   -1    0    0    0    0 -0.00000000000E+00 -0.00000000000E+00  0.11368683772E-12  0.17120000000E+03  0.17120000000E+03 0.  0.
         13    1    1    2    0    0  0.36738963814E+01 -0.10757363169E+02  0.30649528785E+02  0.32689802015E+02  0.10566000000E+00 0. -1.
        994    1    1    2    0    0 -0.34074298997E+01  0.12413302336E+02  0.25779267225E+01  0.17170261023E+03  0.17120000000E+03 0.  0.
        998    1    1    2    0    0 -0.26646648172E+00 -0.16559391674E+01  0.14667725408E+04  0.14668075878E+04  0.10000000000E+02 0. -1.
</event>
<event>
 5    1  0.1252319E-008  0.3832431E+03  0.7957747E-01  0.3437158E+00
         13   -1    0    0    0    0  0.00000000000E+00  0.00000000000E+00  0.14999999963E+04  0.15000000000E+04  0.10566000000E+00 0.  1.
        994   -1    0    0    0    0 -0.00000000000E+00 -0.00000000000E+00  0.11368683772E-12  0.17120000000E+03  0.17120000000E+03 0.  0.
         13    1    1    2    0    0  0.17529182308E+02 -0.32825685760E+01  0.62781231146E+02  0.65265164039E+02  0.10566000000E+00 0.  1.
        994    1    1    2    0    0 -0.12199004499E+02 -0.19897665471E+01  0.30103912702E+01  0.17167200511E+03  0.17120000000E+03 0.  0.
        998    1    1    2    0    0 -0.53301778088E+01  0.52723351231E+01  0.14342083739E+04  0.14342628309E+04  0.10000000000E+02 0.  1.
</event>
<event>
 5    1  0.1252319E-008  0.3767727E+03  0.7957747E-01  0.3465332E+00
         13   -1    0    0    0    0  0.00000000000E+00  0.00000000000E+00  0.14999999963E+04  0.15000000000E+04  0.10566000000E+00 0. -1.
        994   -1    0    0    0    0 -0.00000000000E+00 -0.00000000000E+00  0.11368683772E-12  0.17120000000E+03  0.17120000000E+03 0.  0.
         13    1    1    2    0    0  0.47167370360E+02 -0.44091368450E+02  0.24031839935E+03  0.24884082026E+03  0.10566000000E+00 0. -1.
        994    1    1    2    0    0 -0.28809767842E+02  0.11854195017E+03  0.57836860517E+02  0.21802921618E+03  0.17120000000E+03 0.  0.
        998    1    1    2    0    0 -0.18357602518E+02 -0.74450581718E+02  0.12018447364E+04  0.12043299636E+04  0.10000000000E+02 0. -1.
</event>
<event>
 5    1  0.1252319E-008  0.3781930E+03  0.7957747E-01  0.3459065E+00
         13   -1    0    0    0    0  0.00000000000E+00  0.00000000000E+00  0.14999999963E+04  0.15000000000E+04  0.10566000000E+00 0.  1.
        994   -1    0    0    0    0 -0.00000000000E+00 -0.00000000000E+00  0.11368683772E-12  0.17120000000E+03  0.17120000000E+03 0.  0.
         13    1    1    2    0    0 -0.37422963161E+01  0.10915054402E+02  0.10914289095E+02  0.15883200710E+02  0.10566000000E+00 0.  1.
        994    1    1    2    0    0  0.37247736324E+01 -0.86598367905E+01  0.53470183811E+01  0.17154269823E+03  0.17120000000E+03 0.  0.
        998    1    1    2    0    0  0.17522683769E-01 -0.22552176117E+01  0.14837386888E+04  0.14837741011E+04  0.10000000000E+02 0.  1.
</event>
<event>
 5    1  0.1252319E-008  0.3856157E+03  0.7957747E-01  0.3427065E+00
         13   -1    0    0    0    0  0.00000000000E+00  0.00000000000E+00  0.14999999963E+04  0.15000000000E+04  0.10566000000E+00 0. -1.
        994   -1    0    0    0    0 -0.00000000000E+00 -0.00000000000E+00  0.11368683772E-12  0.17120000000E+03  0.17120000000E+03 0.  0.
         13    1    1    2    0    0 -0.13278839297E+02 -0.10605635063E+01  0.71651044292E+02  0.72878911080E+02  0.10566000000E+00 0. -1.
        994    1    1    2    0    0  0.21730205148E+01 -0.15300754886E+02  0.21090498637E+01  0.17190905505E+03  0.17120000000E+03 0.  0.
        998    1    1    2    0    0  0.11105818782E+02  0.16361318393E+02  0.14262399021E+04  0.14264120339E+04  0.10000000000E+02 0. -1.
</event>
<event>
 5    1  0.1252319E-008  0.3761785E+03  0.7957747E-01  0.3467969E+00
         13   -1    0    0    0    0  0.00000000000E+00  0.00000000000E+00  0.14999999963E+04  0.15000000000E+04  0.10566000000E+00 0. -1.
        994   -1    0    0    0    0 -0.00000000000E+00 -0.00000000000E+00  0.11368683772E-12  0.17120000000E+03  0.17120000000E+03 0.  0.
         13    1    1    2    0    0 -0.88611503414E+01 -0.93479089853E+01  0.12221857611E+02  0.17756360980E+02  0.10566000000E+00 0. -1.
        994    1    1    2    0    0 -0.53864067186E+02 -0.72955862566E+01  0.16144542446E+02  0.18034591640E+03  0.17120000000E+03 0.  0.
        998    1    1    2    0    0  0.62725217528E+02  0.16643495242E+02  0.14716335962E+04  0.14730977226E+04  0.10000000000E+02 0. -1.
</event>
<event>
 5    1  0.1252319E-008  0.3760394E+03  0.7957747E-01  0.3468587E+00
         13   -1    0    0    0    0  0.00000000000E+00  0.00000000000E+00  0.14999999963E+04  0.15000000000E+04  0.10566000000E+00 0.  1.
        994   -1    0    0    0    0 -0.00000000000E+00 -0.00000000000E+00  0.11368683772E-12  0.17120000000E+03  0.17120000000E+03 0.  0.
         13    1    1    2    0    0  0.12991316206E+03 -0.10708119435E+03  0.81568416047E+03  0.83287722544E+03  0.10566000000E+00 0.  1.
        994    1    1    2    0    0 -0.13153792993E+03  0.11338343916E+03  0.11628388487E+03  0.27016552920E+03  0.17120000000E+03 0.  0.
        998    1    1    2    0    0  0.16247678782E+01 -0.63022448097E+01  0.56803195095E+03  0.56815724536E+03  0.10000000000E+02 0.  1.
</event>
<event>
 5    1  0.1252319E-008  0.3832942E+03  0.7957747E-01  0.3436939E+00
         13   -1    0    0    0    0  0.00000000000E+00  0.00000000000E+00  0.14999999963E+04  0.15000000000E+04  0.10566000000E+00 0. -1.
        994   -1    0    0    0    0 -0.00000000000E+00 -0.00000000000E+00  0.11368683772E-12  0.17120000000E+03  0.17120000000E+03 0.  0.
         13    1    1    2    0    0  0.21193822552E+02 -0.67666556074E+01  0.92208919453E+02  0.94854951021E+02  0.10566000000E+00 0. -1.
        994    1    1    2    0    0 -0.20659379342E+02  0.20526024530E+02  0.52891408369E+01  0.17373987064E+03  0.17120000000E+03 0.  0.
        998    1    1    2    0    0 -0.53444320961E+00 -0.13759368923E+02  0.14025019360E+04  0.14026051783E+04  0.10000000000E+02 0. -1.
</event>
<event>
 5    1  0.1252319E-008  0.3890467E+03  0.7957747E-01  0.3412689E+00
         13   -1    0    0    0    0  0.00000000000E+00  0.00000000000E+00  0.14999999963E+04  0.15000000000E+04  0.10566000000E+00 0.  1.
        994   -1    0    0    0    0 -0.00000000000E+00 -0.00000000000E+00  0.11368683772E-12  0.17120000000E+03  0.17120000000E+03 0.  0.
         13    1    1    2    0    0  0.52511322144E+01  0.15301148043E+02 -0.35749847457E+01  0.16567775980E+02  0.10566000000E+00 0.  1.
        994    1    1    2    0    0 -0.54020998581E+01 -0.16786091740E+02  0.22554652269E+02  0.17357738302E+03  0.17120000000E+03 0.  0.
        998    1    1    2    0    0  0.15096764367E+00  0.14849436970E+01  0.14810203288E+04  0.14810548410E+04  0.10000000000E+02 0.  1.
</event>
<event>
 5    1  0.1252319E-008  0.3763347E+03  0.7957747E-01  0.3467275E+00
         13   -1    0    0    0    0  0.00000000000E+00  0.00000000000E+00  0.14999999963E+04  0.15000000000E+04  0.10566000000E+00 0.  1.
        994   -1    0    0    0    0 -0.00000000000E+00 -0.00000000000E+00  0.11368683772E-12  0.17120000000E+03  0.17120000000E+03 0.  0.
         13    1    1    2    0    0 -0.60489836942E+00 -0.11359021969E+02  0.78213419764E+01  0.13804993172E+02  0.10566000000E+00 0.  1.
        994    1    1    2    0    0 -0.12645764890E+02  0.22134167262E+02  0.81970853451E+01  0.17328147315E+03  0.17120000000E+03 0.  0.
        998    1    1    2    0    0  0.13250663259E+02 -0.10775145293E+02  0.14839815690E+04  0.14841135337E+04  0.10000000000E+02 0.  1.
</event>
<event>
 5    1  0.1252319E-008  0.3845233E+03  0.7957747E-01  0.3431697E+00
         13   -1    0    0    0    0  0.00000000000E+00  0.00000000000E+00  0.14999999963E+04  0.15000000000E+04  0.10566000000E+00 0.  1.
        994   -1    0    0    0    0 -0.00000000000E+00 -0.00000000000E+00  0.11368683772E-12  0.17120000000E+03  0.17120000000E+03 0.  0.
         13    1    1    2    0    0  0.18313818463E+02  0.10028091929E+02  0.11541041672E+03  0.11728398879E+03  0.10566000000E+00 0.  1.
        994    1    1    2    0    0 -0.15194699269E+02 -0.20646901408E+01  0.26418879785E+01  0.17190567589E+03  0.17120000000E+03 0.  0.
        998    1    1    2    0    0 -0.31191191940E+01 -0.79634017884E+01  0.13819476916E+04  0.13820103353E+04  0.10000000000E+02 0.  1.
</event>
<event>
 5    1  0.1252319E-008  0.3698833E+03  0.7957747E-01  0.3496428E+00
         13   -1    0    0    0    0  0.00000000000E+00  0.00000000000E+00  0.14999999963E+04  0.15000000000E+04  0.10566000000E+00 0. -1.
        994   -1    0    0    0    0 -0.00000000000E+00 -0.00000000000E+00  0.11368683772E-12  0.17120000000E+03  0.17120000000E+03 0.  0.
         13    1    1    2    0    0 -0.49248133690E+02 -0.18899648887E+02  0.11500830677E+03  0.12652864178E+03  0.10566000000E+00 0. -1.
        994    1    1    2    0    0  0.54413447446E+02  0.71157617419E+01  0.21476026204E+02  0.18105832494E+03  0.17120000000E+03 0.  0.
        998    1    1    2    0    0 -0.51653137569E+01  0.11783887145E+02  0.13635156633E+04  0.13636130333E+04  0.10000000000E+02 0. -1.
</event>
<event>
 5    1  0.1252319E-008  0.3828707E+03  0.7957747E-01  0.3438753E+00
         13   -1    0    0    0    0  0.00000000000E+00  0.00000000000E+00  0.14999999963E+04  0.15000000000E+04  0.10566000000E+00 0. -1.
        994   -1    0    0    0    0 -0.00000000000E+00 -0.00000000000E+00  0.11368683772E-12  0.17120000000E+03  0.17120000000E+03 0.  0.
         13    1    1    2    0    0  0.71769522245E+01  0.15748564637E+02  0.53131699551E+02  0.55879464856E+02  0.10566000000E+00 0. -1.
        994    1    1    2    0    0 -0.32182046339E+00 -0.19930088875E+02  0.40078162070E+01  0.17240305856E+03  0.17120000000E+03 0.  0.
        998    1    1    2    0    0 -0.68551317611E+01  0.41815242379E+01  0.14428604805E+04  0.14429174766E+04  0.10000000000E+02 0. -1.
</event>
<event>
 5    1  0.1252319E-008  0.3793855E+03  0.7957747E-01  0.3453839E+00
         13   -1    0    0    0    0  0.00000000000E+00  0.00000000000E+00  0.14999999963E+04  0.15000000000E+04  0.10566000000E+00 0.  1.
        994   -1    0    0    0    0 -0.00000000000E+00 -0.00000000000E+00  0.11368683772E-12  0.17120000000E+03  0.17120000000E+03 0.  0.
         13    1    1    2    0    0  0.17198064239E+02 -0.33138634231E+02  0.16639443759E+03  0.17053170532E+03  0.10566000000E+00 0.  1.
        994    1    1    2    0    0  0.74919637274E+01  0.16912640553E+02  0.55906555913E+01  0.17228715089E+03  0.17120000000E+03 0.  0.
        998    1    1    2    0    0 -0.24690027966E+02  0.16225993679E+02  0.13280149031E+04  0.13283811438E+04  0.10000000000E+02 0.  1.
</event>
<event>
 5    1  0.1252319E-008  0.3684519E+03  0.7957747E-01  0.3503036E+00
         13   -1    0    0    0    0  0.00000000000E+00  0.00000000000E+00  0.14999999963E+04  0.15000000000E+04  0.10566000000E+00 0.  1.
        994   -1    0    0    0    0 -0.00000000000E+00 -0.00000000000E+00  0.11368683772E-12  0.17120000000E+03  0.17120000000E+03 0.  0.
         13    1    1    2    0    0  0.23262428464E+02 -0.58405346502E+01  0.24828407555E+02  0.34521202307E+02  0.10566000000E+00 0.  1.
        994    1    1    2    0    0 -0.71975802784E+01  0.59370397314E+01  0.10383188065E+02  0.17176816992E+03  0.17120000000E+03 0.  0.
        998    1    1    2    0    0 -0.16064848185E+02 -0.96505081270E-01  0.14647884007E+04  0.14649106278E+04  0.10000000000E+02 0.  1.
</event>
<event>
 5    1  0.1252319E-008  0.3826152E+03  0.7957747E-01  0.3439850E+00
         13   -1    0    0    0    0  0.00000000000E+00  0.00000000000E+00  0.14999999963E+04  0.15000000000E+04  0.10566000000E+00 0. -1.
        994   -1    0    0    0    0 -0.00000000000E+00 -0.00000000000E+00  0.11368683772E-12  0.17120000000E+03  0.17120000000E+03 0.  0.
         13    1    1    2    0    0  0.96971206467E+01  0.35876529239E+01  0.17750818570E+02  0.20542836374E+02  0.10566000000E+00 0. -1.
        994    1    1    2    0    0 -0.94575883064E+01 -0.17434117458E+01  0.31253637377E+01  0.17149837713E+03  0.17120000000E+03 0.  0.
        998    1    1    2    0    0 -0.23953234027E+00 -0.18442411780E+01  0.14791238140E+04  0.14791587865E+04  0.10000000000E+02 0. -1.
</event>
<event>
 5    1  0.1252319E-008  0.3854433E+03  0.7957747E-01  0.3427794E+00
         13   -1    0    0    0    0  0.00000000000E+00  0.00000000000E+00  0.14999999963E+04  0.15000000000E+04  0.10566000000E+00 0.  1.
        994   -1    0    0    0    0 -0.00000000000E+00 -0.00000000000E+00  0.11368683772E-12  0.17120000000E+03  0.17120000000E+03 0.  0.
         13    1    1    2    0    0 -0.23135464213E+01  0.12480320755E+02  0.63702351368E+02  0.64954689107E+02  0.10566000000E+00 0.  1.
        994    1    1    2    0    0 -0.46545757524E+01  0.60795773833E+01  0.16027770183E+01  0.17137863120E+03  0.17120000000E+03 0.  0.
        998    1    1    2    0    0  0.69681221737E+01 -0.18559898139E+02  0.14346948679E+04  0.14348666797E+04  0.10000000000E+02 0.  1.
</event>
<event>
 5    1  0.1252319E-008  0.3731189E+03  0.7957747E-01  0.3481679E+00
         13   -1    0    0    0    0  0.00000000000E+00  0.00000000000E+00  0.14999999963E+04  0.15000000000E+04  0.10566000000E+00 0.  1.
        994   -1    0    0    0    0 -0.00000000000E+00 -0.00000000000E+00  0.11368683772E-12  0.17120000000E+03  0.17120000000E+03 0.  0.
         13    1    1    2    0    0 -0.93168377087E+02 -0.51258724828E+02  0.37890347975E+03  0.39354245195E+03  0.10566000000E+00 0.  1.
        994    1    1    2    0    0  0.83168428492E+02  0.28111265388E+02  0.40365256093E+02  0.19658592177E+03  0.17120000000E+03 0.  0.
        998    1    1    2    0    0  0.99999485958E+01  0.23147459440E+02  0.10807312604E+04  0.10810716263E+04  0.10000000000E+02 0.  1.
</event>
<event>
 5    1  0.1252319E-008  0.3842082E+03  0.7957747E-01  0.3433037E+00
         13   -1    0    0    0    0  0.00000000000E+00  0.00000000000E+00  0.14999999963E+04  0.15000000000E+04  0.10566000000E+00 0.  1.
        994   -1    0    0    0    0 -0.00000000000E+00 -0.00000000000E+00  0.11368683772E-12  0.17120000000E+03  0.17120000000E+03 0.  0.
         13    1    1    2    0    0  0.13310208645E+02  0.38670512354E+01  0.48771726754E+02  0.50703138306E+02  0.10566000000E+00 0.  1.
        994    1    1    2    0    0 -0.37422165113E+01  0.51350886550E+01  0.21569093116E+01  0.17133144947E+03  0.17120000000E+03 0.  0.
        998    1    1    2    0    0 -0.95679921339E+01 -0.90021398904E+01  0.14490713602E+04  0.14491654122E+04  0.10000000000E+02 0.  1.
</event>
<event>
 5    1  0.1252319E-008  0.3736058E+03  0.7957747E-01  0.3479482E+00
         13   -1    0    0    0    0  0.00000000000E+00  0.00000000000E+00  0.14999999963E+04  0.15000000000E+04  0.10566000000E+00 0.  1.
        994   -1    0    0    0    0 -0.00000000000E+00 -0.00000000000E+00  0.11368683772E-12  0.17120000000E+03  0.17120000000E+03 0.  0.
         13    1    1    2    0    0  0.12201598310E+03  0.23561262769E+02  0.68621021079E+03  0.69737185044E+03  0.10566000000E+00 0.  1.
        994    1    1    2    0    0 -0.10519844448E+03 -0.23322283935E+02  0.48150444747E+02  0.20793880585E+03  0.17120000000E+03 0.  0.
        998    1    1    2    0    0 -0.16817538620E+02 -0.23897883406E+00  0.76563934074E+03  0.76588934371E+03  0.10000000000E+02 0.  0.
</event>
<event>
 5    1  0.1252319E-008  0.3745077E+03  0.7957747E-01  0.3475427E+00
         13   -1    0    0    0    0  0.00000000000E+00  0.00000000000E+00  0.14999999963E+04  0.15000000000E+04  0.10566000000E+00 0.  1.
        994   -1    0    0    0    0 -0.00000000000E+00 -0.00000000000E+00  0.11368683772E-12  0.17120000000E+03  0.17120000000E+03 0.  0.
         13    1    1    2    0    0  0.32453760422E+02  0.70114226119E+00  0.70239057930E+02  0.77377481149E+02  0.10566000000E+00 0.  1.
        994    1    1    2    0    0 -0.33377158098E+02  0.13277761601E+02  0.11337798872E+02  0.17529494950E+03  0.17120000000E+03 0.  0.
        998    1    1    2    0    0  0.92339767599E+00 -0.13978903862E+02  0.14184231395E+04  0.14185275694E+04  0.10000000000E+02 0.  1.
</event>
<event>
 5    1  0.1252319E-008  0.4202645E+03  0.7957747E-01  0.3292625E+00
         13   -1    0    0    0    0  0.00000000000E+00  0.00000000000E+00  0.14999999963E+04  0.15000000000E+04  0.10566000000E+00 0.  1.
        994   -1    0    0    0    0 -0.00000000000E+00 -0.00000000000E+00  0.11368683772E-12  0.17120000000E+03  0.17120000000E+03 0.  0.
         13    1    1    2    0    0  0.87510001995E+02 -0.40352346014E+02  0.10977071541E+03  0.14606824913E+03  0.10566000000E+00 0.  1.
        994    1    1    2    0    0 -0.51426044897E+02  0.15518987959E+02  0.52923890773E+02  0.18707179182E+03  0.17120000000E+03 0.  0.
        998    1    1    2    0    0 -0.36083957098E+02  0.24833358056E+02  0.13373053901E+04  0.13380599590E+04  0.10000000000E+02 0.  1.
</event>
<event>
 5    1  0.1252319E-008  0.3815199E+03  0.7957747E-01  0.3444567E+00
         13   -1    0    0    0    0  0.00000000000E+00  0.00000000000E+00  0.14999999963E+04  0.15000000000E+04  0.10566000000E+00 0. -1.
        994   -1    0    0    0    0 -0.00000000000E+00 -0.00000000000E+00  0.11368683772E-12  0.17120000000E+03  0.17120000000E+03 0.  0.
         13    1    1    2    0    0  0.19575138927E+02 -0.19179517150E+01  0.56154856340E+02  0.59499946701E+02  0.10566000000E+00 0. -1.
        994    1    1    2    0    0 -0.12336605631E+02  0.99634706433E+01  0.42047453685E+01  0.17198425064E+03  0.17120000000E+03 0.  0.
        998    1    1    2    0    0 -0.72385332961E+01 -0.80455189283E+01  0.14396403946E+04  0.14397158027E+04  0.10000000000E+02 0. -1.
</event>
<event>
 5    1  0.1252319E-008  0.4152207E+03  0.7957747E-01  0.3310814E+00
         13   -1    0    0    0    0  0.00000000000E+00  0.00000000000E+00  0.14999999963E+04  0.15000000000E+04  0.10566000000E+00 0.  1.
        994   -1    0    0    0    0 -0.00000000000E+00 -0.00000000000E+00  0.11368683772E-12  0.17120000000E+03  0.17120000000E+03 0.  0.
         13    1    1    2    0    0  0.10837030679E+03 -0.40051755684E+02  0.15569364243E+03  0.19387828137E+03  0.10566000000E+00 0.  1.
        994    1    1    2    0    0 -0.10153391172E+03  0.32352504959E+02  0.86486686415E+02  0.21942016027E+03  0.17120000000E+03 0.  0.
        998    1    1    2    0    0 -0.68363950756E+01  0.76992507250E+01  0.12578196674E+04  0.12579015584E+04  0.10000000000E+02 0.  1.
</event>
<event>
 5    1  0.1252319E-008  0.3835189E+03  0.7957747E-01  0.3435978E+00
         13   -1    0    0    0    0  0.00000000000E+00  0.00000000000E+00  0.14999999963E+04  0.15000000000E+04  0.10566000000E+00 0.  1.
        994   -1    0    0    0    0 -0.00000000000E+00 -0.00000000000E+00  0.11368683772E-12  0.17120000000E+03  0.17120000000E+03 0.  0.
         13    1    1    2    0    0 -0.46105620213E+01 -0.10185254187E+02  0.25564457412E+02  0.27902496874E+02  0.10566000000E+00 0.  1.
        994    1    1    2    0    0  0.12555251643E+01  0.86283159163E+01  0.26185422233E+01  0.17144188795E+03  0.17120000000E+03 0.  0.
        998    1    1    2    0    0  0.33550368570E+01  0.15569382709E+01  0.14718169966E+04  0.14718556152E+04  0.10000000000E+02 0.  1.
</event>
<event>
 5    1  0.1252319E-008  0.4283140E+03  0.7957747E-01  0.3264468E+00
         13   -1    0    0    0    0  0.00000000000E+00  0.00000000000E+00  0.14999999963E+04  0.15000000000E+04  0.10566000000E+00 0.  1.
        994   -1    0    0    0    0 -0.00000000000E+00 -0.00000000000E+00  0.11368683772E-12  0.17120000000E+03  0.17120000000E+03 0.  0.
         13    1    1    2    0    0 -0.47633934236E+02  0.81420985529E+01  0.80685611486E+01  0.48993859847E+02  0.10566000000E+00 0.  1.
        994    1    1    2    0    0  0.49685584380E+02  0.44077475989E+02  0.65774409780E+02  0.19505689982E+03  0.17120000000E+03 0.  0.
        998    1    1    2    0    0 -0.20516501439E+01 -0.52219574542E+02  0.14261570254E+04  0.14271492403E+04  0.10000000000E+02 0.  1.
</event>
<event>
 5    1  0.1252319E-008  0.3825751E+03  0.7957747E-01  0.3440022E+00
         13   -1    0    0    0    0  0.00000000000E+00  0.00000000000E+00  0.14999999963E+04  0.15000000000E+04  0.10566000000E+00 0.  1.
        994   -1    0    0    0    0 -0.00000000000E+00 -0.00000000000E+00  0.11368683772E-12  0.17120000000E+03  0.17120000000E+03 0.  0.
         13    1    1    2    0    0 -0.20694936710E+02 -0.51152066904E+01  0.77869587476E+02  0.80734933967E+02  0.10566000000E+00 0.  1.
        994    1    1    2    0    0  0.16091668345E+02  0.39262232090E+01  0.37488205855E+01  0.17204025888E+03  0.17120000000E+03 0.  0.
        998    1    1    2    0    0  0.46032683654E+01  0.11889834814E+01  0.14183815882E+04  0.14184248072E+04  0.10000000000E+02 0.  1.
</event>
<event>
 5    1  0.1252319E-008  0.3687375E+03  0.7957747E-01  0.3501713E+00
         13   -1    0    0    0    0  0.00000000000E+00  0.00000000000E+00  0.14999999963E+04  0.15000000000E+04  0.10566000000E+00 0. -1.
        994   -1    0    0    0    0 -0.00000000000E+00 -0.00000000000E+00  0.11368683772E-12  0.17120000000E+03  0.17120000000E+03 0.  0.
         13    1    1    2    0    0  0.29566700392E+02 -0.70893701865E+02  0.39331059754E+03  0.40074099371E+03  0.10566000000E+00 0. -1.
        994    1    1    2    0    0 -0.30449779888E+02 -0.79847316627E+01  0.13729668579E+02  0.17461067789E+03  0.17120000000E+03 0.  0.
        998    1    1    2    0    0  0.88307949570E+00  0.78878433528E+02  0.10929597302E+04  0.10958483284E+04  0.10000000000E+02 0. -1.
</event>
<event>
 5    1  0.1252319E-008  0.2876370E+03  0.7957747E-01  0.3988434E+00
         13   -1    0    0    0    0  0.00000000000E+00  0.00000000000E+00  0.14999999963E+04  0.15000000000E+04  0.10566000000E+00 0. -1.
        994   -1    0    0    0    0 -0.00000000000E+00 -0.00000000000E+00  0.11368683772E-12  0.17120000000E+03  0.17120000000E+03 0.  0.
         13    1    1    2    0    0  0.13098733948E+03 -0.10422296142E+03  0.59915411194E+03  0.62209787800E+03  0.10566000000E+00 0. -1.
        994    1    1    2    0    0 -0.14733108767E+03  0.63170015700E+02  0.11367864591E+03  0.26063225973E+03  0.17120000000E+03 0.  0.
        998    1    1    2    0    0  0.16343748186E+02  0.41052945722E+02  0.78716723842E+03  0.78846986227E+03  0.10000000000E+02 0.  1.
</event>
<event>
 5    1  0.1252319E-008  0.3163351E+03  0.7957747E-01  0.3785888E+00
         13   -1    0    0    0    0  0.00000000000E+00  0.00000000000E+00  0.14999999963E+04  0.15000000000E+04  0.10566000000E+00 0.  1.
        994   -1    0    0    0    0 -0.00000000000E+00 -0.00000000000E+00  0.11368683772E-12  0.17120000000E+03  0.17120000000E+03 0.  0.
         13    1    1    2    0    0  0.16551393046E+03 -0.11736108326E+03  0.75602472506E+03  0.78277830904E+03  0.10566000000E+00 0.  1.
        994    1    1    2    0    0 -0.17852367713E+03  0.77848046690E+02  0.16388380026E+03  0.30675456257E+03  0.17120000000E+03 0.  0.
        998    1    1    2    0    0  0.13009746670E+02  0.39513036566E+02  0.58009147095E+03  0.58166712838E+03  0.10000000000E+02 0.  1.
</event>
<event>
 5    1  0.1252319E-008  0.3858870E+03  0.7957747E-01  0.3425919E+00
         13   -1    0    0    0    0  0.00000000000E+00  0.00000000000E+00  0.14999999963E+04  0.15000000000E+04  0.10566000000E+00 0.  1.
        994   -1    0    0    0    0 -0.00000000000E+00 -0.00000000000E+00  0.11368683772E-12  0.17120000000E+03  0.17120000000E+03 0.  0.
         13    1    1    2    0    0 -0.77275988590E+01 -0.93043169651E+01  0.63371126861E+02  0.64515091119E+02  0.10566000000E+00 0.  1.
        994    1    1    2    0    0  0.13292525958E+00  0.66824097978E+01  0.13369178417E+01  0.17133563441E+03  0.17120000000E+03 0.  0.
        998    1    1    2    0    0  0.75946735994E+01  0.26219071673E+01  0.14352919516E+04  0.14353492745E+04  0.10000000000E+02 0.  1.
</event>
<event>
 5    1  0.1252319E-008  0.3828851E+03  0.7957747E-01  0.3438692E+00
         13   -1    0    0    0    0  0.00000000000E+00  0.00000000000E+00  0.14999999963E+04  0.15000000000E+04  0.10566000000E+00 0. -1.
        994   -1    0    0    0    0 -0.00000000000E+00 -0.00000000000E+00  0.11368683772E-12  0.17120000000E+03  0.17120000000E+03 0.  0.
         13    1    1    2    0    0 -0.21988074171E+02  0.12862622837E+02  0.12358007368E+03  0.12617831924E+03  0.10566000000E+00 0. -1.
        994    1    1    2    0    0  0.92462786085E+01 -0.67620336934E+01  0.31184473035E+01  0.17161114032E+03  0.17120000000E+03 0.  0.
        998    1    1    2    0    0  0.12741795563E+02 -0.61005891437E+01  0.13733014753E+04  0.13734105404E+04  0.10000000000E+02 0. -1.
</event>
<event>
 5    1  0.1252319E-008  0.3858536E+03  0.7957747E-01  0.3426060E+00
         13   -1    0    0    0    0  0.00000000000E+00  0.00000000000E+00  0.14999999963E+04  0.15000000000E+04  0.10566000000E+00 0.  1.
        994   -1    0    0    0    0 -0.00000000000E+00 -0.00000000000E+00  0.11368683772E-12  0.17120000000E+03  0.17120000000E+03 0.  0.
         13    1    1    2    0    0  0.24773125534E+01 -0.11364614069E+02  0.56712999418E+02  0.57893583387E+02  0.10566000000E+00 0.  1.
        994    1    1    2    0    0  0.10666858976E+01  0.78691005399E+01  0.14137533903E+01  0.17138990420E+03  0.17120000000E+03 0.  0.
        998    1    1    2    0    0 -0.35439984510E+01  0.34955135291E+01  0.14418732435E+04  0.14419165124E+04  0.10000000000E+02 0.  1.
</event>
<event>
 5    1  0.1252319E-008  0.3708096E+03  0.7957747E-01  0.3492179E+00
         13   -1    0    0    0    0  0.00000000000E+00  0.00000000000E+00  0.14999999963E+04  0.15000000000E+04  0.10566000000E+00 0.  1.
        994   -1    0    0    0    0 -0.00000000000E+00 -0.00000000000E+00  0.11368683772E-12  0.17120000000E+03  0.17120000000E+03 0.  0.
         13    1    1    2    0    0 -0.92703064613E+02 -0.55193005825E+02  0.32040641807E+03  0.33808343643E+03  0.10566000000E+00 0.  1.
        994    1    1    2    0    0  0.17892508158E+03  0.35739077010E+02  0.13415170874E+03  0.28389714229E+03  0.17120000000E+03 0.  0.
        998    1    1    2    0    0 -0.86222016965E+02  0.19453928815E+02  0.10454418695E+04  0.10492194213E+04  0.10000000000E+02 0.  1.
</event>
<event>
 5    1  0.1252319E-008  0.3742420E+03  0.7957747E-01  0.3476620E+00
         13   -1    0    0    0    0  0.00000000000E+00  0.00000000000E+00  0.14999999963E+04  0.15000000000E+04  0.10566000000E+00 0.  1.
        994   -1    0    0    0    0 -0.00000000000E+00 -0.00000000000E+00  0.11368683772E-12  0.17120000000E+03  0.17120000000E+03 0.  0.
         13    1    1    2    0    0  0.42793221458E+01 -0.32838125359E+02  0.77341629845E+02  0.84133191703E+02  0.10566000000E+00 0.  1.
        994    1    1    2    0    0 -0.45485012642E+01  0.12007654632E+02  0.76305641715E+01  0.17185033646E+03  0.17120000000E+03 0.  0.
        998    1    1    2    0    0  0.26917911838E+00  0.20830470728E+02  0.14150278023E+04  0.14152164718E+04  0.10000000000E+02 0.  1.
</event>
<event>
 5    1  0.1252319E-008  0.3775306E+03  0.7957747E-01  0.3461982E+00
         13   -1    0    0    0    0  0.00000000000E+00  0.00000000000E+00  0.14999999963E+04  0.15000000000E+04  0.10566000000E+00 0.  1.
        994   -1    0    0    0    0 -0.00000000000E+00 -0.00000000000E+00  0.11368683772E-12  0.17120000000E+03  0.17120000000E+03 0.  0.
         13    1    1    2    0    0  0.14778286379E+02 -0.30181230761E+02  0.11159860610E+03  0.11654854991E+03  0.10566000000E+00 0.  1.
        994    1    1    2    0    0  0.34376712228E+01  0.60323265288E+01  0.55473937383E+01  0.17143051107E+03  0.17120000000E+03 0.  0.
        998    1    1    2    0    0 -0.18215957602E+02  0.24148904232E+02  0.13828539964E+04  0.13832209390E+04  0.10000000000E+02 0.  1.
</event>
<event>
 5    1  0.1252319E-008  0.3789988E+03  0.7957747E-01  0.3455529E+00
         13   -1    0    0    0    0  0.00000000000E+00  0.00000000000E+00  0.14999999963E+04  0.15000000000E+04  0.10566000000E+00 0.  1.
        994   -1    0    0    0    0 -0.00000000000E+00 -0.00000000000E+00  0.11368683772E-12  0.17120000000E+03  0.17120000000E+03 0.  0.
         13    1    1    2    0    0  0.12755190604E+02 -0.37596178484E+01 -0.16928898423E+01  0.13405471038E+02  0.10566000000E+00 0.  1.
        994    1    1    2    0    0 -0.13161248965E+02  0.71100919052E+01  0.16586756658E+02  0.17265089741E+03  0.17120000000E+03 0.  0.
        998    1    1    2    0    0  0.40605836106E+00 -0.33504740568E+01  0.14851061295E+04  0.14851436315E+04  0.10000000000E+02 0.  1.
</event>
<event>
 5    1  0.1252319E-008  0.3038020E+03  0.7957747E-01  0.3869245E+00
         13   -1    0    0    0    0  0.00000000000E+00  0.00000000000E+00  0.14999999963E+04  0.15000000000E+04  0.10566000000E+00 0.  1.
        994   -1    0    0    0    0 -0.00000000000E+00 -0.00000000000E+00  0.11368683772E-12  0.17120000000E+03  0.17120000000E+03 0.  0.
         13    1    1    2    0    0  0.15014948320E+03  0.92185505918E+02  0.78556135919E+03  0.80507744660E+03  0.10566000000E+00 0.  1.
        994    1    1    2    0    0 -0.10956517056E+03 -0.30190604508E+02  0.69587620706E+02  0.21695132209E+03  0.17120000000E+03 0.  0.
        998    1    1    2    0    0 -0.40584312647E+02 -0.61994901410E+02  0.64485101638E+03  0.64917123131E+03  0.10000000000E+02 0.  1.
</event>
<event>
 5    1  0.1252319E-008  0.3789133E+03  0.7957747E-01  0.3455904E+00
         13   -1    0    0    0    0  0.00000000000E+00  0.00000000000E+00  0.14999999963E+04  0.15000000000E+04  0.10566000000E+00 0.  1.
        994   -1    0    0    0    0 -0.00000000000E+00 -0.00000000000E+00  0.11368683772E-12  0.17120000000E+03  0.17120000000E+03 0.  0.
         13    1    1    2    0    0 -0.21081343910E+02  0.16519939364E+01  0.46112046379E+02  0.50729519319E+02  0.10566000000E+00 0.  1.
        994    1    1    2    0    0  0.12813956522E+02 -0.11965633189E+01  0.52385987894E+01  0.17176295341E+03  0.17120000000E+03 0.  0.
        998    1    1    2    0    0  0.82673873882E+01 -0.45543061744E+00  0.14486493511E+04  0.14487075273E+04  0.10000000000E+02 0.  1.
</event>
<event>
 5    1  0.1252319E-008  0.3793466E+03  0.7957747E-01  0.3454009E+00
         13   -1    0    0    0    0  0.00000000000E+00  0.00000000000E+00  0.14999999963E+04  0.15000000000E+04  0.10566000000E+00 0. -1.
        994   -1    0    0    0    0 -0.00000000000E+00 -0.00000000000E+00  0.11368683772E-12  0.17120000000E+03  0.17120000000E+03 0.  0.
         13    1    1    2    0    0 -0.13135411268E+02 -0.35614513495E+02  0.19079077227E+03  0.19453036408E+03  0.10566000000E+00 0. -1.
        994    1    1    2    0    0  0.24476097837E+02 -0.10696171640E+02  0.68573174579E+01  0.17340689218E+03  0.17120000000E+03 0.  0.
        998    1    1    2    0    0 -0.11340686569E+02  0.46310685134E+02  0.13023519065E+04  0.13032627437E+04  0.10000000000E+02 0. -1.
</event>
<event>
 5    1  0.1252319E-008  0.3856750E+03  0.7957747E-01  0.3426814E+00
         13   -1    0    0    0    0  0.00000000000E+00  0.00000000000E+00  0.14999999963E+04  0.15000000000E+04  0.10566000000E+00 0. -1.
        994   -1    0    0    0    0 -0.00000000000E+00 -0.00000000000E+00  0.11368683772E-12  0.17120000000E+03  0.17120000000E+03 0.  0.
         13    1    1    2    0    0  0.27943981111E+01 -0.12212678008E+02  0.60230109839E+02  0.61519390928E+02  0.10566000000E+00 0. -1.
        994    1    1    2    0    0 -0.12899709296E+02  0.77327243631E+01  0.20379824875E+01  0.17187143712E+03  0.17120000000E+03 0.  0.
        998    1    1    2    0    0  0.10105311185E+02  0.44799536450E+01  0.14377319040E+04  0.14378091719E+04  0.10000000000E+02 0. -1.
</event>
<event>
 5    1  0.1252319E-008  0.3819227E+03  0.7957747E-01  0.3442829E+00
         13   -1    0    0    0    0  0.00000000000E+00  0.00000000000E+00  0.14999999963E+04  0.15000000000E+04  0.10566000000E+00 0.  1.
        994   -1    0    0    0    0 -0.00000000000E+00 -0.00000000000E+00  0.11368683772E-12  0.17120000000E+03  0.17120000000E+03 0.  0.
         13    1    1    2    0    0 -0.17615990994E+02  0.24327167672E+01  0.48553975036E+02  0.51708228604E+02  0.10566000000E+00 0.  1.
        994    1    1    2    0    0  0.12247273807E+02 -0.80862944695E+01  0.38815109618E+01  0.17187172543E+03  0.17120000000E+03 0.  0.
        998    1    1    2    0    0  0.53687171866E+01  0.56535777023E+01  0.14475645103E+04  0.14476200460E+04  0.10000000000E+02 0.  1.
</event>
<event>
 5    1  0.1252319E-008  0.3832294E+03  0.7957747E-01  0.3437216E+00
         13   -1    0    0    0    0  0.00000000000E+00  0.00000000000E+00  0.14999999963E+04  0.15000000000E+04  0.10566000000E+00 0.  1.
        994   -1    0    0    0    0 -0.00000000000E+00 -0.00000000000E+00  0.11368683772E-12  0.17120000000E+03  0.17120000000E+03 0.  0.
         13    1    1    2    0    0  0.12015654748E+02 -0.38591523406E+01  0.31272101331E+02  0.33722759399E+02  0.10566000000E+00 0.  1.
        994    1    1    2    0    0 -0.67323124165E+01 -0.35321105090E+01  0.27029512461E+01  0.17139003991E+03  0.17120000000E+03 0.  0.
        998    1    1    2    0    0 -0.52833423311E+01  0.73912628496E+01  0.14660249437E+04  0.14660872007E+04  0.10000000000E+02 0.  1.
</event>
<event>
 5    1  0.1252319E-008  0.3856212E+03  0.7957747E-01  0.3427042E+00
         13   -1    0    0    0    0  0.00000000000E+00  0.00000000000E+00  0.14999999963E+04  0.15000000000E+04  0.10566000000E+00 0.  1.
        994   -1    0    0    0    0 -0.00000000000E+00 -0.00000000000E+00  0.11368683772E-12  0.17120000000E+03  0.17120000000E+03 0.  0.
         13    1    1    2    0    0  0.83713283575E+01 -0.91465935658E+01  0.71882240568E+02  0.72943861877E+02  0.10566000000E+00 0.  1.
        994    1    1    2    0    0  0.22105851587E+02 -0.45549198997E+01  0.29957457874E+01  0.17270735498E+03  0.17120000000E+03 0.  0.
        998    1    1    2    0    0 -0.30477179944E+02  0.13701513466E+02  0.14251220099E+04  0.14255487831E+04  0.10000000000E+02 0.  1.
</event>
<event>
 5    1  0.1252319E-008  0.3792270E+03  0.7957747E-01  0.3454531E+00
         13   -1    0    0    0    0  0.00000000000E+00  0.00000000000E+00  0.14999999963E+04  0.15000000000E+04  0.10566000000E+00 0.  1.
        994   -1    0    0    0    0 -0.00000000000E+00 -0.00000000000E+00  0.11368683772E-12  0.17120000000E+03  0.17120000000E+03 0.  0.
         13    1    1    2    0    0  0.73068726792E+01  0.71826273334E+01  0.96219260195E+01  0.14056071575E+02  0.10566000000E+00 0.  1.
        994    1    1    2    0    0 -0.57156337884E+01 -0.22065272870E+01  0.46496633650E+01  0.17137268336E+03  0.17120000000E+03 0.  0.
        998    1    1    2    0    0 -0.15912388908E+01 -0.49761000463E+01  0.14857284069E+04  0.14857712451E+04  0.10000000000E+02 0.  1.
</event>
<event>
 5    1  0.1252319E-008  0.3807163E+03  0.7957747E-01  0.3448045E+00
         13   -1    0    0    0    0  0.00000000000E+00  0.00000000000E+00  0.14999999963E+04  0.15000000000E+04  0.10566000000E+00 0.  1.
        994   -1    0    0    0    0 -0.00000000000E+00 -0.00000000000E+00  0.11368683772E-12  0.17120000000E+03  0.17120000000E+03 0.  0.
         13    1    1    2    0    0 -0.13151174017E+02  0.20588939164E+02  0.75045012557E+02  0.78921624841E+02  0.10566000000E+00 0.  1.
        994    1    1    2    0    0  0.40920979509E+02 -0.20222260755E+01  0.93905516830E+01  0.17628453824E+03  0.17120000000E+03 0.  0.
        998    1    1    2    0    0 -0.27769805492E+02 -0.18566713089E+02  0.14155644320E+04  0.14159938369E+04  0.10000000000E+02 0.  1.
</event>
<event>
 5    1  0.1252319E-008  0.3806939E+03  0.7957747E-01  0.3448143E+00
         13   -1    0    0    0    0  0.00000000000E+00  0.00000000000E+00  0.14999999963E+04  0.15000000000E+04  0.10566000000E+00 0.  1.
        994   -1    0    0    0    0 -0.00000000000E+00 -0.00000000000E+00  0.11368683772E-12  0.17120000000E+03  0.17120000000E+03 0.  0.
         13    1    1    2    0    0  0.18253009790E+02  0.13969056108E+02  0.63237788113E+02  0.67285480636E+02  0.10566000000E+00 0.  1.
        994    1    1    2    0    0 -0.30448729707E+02 -0.14892089273E+02  0.76246603049E+01  0.17468965312E+03  0.17120000000E+03 0.  0.
        998    1    1    2    0    0  0.12195719917E+02  0.92303316546E+00  0.14291375479E+04  0.14292248662E+04  0.10000000000E+02 0.  1.
</event>
<event>
 5    1  0.1252319E-008  0.3850535E+03  0.7957747E-01  0.3429445E+00
         13   -1    0    0    0    0  0.00000000000E+00  0.00000000000E+00  0.14999999963E+04  0.15000000000E+04  0.10566000000E+00 0.  1.
        994   -1    0    0    0    0 -0.00000000000E+00 -0.00000000000E+00  0.11368683772E-12  0.17120000000E+03  0.17120000000E+03 0.  0.
         13    1    1    2    0    0 -0.98557826280E+01  0.18029446198E+01  0.30534098238E+02  0.32136107104E+02  0.10566000000E+00 0.  1.
        994    1    1    2    0    0  0.11506488741E+02  0.20840053362E+01  0.20533388448E+01  0.17161118426E+03  0.17120000000E+03 0.  0.
        998    1    1    2    0    0 -0.16507061128E+01 -0.38869499560E+01  0.14674125592E+04  0.14674527086E+04  0.10000000000E+02 0.  1.
</event>
<event>
 5    1  0.1252319E-008  0.3847116E+03  0.7957747E-01  0.3430896E+00
         13   -1    0    0    0    0  0.00000000000E+00  0.00000000000E+00  0.14999999963E+04  0.15000000000E+04  0.10566000000E+00 0. -1.
        994   -1    0    0    0    0 -0.00000000000E+00 -0.00000000000E+00  0.11368683772E-12  0.17120000000E+03  0.17120000000E+03 0.  0.
         13    1    1    2    0    0  0.32211363708E+01 -0.11023324690E+02  0.38295921778E+02  0.39980972919E+02  0.10566000000E+00 0. -1.
        994    1    1    2    0    0 -0.71111434432E+01 -0.20056484443E+01  0.19531169666E+01  0.17137049236E+03  0.17120000000E+03 0.  0.
        998    1    1    2    0    0  0.38900070723E+01  0.13028973134E+02  0.14597509575E+04  0.14598485347E+04  0.10000000000E+02 0. -1.
</event>
<event>
 5    1  0.1252319E-008  0.3824649E+03  0.7957747E-01  0.3440496E+00
         13   -1    0    0    0    0  0.00000000000E+00  0.00000000000E+00  0.14999999963E+04  0.15000000000E+04  0.10566000000E+00 0.  1.
        994   -1    0    0    0    0 -0.00000000000E+00 -0.00000000000E+00  0.11368683772E-12  0.17120000000E+03  0.17120000000E+03 0.  0.
         13    1    1    2    0    0  0.20352486416E+02 -0.31222302180E+02  0.20570607197E+03  0.20905514838E+03  0.10566000000E+00 0.  1.
        994    1    1    2    0    0 -0.33631515425E+02  0.25148953556E+02  0.87639374761E+01  0.17649304602E+03  0.17120000000E+03 0.  0.
        998    1    1    2    0    0  0.13279029008E+02  0.60733486240E+01  0.12855299868E+04  0.12856518056E+04  0.10000000000E+02 0.  1.
</event>
<event>
 5    1  0.1252319E-008  0.3857001E+03  0.7957747E-01  0.3426708E+00
         13   -1    0    0    0    0  0.00000000000E+00  0.00000000000E+00  0.14999999963E+04  0.15000000000E+04  0.10566000000E+00 0. -1.
        994   -1    0    0    0    0 -0.00000000000E+00 -0.00000000000E+00  0.11368683772E-12  0.17120000000E+03  0.17120000000E+03 0.  0.
         13    1    1    2    0    0  0.13335659290E+02  0.20922345960E+01  0.64473076724E+02  0.65871132073E+02  0.10566000000E+00 0. -1.
        994    1    1    2    0    0 -0.23869469677E+02 -0.23422343143E+01  0.31726774614E+01  0.17290096450E+03  0.17120000000E+03 0.  0.
        998    1    1    2    0    0  0.10533810387E+02  0.24999971828E+00  0.14323542421E+04  0.14324279034E+04  0.10000000000E+02 0. -1.
</event>
<event>
 5    1  0.1252319E-008  0.3761746E+03  0.7957747E-01  0.3467986E+00
         13   -1    0    0    0    0  0.00000000000E+00  0.00000000000E+00  0.14999999963E+04  0.15000000000E+04  0.10566000000E+00 0.  1.
        994   -1    0    0    0    0 -0.00000000000E+00 -0.00000000000E+00  0.11368683772E-12  0.17120000000E+03  0.17120000000E+03 0.  0.
         13    1    1    2    0    0  0.80115985055E+02  0.27355282785E+02  0.42151543388E+03  0.42993273278E+03  0.10566000000E+00 0.  1.
        994    1    1    2    0    0 -0.76751982789E+02 -0.36184871215E+02  0.30858373152E+02  0.19355074518E+03  0.17120000000E+03 0.  0.
        998    1    1    2    0    0 -0.33640022653E+01  0.88295884308E+01  0.10476261893E+04  0.10477165220E+04  0.10000000000E+02 0.  1.
</event>
<event>
 5    1  0.1252319E-008  0.3851005E+03  0.7957747E-01  0.3429246E+00
         13   -1    0    0    0    0  0.00000000000E+00  0.00000000000E+00  0.14999999963E+04  0.15000000000E+04  0.10566000000E+00 0.  1.
        994   -1    0    0    0    0 -0.00000000000E+00 -0.00000000000E+00  0.11368683772E-12  0.17120000000E+03  0.17120000000E+03 0.  0.
         13    1    1    2    0    0 -0.36328190210E+01  0.95085107019E+01  0.33902571543E+02  0.35397806021E+02  0.10566000000E+00 0.  1.
        994    1    1    2    0    0  0.52192019247E+01  0.32290921651E+01  0.17040772946E+01  0.17131844905E+03  0.17120000000E+03 0.  0.
        998    1    1    2    0    0 -0.15863829036E+01 -0.12737602867E+02  0.14643933474E+04  0.14644837449E+04  0.10000000000E+02 0.  1.
</event>
<event>
 5    1  0.1252319E-008  0.3750794E+03  0.7957747E-01  0.3472868E+00
         13   -1    0    0    0    0  0.00000000000E+00  0.00000000000E+00  0.14999999963E+04  0.15000000000E+04  0.10566000000E+00 0.  1.
        994   -1    0    0    0    0 -0.00000000000E+00 -0.00000000000E+00  0.11368683772E-12  0.17120000000E+03  0.17120000000E+03 0.  0.
         13    1    1    2    0    0 -0.97519502470E+02  0.99217870758E+02  0.47905576527E+03  0.49884734803E+03  0.10566000000E+00 0.  1.
        994    1    1    2    0    0  0.83893932944E+02 -0.10432225935E+03  0.80520939075E+02  0.23176364558E+03  0.17120000000E+03 0.  0.
        998    1    1    2    0    0  0.13625569526E+02  0.51043885933E+01  0.94042329194E+03  0.94058900639E+03  0.10000000000E+02 0.  1.
</event>
<event>
 5    1  0.1252319E-008  0.3790750E+03  0.7957747E-01  0.3455196E+00
         13   -1    0    0    0    0  0.00000000000E+00  0.00000000000E+00  0.14999999963E+04  0.15000000000E+04  0.10566000000E+00 0.  1.
        994   -1    0    0    0    0 -0.00000000000E+00 -0.00000000000E+00  0.11368683772E-12  0.17120000000E+03  0.17120000000E+03 0.  0.
         13    1    1    2    0    0  0.28649852342E+02 -0.13480849638E+03  0.79689418057E+03  0.80872398933E+03  0.10566000000E+00 0.  1.
        994    1    1    2    0    0 -0.49955617549E+02  0.13759265044E+03  0.80170541264E+02  0.23909006016E+03  0.17120000000E+03 0.  0.
        998    1    1    2    0    0  0.21305765207E+02 -0.27841540564E+01  0.62293527445E+03  0.62338595051E+03  0.10000000000E+02 0. -1.
</event>
<event>
 5    1  0.1252319E-008  0.3781891E+03  0.7957747E-01  0.3459082E+00
         13   -1    0    0    0    0  0.00000000000E+00  0.00000000000E+00  0.14999999963E+04  0.15000000000E+04  0.10566000000E+00 0. -1.
        994   -1    0    0    0    0 -0.00000000000E+00 -0.00000000000E+00  0.11368683772E-12  0.17120000000E+03  0.17120000000E+03 0.  0.
         13    1    1    2    0    0  0.11376909053E+02  0.38382596266E+02  0.14165747087E+03  0.14720566556E+03  0.10566000000E+00 0. -1.
        994    1    1    2    0    0 -0.13728028835E+02 -0.39779585874E+02  0.11028810881E+02  0.17664073397E+03  0.17120000000E+03 0.  0.
        998    1    1    2    0    0  0.23511197818E+01  0.13969896079E+01  0.13473137145E+04  0.13473536005E+04  0.10000000000E+02 0. -1.
</event>
<event>
 5    1  0.1252319E-008  0.3838137E+03  0.7957747E-01  0.3434719E+00
         13   -1    0    0    0    0  0.00000000000E+00  0.00000000000E+00  0.14999999963E+04  0.15000000000E+04  0.10566000000E+00 0.  1.
        994   -1    0    0    0    0 -0.00000000000E+00 -0.00000000000E+00  0.11368683772E-12  0.17120000000E+03  0.17120000000E+03 0.  0.
         13    1    1    2    0    0 -0.14148892470E+02 -0.88154191727E+00  0.44498801883E+02  0.46702492517E+02  0.10566000000E+00 0.  1.
        994    1    1    2    0    0  0.10281235756E+02  0.32161661339E+01  0.26034684793E+01  0.17155834454E+03  0.17120000000E+03 0.  0.
        998    1    1    2    0    0  0.38676567135E+01 -0.23346242167E+01  0.14528977259E+04  0.14529391629E+04  0.10000000000E+02 0.  1.
</event>
<event>
 5    1  0.1252319E-008  0.3799864E+03  0.7957747E-01  0.3451218E+00
         13   -1    0    0    0    0  0.00000000000E+00  0.00000000000E+00  0.14999999963E+04  0.15000000000E+04  0.10566000000E+00 0.  1.
        994   -1    0    0    0    0 -0.00000000000E+00 -0.00000000000E+00  0.11368683772E-12  0.17120000000E+03  0.17120000000E+03 0.  0.
         13    1    1    2    0    0  0.38523413253E+02 -0.18084067904E+02  0.19036803899E+03  0.19506688164E+03  0.10566000000E+00 0.  1.
        994    1    1    2    0    0 -0.41852095234E+02  0.13083470441E+02  0.10594904387E+02  0.17704368691E+03  0.17120000000E+03 0.  0.
        998    1    1    2    0    0  0.33286819812E+01  0.50005974635E+01  0.12990370529E+04  0.12990894314E+04  0.10000000000E+02 0.  1.
</event>
<event>
 5    1  0.1252319E-008  0.3856001E+03  0.7957747E-01  0.3427131E+00
         13   -1    0    0    0    0  0.00000000000E+00  0.00000000000E+00  0.14999999963E+04  0.15000000000E+04  0.10566000000E+00 0.  1.
        994   -1    0    0    0    0 -0.00000000000E+00 -0.00000000000E+00  0.11368683772E-12  0.17120000000E+03  0.17120000000E+03 0.  0.
         13    1    1    2    0    0  0.30850493425E+01  0.15581255107E+02  0.92020241156E+02  0.93381095446E+02  0.10566000000E+00 0.  1.
        994    1    1    2    0    0 -0.48753682530E+01 -0.13736548581E+02  0.20301442052E+01  0.17183138092E+03  0.17120000000E+03 0.  0.
        998    1    1    2    0    0  0.17903189106E+01 -0.18447065262E+01  0.14059496109E+04  0.14059875236E+04  0.10000000000E+02 0.  1.
</event>
<event>
 5    1  0.1252319E-008  0.3064594E+03  0.7957747E-01  0.3850957E+00
         13   -1    0    0    0    0  0.00000000000E+00  0.00000000000E+00  0.14999999963E+04  0.15000000000E+04  0.10566000000E+00 0. -1.
        994   -1    0    0    0    0 -0.00000000000E+00 -0.00000000000E+00  0.11368683772E-12  0.17120000000E+03  0.17120000000E+03 0.  0.
         13    1    1    2    0    0 -0.18272161198E+03 -0.16904299329E+03  0.85599082897E+03  0.89144996019E+03  0.10566000000E+00 0. -1.
        994    1    1    2    0    0  0.11079443309E+03  0.63290335270E+02  0.13001542813E+03  0.24998904875E+03  0.17120000000E+03 0.  0.
        998    1    1    2    0    0  0.71927178896E+02  0.10575265802E+03  0.51399373918E+03  0.52976099107E+03  0.10000000000E+02 0.  1.
</event>
<event>
 5    1  0.1252319E-008  0.3720852E+03  0.7957747E-01  0.3486362E+00
         13   -1    0    0    0    0  0.00000000000E+00  0.00000000000E+00  0.14999999963E+04  0.15000000000E+04  0.10566000000E+00 0. -1.
        994   -1    0    0    0    0 -0.00000000000E+00 -0.00000000000E+00  0.11368683772E-12  0.17120000000E+03  0.17120000000E+03 0.  0.
         13    1    1    2    0    0 -0.10508732143E+02  0.84236899264E+01  0.75382730226E+01  0.15434659939E+02  0.10566000000E+00 0. -1.
        994    1    1    2    0    0 -0.15229741940E+02 -0.18151564881E+02  0.10112972538E+02  0.17312751532E+03  0.17120000000E+03 0.  0.
        998    1    1    2    0    0  0.25738474083E+02  0.97278749547E+01  0.14823487507E+04  0.14826378247E+04  0.10000000000E+02 0. -1.
</event>
<event>
 5    1  0.1252319E-008  0.3813892E+03  0.7957747E-01  0.3445132E+00
         13   -1    0    0    0    0  0.00000000000E+00  0.00000000000E+00  0.14999999963E+04  0.15000000000E+04  0.10566000000E+00 0.  1.
        994   -1    0    0    0    0 -0.00000000000E+00 -0.00000000000E+00  0.11368683772E-12  0.17120000000E+03  0.17120000000E+03 0.  0.
         13    1    1    2    0    0  0.96048070220E+01  0.48359807439E+01  0.15272756405E+02  0.18679059932E+02  0.10566000000E+00 0.  1.
        994    1    1    2    0    0 -0.81374863011E+01 -0.82063548580E+01  0.38780798722E+01  0.17163345375E+03  0.17120000000E+03 0.  0.
        998    1    1    2    0    0 -0.14673207209E+01  0.33703741141E+01  0.14808491600E+04  0.14808874863E+04  0.10000000000E+02 0.  1.
</event>
<event>
 5    1  0.1252319E-008  0.3846388E+03  0.7957747E-01  0.3431206E+00
         13   -1    0    0    0    0  0.00000000000E+00  0.00000000000E+00  0.14999999963E+04  0.15000000000E+04  0.10566000000E+00 0. -1.
        994   -1    0    0    0    0 -0.00000000000E+00 -0.00000000000E+00  0.11368683772E-12  0.17120000000E+03  0.17120000000E+03 0.  0.
         13    1    1    2    0    0  0.14879521173E+02  0.78643758015E+01  0.83199041964E+02  0.84884275958E+02  0.10566000000E+00 0. -1.
        994    1    1    2    0    0 -0.37516228344E+01  0.33113466624E+01  0.18920223041E+01  0.17128356442E+03  0.17120000000E+03 0.  0.
        998    1    1    2    0    0 -0.11127898339E+02 -0.11175722464E+02  0.14149089320E+04  0.14150321596E+04  0.10000000000E+02 0. -1.
</event>
<event>
 5    1  0.1252319E-008  0.3812591E+03  0.7957747E-01  0.3445694E+00
         13   -1    0    0    0    0  0.00000000000E+00  0.00000000000E+00  0.14999999963E+04  0.15000000000E+04  0.10566000000E+00 0.  1.
        994   -1    0    0    0    0 -0.00000000000E+00 -0.00000000000E+00  0.11368683772E-12  0.17120000000E+03  0.17120000000E+03 0.  0.
         13    1    1    2    0    0  0.20330449580E+02 -0.36144531692E+02  0.45302716952E+02  0.61417437903E+02  0.10566000000E+00 0.  1.
        994    1    1    2    0    0 -0.74358195300E+01  0.18137788296E+02  0.18420684590E+02  0.17330041084E+03  0.17120000000E+03 0.  0.
        998    1    1    2    0    0 -0.12894630050E+02  0.18006743396E+02  0.14362765947E+04  0.14364821513E+04  0.10000000000E+02 0.  1.
</event>
<event>
 5    1  0.1252319E-008  0.3859631E+03  0.7957747E-01  0.3425598E+00
         13   -1    0    0    0    0  0.00000000000E+00  0.00000000000E+00  0.14999999963E+04  0.15000000000E+04  0.10566000000E+00 0.  1.
        994   -1    0    0    0    0 -0.00000000000E+00 -0.00000000000E+00  0.11368683772E-12  0.17120000000E+03  0.17120000000E+03 0.  0.
         13    1    1    2    0    0 -0.27991572525E+01 -0.12067133506E+02  0.67051720175E+02  0.68186474720E+02  0.10566000000E+00 0.  1.
        994    1    1    2    0    0  0.36415951773E+01  0.81075437065E+01  0.14117646951E+01  0.17143636300E+03  0.17120000000E+03 0.  0.
        998    1    1    2    0    0 -0.84243792482E+00  0.39595897999E+01  0.14315365114E+04  0.14315771623E+04  0.10000000000E+02 0.  1.
</event>
<event>
 5    1  0.1252319E-008  0.3825424E+03  0.7957747E-01  0.3440163E+00
         13   -1    0    0    0    0  0.00000000000E+00  0.00000000000E+00  0.14999999963E+04  0.15000000000E+04  0.10566000000E+00 0. -1.
        994   -1    0    0    0    0 -0.00000000000E+00 -0.00000000000E+00  0.11368683772E-12  0.17120000000E+03  0.17120000000E+03 0.  0.
         13    1    1    2    0    0  0.23255725978E+02 -0.34578236785E+01  0.94577510072E+02  0.97456153786E+02  0.10566000000E+00 0. -1.
        994    1    1    2    0    0 -0.17573594160E+02 -0.25054402662E+01  0.39005435319E+01  0.17216202451E+03  0.17120000000E+03 0.  0.
        998    1    1    2    0    0 -0.56821318176E+01  0.59632639447E+01  0.14015219427E+04  0.14015818217E+04  0.10000000000E+02 0. -1.
</event>
<event>
 5    1  0.1252319E-008  0.3843634E+03  0.7957747E-01  0.3432376E+00
         13   -1    0    0    0    0  0.00000000000E+00  0.00000000000E+00  0.14999999963E+04  0.15000000000E+04  0.10566000000E+00 0.  1.
        994   -1    0    0    0    0 -0.00000000000E+00 -0.00000000000E+00  0.11368683772E-12  0.17120000000E+03  0.17120000000E+03 0.  0.
         13    1    1    2    0    0 -0.30232576942E+01  0.17883927397E+02  0.82057725761E+02  0.84038422566E+02  0.10566000000E+00 0.  1.
        994    1    1    2    0    0  0.19891296495E+00 -0.15849633319E+02  0.27749225091E+01  0.17195461796E+03  0.17120000000E+03 0.  0.
        998    1    1    2    0    0  0.28243447293E+01 -0.20342940779E+01  0.14151673480E+04  0.14152069595E+04  0.10000000000E+02 0.  1.
</event>
<event>
 5    1  0.1252319E-008  0.3737596E+03  0.7957747E-01  0.3478789E+00
         13   -1    0    0    0    0  0.00000000000E+00  0.00000000000E+00  0.14999999963E+04  0.15000000000E+04  0.10566000000E+00 0. -1.
        994   -1    0    0    0    0 -0.00000000000E+00 -0.00000000000E+00  0.11368683772E-12  0.17120000000E+03  0.17120000000E+03 0.  0.
         13    1    1    2    0    0  0.37559256719E+02  0.12264593536E+02  0.52303261769E+02  0.65549678684E+02  0.10566000000E+00 0. -1.
        994    1    1    2    0    0 -0.47361220326E+02 -0.11054408392E+02  0.21367731649E+02  0.17925207137E+03  0.17120000000E+03 0.  0.
        998    1    1    2    0    0  0.98019636068E+01 -0.12101851433E+01  0.14263290029E+04  0.14263982499E+04  0.10000000000E+02 0. -1.
</event>
<event>
 5    1  0.1252319E-008  0.3752382E+03  0.7957747E-01  0.3472158E+00
         13   -1    0    0    0    0  0.00000000000E+00  0.00000000000E+00  0.14999999963E+04  0.15000000000E+04  0.10566000000E+00 0.  1.
        994   -1    0    0    0    0 -0.00000000000E+00 -0.00000000000E+00  0.11368683772E-12  0.17120000000E+03  0.17120000000E+03 0.  0.
         13    1    1    2    0    0  0.28378071053E+02 -0.34202039301E+02  0.13285152250E+03  0.14008794596E+03  0.10566000000E+00 0.  1.
        994    1    1    2    0    0 -0.32165866744E+02  0.37408048811E+02  0.14868753770E+02  0.17878625489E+03  0.17120000000E+03 0.  0.
        998    1    1    2    0    0  0.37877956908E+01 -0.32060095097E+01  0.13522797200E+04  0.13523257991E+04  0.10000000000E+02 0.  1.
</event>
<event>
 5    1  0.1252319E-008  0.3745519E+03  0.7957747E-01  0.3475229E+00
         13   -1    0    0    0    0  0.00000000000E+00  0.00000000000E+00  0.14999999963E+04  0.15000000000E+04  0.10566000000E+00 0.  1.
        994   -1    0    0    0    0 -0.00000000000E+00 -0.00000000000E+00  0.11368683772E-12  0.17120000000E+03  0.17120000000E+03 0.  0.
         13    1    1    2    0    0 -0.15512665350E+02 -0.28914991483E+02  0.72644486754E+02  0.79711681318E+02  0.10566000000E+00 0.  1.
        994    1    1    2    0    0  0.14888574799E+02  0.27098011300E+02  0.10170375305E+02  0.17426660153E+03  0.17120000000E+03 0.  0.
        998    1    1    2    0    0  0.62409055130E+00  0.18169801822E+01  0.14171851342E+04  0.14172217171E+04  0.10000000000E+02 0.  1.
</event>
<event>
 5    1  0.1252319E-008  0.3845848E+03  0.7957747E-01  0.3431435E+00
         13   -1    0    0    0    0  0.00000000000E+00  0.00000000000E+00  0.14999999963E+04  0.15000000000E+04  0.10566000000E+00 0.  1.
        994   -1    0    0    0    0 -0.00000000000E+00 -0.00000000000E+00  0.11368683772E-12  0.17120000000E+03  0.17120000000E+03 0.  0.
         13    1    1    2    0    0 -0.26744537921E+01  0.32333156899E+02  0.17948027957E+03  0.18238905575E+03  0.10566000000E+00 0.  1.
        994    1    1    2    0    0 -0.11193601638E+01 -0.69991381000E+02  0.18142759208E+02  0.18584575888E+03  0.17120000000E+03 0.  0.
        998    1    1    2    0    0  0.37938139559E+01  0.37658224100E+02  0.13023769575E+04  0.13029651854E+04  0.10000000000E+02 0.  1.
</event>
<event>
 5    1  0.1252319E-008  0.3731012E+03  0.7957747E-01  0.3481758E+00
         13   -1    0    0    0    0  0.00000000000E+00  0.00000000000E+00  0.14999999963E+04  0.15000000000E+04  0.10566000000E+00 0.  1.
        994   -1    0    0    0    0 -0.00000000000E+00 -0.00000000000E+00  0.11368683772E-12  0.17120000000E+03  0.17120000000E+03 0.  0.
         13    1    1    2    0    0  0.19569918680E+02  0.97765669075E+01  0.28335768417E+02  0.35797903758E+02  0.10566000000E+00 0.  1.
        994    1    1    2    0    0 -0.15268181734E+02  0.48724791351E+01  0.85362500457E+01  0.17216029156E+03  0.17120000000E+03 0.  0.
        998    1    1    2    0    0 -0.43017369467E+01 -0.14649046043E+02  0.14631279778E+04  0.14632418047E+04  0.10000000000E+02 0.  1.
</event>
<event>
 5    1  0.1977929E-008  0.3861587E+03  0.7957747E-01  0.3424773E+00
         13   -1    0    0    0    0  0.00000000000E+00  0.00000000000E+00  0.14999999963E+04  0.15000000000E+04  0.10566000000E+00 0.  1.
        994   -1    0    0    0    0 -0.00000000000E+00 -0.00000000000E+00  0.11368683772E-12  0.17120000000E+03  0.17120000000E+03 0.  0.
         13    1    1    2    0    0 -0.11048907919E+02  0.29416833820E+01  0.60382777909E+02  0.61455861392E+02  0.10566000000E+00 0.  1.
        994    1    1    2    0    0  0.12194744828E+02 -0.43706691455E+01  0.16059397308E+01  0.17169692366E+03  0.17120000000E+03 0.  0.
        998    1    1    2    0    0 -0.11458369089E+01  0.14289857634E+01  0.14380112786E+04  0.14380472150E+04  0.10000000000E+02 0.  1.
</event>
<event>
 5    1  0.1252319E-008  0.3819531E+03  0.7957747E-01  0.3442698E+00
         13   -1    0    0    0    0  0.00000000000E+00  0.00000000000E+00  0.14999999963E+04  0.15000000000E+04  0.10566000000E+00 0.  1.
        994   -1    0    0    0    0 -0.00000000000E+00 -0.00000000000E+00  0.11368683772E-12  0.17120000000E+03  0.17120000000E+03 0.  0.
         13    1    1    2    0    0  0.23939471113E+02  0.11127623504E+02  0.11512052643E+03  0.11810871709E+03  0.10566000000E+00 0.  1.
        994    1    1    2    0    0 -0.73718778404E+01 -0.35769962325E+01  0.33735165563E+01  0.17142916934E+03  0.17120000000E+03 0.  0.
        998    1    1    2    0    0 -0.16567593272E+02 -0.75506272711E+01  0.13815059533E+04  0.13816621136E+04  0.10000000000E+02 0.  1.
</event>
<event>
 5    1  0.1252319E-008  0.3766784E+03  0.7957747E-01  0.3465750E+00
         13   -1    0    0    0    0  0.00000000000E+00  0.00000000000E+00  0.14999999963E+04  0.15000000000E+04  0.10566000000E+00 0.  1.
        994   -1    0    0    0    0 -0.00000000000E+00 -0.00000000000E+00  0.11368683772E-12  0.17120000000E+03  0.17120000000E+03 0.  0.
         13    1    1    2    0    0  0.67127828697E+01  0.21135435270E+02  0.38340585469E+02  0.44291982751E+02  0.10566000000E+00 0.  1.
        994    1    1    2    0    0 -0.59096172211E+01 -0.27844217759E+02  0.85627998522E+01  0.17376128907E+03  0.17120000000E+03 0.  0.
        998    1    1    2    0    0 -0.80316564865E+00  0.67087824893E+01  0.14530966110E+04  0.14531467282E+04  0.10000000000E+02 0.  1.
</event>
<event>
 5    1  0.1252319E-008  0.3845729E+03  0.7957747E-01  0.3431485E+00
         13   -1    0    0    0    0  0.00000000000E+00  0.00000000000E+00  0.14999999963E+04  0.15000000000E+04  0.10566000000E+00 0.  1.
        994   -1    0    0    0    0 -0.00000000000E+00 -0.00000000000E+00  0.11368683772E-12  0.17120000000E+03  0.17120000000E+03 0.  0.
         13    1    1    2    0    0 -0.28984277311E+01 -0.99926797262E+01  0.28798760392E+02  0.30620814744E+02  0.10566000000E+00 0.  1.
        994    1    1    2    0    0  0.34027778534E+01  0.79426671342E+01  0.20882449930E+01  0.17143064378E+03  0.17120000000E+03 0.  0.
        998    1    1    2    0    0 -0.50435012230E+00  0.20500125920E+01  0.14691129909E+04  0.14691485415E+04  0.10000000000E+02 0.  1.
</event>
<event>
 5    1  0.1252319E-008  0.3787894E+03  0.7957747E-01  0.3456447E+00
         13   -1    0    0    0    0  0.00000000000E+00  0.00000000000E+00  0.14999999963E+04  0.15000000000E+04  0.10566000000E+00 0.  1.
        994   -1    0    0    0    0 -0.00000000000E+00 -0.00000000000E+00  0.11368683772E-12  0.17120000000E+03  0.17120000000E+03 0.  0.
         13    1    1    2    0    0  0.47288711220E+02  0.22513672499E+01  0.24100352441E+03  0.24560944771E+03  0.10566000000E+00 0.  1.
        994    1    1    2    0    0 -0.23994120449E+02  0.62626782879E+01  0.68121611289E+01  0.17312072231E+03  0.17120000000E+03 0.  0.
        998    1    1    2    0    0 -0.23294590771E+02 -0.85140455378E+01  0.12521843107E+04  0.12524698300E+04  0.10000000000E+02 0.  1.
</event>
<event>
 5    1  0.1252319E-008  0.3781187E+03  0.7957747E-01  0.3459391E+00
         13   -1    0    0    0    0  0.00000000000E+00  0.00000000000E+00  0.14999999963E+04  0.15000000000E+04  0.10566000000E+00 0. -1.
        994   -1    0    0    0    0 -0.00000000000E+00 -0.00000000000E+00  0.11368683772E-12  0.17120000000E+03  0.17120000000E+03 0.  0.
         13    1    1    2    0    0  0.33586988742E+03  0.38027835119E+02  0.86160607770E+03  0.92553754209E+03  0.10566000000E+00 0. -1.
        994    1    1    2    0    0 -0.31758136710E+03 -0.41978335048E+02  0.59029819759E+03  0.69309559761E+03  0.17120000000E+03 0.  0.
        998    1    1    2    0    0 -0.18288520316E+02  0.39504999290E+01  0.48095720989E+02  0.52566860306E+02  0.10000000000E+02 0.  1.
</event>
<event>
 5    1  0.1415285E-008  0.3858755E+03  0.7957747E-01  0.3425968E+00
         13   -1    0    0    0    0  0.00000000000E+00  0.00000000000E+00  0.14999999963E+04  0.15000000000E+04  0.10566000000E+00 0.  1.
        994   -1    0    0    0    0 -0.00000000000E+00 -0.00000000000E+00  0.11368683772E-12  0.17120000000E+03  0.17120000000E+03 0.  0.
         13    1    1    2    0    0  0.42612155010E+01  0.12614885497E+02  0.75329860790E+02  0.76497662607E+02  0.10566000000E+00 0.  1.
        994    1    1    2    0    0 -0.57557050961E+01 -0.64539351236E+01  0.14413725560E+01  0.17142432434E+03  0.17120000000E+03 0.  0.
        998    1    1    2    0    0  0.14944895951E+01 -0.61609503733E+01  0.14232287629E+04  0.14232780131E+04  0.10000000000E+02 0.  1.
</event>
<event>
 5    1  0.1252319E-008  0.3691545E+03  0.7957747E-01  0.3499786E+00
         13   -1    0    0    0    0  0.00000000000E+00  0.00000000000E+00  0.14999999963E+04  0.15000000000E+04  0.10566000000E+00 0. -1.
        994   -1    0    0    0    0 -0.00000000000E+00 -0.00000000000E+00  0.11368683772E-12  0.17120000000E+03  0.17120000000E+03 0.  0.
         13    1    1    2    0    0  0.24963110529E+02  0.38823278583E+02  0.92198915347E+02  0.10310700753E+03  0.10566000000E+00 0. -1.
        994    1    1    2    0    0 -0.16088896152E+02 -0.44823537867E+02  0.18439998554E+02  0.17865462679E+03  0.17120000000E+03 0.  0.
        998    1    1    2    0    0 -0.88742143766E+01  0.60002592844E+01  0.13893610824E+04  0.13894383657E+04  0.10000000000E+02 0. -1.
</event>
<event>
 5    1  0.1252319E-008  0.3754097E+03  0.7957747E-01  0.3471393E+00
         13   -1    0    0    0    0  0.00000000000E+00  0.00000000000E+00  0.14999999963E+04  0.15000000000E+04  0.10566000000E+00 0.  1.
        994   -1    0    0    0    0 -0.00000000000E+00 -0.00000000000E+00  0.11368683772E-12  0.17120000000E+03  0.17120000000E+03 0.  0.
         13    1    1    2    0    0  0.26232715974E+02 -0.18304620843E+02  0.92888389912E+02  0.98241939496E+02  0.10566000000E+00 0.  1.
        994    1    1    2    0    0  0.25049783240E+02 -0.87979839352E+01  0.88649727501E+01  0.17347312156E+03  0.17120000000E+03 0.  0.
        998    1    1    2    0    0 -0.51282499214E+02  0.27102604778E+02  0.13982466336E+04  0.13994849389E+04  0.10000000000E+02 0.  1.
</event>
<event>
 5    1  0.1252319E-008  0.3837711E+03  0.7957747E-01  0.3434901E+00
         13   -1    0    0    0    0  0.00000000000E+00  0.00000000000E+00  0.14999999963E+04  0.15000000000E+04  0.10566000000E+00 0.  1.
        994   -1    0    0    0    0 -0.00000000000E+00 -0.00000000000E+00  0.11368683772E-12  0.17120000000E+03  0.17120000000E+03 0.  0.
         13    1    1    2    0    0  0.13286034081E+02  0.18238649723E+02  0.11666585817E+03  0.11882802982E+03  0.10566000000E+00 0.  1.
        994    1    1    2    0    0 -0.79453349520E+01 -0.61985334015E+01  0.25768855806E+01  0.17151568588E+03  0.17120000000E+03 0.  0.
        998    1    1    2    0    0 -0.53406991291E+01 -0.12040116322E+02  0.13807572525E+04  0.13808562843E+04  0.10000000000E+02 0.  1.
</event>
<event>
 5    1  0.1252319E-008  0.3792845E+03  0.7957747E-01  0.3454280E+00
         13   -1    0    0    0    0  0.00000000000E+00  0.00000000000E+00  0.14999999963E+04  0.15000000000E+04  0.10566000000E+00 0.  1.
        994   -1    0    0    0    0 -0.00000000000E+00 -0.00000000000E+00  0.11368683772E-12  0.17120000000E+03  0.17120000000E+03 0.  0.
         13    1    1    2    0    0  0.34043193787E+02  0.20138612340E+01  0.14793607459E+03  0.15181596757E+03  0.10566000000E+00 0.  1.
        994    1    1    2    0    0  0.41591978088E+01 -0.19790732560E+02  0.58663539222E+01  0.17249007545E+03  0.17120000000E+03 0.  0.
        998    1    1    2    0    0 -0.38202391595E+02  0.17776871326E+02  0.13461975678E+04  0.13468939570E+04  0.10000000000E+02 0.  1.
</event>
<event>
 5    1  0.1252319E-008  0.3691450E+03  0.7957747E-01  0.3499830E+00
         13   -1    0    0    0    0  0.00000000000E+00  0.00000000000E+00  0.14999999963E+04  0.15000000000E+04  0.10566000000E+00 0. -1.
        994   -1    0    0    0    0 -0.00000000000E+00 -0.00000000000E+00  0.11368683772E-12  0.17120000000E+03  0.17120000000E+03 0.  0.
         13    1    1    2    0    0  0.63366646203E+02 -0.42300693413E+02  0.36444196689E+03  0.37232061306E+03  0.10566000000E+00 0. -1.
        994    1    1    2    0    0 -0.72377902256E+02 -0.58350615058E+02  0.40319524508E+02  0.19894335643E+03  0.17120000000E+03 0.  0.
        998    1    1    2    0    0  0.90112560533E+01  0.10065130847E+03  0.10952385049E+04  0.10999360305E+04  0.10000000000E+02 0. -1.
</event>
<event>
 5    1  0.1252319E-008  0.3775275E+03  0.7957747E-01  0.3461995E+00
         13   -1    0    0    0    0  0.00000000000E+00  0.00000000000E+00  0.14999999963E+04  0.15000000000E+04  0.10566000000E+00 0. -1.
        994   -1    0    0    0    0 -0.00000000000E+00 -0.00000000000E+00  0.11368683772E-12  0.17120000000E+03  0.17120000000E+03 0.  0.
         13    1    1    2    0    0  0.27664283651E+02  0.19688729207E+01  0.76198035288E+02  0.81088475114E+02  0.10566000000E+00 0. -1.
        994    1    1    2    0    0  0.66166582526E+01 -0.19894670463E+02  0.68694758907E+01  0.17261578079E+03  0.17120000000E+03 0.  0.
        998    1    1    2    0    0 -0.34280941903E+02  0.17925797542E+02  0.14169324851E+04  0.14174957441E+04  0.10000000000E+02 0. -1.
</event>
<event>
 5    1  0.1252319E-008  0.3791744E+03  0.7957747E-01  0.3454761E+00
         13   -1    0    0    0    0  0.00000000000E+00  0.00000000000E+00  0.14999999963E+04  0.15000000000E+04  0.10566000000E+00 0. -1.
        994   -1    0    0    0    0 -0.00000000000E+00 -0.00000000000E+00  0.11368683772E-12  0.17120000000E+03  0.17120000000E+03 0.  0.
         13    1    1    2    0    0  0.10830264748E+02  0.27734703084E+01  0.11932347693E+02  0.16351723382E+02  0.10566000000E+00 0. -1.
        994    1    1    2    0    0 -0.16283830705E+01  0.36500548016E+01  0.46040497460E+01  0.17130852812E+03  0.17120000000E+03 0.  0.
        998    1    1    2    0    0 -0.92018816771E+01 -0.64235251100E+01  0.14834635988E+04  0.14835397485E+04  0.10000000000E+02 0. -1.
</event>
<event>
 5    1  0.2820496E-008  0.3864357E+03  0.7957747E-01  0.3423606E+00
         13   -1    0    0    0    0  0.00000000000E+00  0.00000000000E+00  0.14999999963E+04  0.15000000000E+04  0.10566000000E+00 0. -1.
        994   -1    0    0    0    0 -0.00000000000E+00 -0.00000000000E+00  0.11368683772E-12  0.17120000000E+03  0.17120000000E+03 0.  0.
         13    1    1    2    0    0 -0.71927709651E+01  0.84925578269E+01  0.63820880800E+02  0.64784068124E+02  0.10566000000E+00 0. -1.
        994    1    1    2    0    0  0.87115337189E+01 -0.14293962415E+02  0.18368032115E+01  0.17202622482E+03  0.17120000000E+03 0.  0.
        998    1    1    2    0    0 -0.15187627537E+01  0.58014045880E+01  0.14343423123E+04  0.14343897071E+04  0.10000000000E+02 0. -1.
</event>
<event>
 5    1  0.1252319E-008  0.3697965E+03  0.7957747E-01  0.3496827E+00
         13   -1    0    0    0    0  0.00000000000E+00  0.00000000000E+00  0.14999999963E+04  0.15000000000E+04  0.10566000000E+00 0.  1.
        994   -1    0    0    0    0 -0.00000000000E+00 -0.00000000000E+00  0.11368683772E-12  0.17120000000E+03  0.17120000000E+03 0.  0.
         13    1    1    2    0    0 -0.20349528264E+02  0.76871887988E+01  0.20842681271E+02  0.30126810299E+02  0.10566000000E+00 0.  1.
        994    1    1    2    0    0  0.21699083184E+02 -0.98299054306E+01  0.11341463532E+02  0.17322109008E+03  0.17120000000E+03 0.  0.
        998    1    1    2    0    0 -0.13495549201E+01  0.21427166317E+01  0.14678158515E+04  0.14678520996E+04  0.10000000000E+02 0.  1.
</event>
<event>
 5    1  0.1252319E-008  0.3816777E+03  0.7957747E-01  0.3443886E+00
         13   -1    0    0    0    0  0.00000000000E+00  0.00000000000E+00  0.14999999963E+04  0.15000000000E+04  0.10566000000E+00 0.  1.
        994   -1    0    0    0    0 -0.00000000000E+00 -0.00000000000E+00  0.11368683772E-12  0.17120000000E+03  0.17120000000E+03 0.  0.
         13    1    1    2    0    0  0.24187649196E+02  0.20262085171E+02  0.17178360555E+03  0.17465741544E+03  0.10566000000E+00 0.  1.
        994    1    1    2    0    0 -0.64716836442E+01  0.55737419301E+01  0.35311837040E+01  0.17144928856E+03  0.17120000000E+03 0.  0.
        998    1    1    2    0    0 -0.17715965552E+02 -0.25835827101E+02  0.13246852070E+04  0.13250932960E+04  0.10000000000E+02 0.  1.
</event>
<event>
 5    1  0.1252319E-008  0.3792168E+03  0.7957747E-01  0.3454576E+00
         13   -1    0    0    0    0  0.00000000000E+00  0.00000000000E+00  0.14999999963E+04  0.15000000000E+04  0.10566000000E+00 0.  1.
        994   -1    0    0    0    0 -0.00000000000E+00 -0.00000000000E+00  0.11368683772E-12  0.17120000000E+03  0.17120000000E+03 0.  0.
         13    1    1    2    0    0 -0.23648675433E+02 -0.85434607282E+00  0.59010372782E+02  0.63578494925E+02  0.10566000000E+00 0.  1.
        994    1    1    2    0    0  0.19828960099E+02  0.72206790343E+01  0.60229851228E+01  0.17260081754E+03  0.17120000000E+03 0.  0.
        998    1    1    2    0    0  0.38197153335E+01 -0.63663329615E+01  0.14349666384E+04  0.14350206875E+04  0.10000000000E+02 0.  1.
</event>
<event>
 5    1  0.1252319E-008  0.3831581E+03  0.7957747E-01  0.3437522E+00
         13   -1    0    0    0    0  0.00000000000E+00  0.00000000000E+00  0.14999999963E+04  0.15000000000E+04  0.10566000000E+00 0. -1.
        994   -1    0    0    0    0 -0.00000000000E+00 -0.00000000000E+00  0.11368683772E-12  0.17120000000E+03  0.17120000000E+03 0.  0.
         13    1    1    2    0    0  0.10839016019E+02  0.22102382916E+02  0.13031927655E+03  0.13262399709E+03  0.10566000000E+00 0. -1.
        994    1    1    2    0    0 -0.29947413395E+02  0.10837694926E+02  0.59103529989E+01  0.17423741123E+03  0.17120000000E+03 0.  0.
        998    1    1    2    0    0  0.19108397376E+02 -0.32940077843E+02  0.13637703667E+04  0.13643385917E+04  0.10000000000E+02 0. -1.
</event>
<event>
 5    1  0.1252319E-008  0.3802116E+03  0.7957747E-01  0.3450238E+00
         13   -1    0    0    0    0  0.00000000000E+00  0.00000000000E+00  0.14999999963E+04  0.15000000000E+04  0.10566000000E+00 0.  1.
        994   -1    0    0    0    0 -0.00000000000E+00 -0.00000000000E+00  0.11368683772E-12  0.17120000000E+03  0.17120000000E+03 0.  0.
         13    1    1    2    0    0 -0.54950490415E+01  0.32523879887E+02  0.14796410889E+03  0.15159613126E+03  0.10566000000E+00 0.  1.
        994    1    1    2    0    0  0.35020773549E+01 -0.33151894501E+01  0.41040744629E+01  0.17131706994E+03  0.17120000000E+03 0.  0.
        998    1    1    2    0    0  0.19929716866E+01 -0.29208690437E+02  0.13479318129E+04  0.13482867988E+04  0.10000000000E+02 0.  1.
</event>
<event>
 5    1  0.1252319E-008  0.3857317E+03  0.7957747E-01  0.3426575E+00
         13   -1    0    0    0    0  0.00000000000E+00  0.00000000000E+00  0.14999999963E+04  0.15000000000E+04  0.10566000000E+00 0.  1.
        994   -1    0    0    0    0 -0.00000000000E+00 -0.00000000000E+00  0.11368683772E-12  0.17120000000E+03  0.17120000000E+03 0.  0.
         13    1    1    2    0    0 -0.10666546966E+02  0.65599910333E+01  0.60890492878E+02  0.62164877491E+02  0.10566000000E+00 0.  1.
        994    1    1    2    0    0  0.11407760334E+02 -0.39818455267E+01  0.17464038993E+01  0.17163473429E+03  0.17120000000E+03 0.  0.
        998    1    1    2    0    0 -0.74121336717E+00 -0.25781455066E+01  0.14373630995E+04  0.14374003882E+04  0.10000000000E+02 0.  1.
</event>
<event>
 5    1  0.1252319E-008  0.3700577E+03  0.7957747E-01  0.3495626E+00
         13   -1    0    0    0    0  0.00000000000E+00  0.00000000000E+00  0.14999999963E+04  0.15000000000E+04  0.10566000000E+00 0.  1.
        994   -1    0    0    0    0 -0.00000000000E+00 -0.00000000000E+00  0.11368683772E-12  0.17120000000E+03  0.17120000000E+03 0.  0.
         13    1    1    2    0    0 -0.28123811583E+02  0.52864619683E+02  0.18876515055E+03  0.19803512319E+03  0.10566000000E+00 0.  1.
        994    1    1    2    0    0  0.17344743916E+02 -0.33562357084E+02  0.14189041626E+02  0.17589212847E+03  0.17120000000E+03 0.  0.
        998    1    1    2    0    0  0.10779067668E+02 -0.19302262599E+02  0.12970458041E+04  0.12972727483E+04  0.10000000000E+02 0.  1.
</event>
<event>
 5    1  0.1252319E-008  0.3817752E+03  0.7957747E-01  0.3443465E+00
         13   -1    0    0    0    0  0.00000000000E+00  0.00000000000E+00  0.14999999963E+04  0.15000000000E+04  0.10566000000E+00 0. -1.
        994   -1    0    0    0    0 -0.00000000000E+00 -0.00000000000E+00  0.11368683772E-12  0.17120000000E+03  0.17120000000E+03 0.  0.
         13    1    1    2    0    0  0.16450068348E+02 -0.11233964970E+01  0.38605133830E+02  0.41978974385E+02  0.10566000000E+00 0. -1.
        994    1    1    2    0    0 -0.25588067945E+02  0.66282986024E+01  0.55651668325E+01  0.17331790053E+03  0.17120000000E+03 0.  0.
        998    1    1    2    0    0  0.91379995974E+01 -0.55049021054E+01  0.14558296956E+04  0.14559031251E+04  0.10000000000E+02 0. -1.
</event>
<event>
 5    1  0.1252319E-008  0.3840356E+03  0.7957747E-01  0.3433773E+00
         13   -1    0    0    0    0  0.00000000000E+00  0.00000000000E+00  0.14999999963E+04  0.15000000000E+04  0.10566000000E+00 0.  1.
        994   -1    0    0    0    0 -0.00000000000E+00 -0.00000000000E+00  0.11368683772E-12  0.17120000000E+03  0.17120000000E+03 0.  0.
         13    1    1    2    0    0  0.40015458177E+01 -0.22746948684E+02  0.12607918514E+03  0.12817725279E+03  0.10566000000E+00 0.  1.
        994    1    1    2    0    0 -0.12516150675E+01  0.14106227452E+02  0.27715952331E+01  0.17180708348E+03  0.17120000000E+03 0.  0.
        998    1    1    2    0    0 -0.27499307502E+01  0.86407212323E+01  0.13711492159E+04  0.13712156637E+04  0.10000000000E+02 0.  1.
</event>
<event>
 5    1  0.1252319E-008  0.3812661E+03  0.7957747E-01  0.3445664E+00
         13   -1    0    0    0    0  0.00000000000E+00  0.00000000000E+00  0.14999999963E+04  0.15000000000E+04  0.10566000000E+00 0. -1.
        994   -1    0    0    0    0 -0.00000000000E+00 -0.00000000000E+00  0.11368683772E-12  0.17120000000E+03  0.17120000000E+03 0.  0.
         13    1    1    2    0    0  0.57135797765E+00  0.13682963452E+02  0.25467964549E+02  0.28916748107E+02  0.10566000000E+00 0. -1.
        994    1    1    2    0    0  0.72768719429E+01 -0.96195434083E+01  0.39798570372E+01  0.17167052089E+03  0.17120000000E+03 0.  0.
        998    1    1    2    0    0 -0.78482299205E+01 -0.40634200438E+01  0.14705521747E+04  0.14706127310E+04  0.10000000000E+02 0. -1.
</event>
<event>
 5    1  0.1252319E-008  0.3834027E+03  0.7957747E-01  0.3436475E+00
         13   -1    0    0    0    0  0.00000000000E+00  0.00000000000E+00  0.14999999963E+04  0.15000000000E+04  0.10566000000E+00 0. -1.
        994   -1    0    0    0    0 -0.00000000000E+00 -0.00000000000E+00  0.11368683772E-12  0.17120000000E+03  0.17120000000E+03 0.  0.
         13    1    1    2    0    0  0.20152210842E+02  0.62306029193E+01  0.88620432692E+02  0.91096236306E+02  0.10566000000E+00 0. -1.
        994    1    1    2    0    0 -0.16624667993E+02 -0.64332668591E+01  0.34764041185E+01  0.17216065722E+03  0.17120000000E+03 0.  0.
        998    1    1    2    0    0 -0.35275428489E+01  0.20266393988E+00  0.14079031595E+04  0.14079431065E+04  0.10000000000E+02 0. -1.
</event>
<event>
 5    1  0.1252319E-008  0.3822174E+03  0.7957747E-01  0.3441560E+00
         13   -1    0    0    0    0  0.00000000000E+00  0.00000000000E+00  0.14999999963E+04  0.15000000000E+04  0.10566000000E+00 0. -1.
        994   -1    0    0    0    0 -0.00000000000E+00 -0.00000000000E+00  0.11368683772E-12  0.17120000000E+03  0.17120000000E+03 0.  0.
         13    1    1    2    0    0 -0.20618427488E+02 -0.20696699950E+02  0.12950909504E+03  0.13276328485E+03  0.10566000000E+00 0. -1.
        994    1    1    2    0    0  0.23804760577E+02  0.18172396672E+02  0.60001459853E+01  0.17390326155E+03  0.17120000000E+03 0.  0.
        998    1    1    2    0    0 -0.31863330894E+01  0.25243032785E+01  0.13644907552E+04  0.13645334536E+04  0.10000000000E+02 0. -1.
</event>
<event>
 5    1  0.1252319E-008  0.3707467E+03  0.7957747E-01  0.3492466E+00
         13   -1    0    0    0    0  0.00000000000E+00  0.00000000000E+00  0.14999999963E+04  0.15000000000E+04  0.10566000000E+00 0.  1.
        994   -1    0    0    0    0 -0.00000000000E+00 -0.00000000000E+00  0.11368683772E-12  0.17120000000E+03  0.17120000000E+03 0.  0.
         13    1    1    2    0    0 -0.74798600429E+01 -0.26920366249E+02  0.41797882977E+02  0.50276521465E+02  0.10566000000E+00 0.  1.
        994    1    1    2    0    0  0.81836492372E+01  0.48614498055E+01  0.91918192281E+01  0.17171061513E+03  0.17120000000E+03 0.  0.
        998    1    1    2    0    0 -0.70378919437E+00  0.22058916444E+02  0.14490102941E+04  0.14492128634E+04  0.10000000000E+02 0.  1.
</event>
<event>
 5    1  0.1252319E-008  0.3585148E+03  0.7957747E-01  0.3550399E+00
         13   -1    0    0    0    0  0.00000000000E+00  0.00000000000E+00  0.14999999963E+04  0.15000000000E+04  0.10566000000E+00 0.  1.
        994   -1    0    0    0    0 -0.00000000000E+00 -0.00000000000E+00  0.11368683772E-12  0.17120000000E+03  0.17120000000E+03 0.  0.
         13    1    1    2    0    0 -0.26422047749E+03  0.36540301743E+02  0.93242100136E+03  0.96982296803E+03  0.10566000000E+00 0.  1.
        994    1    1    2    0    0  0.26554946985E+03 -0.27107108541E+02  0.31012177943E+03  0.44354963008E+03  0.17120000000E+03 0.  0.
        998    1    1    2    0    0 -0.13289923589E+01 -0.94331932020E+01  0.25745721549E+03  0.25782740188E+03  0.10000000000E+02 0.  1.
</event>
<event>
 5    1  0.1252319E-008  0.3817848E+03  0.7957747E-01  0.3443424E+00
         13   -1    0    0    0    0  0.00000000000E+00  0.00000000000E+00  0.14999999963E+04  0.15000000000E+04  0.10566000000E+00 0.  1.
        994   -1    0    0    0    0 -0.00000000000E+00 -0.00000000000E+00  0.11368683772E-12  0.17120000000E+03  0.17120000000E+03 0.  0.
         13    1    1    2    0    0  0.26927195016E+02 -0.11877101073E+01  0.15190992217E+03  0.15428259820E+03  0.10566000000E+00 0.  1.
        994    1    1    2    0    0  0.25394460718E+02  0.89051862625E+01  0.56453161090E+01  0.17339403269E+03  0.17120000000E+03 0.  0.
        998    1    1    2    0    0 -0.52321655734E+02 -0.77174761552E+01  0.13424447580E+04  0.13435233691E+04  0.10000000000E+02 0.  1.
</event>
<event>
 5    1  0.1252319E-008  0.2476334E+03  0.7957747E-01  0.4359273E+00
         13   -1    0    0    0    0  0.00000000000E+00  0.00000000000E+00  0.14999999963E+04  0.15000000000E+04  0.10566000000E+00 0. -1.
        994   -1    0    0    0    0 -0.00000000000E+00 -0.00000000000E+00  0.11368683772E-12  0.17120000000E+03  0.17120000000E+03 0.  0.
         13    1    1    2    0    0  0.56562042203E+02 -0.20638172515E+03  0.35933366908E+03  0.41822646735E+03  0.10566000000E+00 0. -1.
        994    1    1    2    0    0 -0.19463585589E+03  0.41759876435E+02  0.37576816455E+03  0.45840828654E+03  0.17120000000E+03 0.  0.
        998    1    1    2    0    0  0.13807381369E+03  0.16462184872E+03  0.76489816265E+03  0.79456524611E+03  0.10000000000E+02 0. -1.
</event>
<event>
 5    1  0.1252319E-008  0.3812008E+03  0.7957747E-01  0.3445946E+00
         13   -1    0    0    0    0  0.00000000000E+00  0.00000000000E+00  0.14999999963E+04  0.15000000000E+04  0.10566000000E+00 0. -1.
        994   -1    0    0    0    0 -0.00000000000E+00 -0.00000000000E+00  0.11368683772E-12  0.17120000000E+03  0.17120000000E+03 0.  0.
         13    1    1    2    0    0  0.25915150711E+02  0.87992010278E+01  0.12305851686E+03  0.12606518438E+03  0.10566000000E+00 0. -1.
        994    1    1    2    0    0 -0.29787054907E+02  0.84555537401E+02  0.30768474529E+02  0.19568609192E+03  0.17120000000E+03 0.  0.
        998    1    1    2    0    0  0.38719041957E+01 -0.93354738429E+02  0.13461730049E+04  0.13494487237E+04  0.10000000000E+02 0. -1.
</event>
<event>
 5    1  0.1252319E-008  0.2782847E+03  0.7957747E-01  0.4064381E+00
         13   -1    0    0    0    0  0.00000000000E+00  0.00000000000E+00  0.14999999963E+04  0.15000000000E+04  0.10566000000E+00 0. -1.
        994   -1    0    0    0    0 -0.00000000000E+00 -0.00000000000E+00  0.11368683772E-12  0.17120000000E+03  0.17120000000E+03 0.  0.
         13    1    1    2    0    0  0.20252490042E+03  0.41007516784E+02  0.47985608719E+03  0.52245557447E+03  0.10566000000E+00 0. -1.
        994    1    1    2    0    0 -0.16432765742E+03 -0.51389448466E+02  0.16715504154E+03  0.29477907375E+03  0.17120000000E+03 0.  0.
        998    1    1    2    0    0 -0.38197243008E+02  0.10381931682E+02  0.85298886755E+03  0.85396535178E+03  0.10000000000E+02 0. -1.
</event>
<event>
 5    1  0.1252319E-008  0.3822686E+03  0.7957747E-01  0.3441340E+00
         13   -1    0    0    0    0  0.00000000000E+00  0.00000000000E+00  0.14999999963E+04  0.15000000000E+04  0.10566000000E+00 0.  1.
        994   -1    0    0    0    0 -0.00000000000E+00 -0.00000000000E+00  0.11368683772E-12  0.17120000000E+03  0.17120000000E+03 0.  0.
         13    1    1    2    0    0  0.99574372265E+01 -0.21018352755E+02  0.10227562944E+03  0.10488678301E+03  0.10566000000E+00 0.  1.
        994    1    1    2    0    0  0.27445544610E+01 -0.69433761309E+01  0.31773044884E+01  0.17139217694E+03  0.17120000000E+03 0.  0.
        998    1    1    2    0    0 -0.12701991687E+02  0.27961728886E+02  0.13945470624E+04  0.13949210401E+04  0.10000000000E+02 0.  1.
</event>
<event>
 5    1  0.1252319E-008  0.3862258E+03  0.7957747E-01  0.3424490E+00
         13   -1    0    0    0    0  0.00000000000E+00  0.00000000000E+00  0.14999999963E+04  0.15000000000E+04  0.10566000000E+00 0. -1.
        994   -1    0    0    0    0 -0.00000000000E+00 -0.00000000000E+00  0.11368683772E-12  0.17120000000E+03  0.17120000000E+03 0.  0.
         13    1    1    2    0    0 -0.14905029088E+01  0.11367017689E+02  0.59643885298E+02  0.60735779468E+02  0.10566000000E+00 0. -1.
        994    1    1    2    0    0 -0.46161190857E+01 -0.20582131841E+02  0.24815662771E+01  0.17251240789E+03  0.17120000000E+03 0.  0.
        998    1    1    2    0    0  0.61066219946E+01  0.92151141518E+01  0.14378745447E+04  0.14379518126E+04  0.10000000000E+02 0. -1.
</event>
<event>
 5    1  0.1252319E-008  0.3803149E+03  0.7957747E-01  0.3449788E+00
         13   -1    0    0    0    0  0.00000000000E+00  0.00000000000E+00  0.14999999963E+04  0.15000000000E+04  0.10566000000E+00 0.  1.
        994   -1    0    0    0    0 -0.00000000000E+00 -0.00000000000E+00  0.11368683772E-12  0.17120000000E+03  0.17120000000E+03 0.  0.
         13    1    1    2    0    0 -0.23666233192E+02  0.95211936375E+00  0.76221414445E+02  0.79816742034E+02  0.10566000000E+00 0.  1.
        994    1    1    2    0    0 -0.54365162326E+01  0.11509633262E+02  0.45155284806E+01  0.17173193461E+03  0.17120000000E+03 0.  0.
        998    1    1    2    0    0  0.29102749424E+02 -0.12461752626E+02  0.14192630534E+04  0.14196513234E+04  0.10000000000E+02 0.  1.
</event>
<event>
 5    1  0.1252319E-008  0.3813466E+03  0.7957747E-01  0.3445316E+00
         13   -1    0    0    0    0  0.00000000000E+00  0.00000000000E+00  0.14999999963E+04  0.15000000000E+04  0.10566000000E+00 0.  1.
        994   -1    0    0    0    0 -0.00000000000E+00 -0.00000000000E+00  0.11368683772E-12  0.17120000000E+03  0.17120000000E+03 0.  0.
         13    1    1    2    0    0 -0.40824708290E+01  0.11152747929E+02  0.18360933602E+02  0.21867450725E+02  0.10566000000E+00 0.  1.
        994    1    1    2    0    0  0.11358448907E+02 -0.17934011378E+02  0.49561567545E+01  0.17258228940E+03  0.17120000000E+03 0.  0.
        998    1    1    2    0    0 -0.72759780782E+01  0.67812634491E+01  0.14766829059E+04  0.14767502599E+04  0.10000000000E+02 0.  1.
</event>
<event>
 5    1  0.1252319E-008  0.3819160E+03  0.7957747E-01  0.3442858E+00
         13   -1    0    0    0    0  0.00000000000E+00  0.00000000000E+00  0.14999999963E+04  0.15000000000E+04  0.10566000000E+00 0. -1.
        994   -1    0    0    0    0 -0.00000000000E+00 -0.00000000000E+00  0.11368683772E-12  0.17120000000E+03  0.17120000000E+03 0.  0.
         13    1    1    2    0    0 -0.36561959006E+01 -0.14190147819E+02  0.32266174295E+02  0.35437906700E+02  0.10566000000E+00 0. -1.
        994    1    1    2    0    0  0.44181575213E+01  0.13274696888E+02  0.38195413172E+01  0.17181317350E+03  0.17120000000E+03 0.  0.
        998    1    1    2    0    0 -0.76196162069E+00  0.91545093092E+00  0.14639142807E+04  0.14639489198E+04  0.10000000000E+02 0.  0.
</event>
<event>
 5    1  0.1252319E-008  0.3841255E+03  0.7957747E-01  0.3433389E+00
         13   -1    0    0    0    0  0.00000000000E+00  0.00000000000E+00  0.14999999963E+04  0.15000000000E+04  0.10566000000E+00 0.  1.
        994   -1    0    0    0    0 -0.00000000000E+00 -0.00000000000E+00  0.11368683772E-12  0.17120000000E+03  0.17120000000E+03 0.  0.
         13    1    1    2    0    0  0.38928830589E+01  0.17635258238E+02  0.74669688058E+02  0.76822720274E+02  0.10566000000E+00 0.  1.
        994    1    1    2    0    0  0.79501006074E+00 -0.20839329701E+02  0.35005569737E+01  0.17250102493E+03  0.17120000000E+03 0.  0.
        998    1    1    2    0    0 -0.46878931196E+01  0.32040714626E+01  0.14218297512E+04  0.14218762548E+04  0.10000000000E+02 0.  1.
</event>
<event>
 5    1  0.1252319E-008  0.3859020E+03  0.7957747E-01  0.3425856E+00
         13   -1    0    0    0    0  0.00000000000E+00  0.00000000000E+00  0.14999999963E+04  0.15000000000E+04  0.10566000000E+00 0. -1.
        994   -1    0    0    0    0 -0.00000000000E+00 -0.00000000000E+00  0.11368683772E-12  0.17120000000E+03  0.17120000000E+03 0.  0.
         13    1    1    2    0    0 -0.52959494634E+01  0.11211216041E+02  0.70308465707E+02  0.71393486818E+02  0.10566000000E+00 0. -1.
        994    1    1    2    0    0 -0.55634401572E+01 -0.20502294157E+01  0.12982359449E+01  0.17130756178E+03  0.17120000000E+03 0.  0.
        998    1    1    2    0    0  0.10859389621E+02 -0.91609866251E+01  0.14283932946E+04  0.14284989514E+04  0.10000000000E+02 0. -1.
</event>
<event>
 5    1  0.1252319E-008  0.3718956E+03  0.7957747E-01  0.3487224E+00
         13   -1    0    0    0    0  0.00000000000E+00  0.00000000000E+00  0.14999999963E+04  0.15000000000E+04  0.10566000000E+00 0.  1.
        994   -1    0    0    0    0 -0.00000000000E+00 -0.00000000000E+00  0.11368683772E-12  0.17120000000E+03  0.17120000000E+03 0.  0.
         13    1    1    2    0    0 -0.20475397194E+02 -0.35412099725E+01  0.22055037279E+02  0.30302110351E+02  0.10566000000E+00 0.  1.
        994    1    1    2    0    0  0.22615630761E+02  0.99975735040E+01  0.10384819840E+02  0.17328791855E+03  0.17120000000E+03 0.  0.
        998    1    1    2    0    0 -0.21402335669E+01 -0.64563635315E+01  0.14675601392E+04  0.14676099711E+04  0.10000000000E+02 0.  1.
</event>
<event>
 5    1  0.1252319E-008  0.3693581E+03  0.7957747E-01  0.3498846E+00
         13   -1    0    0    0    0  0.00000000000E+00  0.00000000000E+00  0.14999999963E+04  0.15000000000E+04  0.10566000000E+00 0. -1.
        994   -1    0    0    0    0 -0.00000000000E+00 -0.00000000000E+00  0.11368683772E-12  0.17120000000E+03  0.17120000000E+03 0.  0.
         13    1    1    2    0    0 -0.53066282635E+02 -0.22102125240E+02  0.13560244872E+03  0.14728397589E+03  0.10566000000E+00 0. -1.
        994    1    1    2    0    0  0.59945083491E+02  0.21587250043E+02  0.24896906014E+02  0.18436029488E+03  0.17120000000E+03 0.  0.
        998    1    1    2    0    0 -0.68788008559E+01  0.51487519768E+00  0.13395006415E+04  0.13395557292E+04  0.10000000000E+02 0. -1.
</event>
<event>
 5    1  0.1252319E-008  0.3806292E+03  0.7957747E-01  0.3448423E+00
         13   -1    0    0    0    0  0.00000000000E+00  0.00000000000E+00  0.14999999963E+04  0.15000000000E+04  0.10566000000E+00 0. -1.
        994   -1    0    0    0    0 -0.00000000000E+00 -0.00000000000E+00  0.11368683772E-12  0.17120000000E+03  0.17120000000E+03 0.  0.
         13    1    1    2    0    0  0.22166895759E+02  0.11119010342E+01  0.67276092646E+02  0.70842722966E+02  0.10566000000E+00 0. -1.
        994    1    1    2    0    0  0.33624935251E+00 -0.82423813098E+01  0.40429268435E+01  0.17144630405E+03  0.17120000000E+03 0.  0.
        998    1    1    2    0    0 -0.22503145111E+02  0.71304802756E+01  0.14286809768E+04  0.14289109730E+04  0.10000000000E+02 0. -1.
</event>
<event>
 5    1  0.1252319E-008  0.3697565E+03  0.7957747E-01  0.3497011E+00
         13   -1    0    0    0    0  0.00000000000E+00  0.00000000000E+00  0.14999999963E+04  0.15000000000E+04  0.10566000000E+00 0. -1.
        994   -1    0    0    0    0 -0.00000000000E+00 -0.00000000000E+00  0.11368683772E-12  0.17120000000E+03  0.17120000000E+03 0.  0.
         13    1    1    2    0    0  0.79303441724E+01 -0.33675617964E+02  0.71895423500E+02  0.79786594665E+02  0.10566000000E+00 0. -1.
        994    1    1    2    0    0  0.19664996791E+02 -0.28659806496E+02  0.13588600522E+02  0.17522039456E+03  0.17120000000E+03 0.  0.
        998    1    1    2    0    0 -0.27595340964E+02  0.62335424460E+02  0.14145159723E+04  0.14161930108E+04  0.10000000000E+02 0. -1.
</event>
<event>
 5    1  0.1252319E-008  0.3238561E+03  0.7957747E-01  0.3739172E+00
         13   -1    0    0    0    0  0.00000000000E+00  0.00000000000E+00  0.14999999963E+04  0.15000000000E+04  0.10566000000E+00 0. -1.
        994   -1    0    0    0    0 -0.00000000000E+00 -0.00000000000E+00  0.11368683772E-12  0.17120000000E+03  0.17120000000E+03 0.  0.
         13    1    1    2    0    0 -0.22160873815E+03 -0.30536890128E+02  0.98949948542E+03  0.10144713783E+04  0.10566000000E+00 0. -1.
        994    1    1    2    0    0  0.11740042092E+03  0.47250384548E+02  0.10458550783E+03  0.23719828440E+03  0.17120000000E+03 0.  0.
        998    1    1    2    0    0  0.10420831722E+03 -0.16713494420E+02  0.40591500303E+03  0.41953033735E+03  0.10000000000E+02 0. -1.
</event>
<event>
 5    1  0.1252319E-008  0.3798578E+03  0.7957747E-01  0.3451778E+00
         13   -1    0    0    0    0  0.00000000000E+00  0.00000000000E+00  0.14999999963E+04  0.15000000000E+04  0.10566000000E+00 0. -1.
        994   -1    0    0    0    0 -0.00000000000E+00 -0.00000000000E+00  0.11368683772E-12  0.17120000000E+03  0.17120000000E+03 0.  0.
         13    1    1    2    0    0 -0.30676368843E+02 -0.19204638954E+02  0.15677123124E+03  0.16089464836E+03  0.10566000000E+00 0. -1.
        994    1    1    2    0    0  0.23563869928E+02 -0.18162601945E+01  0.60752787224E+01  0.17293034372E+03  0.17120000000E+03 0.  0.
        998    1    1    2    0    0  0.71124989151E+01  0.21020899148E+02  0.13371534863E+04  0.13373750079E+04  0.10000000000E+02 0. -1.
</event>
<event>
 5    1  0.1252319E-008  0.3855537E+03  0.7957747E-01  0.3427327E+00
         13   -1    0    0    0    0  0.00000000000E+00  0.00000000000E+00  0.14999999963E+04  0.15000000000E+04  0.10566000000E+00 0.  1.
        994   -1    0    0    0    0 -0.00000000000E+00 -0.00000000000E+00  0.11368683772E-12  0.17120000000E+03  0.17120000000E+03 0.  0.
         13    1    1    2    0    0 -0.26623225905E+01 -0.15166459284E+02  0.89943357695E+02  0.91252003848E+02  0.10566000000E+00 0.  1.
        994    1    1    2    0    0  0.28689713340E+01  0.68518389607E+01  0.15366622812E+01  0.17136796674E+03  0.17120000000E+03 0.  0.
        998    1    1    2    0    0 -0.20664874358E+00  0.83146203236E+01  0.14085199763E+04  0.14085800294E+04  0.10000000000E+02 0.  1.
</event>
<event>
 5    1  0.1252319E-008  0.3832817E+03  0.7957747E-01  0.3436992E+00
         13   -1    0    0    0    0  0.00000000000E+00  0.00000000000E+00  0.14999999963E+04  0.15000000000E+04  0.10566000000E+00 0. -1.
        994   -1    0    0    0    0 -0.00000000000E+00 -0.00000000000E+00  0.11368683772E-12  0.17120000000E+03  0.17120000000E+03 0.  0.
         13    1    1    2    0    0  0.57009322944E+01  0.11832042380E+02  0.34356583514E+02  0.36781569443E+02  0.10566000000E+00 0. -1.
        994    1    1    2    0    0 -0.27574990971E+01 -0.49282524348E+01  0.25911180973E+01  0.17131271221E+03  0.17120000000E+03 0.  0.
        998    1    1    2    0    0 -0.29434331973E+01 -0.69037899451E+01  0.14630522947E+04  0.14631057183E+04  0.10000000000E+02 0. -1.
</event>
<event>
 5    1  0.1252319E-008  0.3833982E+03  0.7957747E-01  0.3436494E+00
         13   -1    0    0    0    0  0.00000000000E+00  0.00000000000E+00  0.14999999963E+04  0.15000000000E+04  0.10566000000E+00 0.  1.
        994   -1    0    0    0    0 -0.00000000000E+00 -0.00000000000E+00  0.11368683772E-12  0.17120000000E+03  0.17120000000E+03 0.  0.
         13    1    1    2    0    0  0.91274127836E+01 -0.71093298990E+01  0.26767212342E+02  0.29160710834E+02  0.10566000000E+00 0.  1.
        994    1    1    2    0    0 -0.61251145647E+01  0.51260333034E+01  0.26384143619E+01  0.17140651818E+03  0.17120000000E+03 0.  0.
        998    1    1    2    0    0 -0.30022982189E+01  0.19832965955E+01  0.14705943696E+04  0.14706327710E+04  0.10000000000E+02 0.  1.
</event>
<event>
 5    1  0.1252319E-008  0.3776627E+03  0.7957747E-01  0.3461399E+00
         13   -1    0    0    0    0  0.00000000000E+00  0.00000000000E+00  0.14999999963E+04  0.15000000000E+04  0.10566000000E+00 0.  1.
        994   -1    0    0    0    0 -0.00000000000E+00 -0.00000000000E+00  0.11368683772E-12  0.17120000000E+03  0.17120000000E+03 0.  0.
         13    1    1    2    0    0  0.51822430139E+01  0.45625803507E+02  0.17286842073E+03  0.17886327639E+03  0.10566000000E+00 0.  1.
        994    1    1    2    0    0 -0.63397951049E+01 -0.47596250662E+02  0.13124813623E+02  0.17828992347E+03  0.17120000000E+03 0.  0.
        998    1    1    2    0    0  0.11575520910E+01  0.19704471552E+01  0.13140067619E+04  0.13140468001E+04  0.10000000000E+02 0.  0.
</event>
<event>
 5    1  0.1252319E-008  0.3818309E+03  0.7957747E-01  0.3443225E+00
         13   -1    0    0    0    0  0.00000000000E+00  0.00000000000E+00  0.14999999963E+04  0.15000000000E+04  0.10566000000E+00 0. -1.
        994   -1    0    0    0    0 -0.00000000000E+00 -0.00000000000E+00  0.11368683772E-12  0.17120000000E+03  0.17120000000E+03 0.  0.
         13    1    1    2    0    0  0.10610006770E+02  0.12023353494E+02  0.44123365265E+02  0.46946946644E+02  0.10566000000E+00 0. -1.
        994    1    1    2    0    0  0.77097951286E+01  0.21330291470E+02  0.49229704318E+01  0.17276602071E+03  0.17120000000E+03 0.  0.
        998    1    1    2    0    0 -0.18319801898E+02 -0.33353644963E+02  0.14509536606E+04  0.14514870326E+04  0.10000000000E+02 0. -1.
</event>
<event>
 5    1  0.1252319E-008  0.3753667E+03  0.7957747E-01  0.3471584E+00
         13   -1    0    0    0    0  0.00000000000E+00  0.00000000000E+00  0.14999999963E+04  0.15000000000E+04  0.10566000000E+00 0.  1.
        994   -1    0    0    0    0 -0.00000000000E+00 -0.00000000000E+00  0.11368683772E-12  0.17120000000E+03  0.17120000000E+03 0.  0.
         13    1    1    2    0    0  0.93622193060E+01 -0.17471715445E+02  0.27008363857E+02  0.33501863727E+02  0.10566000000E+00 0.  1.
        994    1    1    2    0    0 -0.18645001532E+02  0.14356927348E+02  0.83727930160E+01  0.17301243050E+03  0.17120000000E+03 0.  0.
        998    1    1    2    0    0  0.92827822262E+01  0.31147880968E+01  0.14646188394E+04  0.14646857058E+04  0.10000000000E+02 0.  1.
</event>
<event>
 5    1  0.1252319E-008  0.3733477E+03  0.7957747E-01  0.3480645E+00
         13   -1    0    0    0    0  0.00000000000E+00  0.00000000000E+00  0.14999999963E+04  0.15000000000E+04  0.10566000000E+00 0.  1.
        994   -1    0    0    0    0 -0.00000000000E+00 -0.00000000000E+00  0.11368683772E-12  0.17120000000E+03  0.17120000000E+03 0.  0.
         13    1    1    2    0    0 -0.18986153720E+02  0.52481823314E+02  0.14899753422E+03  0.15910717199E+03  0.10566000000E+00 0.  1.
        994    1    1    2    0    0 -0.15278710465E+02  0.18186061362E+02  0.14718285439E+02  0.17346538487E+03  0.17120000000E+03 0.  0.
        998    1    1    2    0    0  0.34264864185E+02 -0.70667884676E+02  0.13362841766E+04  0.13386274431E+04  0.10000000000E+02 0.  1.
</event>
<event>
 5    1  0.1252319E-008  0.3813262E+03  0.7957747E-01  0.3445404E+00
         13   -1    0    0    0    0  0.00000000000E+00  0.00000000000E+00  0.14999999963E+04  0.15000000000E+04  0.10566000000E+00 0. -1.
        994   -1    0    0    0    0 -0.00000000000E+00 -0.00000000000E+00  0.11368683772E-12  0.17120000000E+03  0.17120000000E+03 0.  0.
         13    1    1    2    0    0  0.11724861456E+02  0.14844907557E+02  0.48294234683E+02  0.51867021548E+02  0.10566000000E+00 0. -1.
        994    1    1    2    0    0 -0.10854113906E+02 -0.20980906778E+02  0.53246548426E+01  0.17290402594E+03  0.17120000000E+03 0.  0.
        998    1    1    2    0    0 -0.87074754995E+00  0.61359992205E+01  0.14463811068E+04  0.14464289525E+04  0.10000000000E+02 0. -1.
</event>
<event>
 5    1  0.1252319E-008  0.3821729E+03  0.7957747E-01  0.3441751E+00
         13   -1    0    0    0    0  0.00000000000E+00  0.00000000000E+00  0.14999999963E+04  0.15000000000E+04  0.10566000000E+00 0. -1.
        994   -1    0    0    0    0 -0.00000000000E+00 -0.00000000000E+00  0.11368683772E-12  0.17120000000E+03  0.17120000000E+03 0.  0.
         13    1    1    2    0    0  0.17349962602E+02 -0.23167888035E+02  0.16499678302E+03  0.16751633296E+03  0.10566000000E+00 0. -1.
        994    1    1    2    0    0 -0.62313080162E+01 -0.12414047615E+02  0.36809085597E+01  0.17180199902E+03  0.17120000000E+03 0.  0.
        998    1    1    2    0    0 -0.11118654585E+02  0.35581935650E+02  0.13313223047E+04  0.13318816680E+04  0.10000000000E+02 0. -1.
</event>
<event>
 5    1  0.1252319E-008  0.3828597E+03  0.7957747E-01  0.3438800E+00
         13   -1    0    0    0    0  0.00000000000E+00  0.00000000000E+00  0.14999999963E+04  0.15000000000E+04  0.10566000000E+00 0. -1.
        994   -1    0    0    0    0 -0.00000000000E+00 -0.00000000000E+00  0.11368683772E-12  0.17120000000E+03  0.17120000000E+03 0.  0.
         13    1    1    2    0    0 -0.17083956039E+02  0.12566269739E+01  0.53899508587E+02  0.56556245060E+02  0.10566000000E+00 0. -1.
        994    1    1    2    0    0  0.97644100046E+01 -0.33952963414E+01  0.30504959167E+01  0.17153896719E+03  0.17120000000E+03 0.  0.
        998    1    1    2    0    0  0.73195460339E+01  0.21386693675E+01  0.14430499918E+04  0.14431047877E+04  0.10000000000E+02 0. -1.
</event>
<event>
 5    1  0.1252319E-008  0.3742999E+03  0.7957747E-01  0.3476360E+00
         13   -1    0    0    0    0  0.00000000000E+00  0.00000000000E+00  0.14999999963E+04  0.15000000000E+04  0.10566000000E+00 0. -1.
        994   -1    0    0    0    0 -0.00000000000E+00 -0.00000000000E+00  0.11368683772E-12  0.17120000000E+03  0.17120000000E+03 0.  0.
         13    1    1    2    0    0 -0.16924846890E+02 -0.11606382386E+03  0.60813397128E+03  0.61934174722E+03  0.10566000000E+00 0. -1.
        994    1    1    2    0    0 -0.14777858100E+01  0.11284462186E+03  0.51755966909E+02  0.21148099830E+03  0.17120000000E+03 0.  0.
        998    1    1    2    0    0  0.18402632700E+02  0.32192020034E+01  0.84011005809E+03  0.84037725448E+03  0.10000000000E+02 0. -1.
</event>
<event>
 5    1  0.1252319E-008  0.3846444E+03  0.7957747E-01  0.3431182E+00
         13   -1    0    0    0    0  0.00000000000E+00  0.00000000000E+00  0.14999999963E+04  0.15000000000E+04  0.10566000000E+00 0.  1.
        994   -1    0    0    0    0 -0.00000000000E+00 -0.00000000000E+00  0.11368683772E-12  0.17120000000E+03  0.17120000000E+03 0.  0.
         13    1    1    2    0    0 -0.95860318065E+01 -0.56412271198E+01  0.34606592610E+02  0.36350280127E+02  0.10566000000E+00 0.  1.
        994    1    1    2    0    0 -0.67609934560E+01  0.17843150606E+02  0.30064310879E+01  0.17228629569E+03  0.17120000000E+03 0.  0.
        998    1    1    2    0    0  0.16347025262E+02 -0.12201923487E+02  0.14623869726E+04  0.14625634242E+04  0.10000000000E+02 0.  1.
</event>
<event>
 5    1  0.1252319E-008  0.3829335E+03  0.7957747E-01  0.3438484E+00
         13   -1    0    0    0    0  0.00000000000E+00  0.00000000000E+00  0.14999999963E+04  0.15000000000E+04  0.10566000000E+00 0.  1.
        994   -1    0    0    0    0 -0.00000000000E+00 -0.00000000000E+00  0.11368683772E-12  0.17120000000E+03  0.17120000000E+03 0.  0.
         13    1    1    2    0    0 -0.35407741088E+02 -0.18093403448E+02  0.23722073968E+03  0.24053018496E+03  0.10566000000E+00 0.  1.
        994    1    1    2    0    0  0.39100968290E+02  0.25086087025E+02  0.98381020115E+01  0.17766379973E+03  0.17120000000E+03 0.  0.
        998    1    1    2    0    0 -0.36932272024E+01 -0.69926835769E+01  0.12529411546E+04  0.12530060153E+04  0.10000000000E+02 0.  1.
</event>
<event>
 5    1  0.1252319E-008  0.3694743E+03  0.7957747E-01  0.3498311E+00
         13   -1    0    0    0    0  0.00000000000E+00  0.00000000000E+00  0.14999999963E+04  0.15000000000E+04  0.10566000000E+00 0.  1.
        994   -1    0    0    0    0 -0.00000000000E+00 -0.00000000000E+00  0.11368683772E-12  0.17120000000E+03  0.17120000000E+03 0.  0.
         13    1    1    2    0    0  0.54800659737E+02 -0.50766812402E+01  0.15618222068E+03  0.16559523611E+03  0.10566000000E+00 0.  1.
        994    1    1    2    0    0 -0.29692001225E+01  0.46862123769E+02  0.18394969234E+02  0.17847321840E+03  0.17120000000E+03 0.  0.
        998    1    1    2    0    0 -0.51831459614E+02 -0.41785442529E+02  0.13254228064E+04  0.13271315455E+04  0.10000000000E+02 0.  1.
</event>
<event>
 5    1  0.1252319E-008  0.3771831E+03  0.7957747E-01  0.3463516E+00
         13   -1    0    0    0    0  0.00000000000E+00  0.00000000000E+00  0.14999999963E+04  0.15000000000E+04  0.10566000000E+00 0. -1.
        994   -1    0    0    0    0 -0.00000000000E+00 -0.00000000000E+00  0.11368683772E-12  0.17120000000E+03  0.17120000000E+03 0.  0.
         13    1    1    2    0    0  0.34545248000E+01 -0.18310470455E+02  0.54708563890E+01  0.19420311623E+02  0.10566000000E+00 0. -1.
        994    1    1    2    0    0  0.92321983739E+01 -0.25592202951E+01  0.15117836362E+02  0.17213300692E+03  0.17120000000E+03 0.  0.
        998    1    1    2    0    0 -0.12686723174E+02  0.20869690750E+02  0.14794113035E+04  0.14796466815E+04  0.10000000000E+02 0. -1.
</event>
<event>
 5    1  0.1252319E-008  0.3845333E+03  0.7957747E-01  0.3431654E+00
         13   -1    0    0    0    0  0.00000000000E+00  0.00000000000E+00  0.14999999963E+04  0.15000000000E+04  0.10566000000E+00 0. -1.
        994   -1    0    0    0    0 -0.00000000000E+00 -0.00000000000E+00  0.11368683772E-12  0.17120000000E+03  0.17120000000E+03 0.  0.
         13    1    1    2    0    0 -0.87622357895E+01 -0.85051984724E+01  0.40114241534E+02  0.41931834147E+02  0.10566000000E+00 0. -1.
        994    1    1    2    0    0  0.58182474271E+01  0.28131359638E+01  0.19995731264E+01  0.17133360450E+03  0.17120000000E+03 0.  0.
        998    1    1    2    0    0  0.29439883624E+01  0.56920625087E+01  0.14578861816E+04  0.14579345614E+04  0.10000000000E+02 0. -1.
</event>
<event>
 5    1  0.1704973E-008  0.3851582E+03  0.7957747E-01  0.3429002E+00
         13   -1    0    0    0    0  0.00000000000E+00  0.00000000000E+00  0.14999999963E+04  0.15000000000E+04  0.10566000000E+00 0. -1.
        994   -1    0    0    0    0 -0.00000000000E+00 -0.00000000000E+00  0.11368683772E-12  0.17120000000E+03  0.17120000000E+03 0.  0.
         13    1    1    2    0    0  0.44878088247E+01  0.12336275224E+02  0.55917505671E+02  0.57437816105E+02  0.10566000000E+00 0. -1.
        994    1    1    2    0    0 -0.66617642820E+00 -0.80301072164E+01  0.17650688698E+01  0.17139860525E+03  0.17120000000E+03 0.  0.
        998    1    1    2    0    0 -0.38216323965E+01 -0.43061680075E+01  0.14423174217E+04  0.14423635786E+04  0.10000000000E+02 0. -1.
</event>
<event>
 5    1  0.1252319E-008  0.3847274E+03  0.7957747E-01  0.3430829E+00
         13   -1    0    0    0    0  0.00000000000E+00  0.00000000000E+00  0.14999999963E+04  0.15000000000E+04  0.10566000000E+00 0. -1.
        994   -1    0    0    0    0 -0.00000000000E+00 -0.00000000000E+00  0.11368683772E-12  0.17120000000E+03  0.17120000000E+03 0.  0.
         13    1    1    2    0    0 -0.11913433855E+02 -0.15274039715E+01  0.41350524804E+02  0.43059725205E+02  0.10566000000E+00 0. -1.
        994    1    1    2    0    0  0.49151165853E+01 -0.32461495264E+01  0.18797637686E+01  0.17131161481E+03  0.17120000000E+03 0.  0.
        998    1    1    2    0    0  0.69983172698E+01  0.47735534979E+01  0.14567697077E+04  0.14568286600E+04  0.10000000000E+02 0. -1.
</event>
<event>
 5    1  0.1252319E-008  0.3850135E+03  0.7957747E-01  0.3429615E+00
         13   -1    0    0    0    0  0.00000000000E+00  0.00000000000E+00  0.14999999963E+04  0.15000000000E+04  0.10566000000E+00 0. -1.
        994   -1    0    0    0    0 -0.00000000000E+00 -0.00000000000E+00  0.11368683772E-12  0.17120000000E+03  0.17120000000E+03 0.  0.
         13    1    1    2    0    0 -0.12743577672E+02  0.63471545907E+01  0.61666496442E+02  0.63288648988E+02  0.10566000000E+00 0. -1.
        994    1    1    2    0    0  0.15019853073E+02  0.42478578564E+01  0.24250578203E+01  0.17192719735E+03  0.17120000000E+03 0.  0.
        998    1    1    2    0    0 -0.22762754007E+01 -0.10595012447E+02  0.14359084420E+04  0.14359841537E+04  0.10000000000E+02 0. -1.
</event>
<event>
 5    1  0.1252319E-008  0.3849508E+03  0.7957747E-01  0.3429881E+00
         13   -1    0    0    0    0  0.00000000000E+00  0.00000000000E+00  0.14999999963E+04  0.15000000000E+04  0.10566000000E+00 0.  1.
        994   -1    0    0    0    0 -0.00000000000E+00 -0.00000000000E+00  0.11368683772E-12  0.17120000000E+03  0.17120000000E+03 0.  0.
         13    1    1    2    0    0 -0.16165436111E+01 -0.11844513514E+02  0.40480585766E+02  0.42208941015E+02  0.10566000000E+00 0.  1.
        994    1    1    2    0    0  0.81788109441E+01  0.19525452646E+02  0.31299573450E+01  0.17253223723E+03  0.17120000000E+03 0.  0.
        998    1    1    2    0    0 -0.65622673330E+01 -0.76809391315E+01  0.14563894532E+04  0.14564588218E+04  0.10000000000E+02 0.  1.
</event>
<event>
 5    1  0.1252319E-008  0.3841748E+03  0.7957747E-01  0.3433180E+00
         13   -1    0    0    0    0  0.00000000000E+00  0.00000000000E+00  0.14999999963E+04  0.15000000000E+04  0.10566000000E+00 0.  1.
        994   -1    0    0    0    0 -0.00000000000E+00 -0.00000000000E+00  0.11368683772E-12  0.17120000000E+03  0.17120000000E+03 0.  0.
         13    1    1    2    0    0  0.51434151659E+01  0.11293576048E+02  0.36690749070E+02  0.38732696922E+02  0.10566000000E+00 0.  1.
        994    1    1    2    0    0 -0.56941654057E+01 -0.10503603380E+02  0.25112630120E+01  0.17163477400E+03  0.17120000000E+03 0.  0.
        998    1    1    2    0    0  0.55075023988E+00 -0.78997266835E+00  0.14607979842E+04  0.14608325291E+04  0.10000000000E+02 0.  1.
</event>
<event>
 5    1  0.1388516E-008  0.3863384E+03  0.7957747E-01  0.3424016E+00
         13   -1    0    0    0    0  0.00000000000E+00  0.00000000000E+00  0.14999999963E+04  0.15000000000E+04  0.10566000000E+00 0.  1.
        994   -1    0    0    0    0 -0.00000000000E+00 -0.00000000000E+00  0.11368683772E-12  0.17120000000E+03  0.17120000000E+03 0.  0.
         13    1    1    2    0    0  0.19021916751E+00  0.11104134665E+02  0.66532873602E+02  0.67453483407E+02  0.10566000000E+00 0.  1.
        994    1    1    2    0    0  0.27038645847E+01 -0.45043272274E+01  0.10574917522E+01  0.17128385253E+03  0.17120000000E+03 0.  0.
        998    1    1    2    0    0 -0.28940837523E+01 -0.65998074379E+01  0.14324096309E+04  0.14324626641E+04  0.10000000000E+02 0.  1.
</event>
<event>
 5    1  0.1252319E-008  0.3830666E+03  0.7957747E-01  0.3437914E+00
         13   -1    0    0    0    0  0.00000000000E+00  0.00000000000E+00  0.14999999963E+04  0.15000000000E+04  0.10566000000E+00 0. -1.
        994   -1    0    0    0    0 -0.00000000000E+00 -0.00000000000E+00  0.11368683772E-12  0.17120000000E+03  0.17120000000E+03 0.  0.
         13    1    1    2    0    0 -0.36984131633E+01  0.22327232725E+02  0.10192893343E+03  0.10441121691E+03  0.10566000000E+00 0. -1.
        994    1    1    2    0    0  0.16271837576E+01 -0.78192658521E+01  0.28042118024E+01  0.17140913701E+03  0.17120000000E+03 0.  0.
        998    1    1    2    0    0  0.20712294057E+01 -0.14507966872E+02  0.13952668510E+04  0.13953796461E+04  0.10000000000E+02 0. -1.
</event>
<event>
 5    1  0.1252319E-008  0.3838161E+03  0.7957747E-01  0.3434709E+00
         13   -1    0    0    0    0  0.00000000000E+00  0.00000000000E+00  0.14999999963E+04  0.15000000000E+04  0.10566000000E+00 0. -1.
        994   -1    0    0    0    0 -0.00000000000E+00 -0.00000000000E+00  0.11368683772E-12  0.17120000000E+03  0.17120000000E+03 0.  0.
         13    1    1    2    0    0  0.10811364006E+03 -0.40362855317E+02  0.58230898340E+03  0.59363413191E+03  0.10566000000E+00 0. -1.
        994    1    1    2    0    0 -0.15582206438E+01  0.28911079729E+02  0.21526012529E+02  0.17496024634E+03  0.17120000000E+03 0.  0.
        998    1    1    2    0    0 -0.10655541941E+03  0.11451775587E+02  0.89616500035E+03  0.90260562175E+03  0.10000000000E+02 0. -1.
</event>
<event>
 5    1  0.1523840E-008  0.3862303E+03  0.7957747E-01  0.3424471E+00
         13   -1    0    0    0    0  0.00000000000E+00  0.00000000000E+00  0.14999999963E+04  0.15000000000E+04  0.10566000000E+00 0. -1.
        994   -1    0    0    0    0 -0.00000000000E+00 -0.00000000000E+00  0.11368683772E-12  0.17120000000E+03  0.17120000000E+03 0.  0.
         13    1    1    2    0    0  0.10549850157E+02  0.49536332752E+01  0.69144491801E+02  0.70119966710E+02  0.10566000000E+00 0. -1.
        994    1    1    2    0    0 -0.21670424755E+01 -0.72937447748E+01  0.12102103492E+01  0.17137327503E+03  0.17120000000E+03 0.  0.
        998    1    1    2    0    0 -0.83828076810E+01  0.23401114996E+01  0.14296452941E+04  0.14297067583E+04  0.10000000000E+02 0. -1.
</event>
<event>
 5    1  0.1252319E-008  0.3901501E+03  0.7957747E-01  0.3408119E+00
         13   -1    0    0    0    0  0.00000000000E+00  0.00000000000E+00  0.14999999963E+04  0.15000000000E+04  0.10566000000E+00 0.  1.
        994   -1    0    0    0    0 -0.00000000000E+00 -0.00000000000E+00  0.11368683772E-12  0.17120000000E+03  0.17120000000E+03 0.  0.
         13    1    1    2    0    0  0.86230394145E+02 -0.25876349956E+02  0.31912965778E+03  0.33158560886E+03  0.10566000000E+00 0.  1.
        994    1    1    2    0    0  0.59371773694E+02  0.11288106596E+01  0.35416136079E+02  0.18463484075E+03  0.17120000000E+03 0.  0.
        998    1    1    2    0    0 -0.14560216784E+03  0.24747539296E+02  0.11454542024E+04  0.11549795504E+04  0.10000000000E+02 0.  1.
</event>
<event>
 5    1  0.1252319E-008  0.3835864E+03  0.7957747E-01  0.3435690E+00
         13   -1    0    0    0    0  0.00000000000E+00  0.00000000000E+00  0.14999999963E+04  0.15000000000E+04  0.10566000000E+00 0.  1.
        994   -1    0    0    0    0 -0.00000000000E+00 -0.00000000000E+00  0.11368683772E-12  0.17120000000E+03  0.17120000000E+03 0.  0.
         13    1    1    2    0    0  0.87519091309E+01 -0.20168320767E+02  0.99586430111E+02  0.10198443657E+03  0.10566000000E+00 0.  1.
        994    1    1    2    0    0 -0.65074593369E+01  0.17671994168E+02  0.35061651790E+01  0.17226833603E+03  0.17120000000E+03 0.  0.
        998    1    1    2    0    0 -0.22444497940E+01  0.24963265997E+01  0.13969074010E+04  0.13969472274E+04  0.10000000000E+02 0.  1.
</event>
<event>
 5    1  0.1252319E-008  0.3813156E+03  0.7957747E-01  0.3445450E+00
         13   -1    0    0    0    0  0.00000000000E+00  0.00000000000E+00  0.14999999963E+04  0.15000000000E+04  0.10566000000E+00 0. -1.
        994   -1    0    0    0    0 -0.00000000000E+00 -0.00000000000E+00  0.11368683772E-12  0.17120000000E+03  0.17120000000E+03 0.  0.
         13    1    1    2    0    0 -0.10878761914E+02  0.72549673068E+01  0.23589077754E+02  0.26971054201E+02  0.10566000000E+00 0. -1.
        994    1    1    2    0    0  0.47781252085E+01 -0.66494017531E+00  0.35479982816E+01  0.17130470197E+03  0.17120000000E+03 0.  0.
        998    1    1    2    0    0  0.61006367052E+01 -0.65900271314E+01  0.14728629202E+04  0.14729242438E+04  0.10000000000E+02 0. -1.
</event>
<event>
 5    1  0.1252319E-008  0.3830781E+03  0.7957747E-01  0.3437864E+00
         13   -1    0    0    0    0  0.00000000000E+00  0.00000000000E+00  0.14999999963E+04  0.15000000000E+04  0.10566000000E+00 0. -1.
        994   -1    0    0    0    0 -0.00000000000E+00 -0.00000000000E+00  0.11368683772E-12  0.17120000000E+03  0.17120000000E+03 0.  0.
         13    1    1    2    0    0  0.38267535242E+01  0.10544386752E+02  0.23284395961E+02  0.25845742276E+02  0.10566000000E+00 0. -1.
        994    1    1    2    0    0 -0.31111735904E+01 -0.86793067123E+01  0.28687155957E+01  0.17147209480E+03  0.17120000000E+03 0.  0.
        998    1    1    2    0    0 -0.71557993376E+00 -0.18650800398E+01  0.14738468847E+04  0.14738821629E+04  0.10000000000E+02 0. -1.
</event>
<event>
 5    1  0.1252319E-008  0.3778137E+03  0.7957747E-01  0.3460734E+00
         13   -1    0    0    0    0  0.00000000000E+00  0.00000000000E+00  0.14999999963E+04  0.15000000000E+04  0.10566000000E+00 0. -1.
        994   -1    0    0    0    0 -0.00000000000E+00 -0.00000000000E+00  0.11368683772E-12  0.17120000000E+03  0.17120000000E+03 0.  0.
         13    1    1    2    0    0  0.30650591645E+02 -0.20133832438E+01  0.92831052806E+02  0.97781020702E+02  0.10566000000E+00 0. -1.
        994    1    1    2    0    0 -0.80369278028E+01 -0.87483192498E+01  0.57162271939E+01  0.17170684480E+03  0.17120000000E+03 0.  0.
        998    1    1    2    0    0 -0.22613663842E+02  0.10761702494E+02  0.14014527163E+04  0.14017121345E+04  0.10000000000E+02 0. -1.
</event>
<event>
 5    1  0.1252319E-008  0.3831825E+03  0.7957747E-01  0.3437417E+00
         13   -1    0    0    0    0  0.00000000000E+00  0.00000000000E+00  0.14999999963E+04  0.15000000000E+04  0.10566000000E+00 0.  1.
        994   -1    0    0    0    0 -0.00000000000E+00 -0.00000000000E+00  0.11368683772E-12  0.17120000000E+03  0.17120000000E+03 0.  0.
         13    1    1    2    0    0  0.13878202229E+02  0.17435665536E+02  0.12059363717E+03  0.12263540850E+03  0.10566000000E+00 0.  1.
        994    1    1    2    0    0  0.10577772273E+02  0.11474537624E+02  0.33413149398E+01  0.17194231203E+03  0.17120000000E+03 0.  0.
        998    1    1    2    0    0 -0.24455974503E+02 -0.28910203161E+02  0.13760650442E+04  0.13766222795E+04  0.10000000000E+02 0.  1.
</event>
<event>
 5    1  0.1252319E-008  0.3808982E+03  0.7957747E-01  0.3447257E+00
         13   -1    0    0    0    0  0.00000000000E+00  0.00000000000E+00  0.14999999963E+04  0.15000000000E+04  0.10566000000E+00 0.  1.
        994   -1    0    0    0    0 -0.00000000000E+00 -0.00000000000E+00  0.11368683772E-12  0.17120000000E+03  0.17120000000E+03 0.  0.
         13    1    1    2    0    0 -0.43139140607E+02  0.88503893729E+02  0.30301911452E+03  0.31861343284E+03  0.10566000000E+00 0.  1.
        994    1    1    2    0    0  0.39941035684E+02 -0.32348782719E+02  0.26488496844E+02  0.18070088694E+03  0.17120000000E+03 0.  0.
        998    1    1    2    0    0  0.31981049228E+01 -0.56155111011E+02  0.11704923849E+04  0.11718856802E+04  0.10000000000E+02 0.  1.
</event>
<event>
 5    1  0.1252319E-008  0.3693494E+03  0.7957747E-01  0.3498886E+00
         13   -1    0    0    0    0  0.00000000000E+00  0.00000000000E+00  0.14999999963E+04  0.15000000000E+04  0.10566000000E+00 0. -1.
        994   -1    0    0    0    0 -0.00000000000E+00 -0.00000000000E+00  0.11368683772E-12  0.17120000000E+03  0.17120000000E+03 0.  0.
         13    1    1    2    0    0  0.63336169323E+00 -0.22193253279E+02  0.18345789499E+02  0.28801402649E+02  0.10566000000E+00 0. -1.
        994    1    1    2    0    0  0.55491113452E+01  0.25186214732E+02  0.12918705171E+02  0.17361299200E+03  0.17120000000E+03 0.  0.
        998    1    1    2    0    0 -0.61824730385E+01 -0.29929614530E+01  0.14687355016E+04  0.14687856053E+04  0.10000000000E+02 0. -1.
</event>
<event>
 5    1  0.1252319E-008  0.3792289E+03  0.7957747E-01  0.3454523E+00
         13   -1    0    0    0    0  0.00000000000E+00  0.00000000000E+00  0.14999999963E+04  0.15000000000E+04  0.10566000000E+00 0.  1.
        994   -1    0    0    0    0 -0.00000000000E+00 -0.00000000000E+00  0.11368683772E-12  0.17120000000E+03  0.17120000000E+03 0.  0.
         13    1    1    2    0    0 -0.45985069048E+02  0.77214060569E+01  0.60810701290E+02  0.76630276277E+02  0.10566000000E+00 0.  1.
        994    1    1    2    0    0  0.42252807328E+02 -0.88326974532E+01  0.22667437326E+02  0.17800721611E+03  0.17120000000E+03 0.  0.
        998    1    1    2    0    0  0.37322617192E+01  0.11112913964E+01  0.14165218577E+04  0.14165625076E+04  0.10000000000E+02 0.  1.
</event>
<event>
 5    1  0.1252319E-008  0.3841808E+03  0.7957747E-01  0.3433154E+00
         13   -1    0    0    0    0  0.00000000000E+00  0.00000000000E+00  0.14999999963E+04  0.15000000000E+04  0.10566000000E+00 0.  1.
        994   -1    0    0    0    0 -0.00000000000E+00 -0.00000000000E+00  0.11368683772E-12  0.17120000000E+03  0.17120000000E+03 0.  0.
         13    1    1    2    0    0 -0.12131410923E+02 -0.10344193758E+02  0.74051965417E+02  0.75748783632E+02  0.10566000000E+00 0.  1.
        994    1    1    2    0    0 -0.23094189002E+02  0.14968851595E-01  0.37980292701E+01  0.17279238067E+03  0.17120000000E+03 0.  0.
        998    1    1    2    0    0  0.35225599925E+02  0.10329224906E+02  0.14221500016E+04  0.14226588357E+04  0.10000000000E+02 0.  1.
</event>
<event>
 5    1  0.1252319E-008  0.3919460E+03  0.7957747E-01  0.3400737E+00
         13   -1    0    0    0    0  0.00000000000E+00  0.00000000000E+00  0.14999999963E+04  0.15000000000E+04  0.10566000000E+00 0. -1.
        994   -1    0    0    0    0 -0.00000000000E+00 -0.00000000000E+00  0.11368683772E-12  0.17120000000E+03  0.17120000000E+03 0.  0.
         13    1    1    2    0    0 -0.13677550973E+02 -0.23508345861E+02  0.61642638289E+01  0.27887757857E+02  0.10566000000E+00 0. -1.
        994    1    1    2    0    0  0.16367617244E+02  0.19894799936E+02  0.25570086613E+02  0.17500563216E+03  0.17120000000E+03 0.  0.
        998    1    1    2    0    0 -0.26900662716E+01  0.36135459254E+01  0.14682656458E+04  0.14683066100E+04  0.10000000000E+02 0. -1.
</event>
<event>
 5    1  0.1252319E-008  0.3201929E+03  0.7957747E-01  0.3761635E+00
         13   -1    0    0    0    0  0.00000000000E+00  0.00000000000E+00  0.14999999963E+04  0.15000000000E+04  0.10566000000E+00 0.  1.
        994   -1    0    0    0    0 -0.00000000000E+00 -0.00000000000E+00  0.11368683772E-12  0.17120000000E+03  0.17120000000E+03 0.  0.
         13    1    1    2    0    0  0.12468237568E+03 -0.16178469643E+03  0.87657377668E+03  0.90005643153E+03  0.10566000000E+00 0.  1.
        994    1    1    2    0    0 -0.87234669361E+02  0.10802417376E+03  0.97450350526E+02  0.24100854855E+03  0.17120000000E+03 0.  0.
        998    1    1    2    0    0 -0.37447706323E+02  0.53760522671E+02  0.52597586907E+03  0.53013501993E+03  0.10000000000E+02 0.  1.
</event>
<event>
 5    1  0.1252319E-008  0.3795251E+03  0.7957747E-01  0.3453229E+00
         13   -1    0    0    0    0  0.00000000000E+00  0.00000000000E+00  0.14999999963E+04  0.15000000000E+04  0.10566000000E+00 0. -1.
        994   -1    0    0    0    0 -0.00000000000E+00 -0.00000000000E+00  0.11368683772E-12  0.17120000000E+03  0.17120000000E+03 0.  0.
         13    1    1    2    0    0 -0.23289831717E+02 -0.92018269013E+01  0.74101952597E+02  0.78218926242E+02  0.10566000000E+00 0. -1.
        994    1    1    2    0    0  0.18692056409E+01  0.38686140652E+01  0.44348520314E+01  0.17131131900E+03  0.17120000000E+03 0.  0.
        998    1    1    2    0    0  0.21420626076E+02  0.53332128361E+01  0.14214631917E+04  0.14216697548E+04  0.10000000000E+02 0. -1.
</event>
<event>
 5    1  0.1252319E-008  0.3831634E+03  0.7957747E-01  0.3437499E+00
         13   -1    0    0    0    0  0.00000000000E+00  0.00000000000E+00  0.14999999963E+04  0.15000000000E+04  0.10566000000E+00 0.  1.
        994   -1    0    0    0    0 -0.00000000000E+00 -0.00000000000E+00  0.11368683772E-12  0.17120000000E+03  0.17120000000E+03 0.  0.
         13    1    1    2    0    0 -0.60483702434E+01  0.18883095876E+02  0.73736048663E+02  0.76355550741E+02  0.10566000000E+00 0.  1.
        994    1    1    2    0    0  0.99138261401E+01 -0.17309325637E+02  0.38622032159E+01  0.17240143073E+03  0.17120000000E+03 0.  0.
        998    1    1    2    0    0 -0.38654558967E+01 -0.15737702392E+01  0.14224017444E+04  0.14224430185E+04  0.10000000000E+02 0.  1.
</event>
<event>
 5    1  0.1252319E-008  0.3858130E+03  0.7957747E-01  0.3426232E+00
         13   -1    0    0    0    0  0.00000000000E+00  0.00000000000E+00  0.14999999963E+04  0.15000000000E+04  0.10566000000E+00 0. -1.
        994   -1    0    0    0    0 -0.00000000000E+00 -0.00000000000E+00  0.11368683772E-12  0.17120000000E+03  0.17120000000E+03 0.  0.
         13    1    1    2    0    0 -0.10215460288E+02  0.50237265792E+01  0.55822079497E+02  0.56971125854E+02  0.10566000000E+00 0. -1.
        994    1    1    2    0    0 -0.50241048204E+01 -0.12476312404E+02  0.18206315105E+01  0.17173716750E+03  0.17120000000E+03 0.  0.
        998    1    1    2    0    0  0.15239565108E+02  0.74525858243E+01  0.14423572853E+04  0.14424917067E+04  0.10000000000E+02 0. -1.
</event>
<event>
 5    1  0.1252319E-008  0.3711032E+03  0.7957747E-01  0.3490836E+00
         13   -1    0    0    0    0  0.00000000000E+00  0.00000000000E+00  0.14999999963E+04  0.15000000000E+04  0.10566000000E+00 0. -1.
        994   -1    0    0    0    0 -0.00000000000E+00 -0.00000000000E+00  0.11368683772E-12  0.17120000000E+03  0.17120000000E+03 0.  0.
         13    1    1    2    0    0  0.63747148176E+01  0.30069512552E+02  0.49154479849E+02  0.57974016830E+02  0.10566000000E+00 0. -1.
        994    1    1    2    0    0 -0.15176227664E+02 -0.30392334256E+02  0.12679007337E+02  0.17499774026E+03  0.17120000000E+03 0.  0.
        998    1    1    2    0    0  0.88015128461E+01  0.32282170463E+00  0.14381665091E+04  0.14382282429E+04  0.10000000000E+02 0. -1.
</event>
<event>
 5    1  0.1252319E-008  0.3839104E+03  0.7957747E-01  0.3434306E+00
         13   -1    0    0    0    0  0.00000000000E+00  0.00000000000E+00  0.14999999963E+04  0.15000000000E+04  0.10566000000E+00 0. -1.
        994   -1    0    0    0    0 -0.00000000000E+00 -0.00000000000E+00  0.11368683772E-12  0.17120000000E+03  0.17120000000E+03 0.  0.
         13    1    1    2    0    0  0.41926762059E+01  0.15604627954E+02  0.57776054327E+02  0.59993054307E+02  0.10566000000E+00 0. -1.
        994    1    1    2    0    0  0.83573223389E+01 -0.19610548678E+02  0.36732229451E+01  0.17256115155E+03  0.17120000000E+03 0.  0.
        998    1    1    2    0    0 -0.12549998545E+02  0.40059207231E+01  0.14385507190E+04  0.14386457941E+04  0.10000000000E+02 0. -1.
</event>
<event>
 5    1  0.1252319E-008  0.3721746E+03  0.7957747E-01  0.3485956E+00
         13   -1    0    0    0    0  0.00000000000E+00  0.00000000000E+00  0.14999999963E+04  0.15000000000E+04  0.10566000000E+00 0. -1.
        994   -1    0    0    0    0 -0.00000000000E+00 -0.00000000000E+00  0.11368683772E-12  0.17120000000E+03  0.17120000000E+03 0.  0.
         13    1    1    2    0    0  0.18042803478E+02 -0.35028519258E+01  0.85257538951E+01  0.20261104918E+02  0.10566000000E+00 0. -1.
        994    1    1    2    0    0 -0.16680483444E+02  0.27527380979E+01  0.13100816372E+02  0.17253083053E+03  0.17120000000E+03 0.  0.
        998    1    1    2    0    0 -0.13623200341E+01  0.75011382790E+00  0.14783734260E+04  0.14784080645E+04  0.10000000000E+02 0. -1.
</event>
<event>
 5    1  0.1252319E-008  0.3850669E+03  0.7957747E-01  0.3429388E+00
         13   -1    0    0    0    0  0.00000000000E+00  0.00000000000E+00  0.14999999963E+04  0.15000000000E+04  0.10566000000E+00 0.  1.
        994   -1    0    0    0    0 -0.00000000000E+00 -0.00000000000E+00  0.11368683772E-12  0.17120000000E+03  0.17120000000E+03 0.  0.
         13    1    1    2    0    0 -0.22427786739E+02  0.26694074357E+01  0.13141982998E+03  0.13334659437E+03  0.10566000000E+00 0.  1.
        994    1    1    2    0    0  0.34208603713E+02 -0.40877618366E+02  0.10995043091E+02  0.17964281011E+03  0.17120000000E+03 0.  0.
        998    1    1    2    0    0 -0.11780816974E+02  0.38208210931E+02  0.13575851232E+04  0.13582105955E+04  0.10000000000E+02 0.  1.
</event>
<event>
 5    1  0.1252319E-008  0.3852802E+03  0.7957747E-01  0.3428485E+00
         13   -1    0    0    0    0  0.00000000000E+00  0.00000000000E+00  0.14999999963E+04  0.15000000000E+04  0.10566000000E+00 0. -1.
        994   -1    0    0    0    0 -0.00000000000E+00 -0.00000000000E+00  0.11368683772E-12  0.17120000000E+03  0.17120000000E+03 0.  0.
         13    1    1    2    0    0  0.10427075732E+02 -0.32629780963E+01  0.39211037682E+02  0.40704883915E+02  0.10566000000E+00 0. -1.
        994    1    1    2    0    0 -0.10121264654E+02  0.57622806660E+01  0.19369187395E+01  0.17160663021E+03  0.17120000000E+03 0.  0.
        998    1    1    2    0    0 -0.30581107863E+00 -0.24993025697E+01  0.14588520399E+04  0.14588884859E+04  0.10000000000E+02 0. -1.
</event>
<event>
 5    1  0.1252319E-008  0.3819782E+03  0.7957747E-01  0.3442590E+00
         13   -1    0    0    0    0  0.00000000000E+00  0.00000000000E+00  0.14999999963E+04  0.15000000000E+04  0.10566000000E+00 0.  1.
        994   -1    0    0    0    0 -0.00000000000E+00 -0.00000000000E+00  0.11368683772E-12  0.17120000000E+03  0.17120000000E+03 0.  0.
         13    1    1    2    0    0 -0.70208549586E+02 -0.68446757276E+02  0.22309009554E+03  0.24368709632E+03  0.10566000000E+00 0.  1.
        994    1    1    2    0    0  0.12572752922E+03  0.20580319578E+02  0.79360977976E+02  0.22768084237E+03  0.17120000000E+03 0.  0.
        998    1    1    2    0    0 -0.55518979633E+02  0.47866437698E+02  0.11975489228E+04  0.11998320613E+04  0.10000000000E+02 0.  1.
</event>
<event>
 5    1  0.1252319E-008  0.3840400E+03  0.7957747E-01  0.3433754E+00
         13   -1    0    0    0    0  0.00000000000E+00  0.00000000000E+00  0.14999999963E+04  0.15000000000E+04  0.10566000000E+00 0. -1.
        994   -1    0    0    0    0 -0.00000000000E+00 -0.00000000000E+00  0.11368683772E-12  0.17120000000E+03  0.17120000000E+03 0.  0.
         13    1    1    2    0    0 -0.56899595127E+01  0.10336337973E+02  0.34326316657E+02  0.36297695536E+02  0.10566000000E+00 0. -1.
        994    1    1    2    0    0 -0.10189543305E+02  0.20021490201E+00  0.24502228341E+01  0.17152058323E+03  0.17120000000E+03 0.  0.
        998    1    1    2    0    0  0.15879502818E+02 -0.10536552875E+02  0.14632234568E+04  0.14633817212E+04  0.10000000000E+02 0. -1.
</event>
<event>
 5    1  0.1252319E-008  0.3800823E+03  0.7957747E-01  0.3450800E+00
         13   -1    0    0    0    0  0.00000000000E+00  0.00000000000E+00  0.14999999963E+04  0.15000000000E+04  0.10566000000E+00 0. -1.
        994   -1    0    0    0    0 -0.00000000000E+00 -0.00000000000E+00  0.11368683772E-12  0.17120000000E+03  0.17120000000E+03 0.  0.
         13    1    1    2    0    0  0.39178939626E+02  0.86465641733E+00  0.16982621793E+03  0.17428910581E+03  0.10566000000E+00 0. -1.
        994    1    1    2    0    0 -0.37861693579E+02  0.23116859319E+02  0.10696521237E+02  0.17717717853E+03  0.17120000000E+03 0.  0.
        998    1    1    2    0    0 -0.13172460470E+01 -0.23981515736E+02  0.13194772571E+04  0.13197337157E+04  0.10000000000E+02 0. -1.
</event>
<event>
 5    1  0.1252319E-008  0.3824590E+03  0.7957747E-01  0.3440521E+00
         13   -1    0    0    0    0  0.00000000000E+00  0.00000000000E+00  0.14999999963E+04  0.15000000000E+04  0.10566000000E+00 0.  1.
        994   -1    0    0    0    0 -0.00000000000E+00 -0.00000000000E+00  0.11368683772E-12  0.17120000000E+03  0.17120000000E+03 0.  0.
         13    1    1    2    0    0  0.41029886806E+02  0.16983686326E+02  0.26416121558E+03  0.26786760945E+03  0.10566000000E+00 0.  1.
        994    1    1    2    0    0 -0.44498994906E+02 -0.26519480956E+02  0.11846735414E+02  0.17925743655E+03  0.17120000000E+03 0.  0.
        998    1    1    2    0    0  0.34691081002E+01  0.95357946299E+01  0.12239920453E+04  0.12240749540E+04  0.10000000000E+02 0.  1.
</event>
<event>
 5    1  0.1252319E-008  0.3719000E+03  0.7957747E-01  0.3487204E+00
         13   -1    0    0    0    0  0.00000000000E+00  0.00000000000E+00  0.14999999963E+04  0.15000000000E+04  0.10566000000E+00 0. -1.
        994   -1    0    0    0    0 -0.00000000000E+00 -0.00000000000E+00  0.11368683772E-12  0.17120000000E+03  0.17120000000E+03 0.  0.
         13    1    1    2    0    0  0.32580525844E+02  0.43283732302E+01  0.60084033467E+02  0.68485967327E+02  0.10566000000E+00 0. -1.
        994    1    1    2    0    0 -0.31007537961E+02 -0.85096142147E+01  0.11839135358E+02  0.17459520632E+03  0.17120000000E+03 0.  0.
        998    1    1    2    0    0 -0.15729878827E+01  0.41812409846E+01  0.14280768275E+04  0.14281188264E+04  0.10000000000E+02 0. -1.
</event>
<event>
 5    1  0.1252319E-008  0.3710350E+03  0.7957747E-01  0.3491148E+00
         13   -1    0    0    0    0  0.00000000000E+00  0.00000000000E+00  0.14999999963E+04  0.15000000000E+04  0.10566000000E+00 0.  1.
        994   -1    0    0    0    0 -0.00000000000E+00 -0.00000000000E+00  0.11368683772E-12  0.17120000000E+03  0.17120000000E+03 0.  0.
         13    1    1    2    0    0 -0.12355181273E+02 -0.17214091897E+01  0.49828874760E+01  0.13433319974E+02  0.10566000000E+00 0.  1.
        994    1    1    2    0    0  0.31255439483E+01  0.29462847413E+01  0.87926803820E+01  0.17147944730E+03  0.17120000000E+03 0.  0.
        998    1    1    2    0    0  0.92296373243E+01 -0.12248755516E+01  0.14862244284E+04  0.14862872327E+04  0.10000000000E+02 0.  1.
</event>
<event>
 5    1  0.1252319E-008  0.3737171E+03  0.7957747E-01  0.3478980E+00
         13   -1    0    0    0    0  0.00000000000E+00  0.00000000000E+00  0.14999999963E+04  0.15000000000E+04  0.10566000000E+00 0.  1.
        994   -1    0    0    0    0 -0.00000000000E+00 -0.00000000000E+00  0.11368683772E-12  0.17120000000E+03  0.17120000000E+03 0.  0.
         13    1    1    2    0    0 -0.17731202920E+02 -0.24612192978E+02  0.58231992391E+02  0.65659208814E+02  0.10566000000E+00 0.  1.
        994    1    1    2    0    0  0.15144348685E+02  0.24038113749E+02  0.10099639594E+02  0.17383505092E+03  0.17120000000E+03 0.  0.
        998    1    1    2    0    0  0.25868542350E+01  0.57407922865E+00  0.14316683643E+04  0.14317057403E+04  0.10000000000E+02 0.  1.
</event>
<event>
 5    1  0.1252319E-008  0.3698394E+03  0.7957747E-01  0.3496629E+00
         13   -1    0    0    0    0  0.00000000000E+00  0.00000000000E+00  0.14999999963E+04  0.15000000000E+04  0.10566000000E+00 0.  1.
        994   -1    0    0    0    0 -0.00000000000E+00 -0.00000000000E+00  0.11368683772E-12  0.17120000000E+03  0.17120000000E+03 0.  0.
         13    1    1    2    0    0 -0.14154609833E+02 -0.53091899695E+02  0.11977406562E+03  0.13177610084E+03  0.10566000000E+00 0.  1.
        994    1    1    2    0    0 -0.18108565927E+02  0.73227732447E+02  0.31009484455E+02  0.18963451449E+03  0.17120000000E+03 0.  0.
        998    1    1    2    0    0  0.32263175760E+02 -0.20135832752E+02  0.13492164462E+04  0.13497893847E+04  0.10000000000E+02 0.  1.
</event>
<event>
 5    1  0.1252319E-008  0.3750145E+03  0.7957747E-01  0.3473158E+00
         13   -1    0    0    0    0  0.00000000000E+00  0.00000000000E+00  0.14999999963E+04  0.15000000000E+04  0.10566000000E+00 0.  1.
        994   -1    0    0    0    0 -0.00000000000E+00 -0.00000000000E+00  0.11368683772E-12  0.17120000000E+03  0.17120000000E+03 0.  0.
         13    1    1    2    0    0  0.13801657026E+02  0.13408808664E+03  0.53165426248E+03  0.54847640487E+03  0.10566000000E+00 0.  1.
        994    1    1    2    0    0 -0.15361879248E+02 -0.10536909866E+03  0.55150324616E+02  0.20902065111E+03  0.17120000000E+03 0.  0.
        998    1    1    2    0    0  0.15602222222E+01 -0.28718987984E+02  0.91319540918E+03  0.91370294402E+03  0.10000000000E+02 0.  1.
</event>
<event>
 5    1  0.1252319E-008  0.4154726E+03  0.7957747E-01  0.3309895E+00
         13   -1    0    0    0    0  0.00000000000E+00  0.00000000000E+00  0.14999999963E+04  0.15000000000E+04  0.10566000000E+00 0.  1.
        994   -1    0    0    0    0 -0.00000000000E+00 -0.00000000000E+00  0.11368683772E-12  0.17120000000E+03  0.17120000000E+03 0.  0.
         13    1    1    2    0    0 -0.94933726423E+02  0.88796342600E+02  0.19231275049E+03  0.23212369124E+03  0.10566000000E+00 0.  1.
        994    1    1    2    0    0  0.79674808298E+02 -0.91123303982E+02  0.10184746998E+03  0.23309628643E+03  0.17120000000E+03 0.  0.
        998    1    1    2    0    0  0.15258918125E+02  0.23269613826E+01  0.12058397758E+04  0.12059800223E+04  0.10000000000E+02 0.  1.
</event>
<event>
 5    1  0.1252319E-008  0.3840058E+03  0.7957747E-01  0.3433899E+00
         13   -1    0    0    0    0  0.00000000000E+00  0.00000000000E+00  0.14999999963E+04  0.15000000000E+04  0.10566000000E+00 0. -1.
        994   -1    0    0    0    0 -0.00000000000E+00 -0.00000000000E+00  0.11368683772E-12  0.17120000000E+03  0.17120000000E+03 0.  0.
         13    1    1    2    0    0  0.89174162294E+01 -0.81594025923E+01  0.33472246679E+02  0.35587899976E+02  0.10566000000E+00 0. -1.
        994    1    1    2    0    0 -0.15839544309E+01  0.14249736344E+02  0.28030268609E+01  0.17182217801E+03  0.17120000000E+03 0.  0.
        998    1    1    2    0    0 -0.73334617985E+01 -0.60903337512E+01  0.14637247227E+04  0.14637899220E+04  0.10000000000E+02 0. -1.
</event>
<event>
 5    1  0.1252319E-008  0.3811181E+03  0.7957747E-01  0.3446304E+00
         13   -1    0    0    0    0  0.00000000000E+00  0.00000000000E+00  0.14999999963E+04  0.15000000000E+04  0.10566000000E+00 0.  1.
        994   -1    0    0    0    0 -0.00000000000E+00 -0.00000000000E+00  0.11368683772E-12  0.17120000000E+03  0.17120000000E+03 0.  0.
         13    1    1    2    0    0  0.88394795379E+01 -0.74045674839E+01  0.17110992478E+02  0.20633982789E+02  0.10566000000E+00 0.  1.
        994    1    1    2    0    0 -0.84682624921E+01  0.36485536489E+01  0.38530339452E+01  0.17149142627E+03  0.17120000000E+03 0.  0.
        998    1    1    2    0    0 -0.37121704573E+00  0.37560138351E+01  0.14790359699E+04  0.14790745909E+04  0.10000000000E+02 0.  1.
</event>
<event>
 5    1  0.1252319E-008  0.3823250E+03  0.7957747E-01  0.3441097E+00
         13   -1    0    0    0    0  0.00000000000E+00  0.00000000000E+00  0.14999999963E+04  0.15000000000E+04  0.10566000000E+00 0.  1.
        994   -1    0    0    0    0 -0.00000000000E+00 -0.00000000000E+00  0.11368683772E-12  0.17120000000E+03  0.17120000000E+03 0.  0.
         13    1    1    2    0    0 -0.10687345087E+02 -0.29427002010E+02  0.14871078173E+03  0.15197064045E+03  0.10566000000E+00 0.  1.
        994    1    1    2    0    0  0.68666175557E+01  0.32083552372E+02  0.65435074560E+01  0.17443841968E+03  0.17120000000E+03 0.  0.
        998    1    1    2    0    0  0.38207275314E+01 -0.26565503622E+01  0.13447457071E+04  0.13447909399E+04  0.10000000000E+02 0.  1.
</event>
<event>
 5    1  0.1252319E-008  0.3833369E+03  0.7957747E-01  0.3436756E+00
         13   -1    0    0    0    0  0.00000000000E+00  0.00000000000E+00  0.14999999963E+04  0.15000000000E+04  0.10566000000E+00 0.  1.
        994   -1    0    0    0    0 -0.00000000000E+00 -0.00000000000E+00  0.11368683772E-12  0.17120000000E+03  0.17120000000E+03 0.  0.
         13    1    1    2    0    0 -0.13111301197E+02 -0.23507301576E+02  0.13512605427E+03  0.13778084466E+03  0.10566000000E+00 0.  1.
        994    1    1    2    0    0 -0.15767759782E+01  0.32554198270E+02  0.59783694464E+01  0.17437730055E+03  0.17120000000E+03 0.  0.
        998    1    1    2    0    0  0.14688077175E+02 -0.90468966943E+01  0.13588955726E+04  0.13590418548E+04  0.10000000000E+02 0.  1.
</event>
<event>
 5    1  0.1252319E-008  0.3826526E+03  0.7957747E-01  0.3439689E+00
         13   -1    0    0    0    0  0.00000000000E+00  0.00000000000E+00  0.14999999963E+04  0.15000000000E+04  0.10566000000E+00 0.  1.
        994   -1    0    0    0    0 -0.00000000000E+00 -0.00000000000E+00  0.11368683772E-12  0.17120000000E+03  0.17120000000E+03 0.  0.
         13    1    1    2    0    0 -0.13637241899E+02 -0.11308235182E+02  0.55554850500E+02  0.58311260727E+02  0.10566000000E+00 0.  1.
        994    1    1    2    0    0  0.62704259950E+01  0.81859349732E+01  0.31525317623E+01  0.17153922651E+03  0.17120000000E+03 0.  0.
        998    1    1    2    0    0  0.73668159040E+01  0.31223002087E+01  0.14412926140E+04  0.14413495128E+04  0.10000000000E+02 0.  1.
</event>
<event>
 5    1  0.1252319E-008  0.3786992E+03  0.7957747E-01  0.3456842E+00
         13   -1    0    0    0    0  0.00000000000E+00  0.00000000000E+00  0.14999999963E+04  0.15000000000E+04  0.10566000000E+00 0.  1.
        994   -1    0    0    0    0 -0.00000000000E+00 -0.00000000000E+00  0.11368683772E-12  0.17120000000E+03  0.17120000000E+03 0.  0.
         13    1    1    2    0    0 -0.12700792742E+02  0.33194340912E+00  0.15049045333E+02  0.19695310411E+02  0.10566000000E+00 0.  1.
        994    1    1    2    0    0  0.14139269690E+01  0.11563026453E+02  0.52469753784E+01  0.17167607149E+03  0.17120000000E+03 0.  0.
        998    1    1    2    0    0  0.11286865773E+02 -0.11894969862E+02  0.14797039756E+04  0.14798286181E+04  0.10000000000E+02 0.  1.
</event>
<event>
 5    1  0.1252319E-008  0.3813145E+03  0.7957747E-01  0.3445455E+00
         13   -1    0    0    0    0  0.00000000000E+00  0.00000000000E+00  0.14999999963E+04  0.15000000000E+04  0.10566000000E+00 0.  1.
        994   -1    0    0    0    0 -0.00000000000E+00 -0.00000000000E+00  0.11368683772E-12  0.17120000000E+03  0.17120000000E+03 0.  0.
         13    1    1    2    0    0 -0.20545875177E+01  0.11067618848E+02  0.16563322087E+02  0.20026690176E+02  0.10566000000E+00 0.  1.
        994    1    1    2    0    0  0.21747592588E+00 -0.13794155740E+02  0.41048196348E+01  0.17180400337E+03  0.17120000000E+03 0.  0.
        998    1    1    2    0    0  0.18371115919E+01  0.27265368922E+01  0.14793318546E+04  0.14793693065E+04  0.10000000000E+02 0.  1.
</event>
<event>
 5    1  0.1252319E-008  0.3764386E+03  0.7957747E-01  0.3466814E+00
         13   -1    0    0    0    0  0.00000000000E+00  0.00000000000E+00  0.14999999963E+04  0.15000000000E+04  0.10566000000E+00 0. -1.
        994   -1    0    0    0    0 -0.00000000000E+00 -0.00000000000E+00  0.11368683772E-12  0.17120000000E+03  0.17120000000E+03 0.  0.
         13    1    1    2    0    0 -0.10160043816E+02  0.18546560167E+02  0.90822712991E+01  0.23015216714E+02  0.10566000000E+00 0. -1.
        994    1    1    2    0    0 -0.81514231882E+01 -0.29216102362E+02  0.17682381720E+02  0.17476307665E+03  0.17120000000E+03 0.  0.
        998    1    1    2    0    0  0.18311467004E+02  0.10669542195E+02  0.14732353433E+04  0.14734217066E+04  0.10000000000E+02 0. -1.
</event>
<event>
 5    1  0.1252319E-008  0.3843913E+03  0.7957747E-01  0.3432258E+00
         13   -1    0    0    0    0  0.00000000000E+00  0.00000000000E+00  0.14999999963E+04  0.15000000000E+04  0.10566000000E+00 0.  1.
        994   -1    0    0    0    0 -0.00000000000E+00 -0.00000000000E+00  0.11368683772E-12  0.17120000000E+03  0.17120000000E+03 0.  0.
         13    1    1    2    0    0 -0.16961394285E+02  0.40149968222E+01  0.81403744710E+02  0.83248963431E+02  0.10566000000E+00 0.  1.
        994    1    1    2    0    0  0.66134342662E+01  0.43068510648E+01  0.21379044708E+01  0.17139514904E+03  0.17120000000E+03 0.  0.
        998    1    1    2    0    0  0.10347960018E+02 -0.83218478870E+01  0.14164583471E+04  0.14165558875E+04  0.10000000000E+02 0.  1.
</event>
<event>
 5    1  0.1252319E-008  0.3844807E+03  0.7957747E-01  0.3431878E+00
         13   -1    0    0    0    0  0.00000000000E+00  0.00000000000E+00  0.14999999963E+04  0.15000000000E+04  0.10566000000E+00 0. -1.
        994   -1    0    0    0    0 -0.00000000000E+00 -0.00000000000E+00  0.11368683772E-12  0.17120000000E+03  0.17120000000E+03 0.  0.
         13    1    1    2    0    0 -0.39778549679E+01 -0.11282146318E+02  0.35348087823E+02  0.37317671853E+02  0.10566000000E+00 0. -1.
        994    1    1    2    0    0  0.48007807611E+01  0.21241484416E+02  0.34520028964E+01  0.17261403327E+03  0.17120000000E+03 0.  0.
        998    1    1    2    0    0 -0.82292579320E+00 -0.99593380982E+01  0.14611999056E+04  0.14612682949E+04  0.10000000000E+02 0. -1.
</event>
<event>
 5    1  0.1252319E-008  0.3835813E+03  0.7957747E-01  0.3435711E+00
         13   -1    0    0    0    0  0.00000000000E+00  0.00000000000E+00  0.14999999963E+04  0.15000000000E+04  0.10566000000E+00 0.  1.
        994   -1    0    0    0    0 -0.00000000000E+00 -0.00000000000E+00  0.11368683772E-12  0.17120000000E+03  0.17120000000E+03 0.  0.
         13    1    1    2    0    0  0.24895306472E+02  0.33318397357E+01  0.12113543602E+03  0.12371209506E+03  0.10566000000E+00 0.  1.
        994    1    1    2    0    0 -0.28861211725E+02 -0.91829702718E+01  0.53726203653E+01  0.17394137384E+03  0.17120000000E+03 0.  0.
        998    1    1    2    0    0  0.39659052526E+01  0.58511305361E+01  0.13734919399E+04  0.13735465311E+04  0.10000000000E+02 0.  1.
</event>
<event>
 5    1  0.1252319E-008  0.3746387E+03  0.7957747E-01  0.3474840E+00
         13   -1    0    0    0    0  0.00000000000E+00  0.00000000000E+00  0.14999999963E+04  0.15000000000E+04  0.10566000000E+00 0. -1.
        994   -1    0    0    0    0 -0.00000000000E+00 -0.00000000000E+00  0.11368683772E-12  0.17120000000E+03  0.17120000000E+03 0.  0.
         13    1    1    2    0    0  0.69354266180E+02 -0.13166441009E+02  0.17922676874E+03  0.19262817863E+03  0.10566000000E+00 0. -1.
        994    1    1    2    0    0 -0.46875845109E+02  0.83028496019E+00  0.21265572093E+02  0.17877275739E+03  0.17120000000E+03 0.  0.
        998    1    1    2    0    0 -0.22478421071E+02  0.12336156048E+02  0.12995076554E+04  0.12997990640E+04  0.10000000000E+02 0. -1.
</event>
<event>
 5    1  0.1252319E-008  0.3769541E+03  0.7957747E-01  0.3464529E+00
         13   -1    0    0    0    0  0.00000000000E+00  0.00000000000E+00  0.14999999963E+04  0.15000000000E+04  0.10566000000E+00 0. -1.
        994   -1    0    0    0    0 -0.00000000000E+00 -0.00000000000E+00  0.11368683772E-12  0.17120000000E+03  0.17120000000E+03 0.  0.
         13    1    1    2    0    0 -0.15797999478E+01 -0.12603236614E+02  0.11835318893E+02  0.17361545967E+02  0.10566000000E+00 0. -1.
        994    1    1    2    0    0  0.52110104236E+01  0.28253848432E+01  0.57973067348E+01  0.17140065984E+03  0.17120000000E+03 0.  0.
        998    1    1    2    0    0 -0.36312104758E+01  0.97778517705E+01  0.14823673707E+04  0.14824377942E+04  0.10000000000E+02 0. -1.
</event>
<event>
 5    1  0.1252319E-008  0.3850313E+03  0.7957747E-01  0.3429540E+00
         13   -1    0    0    0    0  0.00000000000E+00  0.00000000000E+00  0.14999999963E+04  0.15000000000E+04  0.10566000000E+00 0. -1.
        994   -1    0    0    0    0 -0.00000000000E+00 -0.00000000000E+00  0.11368683772E-12  0.17120000000E+03  0.17120000000E+03 0.  0.
         13    1    1    2    0    0 -0.14762959993E+02  0.42853541296E+01  0.74118508994E+02  0.75695929793E+02  0.10566000000E+00 0. -1.
        994    1    1    2    0    0  0.11523633447E+02  0.92538243732E+01  0.23331927063E+01  0.17185258561E+03  0.17120000000E+03 0.  0.
        998    1    1    2    0    0  0.32393265457E+01 -0.13539178503E+02  0.14235482946E+04  0.14236514846E+04  0.10000000000E+02 0. -1.
</event>
<event>
 5    1  0.1252319E-008  0.3232814E+03  0.7957747E-01  0.3742661E+00
         13   -1    0    0    0    0  0.00000000000E+00  0.00000000000E+00  0.14999999963E+04  0.15000000000E+04  0.10566000000E+00 0. -1.
        994   -1    0    0    0    0 -0.00000000000E+00 -0.00000000000E+00  0.11368683772E-12  0.17120000000E+03  0.17120000000E+03 0.  0.
         13    1    1    2    0    0 -0.12188843110E+03 -0.19439390192E+03  0.88602556661E+03  0.91525247587E+03  0.10566000000E+00 0. -1.
        994    1    1    2    0    0  0.12184956924E+03  0.11130731543E+03  0.14275293103E+03  0.27735261908E+03  0.17120000000E+03 0.  0.
        998    1    1    2    0    0  0.38861859457E-01  0.83086586481E+02  0.47122149863E+03  0.47859490504E+03  0.10000000000E+02 0. -1.
</event>
<event>
 5    1  0.1252319E-008  0.3832577E+03  0.7957747E-01  0.3437095E+00
         13   -1    0    0    0    0  0.00000000000E+00  0.00000000000E+00  0.14999999963E+04  0.15000000000E+04  0.10566000000E+00 0. -1.
        994   -1    0    0    0    0 -0.00000000000E+00 -0.00000000000E+00  0.11368683772E-12  0.17120000000E+03  0.17120000000E+03 0.  0.
         13    1    1    2    0    0 -0.16667499977E+02  0.50630899636E+01  0.58686776657E+02  0.61217557562E+02  0.10566000000E+00 0. -1.
        994    1    1    2    0    0  0.13390741129E+02 -0.11100445251E+02  0.34988207306E+01  0.17211686024E+03  0.17120000000E+03 0.  0.
        998    1    1    2    0    0  0.32767588472E+01  0.60373552870E+01  0.14378143989E+04  0.14378655822E+04  0.10000000000E+02 0. -1.
</event>
<event>
 5    1  0.1252319E-008  0.3752600E+03  0.7957747E-01  0.3472061E+00
         13   -1    0    0    0    0  0.00000000000E+00  0.00000000000E+00  0.14999999963E+04  0.15000000000E+04  0.10566000000E+00 0.  1.
        994   -1    0    0    0    0 -0.00000000000E+00 -0.00000000000E+00  0.11368683772E-12  0.17120000000E+03  0.17120000000E+03 0.  0.
         13    1    1    2    0    0  0.11025849419E+02  0.36714130698E+02  0.10680839754E+03  0.11347925668E+03  0.10566000000E+00 0.  1.
        994    1    1    2    0    0  0.26582929328E+01 -0.32116123959E+02  0.10080377751E+02  0.17449803997E+03  0.17120000000E+03 0.  0.
        998    1    1    2    0    0 -0.13684142352E+02 -0.45980067396E+01  0.13831112210E+04  0.13832227033E+04  0.10000000000E+02 0.  1.
</event>
<event>
 5    1  0.1252319E-008  0.3833687E+03  0.7957747E-01  0.3436620E+00
         13   -1    0    0    0    0  0.00000000000E+00  0.00000000000E+00  0.14999999963E+04  0.15000000000E+04  0.10566000000E+00 0.  1.
        994   -1    0    0    0    0 -0.00000000000E+00 -0.00000000000E+00  0.11368683772E-12  0.17120000000E+03  0.17120000000E+03 0.  0.
         13    1    1    2    0    0 -0.33634630500E+02 -0.15376884627E+03  0.91319698837E+03  0.92666331383E+03  0.10566000000E+00 0.  1.
        994    1    1    2    0    0  0.52964892483E+02  0.17252428912E+03  0.11882689012E+03  0.27567948779E+03  0.17120000000E+03 0.  0.
        998    1    1    2    0    0 -0.19330261983E+02 -0.18755442846E+02  0.46797611778E+03  0.46885719839E+03  0.10000000000E+02 0.  1.
</event>
<event>
 5    1  0.1252319E-008  0.3850024E+03  0.7957747E-01  0.3429662E+00
         13   -1    0    0    0    0  0.00000000000E+00  0.00000000000E+00  0.14999999963E+04  0.15000000000E+04  0.10566000000E+00 0.  1.
        994   -1    0    0    0    0 -0.00000000000E+00 -0.00000000000E+00  0.11368683772E-12  0.17120000000E+03  0.17120000000E+03 0.  0.
         13    1    1    2    0    0 -0.98283086229E+01  0.34728270596E+01  0.33463601949E+02  0.35049678995E+02  0.10566000000E+00 0.  1.
        994    1    1    2    0    0  0.49538098331E+01 -0.12501080388E+01  0.17148058269E+01  0.17128480248E+03  0.17120000000E+03 0.  0.
        998    1    1    2    0    0  0.48744987898E+01 -0.22227190208E+01  0.14648215885E+04  0.14648655185E+04  0.10000000000E+02 0.  1.
</event>
<event>
 5    1  0.1252319E-008  0.3783558E+03  0.7957747E-01  0.3458349E+00
         13   -1    0    0    0    0  0.00000000000E+00  0.00000000000E+00  0.14999999963E+04  0.15000000000E+04  0.10566000000E+00 0.  1.
        994   -1    0    0    0    0 -0.00000000000E+00 -0.00000000000E+00  0.11368683772E-12  0.17120000000E+03  0.17120000000E+03 0.  0.
         13    1    1    2    0    0 -0.11460030613E+01  0.11909252186E+02  0.12173148334E+02  0.17068694005E+02  0.10566000000E+00 0.  1.
        994    1    1    2    0    0  0.11180418871E+01 -0.10266009153E+02  0.53239597704E+01  0.17159378051E+03  0.17120000000E+03 0.  0.
        998    1    1    2    0    0  0.27961174198E-01 -0.16432430334E+01  0.14825028882E+04  0.14825375255E+04  0.10000000000E+02 0.  1.
</event>
<event>
 5    1  0.1252319E-008  0.3799685E+03  0.7957747E-01  0.3451296E+00
         13   -1    0    0    0    0  0.00000000000E+00  0.00000000000E+00  0.14999999963E+04  0.15000000000E+04  0.10566000000E+00 0. -1.
        994   -1    0    0    0    0 -0.00000000000E+00 -0.00000000000E+00  0.11368683772E-12  0.17120000000E+03  0.17120000000E+03 0.  0.
         13    1    1    2    0    0 -0.87019027046E+01  0.91132485342E+01  0.17118309292E+02  0.21256107042E+02  0.10566000000E+00 0. -1.
        994    1    1    2    0    0  0.12446716487E+02 -0.84795439214E+01  0.49077379221E+01  0.17193123424E+03  0.17120000000E+03 0.  0.
        998    1    1    2    0    0 -0.37448137824E+01 -0.63370461274E+00  0.14779739491E+04  0.14780126587E+04  0.10000000000E+02 0. -1.
</event>
<event>
 5    1  0.1252319E-008  0.3848407E+03  0.7957747E-01  0.3430348E+00
         13   -1    0    0    0    0  0.00000000000E+00  0.00000000000E+00  0.14999999963E+04  0.15000000000E+04  0.10566000000E+00 0.  1.
        994   -1    0    0    0    0 -0.00000000000E+00 -0.00000000000E+00  0.11368683772E-12  0.17120000000E+03  0.17120000000E+03 0.  0.
         13    1    1    2    0    0  0.19384965525E+02 -0.84466575921E+01  0.11209608944E+03  0.11407307896E+03  0.10566000000E+00 0.  1.
        994    1    1    2    0    0 -0.28524296734E+02  0.16353733111E+02  0.52745065018E+01  0.17440854483E+03  0.17120000000E+03 0.  0.
        998    1    1    2    0    0  0.91393312086E+01 -0.79070755191E+01  0.13826294003E+04  0.13827183762E+04  0.10000000000E+02 0.  1.
</event>
<event>
 5    1  0.1252319E-008  0.3755666E+03  0.7957747E-01  0.3470693E+00
         13   -1    0    0    0    0  0.00000000000E+00  0.00000000000E+00  0.14999999963E+04  0.15000000000E+04  0.10566000000E+00 0.  1.
        994   -1    0    0    0    0 -0.00000000000E+00 -0.00000000000E+00  0.11368683772E-12  0.17120000000E+03  0.17120000000E+03 0.  0.
         13    1    1    2    0    0 -0.27230240631E+02  0.26253573463E+02  0.13095103171E+03  0.13630451201E+03  0.10566000000E+00 0.  1.
        994    1    1    2    0    0 -0.10084504603E+02  0.77387455563E+01  0.69364504631E+01  0.17181134934E+03  0.17120000000E+03 0.  0.
        998    1    1    2    0    0  0.37314745234E+02 -0.33992319020E+02  0.13621125141E+04  0.13630841387E+04  0.10000000000E+02 0.  1.
</event>
<event>
 5    1  0.1252319E-008  0.3806499E+03  0.7957747E-01  0.3448333E+00
         13   -1    0    0    0    0  0.00000000000E+00  0.00000000000E+00  0.14999999963E+04  0.15000000000E+04  0.10566000000E+00 0.  1.
        994   -1    0    0    0    0 -0.00000000000E+00 -0.00000000000E+00  0.11368683772E-12  0.17120000000E+03  0.17120000000E+03 0.  0.
         13    1    1    2    0    0 -0.19524617400E+02  0.16961676506E+02  0.92171431616E+02  0.95731359150E+02  0.10566000000E+00 0.  1.
        994    1    1    2    0    0  0.50280935925E+01 -0.85960950684E-01  0.38897972574E+01  0.17131800733E+03  0.17120000000E+03 0.  0.
        998    1    1    2    0    0  0.14496523807E+02 -0.16875715555E+02  0.14039387674E+04  0.14041506335E+04  0.10000000000E+02 0.  1.
</event>
<event>
 5    1  0.1252319E-008  0.3694990E+03  0.7957747E-01  0.3498196E+00
         13   -1    0    0    0    0  0.00000000000E+00  0.00000000000E+00  0.14999999963E+04  0.15000000000E+04  0.10566000000E+00 0. -1.
        994   -1    0    0    0    0 -0.00000000000E+00 -0.00000000000E+00  0.11368683772E-12  0.17120000000E+03  0.17120000000E+03 0.  0.
         13    1    1    2    0    0  0.16541545825E+02  0.27086609881E+01  0.10425006467E+02  0.19739592359E+02  0.10566000000E+00 0. -1.
        994    1    1    2    0    0 -0.13537617280E+02 -0.11260811095E+02  0.10605852574E+02  0.17242968728E+03  0.17120000000E+03 0.  0.
        998    1    1    2    0    0 -0.30039285451E+01  0.85521501069E+01  0.14789691372E+04  0.14790307204E+04  0.10000000000E+02 0. -1.
</event>
<event>
 5    1  0.1252319E-008  0.3821564E+03  0.7957747E-01  0.3441822E+00
         13   -1    0    0    0    0  0.00000000000E+00  0.00000000000E+00  0.14999999963E+04  0.15000000000E+04  0.10566000000E+00 0.  1.
        994   -1    0    0    0    0 -0.00000000000E+00 -0.00000000000E+00  0.11368683772E-12  0.17120000000E+03  0.17120000000E+03 0.  0.
         13    1    1    2    0    0 -0.30810886155E+02 -0.71412685431E+01  0.17534199350E+03  0.17817164273E+03  0.10566000000E+00 0.  1.
        994    1    1    2    0    0  0.16095792483E+02 -0.22424024750E+02  0.55816218511E+01  0.17350073753E+03  0.17120000000E+03 0.  0.
        998    1    1    2    0    0  0.14715093671E+02  0.29565293293E+02  0.13190763809E+04  0.13195276197E+04  0.10000000000E+02 0.  1.
</event>
<event>
 5    1  0.1252319E-008  0.3743621E+03  0.7957747E-01  0.3476080E+00
         13   -1    0    0    0    0  0.00000000000E+00  0.00000000000E+00  0.14999999963E+04  0.15000000000E+04  0.10566000000E+00 0.  1.
        994   -1    0    0    0    0 -0.00000000000E+00 -0.00000000000E+00  0.11368683772E-12  0.17120000000E+03  0.17120000000E+03 0.  0.
         13    1    1    2    0    0 -0.49959911166E+02 -0.39881355332E+02  0.15806160292E+03  0.17049925721E+03  0.10566000000E+00 0.  1.
        994    1    1    2    0    0  0.50277141652E+02 -0.19629781803E+02  0.23679734287E+02  0.18106156169E+03  0.17120000000E+03 0.  0.
        998    1    1    2    0    0 -0.31723048655E+00  0.59511137136E+02  0.13182586591E+04  0.13196391811E+04  0.10000000000E+02 0. -1.
</event>
<event>
 5    1  0.1252319E-008  0.3848318E+03  0.7957747E-01  0.3430386E+00
         13   -1    0    0    0    0  0.00000000000E+00  0.00000000000E+00  0.14999999963E+04  0.15000000000E+04  0.10566000000E+00 0.  1.
        994   -1    0    0    0    0 -0.00000000000E+00 -0.00000000000E+00  0.11368683772E-12  0.17120000000E+03  0.17120000000E+03 0.  0.
         13    1    1    2    0    0 -0.28047789444E+01 -0.16376179759E+02  0.79622189827E+02  0.81337262834E+02  0.10566000000E+00 0.  1.
        994    1    1    2    0    0  0.38112813366E+00  0.12488052249E+02  0.22274630111E+01  0.17166973612E+03  0.17120000000E+03 0.  0.
        998    1    1    2    0    0  0.24236508107E+01  0.38881275105E+01  0.14181503434E+04  0.14181930010E+04  0.10000000000E+02 0.  1.
</event>
<event>
 5    1  0.1252319E-008  0.3856599E+03  0.7957747E-01  0.3426878E+00
         13   -1    0    0    0    0  0.00000000000E+00  0.00000000000E+00  0.14999999963E+04  0.15000000000E+04  0.10566000000E+00 0. -1.
        994   -1    0    0    0    0 -0.00000000000E+00 -0.00000000000E+00  0.11368683772E-12  0.17120000000E+03  0.17120000000E+03 0.  0.
         13    1    1    2    0    0 -0.10652736597E+02  0.73575246176E+01  0.56103432230E+02  0.57577949230E+02  0.10566000000E+00 0. -1.
        994    1    1    2    0    0  0.12354152388E+02 -0.38097371161E+02  0.65845113082E+01  0.17594553294E+03  0.17120000000E+03 0.  0.
        998    1    1    2    0    0 -0.17014157906E+01  0.30739846544E+02  0.14373120527E+04  0.14376765178E+04  0.10000000000E+02 0. -1.
</event>
<event>
 5    1  0.1252319E-008  0.3798306E+03  0.7957747E-01  0.3451896E+00
         13   -1    0    0    0    0  0.00000000000E+00  0.00000000000E+00  0.14999999963E+04  0.15000000000E+04  0.10566000000E+00 0. -1.
        994   -1    0    0    0    0 -0.00000000000E+00 -0.00000000000E+00  0.11368683772E-12  0.17120000000E+03  0.17120000000E+03 0.  0.
         13    1    1    2    0    0 -0.99979099056E+01  0.28545832309E+02  0.12568943848E+03  0.12927748781E+03  0.10566000000E+00 0. -1.
        994    1    1    2    0    0 -0.14314794421E+02  0.47338313533E+01  0.49793940343E+01  0.17193474595E+03  0.17120000000E+03 0.  0.
        998    1    1    2    0    0  0.24312704327E+02 -0.33279663662E+02  0.13693311638E+04  0.13699877662E+04  0.10000000000E+02 0. -1.
</event>
<event>
 5    1  0.1252319E-008  0.3800906E+03  0.7957747E-01  0.3450764E+00
         13   -1    0    0    0    0  0.00000000000E+00  0.00000000000E+00  0.14999999963E+04  0.15000000000E+04  0.10566000000E+00 0. -1.
        994   -1    0    0    0    0 -0.00000000000E+00 -0.00000000000E+00  0.11368683772E-12  0.17120000000E+03  0.17120000000E+03 0.  0.
         13    1    1    2    0    0  0.34389905717E+01  0.24339670204E+02  0.74777400160E+02  0.78714147016E+02  0.10566000000E+00 0. -1.
        994    1    1    2    0    0  0.26265715562E+01 -0.89378690382E+01  0.43774962534E+01  0.17150914510E+03  0.17120000000E+03 0.  0.
        998    1    1    2    0    0 -0.60655621279E+01 -0.15401801166E+02  0.14208450999E+04  0.14209767079E+04  0.10000000000E+02 0. -1.
</event>
<event>
 5    1  0.1252319E-008  0.3811133E+03  0.7957747E-01  0.3446325E+00
         13   -1    0    0    0    0  0.00000000000E+00  0.00000000000E+00  0.14999999963E+04  0.15000000000E+04  0.10566000000E+00 0. -1.
        994   -1    0    0    0    0 -0.00000000000E+00 -0.00000000000E+00  0.11368683772E-12  0.17120000000E+03  0.17120000000E+03 0.  0.
         13    1    1    2    0    0 -0.45092544301E+01 -0.21136063718E+02  0.63751917492E+02  0.67315560704E+02  0.10566000000E+00 0. -1.
        994    1    1    2    0    0  0.51052736859E+00  0.15374762717E+02  0.43607819570E+01  0.17194505048E+03  0.17120000000E+03 0.  0.
        998    1    1    2    0    0  0.39987270615E+01  0.57613010008E+01  0.14318872968E+04  0.14319393888E+04  0.10000000000E+02 0. -1.
</event>
<event>
 5    1  0.1252319E-008  0.3771298E+03  0.7957747E-01  0.3463752E+00
         13   -1    0    0    0    0  0.00000000000E+00  0.00000000000E+00  0.14999999963E+04  0.15000000000E+04  0.10566000000E+00 0.  1.
        994   -1    0    0    0    0 -0.00000000000E+00 -0.00000000000E+00  0.11368683772E-12  0.17120000000E+03  0.17120000000E+03 0.  0.
         13    1    1    2    0    0  0.69296352430E+02  0.27714701127E+02  0.26285359837E+03  0.27324369061E+03  0.10566000000E+00 0.  1.
        994    1    1    2    0    0 -0.13420400806E+03 -0.25503167532E+02  0.71409701904E+02  0.23036907965E+03  0.17120000000E+03 0.  0.
        998    1    1    2    0    0  0.64907655626E+02 -0.22115335945E+01  0.11657366960E+04  0.11675872297E+04  0.10000000000E+02 0.  1.
</event>
<event>
 5    1  0.1252319E-008  0.3850524E+03  0.7957747E-01  0.3429450E+00
         13   -1    0    0    0    0  0.00000000000E+00  0.00000000000E+00  0.14999999963E+04  0.15000000000E+04  0.10566000000E+00 0. -1.
        994   -1    0    0    0    0 -0.00000000000E+00 -0.00000000000E+00  0.11368683772E-12  0.17120000000E+03  0.17120000000E+03 0.  0.
         13    1    1    2    0    0 -0.12641701411E+02  0.76918726840E+01  0.64804278495E+02  0.66472424322E+02  0.10566000000E+00 0. -1.
        994    1    1    2    0    0  0.15149860245E+02 -0.98914403103E+01  0.26812245484E+01  0.17217429489E+03  0.17120000000E+03 0.  0.
        998    1    1    2    0    0 -0.25081588335E+01  0.21995676263E+01  0.14325144932E+04  0.14325532808E+04  0.10000000000E+02 0. -1.
</event>
<event>
 5    1  0.1572460E-008  0.3855325E+03  0.7957747E-01  0.3427417E+00
         13   -1    0    0    0    0  0.00000000000E+00  0.00000000000E+00  0.14999999963E+04  0.15000000000E+04  0.10566000000E+00 0.  1.
        994   -1    0    0    0    0 -0.00000000000E+00 -0.00000000000E+00  0.11368683772E-12  0.17120000000E+03  0.17120000000E+03 0.  0.
         13    1    1    2    0    0  0.97429053481E+01  0.42413543577E+01  0.41307385469E+02  0.42652368630E+02  0.10566000000E+00 0.  1.
        994    1    1    2    0    0 -0.75394473349E+01 -0.25803169426E+01  0.15744973383E+01  0.17139259127E+03  0.17120000000E+03 0.  0.
        998    1    1    2    0    0 -0.22034580132E+01 -0.16610374151E+01  0.14571181135E+04  0.14571550401E+04  0.10000000000E+02 0.  1.
</event>
<event>
 5    1  0.1252319E-008  0.3783566E+03  0.7957747E-01  0.3458345E+00
         13   -1    0    0    0    0  0.00000000000E+00  0.00000000000E+00  0.14999999963E+04  0.15000000000E+04  0.10566000000E+00 0. -1.
        994   -1    0    0    0    0 -0.00000000000E+00 -0.00000000000E+00  0.11368683772E-12  0.17120000000E+03  0.17120000000E+03 0.  0.
         13    1    1    2    0    0 -0.19658673625E+02 -0.36409360183E+02  0.19383613652E+03  0.19820333989E+03  0.10566000000E+00 0. -1.
        994    1    1    2    0    0 -0.25398329565E+01  0.75539800392E+01  0.51785148789E+01  0.17146361241E+03  0.17120000000E+03 0.  0.
        998    1    1    2    0    0  0.22198506582E+02  0.28855380143E+02  0.13009853449E+04  0.13015330477E+04  0.10000000000E+02 0. -1.
</event>
